<event>
 6    1  0.9512547E-007  0.2188864E+04  0.7818608E-02  0.8523077E-01
         -2   -1    0    0    0  501 -0.00000000000E+00  0.00000000000E+00  0.16525036533E+04  0.16525036533E+04  0.00000000000E+00 0.  1.
          2   -1    0    0  501    0  0.00000000000E+00 -0.00000000000E+00 -0.72482836111E+03  0.72482836111E+03  0.00000000000E+00 0. -1.
         23    2    1    2    0    0 -0.78013559247E+02  0.10344264367E+04  0.91937751904E+02  0.10451978603E+04  0.88667066543E+02 0.  0.
         13    1    3    3    0    0  0.98478565008E+01  0.23743202279E+03  0.46096608157E+02  0.24206578240E+03  0.00000000000E+00 0. -1.
        -13    1    3    3    0    0 -0.87861415748E+02  0.79699441387E+03  0.45841143747E+02  0.80313207792E+03  0.00000000000E+00 0.  1.
         22    1    1    2    0    0  0.78013559247E+02 -0.10344264367E+04  0.83573754030E+03  0.13321341541E+04  0.00000000000E+00 0.  1.
<mgrwt>
<rscale>  0 0.21888641E+04</rscale>
<asrwt>0</asrwt>
<pdfrwt beam="1">  1        2 0.11151206E+00 0.21888641E+04</pdfrwt>
<pdfrwt beam="2">  1       -2 0.25423133E+00 0.21888641E+04</pdfrwt>
<totfact> 0.21697800E+00</totfact>
</mgrwt>
</event>
<event>
 6    1  0.9512547E-007  0.2260550E+04  0.7818608E-02  0.8493640E-01
         -2   -1    0    0    0  501 -0.00000000000E+00  0.00000000000E+00  0.11243979322E+04  0.11243979322E+04  0.00000000000E+00 0.  1.
          2   -1    0    0  501    0  0.00000000000E+00 -0.00000000000E+00 -0.11361824336E+04  0.11361824336E+04  0.00000000000E+00 0. -1.
         23    2    1    2    0    0  0.12327863326E+02  0.11034985370E+04 -0.24315097298E+03  0.11330204154E+04  0.82169754290E+02 0.  0.
         13    1    3    3    0    0 -0.19400042708E+02  0.66020414138E+03 -0.11444731050E+03  0.67033130378E+03  0.00000000000E+00 0.  1.
        -13    1    3    3    0    0  0.31727906034E+02  0.44329439567E+03 -0.12870366247E+03  0.46268911159E+03  0.00000000000E+00 0. -1.
         22    1    1    2    0    0 -0.12327863326E+02 -0.11034985370E+04  0.23136647158E+03  0.11275599504E+04  0.00000000000E+00 0. -1.
<mgrwt>
<rscale>  0 0.22605496E+04</rscale>
<asrwt>0</asrwt>
<pdfrwt beam="1">  1        2 0.17479730E+00 0.22605496E+04</pdfrwt>
<pdfrwt beam="2">  1       -2 0.17298430E+00 0.22605496E+04</pdfrwt>
<totfact> 0.38218770E+00</totfact>
</mgrwt>
</event>
<event>
 6    1  0.9512547E-007  0.3326824E+04  0.7818608E-02  0.8156103E-01
          2   -1    0    0  501    0  0.00000000000E+00  0.00000000000E+00  0.11658233754E+04  0.11658233754E+04  0.00000000000E+00 0. -1.
         -2   -1    0    0    0  501 -0.00000000000E+00 -0.00000000000E+00 -0.23733784697E+04  0.23733784697E+04  0.00000000000E+00 0.  1.
         23    2    1    2    0    0  0.10238636941E+04  0.88742895332E+03  0.42005962000E+03  0.14214302169E+04  0.90480748278E+02 0.  0.
         11    1    3    3    0    0  0.60238293060E+03  0.56558555545E+03  0.28663804681E+03  0.87459338295E+03  0.00000000000E+00 0. -1.
        -11    1    3    3    0    0  0.42148076348E+03  0.32184339787E+03  0.13342157319E+03  0.54683683391E+03  0.00000000000E+00 0.  1.
         22    1    1    2    0    0 -0.10238636941E+04 -0.88742895332E+03 -0.16276147143E+04  0.21177716283E+04  0.00000000000E+00 0.  1.
<mgrwt>
<rscale>  0 0.33268244E+04</rscale>
<asrwt>0</asrwt>
<pdfrwt beam="1">  1        2 0.17935744E+00 0.33268244E+04</pdfrwt>
<pdfrwt beam="2">  1       -2 0.36513515E+00 0.33268244E+04</pdfrwt>
<totfact> 0.20629674E-01</totfact>
</mgrwt>
</event>
<event>
 6    1  0.9512547E-007  0.1979259E+04  0.7818608E-02  0.8616379E-01
         -1   -1    0    0    0  501 -0.00000000000E+00  0.00000000000E+00  0.64158308714E+03  0.64158308714E+03  0.00000000000E+00 0.  1.
          1   -1    0    0  501    0  0.00000000000E+00 -0.00000000000E+00 -0.15264851031E+04  0.15264851031E+04  0.00000000000E+00 0. -1.
         23    2    1    2    0    0  0.83013241400E+02  0.14725581977E+03 -0.15091173496E+04  0.15213686793E+04  0.92477070953E+02 0.  0.
         13    1    3    3    0    0  0.12954006239E+01  0.93323800146E+02 -0.82961726048E+03  0.83485077027E+03  0.00000000000E+00 0.  1.
        -13    1    3    3    0    0  0.81717840776E+02  0.53932019620E+02 -0.67950008915E+03  0.68651790901E+03  0.00000000000E+00 0. -1.
         22    1    1    2    0    0 -0.83013241400E+02 -0.14725581977E+03  0.62421533367E+03  0.64669951097E+03  0.00000000000E+00 0.  1.
<mgrwt>
<rscale>  0 0.19792595E+04</rscale>
<asrwt>0</asrwt>
<pdfrwt beam="1">  1        1 0.23484386E+00 0.19792595E+04</pdfrwt>
<pdfrwt beam="2">  1       -1 0.98705091E-01 0.19792595E+04</pdfrwt>
<totfact> 0.57220341E+00</totfact>
</mgrwt>
</event>
<event>
 6    1  0.9512547E-007  0.4360545E+04  0.7818608E-02  0.7935517E-01
         -1   -1    0    0    0  501 -0.00000000000E+00  0.00000000000E+00  0.21137764884E+04  0.21137764884E+04  0.00000000000E+00 0.  1.
          1   -1    0    0  501    0  0.00000000000E+00 -0.00000000000E+00 -0.22488601566E+04  0.22488601566E+04  0.00000000000E+00 0. -1.
         23    2    1    2    0    0 -0.95770129600E+02 -0.13017728502E+04  0.16784603832E+04  0.21281956639E+04  0.90570715979E+02 0.  0.
         13    1    3    3    0    0 -0.50445504598E+02 -0.67251612109E+03  0.79347582268E+03  0.10413580380E+04  0.00000000000E+00 0. -1.
        -13    1    3    3    0    0 -0.45324625002E+02 -0.62925672908E+03  0.88498456057E+03  0.10868376259E+04  0.00000000000E+00 0.  1.
         22    1    1    2    0    0  0.95770129600E+02  0.13017728502E+04 -0.18135440514E+04  0.22344409810E+04  0.00000000000E+00 0. -1.
<mgrwt>
<rscale>  0 0.43605448E+04</rscale>
<asrwt>0</asrwt>
<pdfrwt beam="1">  1        1 0.34597848E+00 0.43605448E+04</pdfrwt>
<pdfrwt beam="2">  1       -1 0.32519639E+00 0.43605448E+04</pdfrwt>
<totfact> 0.34701600E-02</totfact>
</mgrwt>
</event>
<event>
 6    1  0.9512547E-007  0.8175566E+03  0.7818608E-02  0.9534947E-01
         -2   -1    0    0    0  501 -0.00000000000E+00  0.00000000000E+00  0.46462331401E+03  0.46462331401E+03  0.00000000000E+00 0.  1.
          2   -1    0    0  501    0  0.00000000000E+00 -0.00000000000E+00 -0.35964554934E+03  0.35964554934E+03  0.00000000000E+00 0. -1.
         23    2    1    2    0    0  0.33253587116E+03 -0.18335827279E+02 -0.17750559206E+03  0.38756169030E+03  0.88201589584E+02 0.  0.
         11    1    3    3    0    0  0.41140437362E+02 -0.28037250215E+02 -0.45758368132E+02  0.67619902692E+02  0.00000000000E+00 0. -1.
        -11    1    3    3    0    0  0.29139543379E+03  0.97014229358E+01 -0.13174722393E+03  0.31994178761E+03  0.00000000000E+00 0.  1.
         22    1    1    2    0    0 -0.33253587116E+03  0.18335827279E+02  0.28248335673E+03  0.43670717306E+03  0.00000000000E+00 0.  1.
<mgrwt>
<rscale>  0 0.81755662E+03</rscale>
<asrwt>0</asrwt>
<pdfrwt beam="1">  1        2 0.55330084E-01 0.81755662E+03</pdfrwt>
<pdfrwt beam="2">  1       -2 0.71480510E-01 0.81755662E+03</pdfrwt>
<totfact> 0.16029552E+02</totfact>
</mgrwt>
</event>
<event>
 6    1  0.9512547E-007  0.2872716E+04  0.7818608E-02  0.8281042E-01
         -1   -1    0    0    0  501 -0.00000000000E+00  0.00000000000E+00  0.11780056318E+04  0.11780056318E+04  0.00000000000E+00 0.  1.
          1   -1    0    0  501    0  0.00000000000E+00 -0.00000000000E+00 -0.17513698849E+04  0.17513698849E+04  0.00000000000E+00 0. -1.
         23    2    1    2    0    0  0.10043462711E+04  0.10074647900E+04 -0.95156363577E+02  0.14285825526E+04  0.89981335146E+02 0.  0.
         13    1    3    3    0    0  0.44696597286E+03  0.38613706276E+03 -0.33492184322E+02  0.59160978571E+03  0.00000000000E+00 0. -1.
        -13    1    3    3    0    0  0.55738029823E+03  0.62132772724E+03 -0.61664179255E+02  0.83697276688E+03  0.00000000000E+00 0.  1.
         22    1    1    2    0    0 -0.10043462711E+04 -0.10074647900E+04 -0.47820788954E+03  0.15007929641E+04  0.00000000000E+00 0. -1.
<mgrwt>
<rscale>  0 0.28727155E+04</rscale>
<asrwt>0</asrwt>
<pdfrwt beam="1">  1        1 0.26944152E+00 0.28727155E+04</pdfrwt>
<pdfrwt beam="2">  1       -1 0.18123164E+00 0.28727155E+04</pdfrwt>
<totfact> 0.77138345E-01</totfact>
</mgrwt>
</event>
<event>
 6    1  0.9512547E-007  0.1069446E+04  0.7818608E-02  0.9235495E-01
         -2   -1    0    0    0  501 -0.00000000000E+00  0.00000000000E+00  0.30681460751E+03  0.30681460751E+03  0.00000000000E+00 0.  1.
          2   -1    0    0  501    0  0.00000000000E+00 -0.00000000000E+00 -0.93192590360E+03  0.93192590360E+03  0.00000000000E+00 0. -1.
         23    2    1    2    0    0 -0.75606265265E+02  0.42634025968E+03 -0.67047262958E+03  0.80337862147E+03  0.91658813296E+02 0.  0.
         13    1    3    3    0    0 -0.60588017394E+02  0.22054094921E+03 -0.42557040991E+03  0.48313496243E+03  0.00000000000E+00 0. -1.
        -13    1    3    3    0    0 -0.15018247871E+02  0.20579931047E+03 -0.24490221967E+03  0.32024365905E+03  0.00000000000E+00 0.  1.
         22    1    1    2    0    0  0.75606265265E+02 -0.42634025968E+03  0.45361333493E+02  0.43536188964E+03  0.00000000000E+00 0.  1.
<mgrwt>
<rscale>  0 0.10694456E+04</rscale>
<asrwt>0</asrwt>
<pdfrwt beam="1">  1        2 0.14337322E+00 0.10694456E+04</pdfrwt>
<pdfrwt beam="2">  1       -2 0.47202247E-01 0.10694456E+04</pdfrwt>
<totfact> 0.11805069E+02</totfact>
</mgrwt>
</event>
<event>
 6    1  0.9512547E-007  0.2655682E+04  0.7818608E-02  0.8349529E-01
          2   -1    0    0  501    0  0.00000000000E+00  0.00000000000E+00  0.87486336893E+03  0.87486336893E+03  0.00000000000E+00 0. -1.
         -2   -1    0    0    0  501 -0.00000000000E+00 -0.00000000000E+00 -0.20153569535E+04  0.20153569535E+04  0.00000000000E+00 0.  1.
         23    2    1    2    0    0  0.57138828510E+03 -0.57803977362E+03  0.56934640443E+03  0.99703059601E+03  0.96437175993E+02 0.  0.
         11    1    3    3    0    0  0.30658097212E+03 -0.31382627458E+03  0.24853358304E+03  0.50422987316E+03  0.00000000000E+00 0. -1.
        -11    1    3    3    0    0  0.26480731298E+03 -0.26421349904E+03  0.32081282138E+03  0.49280072285E+03  0.00000000000E+00 0.  1.
         22    1    1    2    0    0 -0.57138828510E+03  0.57803977362E+03 -0.17098399890E+04  0.18931897264E+04  0.00000000000E+00 0.  1.
<mgrwt>
<rscale>  0 0.26556822E+04</rscale>
<asrwt>0</asrwt>
<pdfrwt beam="1">  1        2 0.13459437E+00 0.26556822E+04</pdfrwt>
<pdfrwt beam="2">  1       -2 0.31005491E+00 0.26556822E+04</pdfrwt>
<totfact> 0.74065382E-01</totfact>
</mgrwt>
</event>
<event>
 6    1  0.9512547E-007  0.4796268E+03  0.7818608E-02  0.1019238E+00
          1   -1    0    0  501    0  0.00000000000E+00  0.00000000000E+00  0.99949326575E+03  0.99949326575E+03  0.00000000000E+00 0. -1.
         -1   -1    0    0    0  501 -0.00000000000E+00 -0.00000000000E+00 -0.57539623328E+02  0.57539623328E+02  0.00000000000E+00 0.  1.
         23    2    1    2    0    0  0.16352200809E+03 -0.13137940463E+03  0.70111511736E+03  0.73765350614E+03  0.92575872862E+02 0.  0.
         11    1    3    3    0    0  0.10328414754E+03 -0.11775386635E+03  0.38646828185E+03  0.41700278303E+03  0.00000000000E+00 0.  1.
        -11    1    3    3    0    0  0.60237860554E+02 -0.13625538278E+02  0.31464683551E+03  0.32065072311E+03  0.00000000000E+00 0. -1.
         22    1    1    2    0    0 -0.16352200809E+03  0.13137940463E+03  0.24083852506E+03  0.31937938294E+03  0.00000000000E+00 0.  1.
<mgrwt>
<rscale>  0 0.47962680E+03</rscale>
<asrwt>0</asrwt>
<pdfrwt beam="1">  1        1 0.15376818E+00 0.47962680E+03</pdfrwt>
<pdfrwt beam="2">  1       -1 0.88522505E-02 0.47962680E+03</pdfrwt>
<totfact> 0.11742869E+03</totfact>
</mgrwt>
</event>
<event>
 6    1  0.9512547E-007  0.1388021E+04  0.7818608E-02  0.8962536E-01
         -1   -1    0    0    0  501 -0.00000000000E+00  0.00000000000E+00  0.10234651816E+04  0.10234651816E+04  0.00000000000E+00 0.  1.
          1   -1    0    0  501    0  0.00000000000E+00 -0.00000000000E+00 -0.47060740619E+03  0.47060740619E+03  0.00000000000E+00 0. -1.
         23    2    1    2    0    0 -0.53480091332E+03 -0.28681550991E+02 -0.19117032683E+03  0.57733245821E+03  0.99659546399E+02 0.  0.
         11    1    3    3    0    0 -0.76309465987E+02  0.27208505257E+02 -0.46037522252E+02  0.93182030524E+02  0.00000000000E+00 0. -1.
        -11    1    3    3    0    0 -0.45849144733E+03 -0.55890056247E+02 -0.14513280458E+03  0.48415042769E+03  0.00000000000E+00 0.  1.
         22    1    1    2    0    0  0.53480091332E+03  0.28681550991E+02  0.74402810226E+03  0.91674012959E+03  0.00000000000E+00 0.  1.
<mgrwt>
<rscale>  0 0.13880206E+04</rscale>
<asrwt>0</asrwt>
<pdfrwt beam="1">  1        1 0.72401139E-01 0.13880206E+04</pdfrwt>
<pdfrwt beam="2">  1       -1 0.15745618E+00 0.13880206E+04</pdfrwt>
<totfact> 0.14366810E+01</totfact>
</mgrwt>
</event>
<event>
 6    1  0.9512547E-007  0.1927214E+04  0.7818608E-02  0.8641428E-01
         -1   -1    0    0    0  501 -0.00000000000E+00  0.00000000000E+00  0.59296641394E+03  0.59296641394E+03  0.00000000000E+00 0.  1.
          1   -1    0    0  501    0  0.00000000000E+00 -0.00000000000E+00 -0.15659206645E+04  0.15659206645E+04  0.00000000000E+00 0. -1.
         23    2    1    2    0    0 -0.15963938099E+03  0.61481419310E+03 -0.12966551332E+04  0.14459610757E+04  0.77509186515E+02 0.  0.
         13    1    3    3    0    0 -0.14511294607E+03  0.51445385161E+03 -0.11436717316E+04  0.12624205172E+04  0.00000000000E+00 0. -1.
        -13    1    3    3    0    0 -0.14526434920E+02  0.10036034149E+03 -0.15298340160E+03  0.18354055852E+03  0.00000000000E+00 0.  1.
         22    1    1    2    0    0  0.15963938099E+03 -0.61481419310E+03  0.32370088261E+03  0.71292600275E+03  0.00000000000E+00 0.  1.
<mgrwt>
<rscale>  0 0.19272139E+04</rscale>
<asrwt>0</asrwt>
<pdfrwt beam="1">  1        1 0.24091087E+00 0.19272139E+04</pdfrwt>
<pdfrwt beam="2">  1       -1 0.91225602E-01 0.19272139E+04</pdfrwt>
<totfact> 0.64446225E+00</totfact>
</mgrwt>
</event>
<event>
 6    1  0.9512547E-007  0.2865388E+04  0.7818608E-02  0.8283251E-01
         -1   -1    0    0    0  501 -0.00000000000E+00  0.00000000000E+00  0.32802966798E+04  0.32802966798E+04  0.00000000000E+00 0.  1.
          1   -1    0    0  501    0  0.00000000000E+00 -0.00000000000E+00 -0.62573977742E+03  0.62573977742E+03  0.00000000000E+00 0. -1.
         23    2    1    2    0    0  0.66257869927E+03 -0.12686147345E+04  0.13532919285E+04  0.19716930520E+04  0.88207540935E+02 0.  0.
         11    1    3    3    0    0  0.48020467061E+03 -0.87123039038E+03  0.89271865072E+03  0.13366321514E+04  0.00000000000E+00 0.  1.
        -11    1    3    3    0    0  0.18237402866E+03 -0.39738434408E+03  0.46057327782E+03  0.63506090061E+03  0.00000000000E+00 0. -1.
         22    1    1    2    0    0 -0.66257869927E+03  0.12686147345E+04  0.13012649739E+04  0.19343434053E+04  0.00000000000E+00 0. -1.
<mgrwt>
<rscale>  0 0.28653880E+04</rscale>
<asrwt>0</asrwt>
<pdfrwt beam="1">  1        1 0.96267660E-01 0.28653880E+04</pdfrwt>
<pdfrwt beam="2">  1       -1 0.50466102E+00 0.28653880E+04</pdfrwt>
<totfact> 0.38439804E-02</totfact>
</mgrwt>
</event>
<event>
 6    1  0.9512547E-007  0.3858416E+04  0.7818608E-02  0.8033734E-01
          1   -1    0    0  501    0  0.00000000000E+00  0.00000000000E+00  0.35149903789E+04  0.35149903789E+04  0.00000000000E+00 0. -1.
         -1   -1    0    0    0  501 -0.00000000000E+00 -0.00000000000E+00 -0.10588487657E+04  0.10588487657E+04  0.00000000000E+00 0.  1.
         23    2    1    2    0    0 -0.53492297245E+03 -0.17728053412E+04  0.59140675217E+03  0.19458708294E+04  0.87578387907E+02 0.  0.
         13    1    3    3    0    0 -0.12408118659E+03 -0.39691713985E+03  0.17130660369E+03  0.44976139145E+03  0.00000000000E+00 0.  1.
        -13    1    3    3    0    0 -0.41084178586E+03 -0.13758882013E+04  0.42010014848E+03  0.14961094379E+04  0.00000000000E+00 0. -1.
         22    1    1    2    0    0  0.53492297245E+03  0.17728053412E+04  0.18647348610E+04  0.26279683152E+04  0.00000000000E+00 0.  1.
<mgrwt>
<rscale>  0 0.38584159E+04</rscale>
<asrwt>0</asrwt>
<pdfrwt beam="1">  1        1 0.54076775E+00 0.38584159E+04</pdfrwt>
<pdfrwt beam="2">  1       -1 0.16289981E+00 0.38584159E+04</pdfrwt>
<totfact> 0.53415266E-02</totfact>
</mgrwt>
</event>
<event>
 6    1  0.9512547E-007  0.2893844E+04  0.7818608E-02  0.8274711E-01
          1   -1    0    0  501    0  0.00000000000E+00  0.00000000000E+00  0.36485416307E+04  0.36485416307E+04  0.00000000000E+00 0. -1.
         -1   -1    0    0    0  501 -0.00000000000E+00 -0.00000000000E+00 -0.57381391300E+03  0.57381391300E+03  0.00000000000E+00 0.  1.
         23    2    1    2    0    0 -0.12226251586E+04  0.71366910296E+03  0.19651976923E+04  0.24236913882E+04  0.90233632282E+02 0.  0.
         13    1    3    3    0    0 -0.83133426409E+03  0.44323894923E+03  0.13436366342E+04  0.16410170107E+04  0.00000000000E+00 0. -1.
        -13    1    3    3    0    0 -0.39129089451E+03  0.27043015374E+03  0.62156105816E+03  0.78267437750E+03  0.00000000000E+00 0.  1.
         22    1    1    2    0    0  0.12226251586E+04 -0.71366910296E+03  0.11095300253E+04  0.17986641554E+04  0.00000000000E+00 0.  1.
<mgrwt>
<rscale>  0 0.28938445E+04</rscale>
<asrwt>0</asrwt>
<pdfrwt beam="1">  1        1 0.56131408E+00 0.28938445E+04</pdfrwt>
<pdfrwt beam="2">  1       -1 0.88279066E-01 0.28938445E+04</pdfrwt>
<totfact> 0.20562741E-01</totfact>
</mgrwt>
</event>
<event>
 6    1  0.9512547E-007  0.1351758E+04  0.7818608E-02  0.8989499E-01
         -2   -1    0    0    0  501 -0.00000000000E+00  0.00000000000E+00  0.70432200196E+03  0.70432200196E+03  0.00000000000E+00 0.  1.
          2   -1    0    0  501    0  0.00000000000E+00 -0.00000000000E+00 -0.64858421863E+03  0.64858421863E+03  0.00000000000E+00 0. -1.
         23    2    1    2    0    0 -0.65939516273E+03  0.13402293088E+03  0.20676834001E+02  0.67911589949E+03  0.89480427128E+02 0.  0.
         11    1    3    3    0    0 -0.23908399768E+03  0.78235765468E+02  0.39797486327E+02  0.25468771636E+03  0.00000000000E+00 0.  1.
        -11    1    3    3    0    0 -0.42031116505E+03  0.55787165412E+02 -0.19120652326E+02  0.42442818313E+03  0.00000000000E+00 0. -1.
         22    1    1    2    0    0  0.65939516273E+03 -0.13402293088E+03  0.35060949330E+02  0.67379032110E+03  0.00000000000E+00 0.  1.
<mgrwt>
<rscale>  0 0.13517576E+04</rscale>
<asrwt>0</asrwt>
<pdfrwt beam="1">  1        2 0.99782188E-01 0.13517576E+04</pdfrwt>
<pdfrwt beam="2">  1       -2 0.10835723E+00 0.13517576E+04</pdfrwt>
<totfact> 0.30005101E+01</totfact>
</mgrwt>
</event>
<event>
 6    1  0.9512547E-007  0.1764096E+04  0.7818608E-02  0.8725629E-01
         -2   -1    0    0    0  501 -0.00000000000E+00  0.00000000000E+00  0.84009148868E+03  0.84009148868E+03  0.00000000000E+00 0.  1.
          2   -1    0    0  501    0  0.00000000000E+00 -0.00000000000E+00 -0.92609965948E+03  0.92609965948E+03  0.00000000000E+00 0. -1.
         23    2    1    2    0    0  0.25489156444E+03  0.68696934347E+03  0.44443782836E+03  0.86160862206E+03  0.89150691697E+02 0.  0.
         13    1    3    3    0    0  0.89586964513E+02  0.17169488116E+03  0.15416019132E+03  0.24752842466E+03  0.00000000000E+00 0.  1.
        -13    1    3    3    0    0  0.16530459993E+03  0.51527446231E+03  0.29027763704E+03  0.61408019739E+03  0.00000000000E+00 0. -1.
         22    1    1    2    0    0 -0.25489156444E+03 -0.68696934347E+03 -0.53044599916E+03  0.90458252610E+03  0.00000000000E+00 0. -1.
<mgrwt>
<rscale>  0 0.17640957E+04</rscale>
<asrwt>0</asrwt>
<pdfrwt beam="1">  1        2 0.14247687E+00 0.17640957E+04</pdfrwt>
<pdfrwt beam="2">  1       -2 0.12924485E+00 0.17640957E+04</pdfrwt>
<totfact> 0.11750235E+01</totfact>
</mgrwt>
</event>
<event>
 6    1  0.9512547E-007  0.1433911E+04  0.7818608E-02  0.8929631E-01
          2   -1    0    0  501    0  0.00000000000E+00  0.00000000000E+00  0.27906315011E+03  0.27906315011E+03  0.00000000000E+00 0. -1.
         -2   -1    0    0    0  501 -0.00000000000E+00 -0.00000000000E+00 -0.18419682558E+04  0.18419682558E+04  0.00000000000E+00 0.  1.
         23    2    1    2    0    0  0.27771263639E+03  0.64925617776E+03 -0.62953444133E+03  0.95063032515E+03  0.93415788346E+02 0.  0.
         13    1    3    3    0    0  0.13362096350E+03  0.21045746954E+03 -0.24692727794E+03  0.35088458069E+03  0.00000000000E+00 0. -1.
        -13    1    3    3    0    0  0.14409167289E+03  0.43879870822E+03 -0.38260716338E+03  0.59974574446E+03  0.00000000000E+00 0.  1.
         22    1    1    2    0    0 -0.27771263639E+03 -0.64925617776E+03 -0.93337066438E+03  0.11704010808E+04  0.00000000000E+00 0. -1.
<mgrwt>
<rscale>  0 0.14339114E+04</rscale>
<asrwt>0</asrwt>
<pdfrwt beam="1">  1        2 0.42932791E-01 0.14339114E+04</pdfrwt>
<pdfrwt beam="2">  1       -2 0.28337974E+00 0.14339114E+04</pdfrwt>
<totfact> 0.46556959E+00</totfact>
</mgrwt>
</event>
<event>
 6    1  0.9512547E-007  0.1272692E+04  0.7818608E-02  0.9051505E-01
         -2   -1    0    0    0  501 -0.00000000000E+00  0.00000000000E+00  0.26834994364E+03  0.26834994364E+03  0.00000000000E+00 0.  1.
          2   -1    0    0  501    0  0.00000000000E+00 -0.00000000000E+00 -0.15089859061E+04  0.15089859061E+04  0.00000000000E+00 0. -1.
         23    2    1    2    0    0 -0.62958667251E+03  0.11382426653E+02 -0.71566518960E+03  0.95751681471E+03  0.90293128188E+02 0.  0.
         13    1    3    3    0    0 -0.28668817065E+03  0.31798736051E+02 -0.27248735258E+03  0.39680048402E+03  0.00000000000E+00 0.  1.
        -13    1    3    3    0    0 -0.34289850187E+03 -0.20416309398E+02 -0.44317783703E+03  0.56071633069E+03  0.00000000000E+00 0. -1.
         22    1    1    2    0    0  0.62958667251E+03 -0.11382426653E+02 -0.52497077283E+03  0.81981903501E+03  0.00000000000E+00 0.  1.
<mgrwt>
<rscale>  0 0.12726921E+04</rscale>
<asrwt>0</asrwt>
<pdfrwt beam="1">  1        2 0.23215168E+00 0.12726921E+04</pdfrwt>
<pdfrwt beam="2">  1       -2 0.41284607E-01 0.12726921E+04</pdfrwt>
<totfact> 0.68446530E+01</totfact>
</mgrwt>
</event>
<event>
 6    1  0.9512547E-007  0.1392896E+04  0.7818608E-02  0.8958977E-01
         -2   -1    0    0    0  501 -0.00000000000E+00  0.00000000000E+00  0.27324324089E+03  0.27324324089E+03  0.00000000000E+00 0.  1.
          2   -1    0    0  501    0  0.00000000000E+00 -0.00000000000E+00 -0.17751205227E+04  0.17751205227E+04  0.00000000000E+00 0. -1.
         23    2    1    2    0    0  0.10465384149E+03  0.20419513489E+03 -0.17165015144E+04  0.17341796760E+04  0.91398142034E+02 0.  0.
         13    1    3    3    0    0  0.25977888823E+02  0.14797350146E+03 -0.10611615531E+04  0.10717438358E+04  0.00000000000E+00 0. -1.
        -13    1    3    3    0    0  0.78675952666E+02  0.56221633428E+02 -0.65533996125E+03  0.66243584022E+03  0.00000000000E+00 0.  1.
         22    1    1    2    0    0 -0.10465384149E+03 -0.20419513489E+03  0.21462423256E+03  0.31418408752E+03  0.00000000000E+00 0.  1.
<mgrwt>
<rscale>  0 0.13928958E+04</rscale>
<asrwt>0</asrwt>
<pdfrwt beam="1">  1        2 0.27309546E+00 0.13928958E+04</pdfrwt>
<pdfrwt beam="2">  1       -2 0.42037423E-01 0.13928958E+04</pdfrwt>
<totfact> 0.46520487E+01</totfact>
</mgrwt>
</event>
<event>
 6    1  0.9512547E-007  0.2456886E+04  0.7818608E-02  0.8418508E-01
          2   -1    0    0  501    0  0.00000000000E+00  0.00000000000E+00  0.99258055902E+03  0.99258055902E+03  0.00000000000E+00 0. -1.
         -2   -1    0    0    0  501 -0.00000000000E+00 -0.00000000000E+00 -0.15203529708E+04  0.15203529708E+04  0.00000000000E+00 0.  1.
         23    2    1    2    0    0  0.51089550913E+03 -0.92586329306E+03 -0.90010193005E+03  0.13918330309E+04  0.93694410911E+02 0.  0.
         13    1    3    3    0    0  0.14264600297E+03 -0.34094065398E+03 -0.34023191775E+03  0.50234069072E+03  0.00000000000E+00 0. -1.
        -13    1    3    3    0    0  0.36824950616E+03 -0.58492263907E+03 -0.55987001231E+03  0.88949234014E+03  0.00000000000E+00 0.  1.
         22    1    1    2    0    0 -0.51089550913E+03  0.92586329306E+03  0.37232951823E+03  0.11211004990E+04  0.00000000000E+00 0. -1.
<mgrwt>
<rscale>  0 0.24568865E+04</rscale>
<asrwt>0</asrwt>
<pdfrwt beam="1">  1        2 0.15270470E+00 0.24568865E+04</pdfrwt>
<pdfrwt beam="2">  1       -2 0.23390046E+00 0.24568865E+04</pdfrwt>
<totfact> 0.18422218E+00</totfact>
</mgrwt>
</event>
<event>
 6    1  0.9512547E-007  0.1630391E+04  0.7818608E-02  0.8802092E-01
          2   -1    0    0  501    0  0.00000000000E+00  0.00000000000E+00  0.34662827354E+04  0.34662827354E+04  0.00000000000E+00 0. -1.
         -2   -1    0    0    0  501 -0.00000000000E+00 -0.00000000000E+00 -0.19171650566E+03  0.19171650566E+03  0.00000000000E+00 0.  1.
         23    2    1    2    0    0  0.19885378350E+03 -0.75519994226E+03  0.11377382448E+04  0.13829380073E+04  0.90550750527E+02 0.  0.
         11    1    3    3    0    0  0.95300371465E+02 -0.24455148362E+03  0.32865783095E+03  0.42059904754E+03  0.00000000000E+00 0. -1.
        -11    1    3    3    0    0  0.10355341203E+03 -0.51064845864E+03  0.80908041383E+03  0.96233895978E+03  0.00000000000E+00 0.  1.
         22    1    1    2    0    0 -0.19885378350E+03  0.75519994226E+03  0.21368279849E+04  0.22750612337E+04  0.00000000000E+00 0. -1.
<mgrwt>
<rscale>  0 0.16303909E+04</rscale>
<asrwt>0</asrwt>
<pdfrwt beam="1">  1        2 0.53327422E+00 0.16303909E+04</pdfrwt>
<pdfrwt beam="2">  1       -2 0.29494850E-01 0.16303909E+04</pdfrwt>
<totfact> 0.87851757E+00</totfact>
</mgrwt>
</event>
<event>
 6    1  0.1194623E-006  0.4360913E+04  0.7818608E-02  0.7935450E-01
          2   -1    0    0  501    0  0.00000000000E+00  0.00000000000E+00  0.23179207500E+04  0.23179207500E+04  0.00000000000E+00 0. -1.
         -2   -1    0    0    0  501 -0.00000000000E+00 -0.00000000000E+00 -0.20511443947E+04  0.20511443947E+04  0.00000000000E+00 0.  1.
         23    2    1    2    0    0 -0.70091340321E+03  0.22272954836E+03 -0.19219341728E+04  0.20600952821E+04  0.96299303960E+02 0.  0.
         13    1    3    3    0    0 -0.23846299623E+03  0.88868325899E+02 -0.54673593019E+03  0.60306082386E+03  0.00000000000E+00 0.  1.
        -13    1    3    3    0    0 -0.46245040698E+03  0.13386122246E+03 -0.13751982427E+04  0.14570344582E+04  0.00000000000E+00 0. -1.
         22    1    1    2    0    0  0.70091340321E+03 -0.22272954836E+03  0.21887105281E+04  0.23089698626E+04  0.00000000000E+00 0. -1.
<mgrwt>
<rscale>  0 0.43609128E+04</rscale>
<asrwt>0</asrwt>
<pdfrwt beam="1">  1        2 0.35660319E+00 0.43609128E+04</pdfrwt>
<pdfrwt beam="2">  1       -2 0.31556068E+00 0.43609128E+04</pdfrwt>
<totfact> 0.86544347E-02</totfact>
</mgrwt>
</event>
<event>
 6    1  0.9512547E-007  0.1422990E+04  0.7818608E-02  0.8937343E-01
          1   -1    0    0  501    0  0.00000000000E+00  0.00000000000E+00  0.19406801442E+04  0.19406801442E+04  0.00000000000E+00 0. -1.
         -1   -1    0    0    0  501 -0.00000000000E+00 -0.00000000000E+00 -0.26084944450E+03  0.26084944450E+03  0.00000000000E+00 0.  1.
         23    2    1    2    0    0  0.25246978935E+03 -0.18080913092E+03 -0.14199573767E+03  0.35342664129E+03  0.91184784365E+02 0.  0.
         13    1    3    3    0    0  0.71355549235E+02 -0.10470323815E+03 -0.46260398536E+02  0.13488664485E+03  0.00000000000E+00 0. -1.
        -13    1    3    3    0    0  0.18111424011E+03 -0.76105892770E+02 -0.95735339132E+02  0.21853999644E+03  0.00000000000E+00 0.  1.
         22    1    1    2    0    0 -0.25246978935E+03  0.18080913092E+03  0.18218264373E+04  0.18481029474E+04  0.00000000000E+00 0. -1.
<mgrwt>
<rscale>  0 0.14229903E+04</rscale>
<asrwt>0</asrwt>
<pdfrwt beam="1">  1        1 0.29856617E+00 0.14229903E+04</pdfrwt>
<pdfrwt beam="2">  1       -1 0.40130685E-01 0.14229903E+04</pdfrwt>
<totfact> 0.19279781E+01</totfact>
</mgrwt>
</event>
<event>
 6    1  0.9512547E-007  0.1344885E+04  0.7818608E-02  0.8994709E-01
         -2   -1    0    0    0  501 -0.00000000000E+00  0.00000000000E+00  0.51945654908E+03  0.51945654908E+03  0.00000000000E+00 0.  1.
          2   -1    0    0  501    0  0.00000000000E+00 -0.00000000000E+00 -0.87048505901E+03  0.87048505901E+03  0.00000000000E+00 0. -1.
         23    2    1    2    0    0 -0.45984503575E+03 -0.40490562350E+03  0.10265354885E+03  0.62755494024E+03  0.88777424407E+02 0.  0.
         13    1    3    3    0    0 -0.27878219776E+03 -0.19559118849E+03  0.80317558960E+02  0.34989475143E+03  0.00000000000E+00 0. -1.
        -13    1    3    3    0    0 -0.18106283799E+03 -0.20931443501E+03  0.22335989893E+02  0.27766018881E+03  0.00000000000E+00 0.  1.
         22    1    1    2    0    0  0.45984503575E+03  0.40490562350E+03 -0.45368205878E+03  0.76238666784E+03  0.00000000000E+00 0.  1.
<mgrwt>
<rscale>  0 0.13448854E+04</rscale>
<asrwt>0</asrwt>
<pdfrwt beam="1">  1        2 0.13392078E+00 0.13448854E+04</pdfrwt>
<pdfrwt beam="2">  1       -2 0.79916393E-01 0.13448854E+04</pdfrwt>
<totfact> 0.41600321E+01</totfact>
</mgrwt>
</event>
<event>
 6    1  0.9512547E-007  0.1577481E+04  0.7818608E-02  0.8834503E-01
         -2   -1    0    0    0  501 -0.00000000000E+00  0.00000000000E+00  0.33678837980E+03  0.33678837980E+03  0.00000000000E+00 0.  1.
          2   -1    0    0  501    0  0.00000000000E+00 -0.00000000000E+00 -0.18471884854E+04  0.18471884854E+04  0.00000000000E+00 0. -1.
         23    2    1    2    0    0  0.10826487511E+03  0.73137270829E+03 -0.38810279790E+03  0.84003543475E+03  0.91697482455E+02 0.  0.
         13    1    3    3    0    0  0.84246790082E+02  0.26679050030E+03 -0.14930903633E+03  0.31712439361E+03  0.00000000000E+00 0. -1.
        -13    1    3    3    0    0  0.24018085024E+02  0.46458220799E+03 -0.23879376157E+03  0.52291104115E+03  0.00000000000E+00 0.  1.
         22    1    1    2    0    0 -0.10826487511E+03 -0.73137270829E+03 -0.11222973077E+04  0.13439414305E+04  0.00000000000E+00 0. -1.
<mgrwt>
<rscale>  0 0.15774811E+04</rscale>
<asrwt>0</asrwt>
<pdfrwt beam="1">  1        2 0.28418284E+00 0.15774811E+04</pdfrwt>
<pdfrwt beam="2">  1       -2 0.51813597E-01 0.15774811E+04</pdfrwt>
<totfact> 0.27449894E+01</totfact>
</mgrwt>
</event>
<event>
 6    1  0.9512547E-007  0.2279060E+04  0.7818608E-02  0.8486223E-01
          1   -1    0    0  501    0  0.00000000000E+00  0.00000000000E+00  0.10898785470E+04  0.10898785470E+04  0.00000000000E+00 0. -1.
         -1   -1    0    0    0  501 -0.00000000000E+00 -0.00000000000E+00 -0.11914438030E+04  0.11914438030E+04  0.00000000000E+00 0.  1.
         23    2    1    2    0    0 -0.90092586474E+03 -0.49660891976E+03 -0.53721411273E+03  0.11641483442E+04  0.91403126089E+02 0.  0.
         11    1    3    3    0    0 -0.52676770846E+03 -0.25237152892E+03 -0.33888839190E+03  0.67529323219E+03  0.00000000000E+00 0. -1.
        -11    1    3    3    0    0 -0.37415815628E+03 -0.24423739084E+03 -0.19832572083E+03  0.48885511201E+03  0.00000000000E+00 0.  1.
         22    1    1    2    0    0  0.90092586474E+03  0.49660891976E+03  0.43564885676E+03  0.11171740058E+04  0.00000000000E+00 0. -1.
<mgrwt>
<rscale>  0 0.22790604E+04</rscale>
<asrwt>0</asrwt>
<pdfrwt beam="1">  1        1 0.16767362E+00 0.22790604E+04</pdfrwt>
<pdfrwt beam="2">  1       -1 0.18329905E+00 0.22790604E+04</pdfrwt>
<totfact> 0.23030249E+00</totfact>
</mgrwt>
</event>
<event>
 6    1  0.9512547E-007  0.1883458E+04  0.7818608E-02  0.8663135E-01
         -2   -1    0    0    0  501 -0.00000000000E+00  0.00000000000E+00  0.40094185851E+03  0.40094185851E+03  0.00000000000E+00 0.  1.
          2   -1    0    0  501    0  0.00000000000E+00 -0.00000000000E+00 -0.22119248414E+04  0.22119248414E+04  0.00000000000E+00 0. -1.
         23    2    1    2    0    0 -0.28039500467E+03  0.89063366304E+03 -0.10516137362E+04  0.14093338448E+04  0.92091018596E+02 0.  0.
         13    1    3    3    0    0 -0.25963082509E+03  0.70184409645E+03 -0.84043850156E+03  0.11253133679E+04  0.00000000000E+00 0.  1.
        -13    1    3    3    0    0 -0.20764179573E+02  0.18878956659E+03 -0.21117523460E+03  0.28402047693E+03  0.00000000000E+00 0. -1.
         22    1    1    2    0    0  0.28039500467E+03 -0.89063366304E+03 -0.75936924671E+03  0.12035328551E+04  0.00000000000E+00 0. -1.
<mgrwt>
<rscale>  0 0.18834577E+04</rscale>
<asrwt>0</asrwt>
<pdfrwt beam="1">  1        2 0.34029613E+00 0.18834577E+04</pdfrwt>
<pdfrwt beam="2">  1       -2 0.61683363E-01 0.18834577E+04</pdfrwt>
<totfact> 0.11647121E+01</totfact>
</mgrwt>
</event>
<event>
 6    1  0.9512547E-007  0.3163453E+04  0.7818608E-02  0.8198536E-01
         -1   -1    0    0    0  501 -0.00000000000E+00  0.00000000000E+00  0.75693875510E+03  0.75693875510E+03  0.00000000000E+00 0.  1.
          1   -1    0    0  501    0  0.00000000000E+00 -0.00000000000E+00 -0.33052333563E+04  0.33052333563E+04  0.00000000000E+00 0. -1.
         23    2    1    2    0    0 -0.10815069939E+04  0.11512211500E+04 -0.12123785814E+04  0.19934432442E+04  0.94797831177E+02 0.  0.
         11    1    3    3    0    0 -0.45815208808E+03  0.43630428489E+03 -0.44708811167E+03  0.77469512998E+03  0.00000000000E+00 0.  1.
        -11    1    3    3    0    0 -0.62335490585E+03  0.71491686515E+03 -0.76529046977E+03  0.12187481142E+04  0.00000000000E+00 0. -1.
         22    1    1    2    0    0  0.10815069939E+04 -0.11512211500E+04 -0.13359160198E+04  0.20687288672E+04  0.00000000000E+00 0.  1.
<mgrwt>
<rscale>  0 0.31634533E+04</rscale>
<asrwt>0</asrwt>
<pdfrwt beam="1">  1        1 0.50849742E+00 0.31634533E+04</pdfrwt>
<pdfrwt beam="2">  1       -1 0.11645212E+00 0.31634533E+04</pdfrwt>
<totfact> 0.19756930E-01</totfact>
</mgrwt>
</event>
<event>
 6    1  0.9512547E-007  0.3812923E+04  0.7818608E-02  0.8043387E-01
         -2   -1    0    0    0  501 -0.00000000000E+00  0.00000000000E+00  0.11340510115E+04  0.11340510115E+04  0.00000000000E+00 0.  1.
          2   -1    0    0  501    0  0.00000000000E+00 -0.00000000000E+00 -0.32049663876E+04  0.32049663876E+04  0.00000000000E+00 0. -1.
         23    2    1    2    0    0  0.61223505511E+03 -0.17940059123E+04 -0.12539428248E+04  0.22748630623E+04  0.96645580828E+02 0.  0.
         13    1    3    3    0    0  0.33694345699E+03 -0.11296277697E+04 -0.78988663700E+03  0.14189822728E+04  0.00000000000E+00 0. -1.
        -13    1    3    3    0    0  0.27529159813E+03 -0.66437814264E+03 -0.46405618778E+03  0.85588078950E+03  0.00000000000E+00 0.  1.
         22    1    1    2    0    0 -0.61223505511E+03  0.17940059123E+04 -0.81697255135E+03  0.20641543367E+04  0.00000000000E+00 0.  1.
<mgrwt>
<rscale>  0 0.38129230E+04</rscale>
<asrwt>0</asrwt>
<pdfrwt beam="1">  1        2 0.49307175E+00 0.38129230E+04</pdfrwt>
<pdfrwt beam="2">  1       -2 0.17446939E+00 0.38129230E+04</pdfrwt>
<totfact> 0.20408994E-01</totfact>
</mgrwt>
</event>
<event>
 6    1  0.9512547E-007  0.5065138E+04  0.7818608E-02  0.7818537E-01
          2   -1    0    0  501    0  0.00000000000E+00  0.00000000000E+00  0.26632345531E+04  0.26632345531E+04  0.00000000000E+00 0. -1.
         -2   -1    0    0    0  501 -0.00000000000E+00 -0.00000000000E+00 -0.24083142683E+04  0.24083142683E+04  0.00000000000E+00 0.  1.
         23    2    1    2    0    0 -0.11449147324E+04 -0.11855703665E+04 -0.17967793554E+04  0.24398424829E+04  0.89489950210E+02 0.  0.
         11    1    3    3    0    0 -0.85638622865E+03 -0.85567202973E+03 -0.12693955039E+04  0.17541199903E+04  0.00000000000E+00 0. -1.
        -11    1    3    3    0    0 -0.28852850373E+03 -0.32989833679E+03 -0.52738385146E+03  0.68572249260E+03  0.00000000000E+00 0.  1.
         22    1    1    2    0    0  0.11449147324E+04  0.11855703665E+04  0.20516996402E+04  0.26317063385E+04  0.00000000000E+00 0. -1.
<mgrwt>
<rscale>  0 0.50651380E+04</rscale>
<asrwt>0</asrwt>
<pdfrwt beam="1">  1        2 0.40972839E+00 0.50651380E+04</pdfrwt>
<pdfrwt beam="2">  1       -2 0.37050989E+00 0.50651380E+04</pdfrwt>
<totfact> 0.23310974E-02</totfact>
</mgrwt>
</event>
<event>
 6    1  0.9512547E-007  0.2351044E+04  0.7818608E-02  0.8458063E-01
          2   -1    0    0  501    0  0.00000000000E+00  0.00000000000E+00  0.10461499088E+04  0.10461499088E+04  0.00000000000E+00 0. -1.
         -2   -1    0    0    0  501 -0.00000000000E+00 -0.00000000000E+00 -0.13208923612E+04  0.13208923612E+04  0.00000000000E+00 0.  1.
         23    2    1    2    0    0  0.11233689978E+04  0.20375295436E+03 -0.41184375761E+03  0.12171423007E+04  0.91361522830E+02 0.  0.
         11    1    3    3    0    0  0.57300049547E+03  0.82114615470E+02 -0.25149548368E+03  0.63112784457E+03  0.00000000000E+00 0.  1.
        -11    1    3    3    0    0  0.55036850230E+03  0.12163833889E+03 -0.16034827393E+03  0.58601445611E+03  0.00000000000E+00 0. -1.
         22    1    1    2    0    0 -0.11233689978E+04 -0.20375295436E+03  0.13710130512E+03  0.11498999693E+04  0.00000000000E+00 0.  1.
<mgrwt>
<rscale>  0 0.23510435E+04</rscale>
<asrwt>0</asrwt>
<pdfrwt beam="1">  1        2 0.16094614E+00 0.23510435E+04</pdfrwt>
<pdfrwt beam="2">  1       -2 0.20321421E+00 0.23510435E+04</pdfrwt>
<totfact> 0.26923871E+00</totfact>
</mgrwt>
</event>
<event>
 6    1  0.9512547E-007  0.7280688E+03  0.7818608E-02  0.9670399E-01
          1   -1    0    0  501    0  0.00000000000E+00  0.00000000000E+00  0.72761523794E+03  0.72761523794E+03  0.00000000000E+00 0. -1.
         -1   -1    0    0    0  501 -0.00000000000E+00 -0.00000000000E+00 -0.18213064265E+03  0.18213064265E+03  0.00000000000E+00 0.  1.
         23    2    1    2    0    0 -0.15789868777E+03 -0.11392429818E+03 -0.98413035956E+02  0.23705360262E+03  0.92728331993E+02 0.  0.
         13    1    3    3    0    0 -0.13771681868E+03 -0.81673125046E+02 -0.36240126837E+02  0.16416384589E+03  0.00000000000E+00 0.  1.
        -13    1    3    3    0    0 -0.20181869084E+02 -0.32251173129E+02 -0.62172909119E+02  0.72889756730E+02  0.00000000000E+00 0. -1.
         22    1    1    2    0    0  0.15789868777E+03  0.11392429818E+03  0.64389763125E+03  0.67269227797E+03  0.00000000000E+00 0. -1.
<mgrwt>
<rscale>  0 0.72806876E+03</rscale>
<asrwt>0</asrwt>
<pdfrwt beam="1">  1        1 0.11194080E+00 0.72806876E+03</pdfrwt>
<pdfrwt beam="2">  1       -1 0.28020099E-01 0.72806876E+03</pdfrwt>
<totfact> 0.29846313E+02</totfact>
</mgrwt>
</event>
<event>
 6    1  0.1288416E-006  0.2740498E+04  0.7818608E-02  0.8321983E-01
         -2   -1    0    0    0  501 -0.00000000000E+00  0.00000000000E+00  0.16001286955E+04  0.16001286955E+04  0.00000000000E+00 0.  1.
          2   -1    0    0  501    0  0.00000000000E+00 -0.00000000000E+00 -0.11733943341E+04  0.11733943341E+04  0.00000000000E+00 0. -1.
         23    2    1    2    0    0  0.62264802293E+03  0.99421219043E+03 -0.50008237950E+03  0.12784853341E+04  0.91070978419E+02 0.  0.
         13    1    3    3    0    0  0.46075266672E+03  0.65675279553E+03 -0.33399091857E+03  0.86900356041E+03  0.00000000000E+00 0.  1.
        -13    1    3    3    0    0  0.16189535620E+03  0.33745939490E+03 -0.16609146094E+03  0.40948177367E+03  0.00000000000E+00 0. -1.
         22    1    1    2    0    0 -0.62264802293E+03 -0.99421219043E+03  0.92681674089E+03  0.14950376956E+04  0.00000000000E+00 0.  1.
<mgrwt>
<rscale>  0 0.27404977E+04</rscale>
<asrwt>0</asrwt>
<pdfrwt beam="1">  1        2 0.18052220E+00 0.27404977E+04</pdfrwt>
<pdfrwt beam="2">  1       -2 0.24617365E+00 0.27404977E+04</pdfrwt>
<totfact> 0.11657670E+00</totfact>
</mgrwt>
</event>
<event>
 6    1  0.9512547E-007  0.1400901E+04  0.7818608E-02  0.8953167E-01
         -1   -1    0    0    0  501 -0.00000000000E+00  0.00000000000E+00  0.32211192741E+03  0.32211192741E+03  0.00000000000E+00 0.  1.
          1   -1    0    0  501    0  0.00000000000E+00 -0.00000000000E+00 -0.15231692387E+04  0.15231692387E+04  0.00000000000E+00 0. -1.
         23    2    1    2    0    0  0.30801650641E+03  0.18603689242E+03  0.18403673967E+03  0.41420834351E+03  0.90637391414E+02 0.  0.
         13    1    3    3    0    0  0.14892582641E+03  0.61209649015E+02  0.39912752204E+02  0.16588716253E+03  0.00000000000E+00 0.  1.
        -13    1    3    3    0    0  0.15909068000E+03  0.12482724341E+03  0.14412398747E+03  0.24832118098E+03  0.00000000000E+00 0. -1.
         22    1    1    2    0    0 -0.30801650641E+03 -0.18603689242E+03 -0.13850940510E+04  0.14310728226E+04  0.00000000000E+00 0. -1.
<mgrwt>
<rscale>  0 0.14009011E+04</rscale>
<asrwt>0</asrwt>
<pdfrwt beam="1">  1        1 0.23433373E+00 0.14009011E+04</pdfrwt>
<pdfrwt beam="2">  1       -1 0.49555681E-01 0.14009011E+04</pdfrwt>
<totfact> 0.25093018E+01</totfact>
</mgrwt>
</event>
<event>
 6    1  0.9512547E-007  0.5701242E+04  0.7818608E-02  0.7728589E-01
          2   -1    0    0  501    0  0.00000000000E+00  0.00000000000E+00  0.31276385688E+04  0.31276385688E+04  0.00000000000E+00 0. -1.
         -2   -1    0    0    0  501 -0.00000000000E+00 -0.00000000000E+00 -0.25981387189E+04  0.25981387189E+04  0.00000000000E+00 0.  1.
         23    2    1    2    0    0 -0.20810638055E+04  0.16028501713E+04  0.13750550739E+04  0.29662630422E+04  0.89357401330E+02 0.  0.
         13    1    3    3    0    0 -0.38038735291E+03  0.27666811183E+03  0.21081905984E+03  0.51544588304E+03  0.00000000000E+00 0. -1.
        -13    1    3    3    0    0 -0.17006764525E+04  0.13261820595E+04  0.11642360141E+04  0.24508171591E+04  0.00000000000E+00 0.  1.
         22    1    1    2    0    0  0.20810638055E+04 -0.16028501713E+04 -0.84555522400E+03  0.27595142454E+04  0.00000000000E+00 0.  1.
<mgrwt>
<rscale>  0 0.57012416E+04</rscale>
<asrwt>0</asrwt>
<pdfrwt beam="1">  1        2 0.48117517E+00 0.57012416E+04</pdfrwt>
<pdfrwt beam="2">  1       -2 0.39971365E+00 0.57012416E+04</pdfrwt>
<totfact> 0.74207408E-03</totfact>
</mgrwt>
</event>
<event>
 6    1  0.9512547E-007  0.1692027E+04  0.7818608E-02  0.8765925E-01
         -1   -1    0    0    0  501 -0.00000000000E+00  0.00000000000E+00  0.40839770723E+03  0.40839770723E+03  0.00000000000E+00 0.  1.
          1   -1    0    0  501    0  0.00000000000E+00 -0.00000000000E+00 -0.17525543759E+04  0.17525543759E+04  0.00000000000E+00 0. -1.
         23    2    1    2    0    0  0.53504026354E+03 -0.20799234441E+03 -0.14634106221E+04  0.15746497684E+04  0.91773336293E+02 0.  0.
         11    1    3    3    0    0  0.33195614865E+03 -0.14687614508E+03 -0.10308668770E+04  0.10929107945E+04  0.00000000000E+00 0.  1.
        -11    1    3    3    0    0  0.20308411490E+03 -0.61116199337E+02 -0.43254374509E+03  0.48173897389E+03  0.00000000000E+00 0. -1.
         22    1    1    2    0    0 -0.53504026354E+03  0.20799234441E+03  0.11925395337E+03  0.58630231480E+03  0.00000000000E+00 0.  1.
<mgrwt>
<rscale>  0 0.16920274E+04</rscale>
<asrwt>0</asrwt>
<pdfrwt beam="1">  1        1 0.26962375E+00 0.16920274E+04</pdfrwt>
<pdfrwt beam="2">  1       -1 0.62830417E-01 0.16920274E+04</pdfrwt>
<totfact> 0.10736993E+01</totfact>
</mgrwt>
</event>
<event>
 6    1  0.9512547E-007  0.1751798E+04  0.7818608E-02  0.8732361E-01
          1   -1    0    0  501    0  0.00000000000E+00  0.00000000000E+00  0.78949102132E+03  0.78949102132E+03  0.00000000000E+00 0. -1.
         -1   -1    0    0    0  501 -0.00000000000E+00 -0.00000000000E+00 -0.97176384780E+03  0.97176384780E+03  0.00000000000E+00 0.  1.
         23    2    1    2    0    0 -0.10903534024E+03  0.24380209236E+03 -0.92740300741E+03  0.96970755393E+03  0.94489345181E+02 0.  0.
         13    1    3    3    0    0 -0.54153903430E+02  0.33232955470E+02 -0.26352259553E+03  0.27107422036E+03  0.00000000000E+00 0. -1.
        -13    1    3    3    0    0 -0.54881436806E+02  0.21056913689E+03 -0.66388041187E+03  0.69863333358E+03  0.00000000000E+00 0.  1.
         22    1    1    2    0    0  0.10903534024E+03 -0.24380209236E+03  0.74513018093E+03  0.79154731519E+03  0.00000000000E+00 0. -1.
<mgrwt>
<rscale>  0 0.17517977E+04</rscale>
<asrwt>0</asrwt>
<pdfrwt beam="1">  1        1 0.12146016E+00 0.17517977E+04</pdfrwt>
<pdfrwt beam="2">  1       -1 0.14950213E+00 0.17517977E+04</pdfrwt>
<totfact> 0.75334255E+00</totfact>
</mgrwt>
</event>
<event>
 6    1  0.9512547E-007  0.2010147E+04  0.7818608E-02  0.8601891E-01
          2   -1    0    0  501    0  0.00000000000E+00  0.00000000000E+00  0.21999297626E+04  0.21999297626E+04  0.00000000000E+00 0. -1.
         -2   -1    0    0    0  501 -0.00000000000E+00 -0.00000000000E+00 -0.45918410911E+03  0.45918410911E+03  0.00000000000E+00 0.  1.
         23    2    1    2    0    0  0.66054889459E+03  0.72758410009E+03  0.11388422614E+04  0.15067288847E+04  0.86987188061E+02 0.  0.
         11    1    3    3    0    0  0.24168347025E+03  0.24383150046E+03  0.33977943124E+03  0.48302666831E+03  0.00000000000E+00 0. -1.
        -11    1    3    3    0    0  0.41886542435E+03  0.48375259963E+03  0.79906283016E+03  0.10237022164E+04  0.00000000000E+00 0.  1.
         22    1    1    2    0    0 -0.66054889459E+03 -0.72758410009E+03  0.60190339211E+03  0.11523849870E+04  0.00000000000E+00 0.  1.
<mgrwt>
<rscale>  0 0.20101470E+04</rscale>
<asrwt>0</asrwt>
<pdfrwt beam="1">  1        2 0.33845073E+00 0.20101470E+04</pdfrwt>
<pdfrwt beam="2">  1       -2 0.70643710E-01 0.20101470E+04</pdfrwt>
<totfact> 0.87350401E+00</totfact>
</mgrwt>
</event>
<event>
 6    1  0.9512547E-007  0.1831789E+04  0.7818608E-02  0.8689575E-01
         -1   -1    0    0    0  501 -0.00000000000E+00  0.00000000000E+00  0.37988847424E+03  0.37988847424E+03  0.00000000000E+00 0.  1.
          1   -1    0    0  501    0  0.00000000000E+00 -0.00000000000E+00 -0.22081812095E+04  0.22081812095E+04  0.00000000000E+00 0. -1.
         23    2    1    2    0    0  0.11518447701E+03  0.33983937299E+03 -0.21035118381E+04  0.21358487004E+04  0.91265300000E+02 0.  0.
         13    1    3    3    0    0 -0.93371232531E+01  0.95951118811E+02 -0.54040621959E+03  0.54893777539E+03  0.00000000000E+00 0.  1.
        -13    1    3    3    0    0  0.12452160026E+03  0.24388825418E+03 -0.15631056185E+04  0.15869109250E+04  0.00000000000E+00 0. -1.
         22    1    1    2    0    0 -0.11518447701E+03 -0.33983937299E+03  0.27521910283E+03  0.45222098331E+03  0.00000000000E+00 0.  1.
<mgrwt>
<rscale>  0 0.18317888E+04</rscale>
<asrwt>0</asrwt>
<pdfrwt beam="1">  1        1 0.33972018E+00 0.18317888E+04</pdfrwt>
<pdfrwt beam="2">  1       -1 0.58444382E-01 0.18317888E+04</pdfrwt>
<totfact> 0.60063026E+00</totfact>
</mgrwt>
</event>
<event>
 6    1  0.9512547E-007  0.2413026E+04  0.7818608E-02  0.8434643E-01
         -2   -1    0    0    0  501 -0.00000000000E+00  0.00000000000E+00  0.13114117866E+04  0.13114117866E+04  0.00000000000E+00 0.  1.
          2   -1    0    0  501    0  0.00000000000E+00 -0.00000000000E+00 -0.11100052239E+04  0.11100052239E+04  0.00000000000E+00 0. -1.
         23    2    1    2    0    0  0.99675173164E+03  0.19085312623E+03  0.75238746692E+03  0.12666361278E+04  0.91330441602E+02 0.  0.
         11    1    3    3    0    0  0.60735670432E+03  0.15452655363E+03  0.43358566339E+03  0.76207424150E+03  0.00000000000E+00 0. -1.
        -11    1    3    3    0    0  0.38939502733E+03  0.36326572595E+02  0.31880180352E+03  0.50456188631E+03  0.00000000000E+00 0.  1.
         22    1    1    2    0    0 -0.99675173164E+03 -0.19085312623E+03 -0.55098090420E+03  0.11547808827E+04  0.00000000000E+00 0. -1.
<mgrwt>
<rscale>  0 0.24130263E+04</rscale>
<asrwt>0</asrwt>
<pdfrwt beam="1">  1        2 0.17077003E+00 0.24130263E+04</pdfrwt>
<pdfrwt beam="2">  1       -2 0.20175566E+00 0.24130263E+04</pdfrwt>
<totfact> 0.24986447E+00</totfact>
</mgrwt>
</event>
<event>
 6    1  0.9512547E-007  0.3560884E+04  0.7818608E-02  0.8099511E-01
          2   -1    0    0  501    0  0.00000000000E+00  0.00000000000E+00  0.40510859521E+04  0.40510859521E+04  0.00000000000E+00 0. -1.
         -2   -1    0    0    0  501 -0.00000000000E+00 -0.00000000000E+00 -0.78249968101E+03  0.78249968101E+03  0.00000000000E+00 0.  1.
         23    2    1    2    0    0 -0.55570474058E+03  0.64625844740E+03  0.37553860996E+04  0.38520400088E+04  0.93966656713E+02 0.  0.
         11    1    3    3    0    0 -0.10428166015E+03  0.10576165587E+03  0.51347532350E+03  0.53452511666E+03  0.00000000000E+00 0.  1.
        -11    1    3    3    0    0 -0.45142308043E+03  0.54049679153E+03  0.32419107761E+04  0.33175148921E+04  0.00000000000E+00 0. -1.
         22    1    1    2    0    0  0.55570474058E+03 -0.64625844740E+03 -0.48679982854E+03  0.98154562431E+03  0.00000000000E+00 0.  1.
<mgrwt>
<rscale>  0 0.35608839E+04</rscale>
<asrwt>0</asrwt>
<pdfrwt beam="1">  1        2 0.62324398E+00 0.35608839E+04</pdfrwt>
<pdfrwt beam="2">  1       -2 0.12038457E+00 0.35608839E+04</pdfrwt>
<totfact> 0.13345383E-01</totfact>
</mgrwt>
</event>
<event>
 6    1  0.9512547E-007  0.9424962E+03  0.7818608E-02  0.9373965E-01
         -1   -1    0    0    0  501 -0.00000000000E+00  0.00000000000E+00  0.58374555587E+03  0.58374555587E+03  0.00000000000E+00 0.  1.
          1   -1    0    0  501    0  0.00000000000E+00 -0.00000000000E+00 -0.38043073074E+03  0.38043073074E+03  0.00000000000E+00 0. -1.
         23    2    1    2    0    0  0.32488678078E+03  0.26979514981E+03  0.30629462765E+03  0.52949745930E+03  0.90610801163E+02 0.  0.
         11    1    3    3    0    0  0.37140208984E+02  0.74795575051E+02  0.72513231540E+02  0.11059810992E+03  0.00000000000E+00 0. -1.
        -11    1    3    3    0    0  0.28774657180E+03  0.19499957476E+03  0.23378139611E+03  0.41889934937E+03  0.00000000000E+00 0.  1.
         22    1    1    2    0    0 -0.32488678078E+03 -0.26979514981E+03 -0.10297980252E+03  0.43467882731E+03  0.00000000000E+00 0. -1.
<mgrwt>
<rscale>  0 0.94249615E+03</rscale>
<asrwt>0</asrwt>
<pdfrwt beam="1">  1        1 0.58527804E-01 0.94249615E+03</pdfrwt>
<pdfrwt beam="2">  1       -1 0.89807009E-01 0.94249615E+03</pdfrwt>
<totfact> 0.78344711E+01</totfact>
</mgrwt>
</event>
<event>
 6    1  0.9512547E-007  0.3516175E+04  0.7818608E-02  0.8109967E-01
         -2   -1    0    0    0  501 -0.00000000000E+00  0.00000000000E+00  0.18786734730E+04  0.18786734730E+04  0.00000000000E+00 0.  1.
          2   -1    0    0  501    0  0.00000000000E+00 -0.00000000000E+00 -0.16452417779E+04  0.16452417779E+04  0.00000000000E+00 0. -1.
         23    2    1    2    0    0 -0.12301177771E+04 -0.58864429621E+03  0.12269941227E+04  0.18366517414E+04  0.89906557601E+02 0.  0.
         11    1    3    3    0    0 -0.53745281326E+03 -0.26174303127E+03  0.47848705476E+03  0.76571195790E+03  0.00000000000E+00 0. -1.
        -11    1    3    3    0    0 -0.69266496381E+03 -0.32690126495E+03  0.74850706798E+03  0.10709397835E+04  0.00000000000E+00 0.  1.
         22    1    1    2    0    0  0.12301177771E+04  0.58864429621E+03 -0.99356242768E+03  0.16872635095E+04  0.00000000000E+00 0. -1.
<mgrwt>
<rscale>  0 0.35161752E+04</rscale>
<asrwt>0</asrwt>
<pdfrwt beam="1">  1        2 0.25311412E+00 0.35161752E+04</pdfrwt>
<pdfrwt beam="2">  1       -2 0.28902669E+00 0.35161752E+04</pdfrwt>
<totfact> 0.32025083E-01</totfact>
</mgrwt>
</event>
<event>
 6    1  0.9512547E-007  0.1839317E+04  0.7818608E-02  0.8685666E-01
          2   -1    0    0  501    0  0.00000000000E+00  0.00000000000E+00  0.23646689243E+04  0.23646689243E+04  0.00000000000E+00 0. -1.
         -2   -1    0    0    0  501 -0.00000000000E+00 -0.00000000000E+00 -0.35767039592E+03  0.35767039592E+03  0.00000000000E+00 0.  1.
         23    2    1    2    0    0  0.86560542136E+03  0.57221142103E+01  0.55639354585E+03  0.10330908769E+04  0.91637841012E+02 0.  0.
         13    1    3    3    0    0  0.74751825421E+03  0.26270094061E+02  0.45061140264E+03  0.87322637066E+03  0.00000000000E+00 0.  1.
        -13    1    3    3    0    0  0.11808716715E+03 -0.20547979851E+02  0.10578214321E+03  0.15986450620E+03  0.00000000000E+00 0. -1.
         22    1    1    2    0    0 -0.86560542136E+03 -0.57221142103E+01  0.14506049825E+04  0.16892484434E+04  0.00000000000E+00 0. -1.
<mgrwt>
<rscale>  0 0.18393173E+04</rscale>
<asrwt>0</asrwt>
<pdfrwt beam="1">  1        2 0.36379521E+00 0.18393173E+04</pdfrwt>
<pdfrwt beam="2">  1       -2 0.55026216E-01 0.18393173E+04</pdfrwt>
<totfact> 0.12181399E+01</totfact>
</mgrwt>
</event>
<event>
 6    1  0.9512547E-007  0.2948870E+04  0.7818608E-02  0.8258484E-01
          1   -1    0    0  501    0  0.00000000000E+00  0.00000000000E+00  0.14082280028E+04  0.14082280028E+04  0.00000000000E+00 0. -1.
         -1   -1    0    0    0  501 -0.00000000000E+00 -0.00000000000E+00 -0.15437550660E+04  0.15437550660E+04  0.00000000000E+00 0.  1.
         23    2    1    2    0    0  0.10642092725E+04 -0.64169842191E+03  0.72384454371E+03  0.14410767849E+04  0.91832108517E+02 0.  0.
         11    1    3    3    0    0  0.77443991944E+03 -0.42679649851E+03  0.54098591539E+03  0.10366186380E+04  0.00000000000E+00 0. -1.
        -11    1    3    3    0    0  0.28976935303E+03 -0.21490192340E+03  0.18285862832E+03  0.40445814689E+03  0.00000000000E+00 0.  1.
         22    1    1    2    0    0 -0.10642092725E+04  0.64169842191E+03 -0.85937160685E+03  0.15109062840E+04  0.00000000000E+00 0.  1.
<mgrwt>
<rscale>  0 0.29488704E+04</rscale>
<asrwt>0</asrwt>
<pdfrwt beam="1">  1        1 0.21665046E+00 0.29488704E+04</pdfrwt>
<pdfrwt beam="2">  1       -1 0.23750078E+00 0.29488704E+04</pdfrwt>
<totfact> 0.54567174E-01</totfact>
</mgrwt>
</event>
<event>
 6    1  0.9512547E-007  0.2899901E+04  0.7818608E-02  0.8272907E-01
          1   -1    0    0  501    0  0.00000000000E+00  0.00000000000E+00  0.25686756481E+04  0.25686756481E+04  0.00000000000E+00 0. -1.
         -1   -1    0    0    0  501 -0.00000000000E+00 -0.00000000000E+00 -0.81845932273E+03  0.81845932273E+03  0.00000000000E+00 0.  1.
         23    2    1    2    0    0 -0.53114230947E+03 -0.71700444785E+03  0.22085645842E+04  0.23839945731E+04  0.97288595829E+02 0.  0.
         13    1    3    3    0    0 -0.24454716917E+03 -0.40966656092E+03  0.12026825478E+04  0.12938606261E+04  0.00000000000E+00 0. -1.
        -13    1    3    3    0    0 -0.28659514030E+03 -0.30733788693E+03  0.10058820365E+04  0.10901339470E+04  0.00000000000E+00 0.  1.
         22    1    1    2    0    0  0.53114230947E+03  0.71700444785E+03 -0.45834825884E+03  0.10031403977E+04  0.00000000000E+00 0.  1.
<mgrwt>
<rscale>  0 0.28999011E+04</rscale>
<asrwt>0</asrwt>
<pdfrwt beam="1">  1        1 0.39518087E+00 0.28999011E+04</pdfrwt>
<pdfrwt beam="2">  1       -1 0.12591682E+00 0.28999011E+04</pdfrwt>
<totfact> 0.57212680E-01</totfact>
</mgrwt>
</event>
<event>
 6    1  0.9512547E-007  0.1750267E+04  0.7818608E-02  0.8733203E-01
          2   -1    0    0  501    0  0.00000000000E+00  0.00000000000E+00  0.57444548967E+03  0.57444548967E+03  0.00000000000E+00 0. -1.
         -2   -1    0    0    0  501 -0.00000000000E+00 -0.00000000000E+00 -0.13332141197E+04  0.13332141197E+04  0.00000000000E+00 0.  1.
         23    2    1    2    0    0 -0.44882358705E+03 -0.13482254875E+02  0.43537737271E+03  0.63188178414E+03  0.89981936941E+02 0.  0.
         13    1    3    3    0    0 -0.14699079940E+03 -0.39697069316E+02  0.17898547180E+03  0.23498500279E+03  0.00000000000E+00 0.  1.
        -13    1    3    3    0    0 -0.30183278765E+03  0.26214814441E+02  0.25639190091E+03  0.39689678135E+03  0.00000000000E+00 0. -1.
         22    1    1    2    0    0  0.44882358705E+03  0.13482254875E+02 -0.11941460028E+04  0.12757778253E+04  0.00000000000E+00 0.  1.
<mgrwt>
<rscale>  0 0.17502672E+04</rscale>
<asrwt>0</asrwt>
<pdfrwt beam="1">  1        2 0.88376229E-01 0.17502672E+04</pdfrwt>
<pdfrwt beam="2">  1       -2 0.20510987E+00 0.17502672E+04</pdfrwt>
<totfact> 0.60960234E+00</totfact>
</mgrwt>
</event>
<event>
 6    1  0.9512547E-007  0.4537214E+04  0.7818608E-02  0.7904154E-01
          2   -1    0    0  501    0  0.00000000000E+00  0.00000000000E+00  0.37650727705E+04  0.37650727705E+04  0.00000000000E+00 0. -1.
         -2   -1    0    0    0  501 -0.00000000000E+00 -0.00000000000E+00 -0.13669263734E+04  0.13669263734E+04  0.00000000000E+00 0.  1.
         23    2    1    2    0    0  0.14854009678E+04  0.10851361174E+04 -0.30066487170E+03  0.18658823834E+04  0.84742403745E+02 0.  0.
         11    1    3    3    0    0  0.72805655125E+03  0.50468670921E+03 -0.10807155192E+03  0.89244298227E+03  0.00000000000E+00 0.  1.
        -11    1    3    3    0    0  0.75734441660E+03  0.58044940824E+03 -0.19259331978E+03  0.97343940114E+03  0.00000000000E+00 0. -1.
         22    1    1    2    0    0 -0.14854009678E+04 -0.10851361174E+04  0.26988112688E+04  0.32661167605E+04  0.00000000000E+00 0. -1.
<mgrwt>
<rscale>  0 0.45372138E+04</rscale>
<asrwt>0</asrwt>
<pdfrwt beam="1">  1        2 0.57924196E+00 0.45372138E+04</pdfrwt>
<pdfrwt beam="2">  1       -2 0.21029637E+00 0.45372138E+04</pdfrwt>
<totfact> 0.44818510E-02</totfact>
</mgrwt>
</event>
<event>
 6    1  0.9512547E-007  0.2701856E+04  0.7818608E-02  0.8334403E-01
         -2   -1    0    0    0  501 -0.00000000000E+00  0.00000000000E+00  0.87864543993E+03  0.87864543993E+03  0.00000000000E+00 0.  1.
          2   -1    0    0  501    0  0.00000000000E+00 -0.00000000000E+00 -0.20770680474E+04  0.20770680474E+04  0.00000000000E+00 0. -1.
         23    2    1    2    0    0  0.64508169169E+03 -0.10495955461E+04 -0.12010119070E+04  0.17237281368E+04  0.10501375782E+03 0.  0.
         11    1    3    3    0    0  0.25921750490E+03 -0.46815106980E+03 -0.45753010138E+03  0.70405463756E+03  0.00000000000E+00 0. -1.
        -11    1    3    3    0    0  0.38586418679E+03 -0.58144447632E+03 -0.74348180564E+03  0.10196734992E+04  0.00000000000E+00 0.  1.
         22    1    1    2    0    0 -0.64508169169E+03  0.10495955461E+04  0.25892995872E+01  0.12319853505E+04  0.00000000000E+00 0.  1.
<mgrwt>
<rscale>  0 0.27018559E+04</rscale>
<asrwt>0</asrwt>
<pdfrwt beam="1">  1        2 0.31954892E+00 0.27018559E+04</pdfrwt>
<pdfrwt beam="2">  1       -2 0.13517622E+00 0.27018559E+04</pdfrwt>
<totfact> 0.20873049E+00</totfact>
</mgrwt>
</event>
<event>
 6    1  0.9512547E-007  0.1261197E+04  0.7818608E-02  0.9060915E-01
          2   -1    0    0  501    0  0.00000000000E+00  0.00000000000E+00  0.19379829753E+04  0.19379829753E+04  0.00000000000E+00 0. -1.
         -2   -1    0    0    0  501 -0.00000000000E+00 -0.00000000000E+00 -0.20518976535E+03  0.20518976535E+03  0.00000000000E+00 0.  1.
         23    2    1    2    0    0 -0.45127036934E+03 -0.42001491726E+03  0.10654778121E+04  0.12346754555E+04  0.95514581714E+02 0.  0.
         11    1    3    3    0    0 -0.16033362171E+03 -0.18500995256E+03  0.49987176874E+03  0.55660339379E+03  0.00000000000E+00 0. -1.
        -11    1    3    3    0    0 -0.29093674764E+03 -0.23500496470E+03  0.56560604337E+03  0.67807206170E+03  0.00000000000E+00 0.  1.
         22    1    1    2    0    0  0.45127036934E+03  0.42001491726E+03  0.66731539786E+03  0.90849728518E+03  0.00000000000E+00 0.  1.
<mgrwt>
<rscale>  0 0.12611967E+04</rscale>
<asrwt>0</asrwt>
<pdfrwt beam="1">  1        2 0.29815121E+00 0.12611967E+04</pdfrwt>
<pdfrwt beam="2">  1       -2 0.31567658E-01 0.12611967E+04</pdfrwt>
<totfact> 0.66299928E+01</totfact>
</mgrwt>
</event>
<event>
 6    1  0.9512547E-007  0.1254550E+04  0.7818608E-02  0.9066405E-01
         -2   -1    0    0    0  501 -0.00000000000E+00  0.00000000000E+00  0.58036028568E+03  0.58036028568E+03  0.00000000000E+00 0.  1.
          2   -1    0    0  501    0  0.00000000000E+00 -0.00000000000E+00 -0.67798211316E+03  0.67798211316E+03  0.00000000000E+00 0. -1.
         23    2    1    2    0    0  0.17564655359E+03  0.59803870689E+03 -0.79262504483E+02  0.63477277845E+03  0.90288033088E+02 0.  0.
         11    1    3    3    0    0  0.36943159918E+02  0.23225324208E+03 -0.61920973437E+02  0.24318834774E+03  0.00000000000E+00 0. -1.
        -11    1    3    3    0    0  0.13870339367E+03  0.36578546481E+03 -0.17341531045E+02  0.39158443072E+03  0.00000000000E+00 0.  1.
         22    1    1    2    0    0 -0.17564655359E+03 -0.59803870689E+03 -0.18359322991E+02  0.62356962039E+03  0.00000000000E+00 0.  1.
<mgrwt>
<rscale>  0 0.12545499E+04</rscale>
<asrwt>0</asrwt>
<pdfrwt beam="1">  1        2 0.10430494E+00 0.12545499E+04</pdfrwt>
<pdfrwt beam="2">  1       -2 0.89286198E-01 0.12545499E+04</pdfrwt>
<totfact> 0.45166359E+01</totfact>
</mgrwt>
</event>
<event>
 6    1  0.9512547E-007  0.2365101E+04  0.7818608E-02  0.8452686E-01
          1   -1    0    0  501    0  0.00000000000E+00  0.00000000000E+00  0.13523070159E+04  0.13523070159E+04  0.00000000000E+00 0. -1.
         -1   -1    0    0    0  501 -0.00000000000E+00 -0.00000000000E+00 -0.10341036122E+04  0.10341036122E+04  0.00000000000E+00 0.  1.
         23    2    1    2    0    0  0.68074560320E+03  0.25587966597E+03 -0.77943969596E+03  0.10697066545E+04  0.88640325384E+02 0.  0.
         13    1    3    3    0    0  0.46011012814E+03  0.13285923252E+03 -0.53786966842E+03  0.72017823204E+03  0.00000000000E+00 0. -1.
        -13    1    3    3    0    0  0.22063547506E+03  0.12302043344E+03 -0.24157002753E+03  0.34952842245E+03  0.00000000000E+00 0.  1.
         22    1    1    2    0    0 -0.68074560320E+03 -0.25587966597E+03  0.10976430997E+04  0.13167039735E+04  0.00000000000E+00 0. -1.
<mgrwt>
<rscale>  0 0.23651009E+04</rscale>
<asrwt>0</asrwt>
<pdfrwt beam="1">  1        1 0.20804723E+00 0.23651009E+04</pdfrwt>
<pdfrwt beam="2">  1       -1 0.15909286E+00 0.23651009E+04</pdfrwt>
<totfact> 0.22157633E+00</totfact>
</mgrwt>
</event>
<event>
 6    1  0.9512547E-007  0.1085685E+04  0.7818608E-02  0.9219257E-01
          1   -1    0    0  501    0  0.00000000000E+00  0.00000000000E+00  0.12234892858E+04  0.12234892858E+04  0.00000000000E+00 0. -1.
         -1   -1    0    0    0  501 -0.00000000000E+00 -0.00000000000E+00 -0.24085053667E+03  0.24085053667E+03  0.00000000000E+00 0.  1.
         23    2    1    2    0    0  0.21627963442E+03 -0.15141433338E+03  0.11284669169E+04  0.11627290881E+04  0.93798555624E+02 0.  0.
         13    1    3    3    0    0  0.10327520956E+03 -0.12231330711E+03  0.56125078007E+03  0.58363409096E+03  0.00000000000E+00 0.  1.
        -13    1    3    3    0    0  0.11300442487E+03 -0.29101026273E+02  0.56721613685E+03  0.57909499710E+03  0.00000000000E+00 0. -1.
         22    1    1    2    0    0 -0.21627963442E+03  0.15141433338E+03 -0.14582816776E+03  0.30161073444E+03  0.00000000000E+00 0.  1.
<mgrwt>
<rscale>  0 0.10856851E+04</rscale>
<asrwt>0</asrwt>
<pdfrwt beam="1">  1        1 0.18822912E+00 0.10856851E+04</pdfrwt>
<pdfrwt beam="2">  1       -1 0.37053929E-01 0.10856851E+04</pdfrwt>
<totfact> 0.71678219E+01</totfact>
</mgrwt>
</event>
<event>
 6    1  0.9512547E-007  0.6341320E+03  0.7818608E-02  0.9837018E-01
         -1   -1    0    0    0  501 -0.00000000000E+00  0.00000000000E+00  0.55767240091E+02  0.55767240091E+02  0.00000000000E+00 0.  1.
          1   -1    0    0  501    0  0.00000000000E+00 -0.00000000000E+00 -0.18026866648E+04  0.18026866648E+04  0.00000000000E+00 0. -1.
         23    2    1    2    0    0 -0.19405980558E+03 -0.23612553629E+03 -0.10526128700E+04  0.10998525148E+04  0.90924272627E+02 0.  0.
         13    1    3    3    0    0 -0.12730478231E+03 -0.84535461727E+02 -0.53343585825E+03  0.55489329312E+03  0.00000000000E+00 0. -1.
        -13    1    3    3    0    0 -0.66755023264E+02 -0.15159007456E+03 -0.51917701171E+03  0.54495922171E+03  0.00000000000E+00 0.  1.
         22    1    1    2    0    0  0.19405980558E+03  0.23612553629E+03 -0.69430655474E+03  0.75860139005E+03  0.00000000000E+00 0. -1.
<mgrwt>
<rscale>  0 0.63413204E+03</rscale>
<asrwt>0</asrwt>
<pdfrwt beam="1">  1        1 0.27733636E+00 0.63413204E+03</pdfrwt>
<pdfrwt beam="2">  1       -1 0.85795768E-02 0.63413204E+03</pdfrwt>
<totfact> 0.33680265E+02</totfact>
</mgrwt>
</event>
<event>
 6    1  0.9512547E-007  0.3345308E+04  0.7818608E-02  0.8151461E-01
          2   -1    0    0  501    0  0.00000000000E+00  0.00000000000E+00  0.36675428360E+04  0.36675428360E+04  0.00000000000E+00 0. -1.
         -2   -1    0    0    0  501 -0.00000000000E+00 -0.00000000000E+00 -0.76284649729E+03  0.76284649729E+03  0.00000000000E+00 0.  1.
         23    2    1    2    0    0 -0.10070350116E+03 -0.12110040848E+04 -0.66709280001E+02  0.12201053210E+04  0.86803097251E+02 0.  0.
         13    1    3    3    0    0 -0.48908519832E+02 -0.81497961375E+03 -0.85107956215E+01  0.81649020066E+03  0.00000000000E+00 0. -1.
        -13    1    3    3    0    0 -0.51794981330E+02 -0.39602447108E+03 -0.58198484379E+02  0.40361512034E+03  0.00000000000E+00 0.  1.
         22    1    1    2    0    0  0.10070350116E+03  0.12110040848E+04  0.29714056188E+04  0.32102840123E+04  0.00000000000E+00 0.  1.
<mgrwt>
<rscale>  0 0.33453085E+04</rscale>
<asrwt>0</asrwt>
<pdfrwt beam="1">  1        2 0.56423735E+00 0.33453085E+04</pdfrwt>
<pdfrwt beam="2">  1       -2 0.11736100E+00 0.33453085E+04</pdfrwt>
<totfact> 0.28741062E-01</totfact>
</mgrwt>
</event>
<event>
 6    1  0.9512547E-007  0.3873966E+04  0.7818608E-02  0.8030466E-01
          2   -1    0    0  501    0  0.00000000000E+00  0.00000000000E+00  0.15283716773E+04  0.15283716773E+04  0.00000000000E+00 0. -1.
         -2   -1    0    0    0  501 -0.00000000000E+00 -0.00000000000E+00 -0.24548365274E+04  0.24548365274E+04  0.00000000000E+00 0.  1.
         23    2    1    2    0    0  0.10252542493E+04 -0.14286110311E+04 -0.12953727874E+04  0.21864976493E+04  0.10346766700E+03 0.  0.
         13    1    3    3    0    0  0.23848162205E+03 -0.31631489627E+03 -0.24054310293E+03  0.46345396970E+03  0.00000000000E+00 0.  1.
        -13    1    3    3    0    0  0.78677262722E+03 -0.11122961349E+04 -0.10548296845E+04  0.17230436796E+04  0.00000000000E+00 0. -1.
         22    1    1    2    0    0 -0.10252542493E+04  0.14286110311E+04  0.36890793723E+03  0.17967105554E+04  0.00000000000E+00 0. -1.
<mgrwt>
<rscale>  0 0.38739657E+04</rscale>
<asrwt>0</asrwt>
<pdfrwt beam="1">  1        2 0.23513411E+00 0.38739657E+04</pdfrwt>
<pdfrwt beam="2">  1       -2 0.37766715E+00 0.38739657E+04</pdfrwt>
<totfact> 0.10101338E-01</totfact>
</mgrwt>
</event>
<event>
 6    1  0.9512547E-007  0.2688362E+04  0.7818608E-02  0.8338791E-01
         -2   -1    0    0    0  501 -0.00000000000E+00  0.00000000000E+00  0.83559516749E+03  0.83559516749E+03  0.00000000000E+00 0.  1.
          2   -1    0    0  501    0  0.00000000000E+00 -0.00000000000E+00 -0.21623176313E+04  0.21623176313E+04  0.00000000000E+00 0. -1.
         23    2    1    2    0    0 -0.23042315712E+03  0.57026566424E+03 -0.19950257833E+04  0.20896578313E+04  0.90797669343E+02 0.  0.
         13    1    3    3    0    0 -0.14495007075E+03  0.38657012661E+03 -0.11921940261E+04  0.12616550961E+04  0.00000000000E+00 0. -1.
        -13    1    3    3    0    0 -0.85473086374E+02  0.18369553763E+03 -0.80283175726E+03  0.82800273520E+03  0.00000000000E+00 0.  1.
         22    1    1    2    0    0  0.23042315712E+03 -0.57026566424E+03  0.66830331948E+03  0.90825496749E+03  0.00000000000E+00 0.  1.
<mgrwt>
<rscale>  0 0.26883617E+04</rscale>
<asrwt>0</asrwt>
<pdfrwt beam="1">  1        2 0.33266425E+00 0.26883617E+04</pdfrwt>
<pdfrwt beam="2">  1       -2 0.12855310E+00 0.26883617E+04</pdfrwt>
<totfact> 0.21270973E+00</totfact>
</mgrwt>
</event>
<event>
 6    1  0.9512547E-007  0.1261918E+04  0.7818608E-02  0.9060322E-01
          1   -1    0    0  501    0  0.00000000000E+00  0.00000000000E+00  0.64855940995E+03  0.64855940995E+03  0.00000000000E+00 0. -1.
         -1   -1    0    0    0  501 -0.00000000000E+00 -0.00000000000E+00 -0.61383598612E+03  0.61383598612E+03  0.00000000000E+00 0.  1.
         23    2    1    2    0    0 -0.53937597701E+03  0.25745160257E+03 -0.17696525699E+03  0.62834502755E+03  0.79328426359E+02 0.  0.
         13    1    3    3    0    0 -0.26055690789E+03  0.86245945350E+02 -0.10100873950E+03  0.29245688707E+03  0.00000000000E+00 0. -1.
        -13    1    3    3    0    0 -0.27881906912E+03  0.17120565722E+03 -0.75956517489E+02  0.33588814048E+03  0.00000000000E+00 0.  1.
         22    1    1    2    0    0  0.53937597701E+03 -0.25745160257E+03  0.21168868082E+03  0.63405036852E+03  0.00000000000E+00 0. -1.
<mgrwt>
<rscale>  0 0.12619178E+04</rscale>
<asrwt>0</asrwt>
<pdfrwt beam="1">  1        1 0.99778370E-01 0.12619178E+04</pdfrwt>
<pdfrwt beam="2">  1       -1 0.94436306E-01 0.12619178E+04</pdfrwt>
<totfact> 0.32689567E+01</totfact>
</mgrwt>
</event>
<event>
 6    1  0.9512547E-007  0.4223876E+04  0.7818608E-02  0.7960846E-01
         -2   -1    0    0    0  501 -0.00000000000E+00  0.00000000000E+00  0.23252988427E+04  0.23252988427E+04  0.00000000000E+00 0.  1.
          2   -1    0    0  501    0  0.00000000000E+00 -0.00000000000E+00 -0.19181541956E+04  0.19181541956E+04  0.00000000000E+00 0. -1.
         23    2    1    2    0    0 -0.64156207074E+03 -0.29796505408E+03 -0.17944104524E+04  0.19310452195E+04  0.92960767726E+02 0.  0.
         11    1    3    3    0    0 -0.51567984191E+03 -0.27631367458E+03 -0.15042717919E+04  0.16140348726E+04  0.00000000000E+00 0. -1.
        -11    1    3    3    0    0 -0.12588222884E+03 -0.21651379503E+02 -0.29013866050E+03  0.31701034697E+03  0.00000000000E+00 0.  1.
         22    1    1    2    0    0  0.64156207074E+03  0.29796505408E+03  0.22015550995E+04  0.23124078187E+04  0.00000000000E+00 0.  1.
<mgrwt>
<rscale>  0 0.42238758E+04</rscale>
<asrwt>0</asrwt>
<pdfrwt beam="1">  1        2 0.29510064E+00 0.42238758E+04</pdfrwt>
<pdfrwt beam="2">  1       -2 0.35773828E+00 0.42238758E+04</pdfrwt>
<totfact> 0.79885215E-02</totfact>
</mgrwt>
</event>
<event>
 6    1  0.9512547E-007  0.1928493E+04  0.7818608E-02  0.8640802E-01
         -1   -1    0    0    0  501 -0.00000000000E+00  0.00000000000E+00  0.85062976286E+03  0.85062976286E+03  0.00000000000E+00 0.  1.
          1   -1    0    0  501    0  0.00000000000E+00 -0.00000000000E+00 -0.10930393130E+04  0.10930393130E+04  0.00000000000E+00 0. -1.
         23    2    1    2    0    0  0.31717828274E+02  0.67482268337E+03  0.56896581854E+03  0.88786527613E+03  0.90503984808E+02 0.  0.
         13    1    3    3    0    0  0.85858957548E+01  0.42077018917E+03  0.40838055828E+03  0.58642642342E+03  0.00000000000E+00 0. -1.
        -13    1    3    3    0    0  0.23131932519E+02  0.25405249420E+03  0.16058526026E+03  0.30143885271E+03  0.00000000000E+00 0.  1.
         22    1    1    2    0    0 -0.31717828274E+02 -0.67482268337E+03 -0.81137536867E+03  0.10558037997E+04  0.00000000000E+00 0. -1.
<mgrwt>
<rscale>  0 0.19284935E+04</rscale>
<asrwt>0</asrwt>
<pdfrwt beam="1">  1        1 0.16815989E+00 0.19284935E+04</pdfrwt>
<pdfrwt beam="2">  1       -1 0.13086612E+00 0.19284935E+04</pdfrwt>
<totfact> 0.59738326E+00</totfact>
</mgrwt>
</event>
<event>
 6    1  0.9512547E-007  0.2359633E+04  0.7818608E-02  0.8454773E-01
          2   -1    0    0  501    0  0.00000000000E+00  0.00000000000E+00  0.10120178841E+04  0.10120178841E+04  0.00000000000E+00 0. -1.
         -2   -1    0    0    0  501 -0.00000000000E+00 -0.00000000000E+00 -0.13754376157E+04  0.13754376157E+04  0.00000000000E+00 0.  1.
         23    2    1    2    0    0  0.17234324063E+03 -0.41091316868E+03 -0.12853425041E+04  0.13634958212E+04  0.91998243792E+02 0.  0.
         13    1    3    3    0    0  0.91423432728E+02 -0.21958212631E+03 -0.54679628762E+03  0.59628913658E+03  0.00000000000E+00 0. -1.
        -13    1    3    3    0    0  0.80919807897E+02 -0.19133104237E+03 -0.73854621647E+03  0.76720668463E+03  0.00000000000E+00 0.  1.
         22    1    1    2    0    0 -0.17234324063E+03  0.41091316868E+03  0.92192277258E+03  0.10239596786E+04  0.00000000000E+00 0. -1.
<mgrwt>
<rscale>  0 0.23596334E+04</rscale>
<asrwt>0</asrwt>
<pdfrwt beam="1">  1        2 0.15569506E+00 0.23596334E+04</pdfrwt>
<pdfrwt beam="2">  1       -2 0.21160579E+00 0.23596334E+04</pdfrwt>
<totfact> 0.24957893E+00</totfact>
</mgrwt>
</event>
<event>
 6    1  0.9512547E-007  0.4022643E+04  0.7818608E-02  0.7999994E-01
         -2   -1    0    0    0  501 -0.00000000000E+00  0.00000000000E+00  0.13099916000E+04  0.13099916000E+04  0.00000000000E+00 0.  1.
          2   -1    0    0  501    0  0.00000000000E+00 -0.00000000000E+00 -0.30881222007E+04  0.30881222007E+04  0.00000000000E+00 0. -1.
         23    2    1    2    0    0 -0.16126945626E+04 -0.10495527632E+04 -0.25295402842E+03  0.19428117150E+04  0.90481293433E+02 0.  0.
         13    1    3    3    0    0 -0.14956802153E+03 -0.11866273582E+03 -0.45694788048E+02  0.19631467493E+03  0.00000000000E+00 0.  1.
        -13    1    3    3    0    0 -0.14631265411E+04 -0.93089002734E+03 -0.20725924038E+03  0.17464970401E+04  0.00000000000E+00 0. -1.
         22    1    1    2    0    0  0.16126945626E+04  0.10495527632E+04 -0.15251765723E+04  0.24553020856E+04  0.00000000000E+00 0. -1.
<mgrwt>
<rscale>  0 0.40226430E+04</rscale>
<asrwt>0</asrwt>
<pdfrwt beam="1">  1        2 0.47509572E+00 0.40226430E+04</pdfrwt>
<pdfrwt beam="2">  1       -2 0.20153717E+00 0.40226430E+04</pdfrwt>
<totfact> 0.15657982E-01</totfact>
</mgrwt>
</event>
<event>
 6    1  0.9512547E-007  0.1166364E+04  0.7818608E-02  0.9142818E-01
          2   -1    0    0  501    0  0.00000000000E+00  0.00000000000E+00  0.18910742089E+04  0.18910742089E+04  0.00000000000E+00 0. -1.
         -2   -1    0    0    0  501 -0.00000000000E+00 -0.00000000000E+00 -0.17984568261E+03  0.17984568261E+03  0.00000000000E+00 0.  1.
         23    2    1    2    0    0 -0.22279691872E+03  0.22696128652E+03  0.82547275244E+00  0.33119908111E+03  0.92424333110E+02 0.  0.
         13    1    3    3    0    0 -0.77557271270E+02  0.78931095190E+02 -0.43900666389E+02  0.11904837934E+03  0.00000000000E+00 0. -1.
        -13    1    3    3    0    0 -0.14523964745E+03  0.14803019133E+03  0.44726139141E+02  0.21215070177E+03  0.00000000000E+00 0.  1.
         22    1    1    2    0    0  0.22279691872E+03 -0.22696128652E+03  0.17104030536E+04  0.17397208104E+04  0.00000000000E+00 0. -1.
<mgrwt>
<rscale>  0 0.11663645E+04</rscale>
<asrwt>0</asrwt>
<pdfrwt beam="1">  1        2 0.29093448E+00 0.11663645E+04</pdfrwt>
<pdfrwt beam="2">  1       -2 0.27668568E-01 0.11663645E+04</pdfrwt>
<totfact> 0.90578996E+01</totfact>
</mgrwt>
</event>
<event>
 6    1  0.9512547E-007  0.3742847E+04  0.7818608E-02  0.8058532E-01
         -1   -1    0    0    0  501 -0.00000000000E+00  0.00000000000E+00  0.12472149822E+04  0.12472149822E+04  0.00000000000E+00 0.  1.
          1   -1    0    0  501    0  0.00000000000E+00 -0.00000000000E+00 -0.28080363691E+04  0.28080363691E+04  0.00000000000E+00 0. -1.
         23    2    1    2    0    0  0.65516410209E+03 -0.24885159428E+02 -0.26787119322E+04  0.27592812346E+04  0.90972765312E+02 0.  0.
         13    1    3    3    0    0  0.22082814036E+03 -0.35317870203E+02 -0.77488510257E+03  0.80651059616E+03  0.00000000000E+00 0. -1.
        -13    1    3    3    0    0  0.43433596173E+03  0.10432710775E+02 -0.19038268297E+04  0.19527706385E+04  0.00000000000E+00 0.  1.
         22    1    1    2    0    0 -0.65516410209E+03  0.24885159428E+02  0.11178905454E+04  0.12959701167E+04  0.00000000000E+00 0.  1.
<mgrwt>
<rscale>  0 0.37428465E+04</rscale>
<asrwt>0</asrwt>
<pdfrwt beam="1">  1        1 0.43200559E+00 0.37428465E+04</pdfrwt>
<pdfrwt beam="2">  1       -1 0.19187923E+00 0.37428465E+04</pdfrwt>
<totfact> 0.11267028E-01</totfact>
</mgrwt>
</event>
<event>
 6    1  0.9512547E-007  0.1494967E+04  0.7818608E-02  0.8887807E-01
         -2   -1    0    0    0  501 -0.00000000000E+00  0.00000000000E+00  0.24864818300E+03  0.24864818300E+03  0.00000000000E+00 0.  1.
          2   -1    0    0  501    0  0.00000000000E+00 -0.00000000000E+00 -0.22470758033E+04  0.22470758033E+04  0.00000000000E+00 0. -1.
         23    2    1    2    0    0  0.56477906996E+03 -0.10702352083E+03 -0.17933842660E+04  0.18854189732E+04  0.90267087174E+02 0.  0.
         11    1    3    3    0    0  0.47173301629E+03 -0.91379946506E+02 -0.15937985467E+04  0.16646549614E+04  0.00000000000E+00 0.  1.
        -11    1    3    3    0    0  0.93046053662E+02 -0.15643574322E+02 -0.19958571936E+03  0.22076401177E+03  0.00000000000E+00 0. -1.
         22    1    1    2    0    0 -0.56477906996E+03  0.10702352083E+03 -0.20504335427E+03  0.61030501309E+03  0.00000000000E+00 0.  1.
<mgrwt>
<rscale>  0 0.14949666E+04</rscale>
<asrwt>0</asrwt>
<pdfrwt beam="1">  1        2 0.34570396E+00 0.14949666E+04</pdfrwt>
<pdfrwt beam="2">  1       -2 0.38253567E-01 0.14949666E+04</pdfrwt>
<totfact> 0.30337785E+01</totfact>
</mgrwt>
</event>
<event>
 6    1  0.9512547E-007  0.2222643E+04  0.7818608E-02  0.8509062E-01
         -2   -1    0    0    0  501 -0.00000000000E+00  0.00000000000E+00  0.59940285778E+03  0.59940285778E+03  0.00000000000E+00 0.  1.
          2   -1    0    0  501    0  0.00000000000E+00 -0.00000000000E+00 -0.20604422547E+04  0.20604422547E+04  0.00000000000E+00 0. -1.
         23    2    1    2    0    0 -0.35370506285E+03  0.21304467923E+03 -0.19640365853E+04  0.20090752006E+04  0.91913797764E+02 0.  0.
         11    1    3    3    0    0 -0.55907138391E+02  0.74732908914E+02 -0.37181492026E+03  0.38334964553E+03  0.00000000000E+00 0.  1.
        -11    1    3    3    0    0 -0.29779792446E+03  0.13831177032E+03 -0.15922216650E+04  0.16257255550E+04  0.00000000000E+00 0. -1.
         22    1    1    2    0    0  0.35370506285E+03 -0.21304467923E+03  0.50299718834E+03  0.65076991196E+03  0.00000000000E+00 0.  1.
<mgrwt>
<rscale>  0 0.22226425E+04</rscale>
<asrwt>0</asrwt>
<pdfrwt beam="1">  1        2 0.31699112E+00 0.22226425E+04</pdfrwt>
<pdfrwt beam="2">  1       -2 0.92215824E-01 0.22226425E+04</pdfrwt>
<totfact> 0.56339476E+00</totfact>
</mgrwt>
</event>
<event>
 6    1  0.9512547E-007  0.1642011E+04  0.7818608E-02  0.8795147E-01
          2   -1    0    0  501    0  0.00000000000E+00  0.00000000000E+00  0.15385542867E+04  0.15385542867E+04  0.00000000000E+00 0. -1.
         -2   -1    0    0    0  501 -0.00000000000E+00 -0.00000000000E+00 -0.43810630206E+03  0.43810630206E+03  0.00000000000E+00 0.  1.
         23    2    1    2    0    0 -0.38867359976E+03  0.25359740564E+03 -0.25975667113E+03  0.53946348437E+03  0.90379817823E+02 0.  0.
         13    1    3    3    0    0 -0.16836663964E+03  0.14995715901E+03 -0.15941275572E+03  0.27612841500E+03  0.00000000000E+00 0. -1.
        -13    1    3    3    0    0 -0.22030696012E+03  0.10364024663E+03 -0.10034391540E+03  0.26333506937E+03  0.00000000000E+00 0.  1.
         22    1    1    2    0    0  0.38867359976E+03 -0.25359740564E+03  0.13602046557E+04  0.14371971044E+04  0.00000000000E+00 0. -1.
<mgrwt>
<rscale>  0 0.16420114E+04</rscale>
<asrwt>0</asrwt>
<pdfrwt beam="1">  1        2 0.23670066E+00 0.16420114E+04</pdfrwt>
<pdfrwt beam="2">  1       -2 0.67400970E-01 0.16420114E+04</pdfrwt>
<totfact> 0.23293716E+01</totfact>
</mgrwt>
</event>
<event>
 6    1  0.9512547E-007  0.2034479E+04  0.7818608E-02  0.8590668E-01
          1   -1    0    0  501    0  0.00000000000E+00  0.00000000000E+00  0.94594184418E+03  0.94594184418E+03  0.00000000000E+00 0. -1.
         -1   -1    0    0    0  501 -0.00000000000E+00 -0.00000000000E+00 -0.10939108722E+04  0.10939108722E+04  0.00000000000E+00 0.  1.
         23    2    1    2    0    0 -0.25343578128E+03 -0.91941744237E+03 -0.42351962248E+03  0.10471361110E+04  0.86988710529E+02 0.  0.
         13    1    3    3    0    0 -0.14056829420E+03 -0.49355448342E+03 -0.18057014370E+03  0.54402302363E+03  0.00000000000E+00 0. -1.
        -13    1    3    3    0    0 -0.11286748708E+03 -0.42586295895E+03 -0.24294947877E+03  0.50311308736E+03  0.00000000000E+00 0.  1.
         22    1    1    2    0    0  0.25343578128E+03  0.91941744237E+03  0.27555059443E+03  0.99271660541E+03  0.00000000000E+00 0. -1.
<mgrwt>
<rscale>  0 0.20344789E+04</rscale>
<asrwt>0</asrwt>
<pdfrwt beam="1">  1        1 0.14552952E+00 0.20344789E+04</pdfrwt>
<pdfrwt beam="2">  1       -1 0.16829398E+00 0.20344789E+04</pdfrwt>
<totfact> 0.39123506E+00</totfact>
</mgrwt>
</event>
<event>
 6    1  0.9512547E-007  0.2198177E+04  0.7818608E-02  0.8519187E-01
         -2   -1    0    0    0  501 -0.00000000000E+00  0.00000000000E+00  0.42928653565E+03  0.42928653565E+03  0.00000000000E+00 0.  1.
          2   -1    0    0  501    0  0.00000000000E+00 -0.00000000000E+00 -0.28139604818E+04  0.28139604818E+04  0.00000000000E+00 0. -1.
         23    2    1    2    0    0 -0.34688004055E+03  0.54281427418E+03  0.11592286966E+03  0.66100815670E+03  0.92306948491E+02 0.  0.
         13    1    3    3    0    0 -0.16743579661E+03  0.32149386828E+03  0.31550884948E+02  0.36385232124E+03  0.00000000000E+00 0.  1.
        -13    1    3    3    0    0 -0.17944424394E+03  0.22132040590E+03  0.84371984709E+02  0.29715583547E+03  0.00000000000E+00 0. -1.
         22    1    1    2    0    0  0.34688004055E+03 -0.54281427418E+03 -0.25005968158E+04  0.25822388608E+04  0.00000000000E+00 0. -1.
<mgrwt>
<rscale>  0 0.21981768E+04</rscale>
<asrwt>0</asrwt>
<pdfrwt beam="1">  1        2 0.43291700E+00 0.21981768E+04</pdfrwt>
<pdfrwt beam="2">  1       -2 0.66044082E-01 0.21981768E+04</pdfrwt>
<totfact> 0.43761894E+00</totfact>
</mgrwt>
</event>
<event>
 6    1  0.9512547E-007  0.1354402E+04  0.7818608E-02  0.8987503E-01
          3   -1    0    0  501    0  0.00000000000E+00  0.00000000000E+00  0.39339360109E+03  0.39339360109E+03  0.00000000000E+00 0. -1.
         -3   -1    0    0    0  501 -0.00000000000E+00 -0.00000000000E+00 -0.11657564864E+04  0.11657564864E+04  0.00000000000E+00 0.  1.
         23    2    1    2    0    0  0.18547021907E+03 -0.27700431907E+03 -0.10624780765E+04  0.11172254116E+04  0.90566893557E+02 0.  0.
         11    1    3    3    0    0  0.16637517699E+03 -0.26950575988E+03 -0.91365565554E+03  0.96699571407E+03  0.00000000000E+00 0. -1.
        -11    1    3    3    0    0  0.19095042077E+02 -0.74985591860E+01 -0.14882242101E+03  0.15022969752E+03  0.00000000000E+00 0.  1.
         22    1    1    2    0    0 -0.18547021907E+03  0.27700431907E+03  0.29011519126E+03  0.44192467587E+03  0.00000000000E+00 0. -1.
<mgrwt>
<rscale>  0 0.13544019E+04</rscale>
<asrwt>0</asrwt>
<pdfrwt beam="1">  1        3 0.60522093E-01 0.13544019E+04</pdfrwt>
<pdfrwt beam="2">  1       -3 0.17934715E+00 0.13544019E+04</pdfrwt>
<totfact> 0.13623565E+00</totfact>
</mgrwt>
</event>
<event>
 6    1  0.9512547E-007  0.2258988E+04  0.7818608E-02  0.8494269E-01
          2   -1    0    0  501    0  0.00000000000E+00  0.00000000000E+00  0.16347834949E+04  0.16347834949E+04  0.00000000000E+00 0. -1.
         -2   -1    0    0    0  501 -0.00000000000E+00 -0.00000000000E+00 -0.78038256683E+03  0.78038256683E+03  0.00000000000E+00 0.  1.
         23    2    1    2    0    0  0.94601564668E+02 -0.38082354238E+03 -0.70332715669E+03  0.80877482278E+03  0.73970251815E+02 0.  0.
         11    1    3    3    0    0 -0.11484538817E+02 -0.43375160245E+02 -0.95394446236E+02  0.10542010971E+03  0.00000000000E+00 0. -1.
        -11    1    3    3    0    0  0.10608610349E+03 -0.33744838214E+03 -0.60793271046E+03  0.70335471308E+03  0.00000000000E+00 0.  1.
         22    1    1    2    0    0 -0.94601564668E+02  0.38082354238E+03  0.15577280847E+04  0.16063912389E+04  0.00000000000E+00 0. -1.
<mgrwt>
<rscale>  0 0.22589879E+04</rscale>
<asrwt>0</asrwt>
<pdfrwt beam="1">  1        2 0.25150515E+00 0.22589879E+04</pdfrwt>
<pdfrwt beam="2">  1       -2 0.12005886E+00 0.22589879E+04</pdfrwt>
<totfact> 0.51451130E+00</totfact>
</mgrwt>
</event>
<event>
 6    1  0.9512547E-007  0.4054589E+04  0.7818608E-02  0.7993624E-01
          2   -1    0    0  501    0  0.00000000000E+00  0.00000000000E+00  0.33596749402E+04  0.33596749402E+04  0.00000000000E+00 0. -1.
         -2   -1    0    0    0  501 -0.00000000000E+00 -0.00000000000E+00 -0.12233099626E+04  0.12233099626E+04  0.00000000000E+00 0.  1.
         23    2    1    2    0    0 -0.12140604185E+04  0.45041146970E+03  0.28303649672E+04  0.31138187525E+04  0.89934331300E+02 0.  0.
         11    1    3    3    0    0 -0.59651723956E+03  0.26926421934E+03  0.14279514304E+04  0.15707900320E+04  0.00000000000E+00 0. -1.
        -11    1    3    3    0    0 -0.61754317896E+03  0.18114725036E+03  0.14024135367E+04  0.15430287205E+04  0.00000000000E+00 0.  1.
         22    1    1    2    0    0  0.12140604185E+04 -0.45041146970E+03 -0.69399998957E+03  0.14691661504E+04  0.00000000000E+00 0.  1.
<mgrwt>
<rscale>  0 0.40545894E+04</rscale>
<asrwt>0</asrwt>
<pdfrwt beam="1">  1        2 0.51687307E+00 0.40545894E+04</pdfrwt>
<pdfrwt beam="2">  1       -2 0.18820153E+00 0.40545894E+04</pdfrwt>
<totfact> 0.12695091E-01</totfact>
</mgrwt>
</event>
<event>
 6    1  0.9512547E-007  0.2475399E+04  0.7818608E-02  0.8411803E-01
         -1   -1    0    0    0  501 -0.00000000000E+00  0.00000000000E+00  0.53170443067E+03  0.53170443067E+03  0.00000000000E+00 0.  1.
          1   -1    0    0  501    0  0.00000000000E+00 -0.00000000000E+00 -0.28811119892E+04  0.28811119892E+04  0.00000000000E+00 0. -1.
         23    2    1    2    0    0  0.12325548049E+04  0.87461086485E+02 -0.12192395528E+04  0.17382655816E+04  0.90450851251E+02 0.  0.
         13    1    3    3    0    0  0.34450729799E+03  0.64015913915E+02 -0.35898745017E+03  0.50165257398E+03  0.00000000000E+00 0.  1.
        -13    1    3    3    0    0  0.88804750689E+03  0.23445172570E+02 -0.86025210263E+03  0.12366130077E+04  0.00000000000E+00 0. -1.
         22    1    1    2    0    0 -0.12325548049E+04 -0.87461086485E+02 -0.11301680057E+04  0.16745508382E+04  0.00000000000E+00 0. -1.
<mgrwt>
<rscale>  0 0.24753990E+04</rscale>
<asrwt>0</asrwt>
<pdfrwt beam="1">  1        1 0.44324800E+00 0.24753990E+04</pdfrwt>
<pdfrwt beam="2">  1       -1 0.81800682E-01 0.24753990E+04</pdfrwt>
<totfact> 0.96521043E-01</totfact>
</mgrwt>
</event>
<event>
 6    1  0.9512547E-007  0.4171323E+04  0.7818608E-02  0.7970850E-01
          1   -1    0    0  501    0  0.00000000000E+00  0.00000000000E+00  0.28757199185E+04  0.28757199185E+04  0.00000000000E+00 0. -1.
         -1   -1    0    0    0  501 -0.00000000000E+00 -0.00000000000E+00 -0.15126588448E+04  0.15126588448E+04  0.00000000000E+00 0.  1.
         23    2    1    2    0    0 -0.13340610025E+04 -0.15937579778E+04  0.51141229494E+03  0.21422512307E+04  0.88963755564E+02 0.  0.
         13    1    3    3    0    0 -0.17817870348E+03 -0.23748325764E+03  0.45651277714E+02  0.30038306741E+03  0.00000000000E+00 0. -1.
        -13    1    3    3    0    0 -0.11558822990E+04 -0.13562747202E+04  0.46576101722E+03  0.18418681633E+04  0.00000000000E+00 0.  1.
         22    1    1    2    0    0  0.13340610025E+04  0.15937579778E+04  0.85164877884E+03  0.22461275326E+04  0.00000000000E+00 0. -1.
<mgrwt>
<rscale>  0 0.41713227E+04</rscale>
<asrwt>0</asrwt>
<pdfrwt beam="1">  1        1 0.44241845E+00 0.41713227E+04</pdfrwt>
<pdfrwt beam="2">  1       -1 0.23271675E+00 0.41713227E+04</pdfrwt>
<totfact> 0.51394262E-02</totfact>
</mgrwt>
</event>
<event>
 6    1  0.9512547E-007  0.1329640E+04  0.7818608E-02  0.9006385E-01
          2   -1    0    0  501    0  0.00000000000E+00  0.00000000000E+00  0.80146724182E+03  0.80146724182E+03  0.00000000000E+00 0. -1.
         -2   -1    0    0    0  501 -0.00000000000E+00 -0.00000000000E+00 -0.55147087616E+03  0.55147087616E+03  0.00000000000E+00 0.  1.
         23    2    1    2    0    0  0.51950451835E+03  0.40844836764E+03  0.91916634284E+02  0.67344991714E+03  0.91493768262E+02 0.  0.
         13    1    3    3    0    0  0.16252393090E+03  0.78915253104E+02  0.11727932574E+02  0.18105024079E+03  0.00000000000E+00 0.  1.
        -13    1    3    3    0    0  0.35698058744E+03  0.32953311454E+03  0.80188701710E+02  0.49239967635E+03  0.00000000000E+00 0. -1.
         22    1    1    2    0    0 -0.51950451835E+03 -0.40844836764E+03  0.15807973137E+03  0.67948820084E+03  0.00000000000E+00 0. -1.
<mgrwt>
<rscale>  0 0.13296403E+04</rscale>
<asrwt>0</asrwt>
<pdfrwt beam="1">  1        2 0.12330265E+00 0.13296403E+04</pdfrwt>
<pdfrwt beam="2">  1       -2 0.84841673E-01 0.13296403E+04</pdfrwt>
<totfact> 0.40687391E+01</totfact>
</mgrwt>
</event>
<event>
 6    1  0.9512547E-007  0.1659051E+04  0.7818608E-02  0.8785070E-01
          1   -1    0    0  501    0  0.00000000000E+00  0.00000000000E+00  0.88927499189E+03  0.88927499189E+03  0.00000000000E+00 0. -1.
         -1   -1    0    0    0  501 -0.00000000000E+00 -0.00000000000E+00 -0.77379016449E+03  0.77379016449E+03  0.00000000000E+00 0.  1.
         23    2    1    2    0    0 -0.45395229849E+03 -0.52520986764E+03 -0.39269681904E+03  0.80273575427E+03  0.90861461243E+02 0.  0.
         11    1    3    3    0    0 -0.19875428775E+03 -0.22183682104E+03 -0.11772116856E+03  0.32027037889E+03  0.00000000000E+00 0.  1.
        -11    1    3    3    0    0 -0.25519801074E+03 -0.30337304660E+03 -0.27497565047E+03  0.48246537538E+03  0.00000000000E+00 0. -1.
         22    1    1    2    0    0  0.45395229849E+03  0.52520986764E+03  0.50818164643E+03  0.86032940211E+03  0.00000000000E+00 0. -1.
<mgrwt>
<rscale>  0 0.16590506E+04</rscale>
<asrwt>0</asrwt>
<pdfrwt beam="1">  1        1 0.13681154E+00 0.16590506E+04</pdfrwt>
<pdfrwt beam="2">  1       -1 0.11904464E+00 0.16590506E+04</pdfrwt>
<totfact> 0.11197607E+01</totfact>
</mgrwt>
</event>
<event>
 6    1  0.9512547E-007  0.1113699E+04  0.7818608E-02  0.9191942E-01
          2   -1    0    0  501    0  0.00000000000E+00  0.00000000000E+00  0.34966068676E+04  0.34966068676E+04  0.00000000000E+00 0. -1.
         -2   -1    0    0    0  501 -0.00000000000E+00 -0.00000000000E+00 -0.88680626388E+02  0.88680626388E+02  0.00000000000E+00 0.  1.
         23    2    1    2    0    0 -0.11185290827E+02  0.49632594373E+03  0.93370311015E+03  0.10617493715E+04  0.95108763639E+02 0.  0.
         11    1    3    3    0    0 -0.21234456962E+02  0.13794680376E+03  0.34910334218E+03  0.37596990086E+03  0.00000000000E+00 0. -1.
        -11    1    3    3    0    0  0.10049166135E+02  0.35837913996E+03  0.58459976798E+03  0.68577947069E+03  0.00000000000E+00 0.  1.
         22    1    1    2    0    0  0.11185290827E+02 -0.49632594373E+03  0.24742231310E+04  0.25235381224E+04  0.00000000000E+00 0.  1.
<mgrwt>
<rscale>  0 0.11136989E+04</rscale>
<asrwt>0</asrwt>
<pdfrwt beam="1">  1        2 0.53793941E+00 0.11136989E+04</pdfrwt>
<pdfrwt beam="2">  1       -2 0.13643176E-01 0.11136989E+04</pdfrwt>
<totfact> 0.34457250E+01</totfact>
</mgrwt>
</event>
<event>
 6    1  0.9512547E-007  0.4062833E+04  0.7818608E-02  0.7991990E-01
         -1   -1    0    0    0  501 -0.00000000000E+00  0.00000000000E+00  0.24677857888E+04  0.24677857888E+04  0.00000000000E+00 0.  1.
          1   -1    0    0  501    0  0.00000000000E+00 -0.00000000000E+00 -0.16722087875E+04  0.16722087875E+04  0.00000000000E+00 0. -1.
         23    2    1    2    0    0 -0.38819033584E+03 -0.18208272883E+04  0.12233458337E+04  0.22297354513E+04  0.95086295364E+02 0.  0.
         13    1    3    3    0    0 -0.20491576075E+03 -0.77143343256E+03  0.55453361057E+03  0.97190922165E+03  0.00000000000E+00 0.  1.
        -13    1    3    3    0    0 -0.18327457508E+03 -0.10493938557E+04  0.66881222309E+03  0.12578262297E+04  0.00000000000E+00 0. -1.
         22    1    1    2    0    0  0.38819033584E+03  0.18208272883E+04 -0.42776883239E+03  0.19102591250E+04  0.00000000000E+00 0. -1.
<mgrwt>
<rscale>  0 0.40628330E+04</rscale>
<asrwt>0</asrwt>
<pdfrwt beam="1">  1        1 0.25726289E+00 0.40628330E+04</pdfrwt>
<pdfrwt beam="2">  1       -1 0.37965935E+00 0.40628330E+04</pdfrwt>
<totfact> 0.38112355E-02</totfact>
</mgrwt>
</event>
<event>
 6    1  0.9512547E-007  0.1660832E+04  0.7818608E-02  0.8784024E-01
         -2   -1    0    0    0  501 -0.00000000000E+00  0.00000000000E+00  0.90650328430E+03  0.90650328430E+03  0.00000000000E+00 0.  1.
          2   -1    0    0  501    0  0.00000000000E+00 -0.00000000000E+00 -0.76071510479E+03  0.76071510479E+03  0.00000000000E+00 0. -1.
         23    2    1    2    0    0  0.74855400656E+02 -0.52893716345E+03 -0.56197834304E+03  0.78047642870E+03  0.89140023636E+02 0.  0.
         11    1    3    3    0    0  0.79588261937E+02 -0.43273462768E+03 -0.41553406004E+03  0.60519592240E+03  0.00000000000E+00 0. -1.
        -11    1    3    3    0    0 -0.47328612809E+01 -0.96202535772E+02 -0.14644428300E+03  0.17528050630E+03  0.00000000000E+00 0.  1.
         22    1    1    2    0    0 -0.74855400656E+02  0.52893716345E+03  0.70776652255E+03  0.88674196040E+03  0.00000000000E+00 0.  1.
<mgrwt>
<rscale>  0 0.16608320E+04</rscale>
<asrwt>0</asrwt>
<pdfrwt beam="1">  1        2 0.11703309E+00 0.16608320E+04</pdfrwt>
<pdfrwt beam="2">  1       -2 0.13946204E+00 0.16608320E+04</pdfrwt>
<totfact> 0.12742100E+01</totfact>
</mgrwt>
</event>
<event>
 6    1  0.9512547E-007  0.4639884E+04  0.7818608E-02  0.7886595E-01
         -2   -1    0    0    0  501 -0.00000000000E+00  0.00000000000E+00  0.26734979478E+04  0.26734979478E+04  0.00000000000E+00 0.  1.
          2   -1    0    0  501    0  0.00000000000E+00 -0.00000000000E+00 -0.20131417580E+04  0.20131417580E+04  0.00000000000E+00 0. -1.
         23    2    1    2    0    0  0.10999612101E+04 -0.26504503532E+02 -0.17317223446E+04  0.20536458077E+04  0.89340205506E+02 0.  0.
         13    1    3    3    0    0  0.58595376941E+03  0.20920409581E+02 -0.86950899305E+03  0.10487255944E+04  0.00000000000E+00 0.  1.
        -13    1    3    3    0    0  0.51400744068E+03 -0.47424913113E+02 -0.86221335157E+03  0.10049202133E+04  0.00000000000E+00 0. -1.
         22    1    1    2    0    0 -0.10999612101E+04  0.26504503532E+02  0.23920785345E+04  0.26329938981E+04  0.00000000000E+00 0.  1.
<mgrwt>
<rscale>  0 0.46398838E+04</rscale>
<asrwt>0</asrwt>
<pdfrwt beam="1">  1        2 0.30971412E+00 0.46398838E+04</pdfrwt>
<pdfrwt beam="2">  1       -2 0.41130738E+00 0.46398838E+04</pdfrwt>
<totfact> 0.30810154E-02</totfact>
</mgrwt>
</event>
<event>
 6    1  0.9512547E-007  0.2599758E+03  0.7818608E-02  0.1107158E+00
         -1   -1    0    0    0  501 -0.00000000000E+00  0.00000000000E+00  0.28163580963E+02  0.28163580963E+02  0.00000000000E+00 0.  1.
          1   -1    0    0  501    0  0.00000000000E+00 -0.00000000000E+00 -0.59995424987E+03  0.59995424987E+03  0.00000000000E+00 0. -1.
         23    2    1    2    0    0 -0.36539183485E+02  0.60261089250E+02 -0.53758283155E+03  0.54978082205E+03  0.91088642089E+02 0.  0.
         11    1    3    3    0    0  0.10636359265E+01  0.34589263418E+02 -0.54509013259E+02  0.64566097850E+02  0.00000000000E+00 0.  1.
        -11    1    3    3    0    0 -0.37602819411E+02  0.25671825833E+02 -0.48307381829E+03  0.48521472420E+03  0.00000000000E+00 0. -1.
         22    1    1    2    0    0  0.36539183485E+02 -0.60261089250E+02 -0.34207837359E+02  0.78337008777E+02  0.00000000000E+00 0.  1.
<mgrwt>
<rscale>  0 0.25997585E+03</rscale>
<asrwt>0</asrwt>
<pdfrwt beam="1">  1        1 0.92300652E-01 0.25997585E+03</pdfrwt>
<pdfrwt beam="2">  1       -1 0.43328587E-02 0.25997585E+03</pdfrwt>
<totfact> 0.76274459E+03</totfact>
</mgrwt>
</event>
<event>
 6    1  0.9512547E-007  0.1867487E+04  0.7818608E-02  0.8671212E-01
          1   -1    0    0  501    0  0.00000000000E+00  0.00000000000E+00  0.28109153167E+04  0.28109153167E+04  0.00000000000E+00 0. -1.
         -1   -1    0    0    0  501 -0.00000000000E+00 -0.00000000000E+00 -0.31017545060E+03  0.31017545060E+03  0.00000000000E+00 0.  1.
         23    2    1    2    0    0  0.47828529167E+03 -0.73781971753E+03  0.17672631441E+04  0.19760480356E+04  0.91717296281E+02 0.  0.
         13    1    3    3    0    0  0.38254148005E+03 -0.63915967906E+03  0.15338409284E+04  0.17051484020E+04  0.00000000000E+00 0.  1.
        -13    1    3    3    0    0  0.95743811616E+02 -0.98660038469E+02  0.23342221579E+03  0.27089963359E+03  0.00000000000E+00 0. -1.
         22    1    1    2    0    0 -0.47828529167E+03  0.73781971753E+03  0.73347672191E+03  0.11450427317E+04  0.00000000000E+00 0. -1.
<mgrwt>
<rscale>  0 0.18674870E+04</rscale>
<asrwt>0</asrwt>
<pdfrwt beam="1">  1        1 0.43244849E+00 0.18674870E+04</pdfrwt>
<pdfrwt beam="2">  1       -1 0.47719302E-01 0.18674870E+04</pdfrwt>
<totfact> 0.33745296E+00</totfact>
</mgrwt>
</event>
<event>
 6    1  0.9512547E-007  0.4203608E+04  0.7818608E-02  0.7964686E-01
          1   -1    0    0  501    0  0.00000000000E+00  0.00000000000E+00  0.20158571052E+04  0.20158571052E+04  0.00000000000E+00 0. -1.
         -1   -1    0    0    0  501 -0.00000000000E+00 -0.00000000000E+00 -0.21914156278E+04  0.21914156278E+04  0.00000000000E+00 0.  1.
         23    2    1    2    0    0 -0.45871234228E+03 -0.84493319423E+03  0.17817567506E+04  0.20265819722E+04  0.89712073146E+02 0.  0.
         11    1    3    3    0    0 -0.57142111995E+02 -0.54711467742E+02  0.13880893589E+03  0.15977010468E+03  0.00000000000E+00 0. -1.
        -11    1    3    3    0    0 -0.40157023029E+03 -0.79022172649E+03  0.16429478147E+04  0.18668118675E+04  0.00000000000E+00 0.  1.
         22    1    1    2    0    0  0.45871234228E+03  0.84493319423E+03 -0.19573152732E+04  0.21806907608E+04  0.00000000000E+00 0.  1.
<mgrwt>
<rscale>  0 0.42036083E+04</rscale>
<asrwt>0</asrwt>
<pdfrwt beam="1">  1        1 0.31013186E+00 0.42036083E+04</pdfrwt>
<pdfrwt beam="2">  1       -1 0.33714086E+00 0.42036083E+04</pdfrwt>
<totfact> 0.42276959E-02</totfact>
</mgrwt>
</event>
<event>
 6    1  0.9512547E-007  0.2998278E+04  0.7818608E-02  0.8244223E-01
         -2   -1    0    0    0  501 -0.00000000000E+00  0.00000000000E+00  0.87520639139E+03  0.87520639139E+03  0.00000000000E+00 0.  1.
          2   -1    0    0  501    0  0.00000000000E+00 -0.00000000000E+00 -0.25678710819E+04  0.25678710819E+04  0.00000000000E+00 0. -1.
         23    2    1    2    0    0 -0.73301570850E+03 -0.34134493919E+03  0.60064771300E+03  0.10113887234E+04  0.91110253053E+02 0.  0.
         11    1    3    3    0    0 -0.17844090399E+03 -0.42034082228E+02  0.14475506542E+03  0.23358520769E+03  0.00000000000E+00 0.  1.
        -11    1    3    3    0    0 -0.55457480450E+03 -0.29931085696E+03  0.45589264759E+03  0.77780351568E+03  0.00000000000E+00 0. -1.
         22    1    1    2    0    0  0.73301570850E+03  0.34134493919E+03 -0.22933124035E+04  0.24316887499E+04  0.00000000000E+00 0. -1.
<mgrwt>
<rscale>  0 0.29982776E+04</rscale>
<asrwt>0</asrwt>
<pdfrwt beam="1">  1        2 0.39505709E+00 0.29982776E+04</pdfrwt>
<pdfrwt beam="2">  1       -2 0.13464714E+00 0.29982776E+04</pdfrwt>
<totfact> 0.10803739E+00</totfact>
</mgrwt>
</event>
<event>
 6    1  0.9512547E-007  0.3445548E+04  0.7818608E-02  0.8126817E-01
          2   -1    0    0  501    0  0.00000000000E+00  0.00000000000E+00  0.28380437761E+04  0.28380437761E+04  0.00000000000E+00 0. -1.
         -2   -1    0    0    0  501 -0.00000000000E+00 -0.00000000000E+00 -0.10457731043E+04  0.10457731043E+04  0.00000000000E+00 0.  1.
         23    2    1    2    0    0  0.45281807040E+02  0.38366300668E+03  0.27878223338E+04  0.28159353999E+04  0.91055298124E+02 0.  0.
         11    1    3    3    0    0  0.62483047611E+02  0.27107968782E+03  0.17644529400E+04  0.17862481647E+04  0.00000000000E+00 0. -1.
        -11    1    3    3    0    0 -0.17201240572E+02  0.11258331886E+03  0.10233693938E+04  0.10296872353E+04  0.00000000000E+00 0.  1.
         22    1    1    2    0    0 -0.45281807040E+02 -0.38366300668E+03 -0.99555166198E+03  0.10678814805E+04  0.00000000000E+00 0.  1.
<mgrwt>
<rscale>  0 0.34455478E+04</rscale>
<asrwt>0</asrwt>
<pdfrwt beam="1">  1        2 0.43662212E+00 0.34455478E+04</pdfrwt>
<pdfrwt beam="2">  1       -2 0.16088817E+00 0.34455478E+04</pdfrwt>
<totfact> 0.44878939E-01</totfact>
</mgrwt>
</event>
<event>
 6    1  0.1079468E-006  0.4495567E+04  0.7818608E-02  0.7911413E-01
         -2   -1    0    0    0  501 -0.00000000000E+00  0.00000000000E+00  0.12994468373E+04  0.12994468373E+04  0.00000000000E+00 0.  1.
          2   -1    0    0  501    0  0.00000000000E+00 -0.00000000000E+00 -0.38882172619E+04  0.38882172619E+04  0.00000000000E+00 0. -1.
         23    2    1    2    0    0 -0.79442679216E+03  0.20628465864E+04 -0.83061931523E+03  0.23632092332E+04  0.91539423706E+02 0.  0.
         11    1    3    3    0    0 -0.29378818336E+03  0.84144657800E+03 -0.29757824930E+03  0.93962580571E+03  0.00000000000E+00 0. -1.
        -11    1    3    3    0    0 -0.50063860880E+03  0.12214000084E+04 -0.53304106593E+03  0.14235834275E+04  0.00000000000E+00 0.  1.
         22    1    1    2    0    0  0.79442679216E+03 -0.20628465864E+04 -0.17581511093E+04  0.28244548660E+04  0.00000000000E+00 0. -1.
<mgrwt>
<rscale>  0 0.44955674E+04</rscale>
<asrwt>0</asrwt>
<pdfrwt beam="1">  1        2 0.59818726E+00 0.44955674E+04</pdfrwt>
<pdfrwt beam="2">  1       -2 0.19991490E+00 0.44955674E+04</pdfrwt>
<totfact> 0.42233084E-02</totfact>
</mgrwt>
</event>
<event>
 6    1  0.9512547E-007  0.4130304E+04  0.7818608E-02  0.7978764E-01
         -2   -1    0    0    0  501 -0.00000000000E+00  0.00000000000E+00  0.22590978274E+04  0.22590978274E+04  0.00000000000E+00 0.  1.
          2   -1    0    0  501    0  0.00000000000E+00 -0.00000000000E+00 -0.18878564912E+04  0.18878564912E+04  0.00000000000E+00 0. -1.
         23    2    1    2    0    0 -0.26003481563E+03 -0.13237221099E+04 -0.13828853555E+04  0.19340786374E+04  0.91814703752E+02 0.  0.
         11    1    3    3    0    0 -0.14072919783E+03 -0.73597667377E+03 -0.70271892856E+03  0.10272683505E+04  0.00000000000E+00 0. -1.
        -11    1    3    3    0    0 -0.11930561780E+03 -0.58774543616E+03 -0.68016642690E+03  0.90681028691E+03  0.00000000000E+00 0.  1.
         22    1    1    2    0    0  0.26003481563E+03  0.13237221099E+04  0.17541266917E+04  0.22128756811E+04  0.00000000000E+00 0.  1.
<mgrwt>
<rscale>  0 0.41303039E+04</rscale>
<asrwt>0</asrwt>
<pdfrwt beam="1">  1        2 0.29043946E+00 0.41303039E+04</pdfrwt>
<pdfrwt beam="2">  1       -2 0.34755351E+00 0.41303039E+04</pdfrwt>
<totfact> 0.97035900E-02</totfact>
</mgrwt>
</event>
<event>
 6    1  0.1311574E-006  0.3436844E+04  0.7818608E-02  0.8128922E-01
          1   -1    0    0  501    0  0.00000000000E+00  0.00000000000E+00  0.19109650601E+04  0.19109650601E+04  0.00000000000E+00 0. -1.
         -1   -1    0    0    0  501 -0.00000000000E+00 -0.00000000000E+00 -0.15452791772E+04  0.15452791772E+04  0.00000000000E+00 0.  1.
         23    2    1    2    0    0 -0.33416991585E+03 -0.16504133608E+04 -0.15603974705E+03  0.16933683407E+04  0.87259040693E+02 0.  0.
         11    1    3    3    0    0 -0.19315466373E+03 -0.11185679392E+04 -0.80327440474E+02  0.11379610962E+04  0.00000000000E+00 0. -1.
        -11    1    3    3    0    0 -0.14101525212E+03 -0.53184542163E+03 -0.75712306581E+02  0.55540724446E+03  0.00000000000E+00 0.  1.
         22    1    1    2    0    0  0.33416991585E+03  0.16504133608E+04  0.52172562996E+03  0.17628758967E+04  0.00000000000E+00 0. -1.
<mgrwt>
<rscale>  0 0.34368442E+04</rscale>
<asrwt>0</asrwt>
<pdfrwt beam="1">  1        1 0.29399462E+00 0.34368442E+04</pdfrwt>
<pdfrwt beam="2">  1       -1 0.23773526E+00 0.34368442E+04</pdfrwt>
<totfact> 0.23570380E-01</totfact>
</mgrwt>
</event>
<event>
 6    1  0.9512547E-007  0.3698835E+03  0.7818608E-02  0.1054738E+00
         -2   -1    0    0    0  501 -0.00000000000E+00  0.00000000000E+00  0.16960661772E+03  0.16960661772E+03  0.00000000000E+00 0.  1.
          2   -1    0    0  501    0  0.00000000000E+00 -0.00000000000E+00 -0.20166340508E+03  0.20166340508E+03  0.00000000000E+00 0. -1.
         23    2    1    2    0    0  0.10617111908E+03  0.12672464739E+03  0.42359489986E+02  0.18997130489E+03  0.83446554793E+02 0.  0.
         13    1    3    3    0    0  0.83311133521E+02  0.91610259314E+02 -0.84483800113E+01  0.12411510667E+03  0.00000000000E+00 0. -1.
        -13    1    3    3    0    0  0.22859985561E+02  0.35114388073E+02  0.50807869997E+02  0.65856198214E+02  0.00000000000E+00 0.  1.
         22    1    1    2    0    0 -0.10617111908E+03 -0.12672464739E+03 -0.74416277350E+02  0.18129871791E+03  0.00000000000E+00 0. -1.
<mgrwt>
<rscale>  0 0.36988348E+03</rscale>
<asrwt>0</asrwt>
<pdfrwt beam="1">  1        2 0.31025139E-01 0.36988348E+03</pdfrwt>
<pdfrwt beam="2">  1       -2 0.26093326E-01 0.36988348E+03</pdfrwt>
<totfact> 0.22371193E+03</totfact>
</mgrwt>
</event>
<event>
 6    1  0.9512547E-007  0.2134060E+04  0.7818608E-02  0.8546386E-01
          2   -1    0    0  501    0  0.00000000000E+00  0.00000000000E+00  0.34241998207E+04  0.34241998207E+04  0.00000000000E+00 0. -1.
         -2   -1    0    0    0  501 -0.00000000000E+00 -0.00000000000E+00 -0.33250201197E+03  0.33250201197E+03  0.00000000000E+00 0.  1.
         23    2    1    2    0    0  0.24678120637E+02 -0.99247766435E+02  0.34149413032E+04  0.34176657203E+04  0.90309152019E+02 0.  0.
         13    1    3    3    0    0  0.25031894623E+02  0.91089685310E+01  0.89394680984E+03  0.89434359609E+03  0.00000000000E+00 0. -1.
        -13    1    3    3    0    0 -0.35377398625E+00 -0.10835673497E+03  0.25209944933E+04  0.25233221242E+04  0.00000000000E+00 0.  1.
         22    1    1    2    0    0 -0.24678120637E+02  0.99247766435E+02 -0.32324349445E+03  0.33903611236E+03  0.00000000000E+00 0.  1.
<mgrwt>
<rscale>  0 0.21340603E+04</rscale>
<asrwt>0</asrwt>
<pdfrwt beam="1">  1        2 0.52679995E+00 0.21340603E+04</pdfrwt>
<pdfrwt beam="2">  1       -2 0.51154158E-01 0.21340603E+04</pdfrwt>
<totfact> 0.30569675E+00</totfact>
</mgrwt>
</event>
<event>
 6    1  0.9512547E-007  0.4587950E+03  0.7818608E-02  0.1025131E+00
          2   -1    0    0  501    0  0.00000000000E+00  0.00000000000E+00  0.83221329901E+03  0.83221329901E+03  0.00000000000E+00 0. -1.
         -2   -1    0    0    0  501 -0.00000000000E+00 -0.00000000000E+00 -0.63232846724E+02  0.63232846724E+02  0.00000000000E+00 0.  1.
         23    2    1    2    0    0  0.79160609152E+02  0.14046659086E+03  0.10662085992E+03  0.21374423522E+03  0.91221297584E+02 0.  0.
         13    1    3    3    0    0  0.25266357864E+02 -0.86364583554E+01  0.14728276470E+02  0.30494251596E+02  0.00000000000E+00 0.  1.
        -13    1    3    3    0    0  0.53894251288E+02  0.14910304921E+03  0.91892583445E+02  0.18324998363E+03  0.00000000000E+00 0. -1.
         22    1    1    2    0    0 -0.79160609152E+02 -0.14046659086E+03  0.66235959237E+03  0.68170191051E+03  0.00000000000E+00 0. -1.
<mgrwt>
<rscale>  0 0.45879501E+03</rscale>
<asrwt>0</asrwt>
<pdfrwt beam="1">  1        2 0.12803281E+00 0.45879501E+03</pdfrwt>
<pdfrwt beam="2">  1       -2 0.97281309E-02 0.45879501E+03</pdfrwt>
<totfact> 0.23458553E+03</totfact>
</mgrwt>
</event>
<event>
 6    1  0.9512547E-007  0.1871479E+04  0.7818608E-02  0.8669185E-01
          1   -1    0    0  501    0  0.00000000000E+00  0.00000000000E+00  0.17664726902E+04  0.17664726902E+04  0.00000000000E+00 0. -1.
         -1   -1    0    0    0  501 -0.00000000000E+00 -0.00000000000E+00 -0.49568180215E+03  0.49568180215E+03  0.00000000000E+00 0.  1.
         23    2    1    2    0    0 -0.24548663196E+03 -0.88682864997E+03  0.82704237470E+03  0.12405667653E+04  0.90983893123E+02 0.  0.
         13    1    3    3    0    0 -0.14473843232E+03 -0.36446221283E+03  0.33041570308E+03  0.51279279949E+03  0.00000000000E+00 0.  1.
        -13    1    3    3    0    0 -0.10074819964E+03 -0.52236643715E+03  0.49662667162E+03  0.72777396584E+03  0.00000000000E+00 0. -1.
         22    1    1    2    0    0  0.24548663196E+03  0.88682864997E+03  0.44374851334E+03  0.10215877270E+04  0.00000000000E+00 0.  1.
<mgrwt>
<rscale>  0 0.18714790E+04</rscale>
<asrwt>0</asrwt>
<pdfrwt beam="1">  1        1 0.27176503E+00 0.18714790E+04</pdfrwt>
<pdfrwt beam="2">  1       -1 0.76258740E-01 0.18714790E+04</pdfrwt>
<totfact> 0.69521025E+00</totfact>
</mgrwt>
</event>
<event>
 6    1  0.9512547E-007  0.1664135E+04  0.7818608E-02  0.8782088E-01
          1   -1    0    0  501    0  0.00000000000E+00  0.00000000000E+00  0.16083988489E+04  0.16083988489E+04  0.00000000000E+00 0. -1.
         -1   -1    0    0    0  501 -0.00000000000E+00 -0.00000000000E+00 -0.43045061019E+03  0.43045061019E+03  0.00000000000E+00 0.  1.
         23    2    1    2    0    0 -0.59049569150E+03  0.47701496196E+03  0.18060609487E+03  0.78548606904E+03  0.90229526975E+02 0.  0.
         11    1    3    3    0    0 -0.27138892881E+03  0.26814184617E+03  0.65403499850E+02  0.38707831009E+03  0.00000000000E+00 0.  1.
        -11    1    3    3    0    0 -0.31910676269E+03  0.20887311580E+03  0.11520259502E+03  0.39840775895E+03  0.00000000000E+00 0. -1.
         22    1    1    2    0    0  0.59049569150E+03 -0.47701496196E+03  0.99734214382E+03  0.12533633900E+04  0.00000000000E+00 0. -1.
<mgrwt>
<rscale>  0 0.16641349E+04</rscale>
<asrwt>0</asrwt>
<pdfrwt beam="1">  1        1 0.24744597E+00 0.16641349E+04</pdfrwt>
<pdfrwt beam="2">  1       -1 0.66223171E-01 0.16641349E+04</pdfrwt>
<totfact> 0.12144438E+01</totfact>
</mgrwt>
</event>
<event>
 6    1  0.9512547E-007  0.2581098E+04  0.7818608E-02  0.8374650E-01
         -2   -1    0    0    0  501 -0.00000000000E+00  0.00000000000E+00  0.11733136086E+04  0.11733136086E+04  0.00000000000E+00 0.  1.
          2   -1    0    0  501    0  0.00000000000E+00 -0.00000000000E+00 -0.14194982109E+04  0.14194982109E+04  0.00000000000E+00 0. -1.
         23    2    1    2    0    0 -0.84290728629E+03  0.80032050832E+03 -0.68267849819E+03  0.13512271343E+04  0.93590743005E+02 0.  0.
         11    1    3    3    0    0 -0.11893483521E+03  0.96443996971E+02 -0.12534545259E+03  0.19788487073E+03  0.00000000000E+00 0. -1.
        -11    1    3    3    0    0 -0.72397245108E+03  0.70387651134E+03 -0.55733304560E+03  0.11533422635E+04  0.00000000000E+00 0.  1.
         22    1    1    2    0    0  0.84290728629E+03 -0.80032050832E+03  0.43649389591E+03  0.12415846852E+04  0.00000000000E+00 0.  1.
<mgrwt>
<rscale>  0 0.25810979E+04</rscale>
<asrwt>0</asrwt>
<pdfrwt beam="1">  1        2 0.21838434E+00 0.25810979E+04</pdfrwt>
<pdfrwt beam="2">  1       -2 0.18050979E+00 0.25810979E+04</pdfrwt>
<totfact> 0.22476502E+00</totfact>
</mgrwt>
</event>
<event>
 6    1  0.9512547E-007  0.3790338E+04  0.7818608E-02  0.8048231E-01
         -2   -1    0    0    0  501 -0.00000000000E+00  0.00000000000E+00  0.15661873801E+04  0.15661873801E+04  0.00000000000E+00 0.  1.
          2   -1    0    0  501    0  0.00000000000E+00 -0.00000000000E+00 -0.22932544057E+04  0.22932544057E+04  0.00000000000E+00 0. -1.
         23    2    1    2    0    0 -0.16393179870E+03 -0.29781751329E+03 -0.22610468952E+04  0.22882437887E+04  0.90319810766E+02 0.  0.
         11    1    3    3    0    0 -0.11788883402E+03 -0.17078121979E+03 -0.11040668850E+04  0.11234000573E+04  0.00000000000E+00 0. -1.
        -11    1    3    3    0    0 -0.46042964683E+02 -0.12703629350E+03 -0.11569800102E+04  0.11648437313E+04  0.00000000000E+00 0.  1.
         22    1    1    2    0    0  0.16393179870E+03  0.29781751329E+03  0.15339798696E+04  0.15711979972E+04  0.00000000000E+00 0.  1.
<mgrwt>
<rscale>  0 0.37903383E+04</rscale>
<asrwt>0</asrwt>
<pdfrwt beam="1">  1        2 0.35280837E+00 0.37903383E+04</pdfrwt>
<pdfrwt beam="2">  1       -2 0.24095191E+00 0.37903383E+04</pdfrwt>
<totfact> 0.26821950E-01</totfact>
</mgrwt>
</event>
<event>
 6    1  0.9512547E-007  0.2204962E+04  0.7818608E-02  0.8516366E-01
         -1   -1    0    0    0  501 -0.00000000000E+00  0.00000000000E+00  0.98604448609E+03  0.98604448609E+03  0.00000000000E+00 0.  1.
          1   -1    0    0  501    0  0.00000000000E+00 -0.00000000000E+00 -0.12326664666E+04  0.12326664666E+04  0.00000000000E+00 0. -1.
         23    2    1    2    0    0 -0.33921365490E+03  0.62672138750E+03  0.72036526228E+03  0.10174990942E+04  0.92372584842E+02 0.  0.
         11    1    3    3    0    0 -0.14708326585E+03  0.18428242857E+03  0.21963236318E+03  0.32222953857E+03  0.00000000000E+00 0. -1.
        -11    1    3    3    0    0 -0.19213038904E+03  0.44243895893E+03  0.50073289910E+03  0.69526955565E+03  0.00000000000E+00 0.  1.
         22    1    1    2    0    0  0.33921365490E+03 -0.62672138750E+03 -0.96698724277E+03  0.12012118585E+04  0.00000000000E+00 0. -1.
<mgrwt>
<rscale>  0 0.22049617E+04</rscale>
<asrwt>0</asrwt>
<pdfrwt beam="1">  1        1 0.18964099E+00 0.22049617E+04</pdfrwt>
<pdfrwt beam="2">  1       -1 0.15169915E+00 0.22049617E+04</pdfrwt>
<totfact> 0.31199554E+00</totfact>
</mgrwt>
</event>
<event>
 6    1  0.9512547E-007  0.2755308E+04  0.7818608E-02  0.8317279E-01
         -1   -1    0    0    0  501 -0.00000000000E+00  0.00000000000E+00  0.96012811801E+03  0.96012811801E+03  0.00000000000E+00 0.  1.
          1   -1    0    0  501    0  0.00000000000E+00 -0.00000000000E+00 -0.19767476256E+04  0.19767476256E+04  0.00000000000E+00 0. -1.
         23    2    1    2    0    0  0.87062844075E+02 -0.13290311207E+04 -0.13999461220E+03  0.13423931110E+04  0.92288213349E+02 0.  0.
         13    1    3    3    0    0  0.60134968674E+00 -0.70842011650E+03 -0.79974808346E+02  0.71292032729E+03  0.00000000000E+00 0. -1.
        -13    1    3    3    0    0  0.86461494388E+02 -0.62061100419E+03 -0.60019803850E+02  0.62947278368E+03  0.00000000000E+00 0.  1.
         22    1    1    2    0    0 -0.87062844075E+02  0.13290311207E+04 -0.87662489541E+03  0.15944826327E+04  0.00000000000E+00 0.  1.
<mgrwt>
<rscale>  0 0.27553083E+04</rscale>
<asrwt>0</asrwt>
<pdfrwt beam="1">  1        1 0.30411502E+00 0.27553083E+04</pdfrwt>
<pdfrwt beam="2">  1       -1 0.14771202E+00 0.27553083E+04</pdfrwt>
<totfact> 0.97646991E-01</totfact>
</mgrwt>
</event>
<event>
 6    1  0.9512547E-007  0.1504743E+04  0.7818608E-02  0.8881305E-01
         -1   -1    0    0    0  501 -0.00000000000E+00  0.00000000000E+00  0.38980944612E+03  0.38980944612E+03  0.00000000000E+00 0.  1.
          1   -1    0    0  501    0  0.00000000000E+00 -0.00000000000E+00 -0.14521526918E+04  0.14521526918E+04  0.00000000000E+00 0. -1.
         23    2    1    2    0    0  0.33105254731E+03 -0.35143870845E+03  0.16972295984E+03  0.51867377566E+03  0.84330585112E+02 0.  0.
         13    1    3    3    0    0  0.14149048351E+03 -0.19505487515E+03  0.11456457300E+03  0.26681642121E+03  0.00000000000E+00 0.  1.
        -13    1    3    3    0    0  0.18956206381E+03 -0.15638383330E+03  0.55158386838E+02  0.25185735445E+03  0.00000000000E+00 0. -1.
         22    1    1    2    0    0 -0.33105254731E+03  0.35143870845E+03 -0.12320662055E+04  0.13232883622E+04  0.00000000000E+00 0. -1.
<mgrwt>
<rscale>  0 0.15047430E+04</rscale>
<asrwt>0</asrwt>
<pdfrwt beam="1">  1        1 0.22340811E+00 0.15047430E+04</pdfrwt>
<pdfrwt beam="2">  1       -1 0.59970683E-01 0.15047430E+04</pdfrwt>
<totfact> 0.19253641E+01</totfact>
</mgrwt>
</event>
<event>
 6    1  0.9512547E-007  0.2502403E+04  0.7818608E-02  0.8402130E-01
          2   -1    0    0  501    0  0.00000000000E+00  0.00000000000E+00  0.14347427091E+04  0.14347427091E+04  0.00000000000E+00 0. -1.
         -2   -1    0    0    0  501 -0.00000000000E+00 -0.00000000000E+00 -0.10911397802E+04  0.10911397802E+04  0.00000000000E+00 0.  1.
         23    2    1    2    0    0 -0.12254597201E+04  0.14209901264E+03 -0.27560649878E+02  0.12375866937E+04  0.94432938540E+02 0.  0.
         13    1    3    3    0    0 -0.11196277698E+04  0.13627217523E+03 -0.50965378123E+02  0.11290411500E+04  0.00000000000E+00 0.  1.
        -13    1    3    3    0    0 -0.10583195034E+03  0.58268374062E+01  0.23404728246E+02  0.10854554368E+03  0.00000000000E+00 0. -1.
         22    1    1    2    0    0  0.12254597201E+04 -0.14209901264E+03  0.37116357881E+03  0.12882957957E+04  0.00000000000E+00 0. -1.
<mgrwt>
<rscale>  0 0.25024027E+04</rscale>
<asrwt>0</asrwt>
<pdfrwt beam="1">  1        2 0.22072965E+00 0.25024027E+04</pdfrwt>
<pdfrwt beam="2">  1       -2 0.16786766E+00 0.25024027E+04</pdfrwt>
<totfact> 0.27214842E+00</totfact>
</mgrwt>
</event>
<event>
 6    1  0.9512547E-007  0.1590786E+04  0.7818608E-02  0.8826229E-01
         -2   -1    0    0    0  501 -0.00000000000E+00  0.00000000000E+00  0.87194114862E+03  0.87194114862E+03  0.00000000000E+00 0.  1.
          2   -1    0    0  501    0  0.00000000000E+00 -0.00000000000E+00 -0.72556470476E+03  0.72556470476E+03  0.00000000000E+00 0. -1.
         23    2    1    2    0    0 -0.72717112996E+03 -0.27277716352E+03  0.23339009344E+03  0.81599666700E+03  0.90522879175E+02 0.  0.
         13    1    3    3    0    0 -0.39152117977E+03 -0.12832554296E+03  0.80079484148E+02  0.41972491344E+03  0.00000000000E+00 0. -1.
        -13    1    3    3    0    0 -0.33564995019E+03 -0.14445162056E+03  0.15331060929E+03  0.39627175356E+03  0.00000000000E+00 0.  1.
         22    1    1    2    0    0  0.72717112996E+03  0.27277716352E+03 -0.87013649576E+02  0.78150918638E+03  0.00000000000E+00 0. -1.
<mgrwt>
<rscale>  0 0.15907856E+04</rscale>
<asrwt>0</asrwt>
<pdfrwt beam="1">  1        2 0.11162534E+00 0.15907856E+04</pdfrwt>
<pdfrwt beam="2">  1       -2 0.13414479E+00 0.15907856E+04</pdfrwt>
<totfact> 0.15055006E+01</totfact>
</mgrwt>
</event>
<event>
 6    1  0.9512547E-007  0.2067565E+04  0.7818608E-02  0.8575668E-01
         -1   -1    0    0    0  501 -0.00000000000E+00  0.00000000000E+00  0.36203885730E+03  0.36203885730E+03  0.00000000000E+00 0.  1.
          1   -1    0    0  501    0  0.00000000000E+00 -0.00000000000E+00 -0.29519089995E+04  0.29519089995E+04  0.00000000000E+00 0. -1.
         23    2    1    2    0    0 -0.68874601931E+03  0.64464174798E+03 -0.19667528495E+04  0.21833687031E+04  0.95121291575E+02 0.  0.
         11    1    3    3    0    0 -0.28806486621E+03  0.22541145774E+03 -0.83838357725E+03  0.91470143491E+03  0.00000000000E+00 0.  1.
        -11    1    3    3    0    0 -0.40068115310E+03  0.41923029024E+03 -0.11283692723E+04  0.12686672682E+04  0.00000000000E+00 0. -1.
         22    1    1    2    0    0  0.68874601931E+03 -0.64464174798E+03 -0.62311729264E+03  0.11305791537E+04  0.00000000000E+00 0.  1.
<mgrwt>
<rscale>  0 0.20675645E+04</rscale>
<asrwt>0</asrwt>
<pdfrwt beam="1">  1        1 0.45413985E+00 0.20675645E+04</pdfrwt>
<pdfrwt beam="2">  1       -1 0.55698285E-01 0.20675645E+04</pdfrwt>
<totfact> 0.19508055E+00</totfact>
</mgrwt>
</event>
<event>
 6    1  0.9512547E-007  0.4912253E+04  0.7818608E-02  0.7842187E-01
         -2   -1    0    0    0  501 -0.00000000000E+00  0.00000000000E+00  0.25430742503E+04  0.25430742503E+04  0.00000000000E+00 0.  1.
          2   -1    0    0  501    0  0.00000000000E+00 -0.00000000000E+00 -0.23721518776E+04  0.23721518776E+04  0.00000000000E+00 0. -1.
         23    2    1    2    0    0 -0.22615938548E+04 -0.32823670310E+03  0.98366942645E+03  0.24897150743E+04  0.92355366204E+02 0.  0.
         11    1    3    3    0    0 -0.99452154902E+03 -0.98473549348E+02  0.43654703057E+03  0.10905702459E+04  0.00000000000E+00 0. -1.
        -11    1    3    3    0    0 -0.12670723057E+04 -0.22976315375E+03  0.54712239588E+03  0.13991448284E+04  0.00000000000E+00 0.  1.
         22    1    1    2    0    0  0.22615938548E+04  0.32823670310E+03 -0.81274705376E+03  0.24255110535E+04  0.00000000000E+00 0. -1.
<mgrwt>
<rscale>  0 0.49122534E+04</rscale>
<asrwt>0</asrwt>
<pdfrwt beam="1">  1        2 0.36494644E+00 0.49122534E+04</pdfrwt>
<pdfrwt beam="2">  1       -2 0.39124219E+00 0.49122534E+04</pdfrwt>
<totfact> 0.25608867E-02</totfact>
</mgrwt>
</event>
<event>
 6    1  0.9512547E-007  0.7139940E+04  0.7818608E-02  0.7563173E-01
          2   -1    0    0  501    0  0.00000000000E+00  0.00000000000E+00  0.43364031347E+04  0.43364031347E+04  0.00000000000E+00 0. -1.
         -2   -1    0    0    0  501 -0.00000000000E+00 -0.00000000000E+00 -0.29389996167E+04  0.29389996167E+04  0.00000000000E+00 0.  1.
         23    2    1    2    0    0 -0.17706935795E+04 -0.31545716427E+03  0.38404180327E+04  0.42417269458E+04  0.92562635168E+02 0.  0.
         13    1    3    3    0    0 -0.23516105716E+03 -0.71194982948E+02  0.49349525140E+03  0.55127761750E+03  0.00000000000E+00 0. -1.
        -13    1    3    3    0    0 -0.15355325223E+04 -0.24426218132E+03  0.33469227813E+04  0.36904493283E+04  0.00000000000E+00 0.  1.
         22    1    1    2    0    0  0.17706935795E+04  0.31545716427E+03 -0.24430145147E+04  0.30336758056E+04  0.00000000000E+00 0.  1.
<mgrwt>
<rscale>  0 0.71399404E+04</rscale>
<asrwt>0</asrwt>
<pdfrwt beam="1">  1        2 0.66713894E+00 0.71399404E+04</pdfrwt>
<pdfrwt beam="2">  1       -2 0.45215379E+00 0.71399404E+04</pdfrwt>
<totfact> 0.36299893E-04</totfact>
</mgrwt>
</event>
<event>
 6    1  0.9512547E-007  0.1373870E+04  0.7818608E-02  0.8972953E-01
         -2   -1    0    0    0  501 -0.00000000000E+00  0.00000000000E+00  0.27514274293E+03  0.27514274293E+03  0.00000000000E+00 0.  1.
          2   -1    0    0  501    0  0.00000000000E+00 -0.00000000000E+00 -0.17150351569E+04  0.17150351569E+04  0.00000000000E+00 0. -1.
         23    2    1    2    0    0  0.33523521673E+03  0.23239113306E+03  0.72170616591E+02  0.42406075936E+03  0.90722877330E+02 0.  0.
         13    1    3    3    0    0  0.50971051172E+02  0.72148254467E+02 -0.58972243105E+01  0.88533586479E+02  0.00000000000E+00 0.  1.
        -13    1    3    3    0    0  0.28426416556E+03  0.16024287859E+03  0.78067840901E+02  0.33552717289E+03  0.00000000000E+00 0. -1.
         22    1    1    2    0    0 -0.33523521673E+03 -0.23239113306E+03 -0.15120630306E+04  0.15661171405E+04  0.00000000000E+00 0. -1.
<mgrwt>
<rscale>  0 0.13738697E+04</rscale>
<asrwt>0</asrwt>
<pdfrwt beam="1">  1        2 0.26385157E+00 0.13738697E+04</pdfrwt>
<pdfrwt beam="2">  1       -2 0.42329652E-01 0.13738697E+04</pdfrwt>
<totfact> 0.49617384E+01</totfact>
</mgrwt>
</event>
<event>
 6    1  0.9512547E-007  0.3280978E+04  0.7818608E-02  0.8167752E-01
         -4   -1    0    0    0  501 -0.00000000000E+00  0.00000000000E+00  0.19003012592E+04  0.19003012592E+04  0.00000000000E+00 0.  1.
          4   -1    0    0  501    0  0.00000000000E+00 -0.00000000000E+00 -0.14161991159E+04  0.14161991159E+04  0.00000000000E+00 0. -1.
         23    2    1    2    0    0 -0.13428907660E+04  0.21191454828E+03  0.11680273452E+04  0.17946537774E+04  0.90724397026E+02 0.  0.
         11    1    3    3    0    0 -0.40478921125E+03  0.92688041371E+02  0.39723379005E+03  0.57466517427E+03  0.00000000000E+00 0.  1.
        -11    1    3    3    0    0 -0.93810155477E+03  0.11922650691E+03  0.77079355514E+03  0.12199886031E+04  0.00000000000E+00 0. -1.
         22    1    1    2    0    0  0.13428907660E+04 -0.21191454828E+03 -0.68392520183E+03  0.15218465977E+04  0.00000000000E+00 0. -1.
<mgrwt>
<rscale>  0 0.32809785E+04</rscale>
<asrwt>0</asrwt>
<pdfrwt beam="1">  1        4 0.21787679E+00 0.32809785E+04</pdfrwt>
<pdfrwt beam="2">  1       -4 0.29235404E+00 0.32809785E+04</pdfrwt>
<totfact> 0.57398360E-03</totfact>
</mgrwt>
</event>
<event>
 6    1  0.9512547E-007  0.4832540E+04  0.7818608E-02  0.7854872E-01
          1   -1    0    0  501    0  0.00000000000E+00  0.00000000000E+00  0.17178253685E+04  0.17178253685E+04  0.00000000000E+00 0. -1.
         -1   -1    0    0    0  501 -0.00000000000E+00 -0.00000000000E+00 -0.33986927556E+04  0.33986927556E+04  0.00000000000E+00 0.  1.
         23    2    1    2    0    0 -0.28590573095E+03  0.91208846573E+03 -0.31892997953E+04  0.33307365623E+04  0.92333131549E+02 0.  0.
         11    1    3    3    0    0 -0.16293870113E+03  0.49882553915E+03 -0.15914915817E+04  0.16757748636E+04  0.00000000000E+00 0. -1.
        -11    1    3    3    0    0 -0.12296702982E+03  0.41326292658E+03 -0.15978082135E+04  0.16549616987E+04  0.00000000000E+00 0.  1.
         22    1    1    2    0    0  0.28590573095E+03 -0.91208846573E+03  0.15084324081E+04  0.17857815617E+04  0.00000000000E+00 0. -1.
<mgrwt>
<rscale>  0 0.48325400E+04</rscale>
<asrwt>0</asrwt>
<pdfrwt beam="1">  1        1 0.26428083E+00 0.48325400E+04</pdfrwt>
<pdfrwt beam="2">  1       -1 0.52287580E+00 0.48325400E+04</pdfrwt>
<totfact> 0.36578242E-03</totfact>
</mgrwt>
</event>
<event>
 6    1  0.9512547E-007  0.2313357E+04  0.7818608E-02  0.8472673E-01
         -2   -1    0    0    0  501 -0.00000000000E+00  0.00000000000E+00  0.10341641977E+04  0.10341641977E+04  0.00000000000E+00 0.  1.
          2   -1    0    0  501    0  0.00000000000E+00 -0.00000000000E+00 -0.12937068988E+04  0.12937068988E+04  0.00000000000E+00 0. -1.
         23    2    1    2    0    0 -0.62766514423E+03  0.48458839437E+03  0.71515195147E+03  0.10713604078E+04  0.87071031075E+02 0.  0.
         11    1    3    3    0    0 -0.28374977059E+03  0.19969013724E+03  0.36738457980E+03  0.50533307105E+03  0.00000000000E+00 0. -1.
        -11    1    3    3    0    0 -0.34391537364E+03  0.28489825713E+03  0.34776737167E+03  0.56602733675E+03  0.00000000000E+00 0.  1.
         22    1    1    2    0    0  0.62766514423E+03 -0.48458839437E+03 -0.97469465259E+03  0.12565106888E+04  0.00000000000E+00 0. -1.
<mgrwt>
<rscale>  0 0.23133572E+04</rscale>
<asrwt>0</asrwt>
<pdfrwt beam="1">  1        2 0.19903183E+00 0.23133572E+04</pdfrwt>
<pdfrwt beam="2">  1       -2 0.15910218E+00 0.23133572E+04</pdfrwt>
<totfact> 0.38623531E+00</totfact>
</mgrwt>
</event>
<event>
 6    1  0.9512547E-007  0.2133612E+04  0.7818608E-02  0.8546580E-01
         -1   -1    0    0    0  501 -0.00000000000E+00  0.00000000000E+00  0.17578237682E+04  0.17578237682E+04  0.00000000000E+00 0.  1.
          1   -1    0    0  501    0  0.00000000000E+00 -0.00000000000E+00 -0.64743422299E+03  0.64743422299E+03  0.00000000000E+00 0. -1.
         23    2    1    2    0    0  0.97355306400E+02  0.98883584566E+03  0.12432913057E+03  0.10054045965E+04  0.90034907481E+02 0.  0.
         11    1    3    3    0    0  0.18860988808E+02  0.51618983485E+03  0.96550040737E+02  0.52548034489E+03  0.00000000000E+00 0.  1.
        -11    1    3    3    0    0  0.78494317592E+02  0.47264601081E+03  0.27779089831E+02  0.47992425159E+03  0.00000000000E+00 0. -1.
         22    1    1    2    0    0 -0.97355306400E+02 -0.98883584566E+03  0.98606041460E+03  0.13998533947E+04  0.00000000000E+00 0. -1.
<mgrwt>
<rscale>  0 0.21336122E+04</rscale>
<asrwt>0</asrwt>
<pdfrwt beam="1">  1        1 0.99605266E-01 0.21336122E+04</pdfrwt>
<pdfrwt beam="2">  1       -1 0.27043442E+00 0.21336122E+04</pdfrwt>
<totfact> 0.14423166E+00</totfact>
</mgrwt>
</event>
<event>
 6    1  0.9512547E-007  0.3761956E+04  0.7818608E-02  0.8054369E-01
         -2   -1    0    0    0  501 -0.00000000000E+00  0.00000000000E+00  0.10430054002E+04  0.10430054002E+04  0.00000000000E+00 0.  1.
          2   -1    0    0  501    0  0.00000000000E+00 -0.00000000000E+00 -0.33921962115E+04  0.33921962115E+04  0.00000000000E+00 0. -1.
         23    2    1    2    0    0  0.11122581895E+04  0.14833565688E+04 -0.15394773425E+04  0.24120602692E+04  0.10285555041E+03 0.  0.
         11    1    3    3    0    0  0.10929578826E+03  0.11489836702E+03 -0.10412331373E+03  0.18970732336E+03  0.00000000000E+00 0. -1.
        -11    1    3    3    0    0  0.10029624013E+04  0.13684582017E+04 -0.14353540287E+04  0.22223529459E+04  0.00000000000E+00 0.  1.
         22    1    1    2    0    0 -0.11122581895E+04 -0.14833565688E+04 -0.80971346877E+03  0.20231413425E+04  0.00000000000E+00 0. -1.
<mgrwt>
<rscale>  0 0.37619564E+04</rscale>
<asrwt>0</asrwt>
<pdfrwt beam="1">  1        2 0.52187634E+00 0.37619564E+04</pdfrwt>
<pdfrwt beam="2">  1       -2 0.16046237E+00 0.37619564E+04</pdfrwt>
<totfact> 0.19372324E-01</totfact>
</mgrwt>
</event>
<event>
 6    1  0.9512547E-007  0.3402777E+04  0.7818608E-02  0.8137225E-01
         -2   -1    0    0    0  501 -0.00000000000E+00  0.00000000000E+00  0.15543781843E+04  0.15543781843E+04  0.00000000000E+00 0.  1.
          2   -1    0    0  501    0  0.00000000000E+00 -0.00000000000E+00 -0.18623022569E+04  0.18623022569E+04  0.00000000000E+00 0. -1.
         23    2    1    2    0    0 -0.13281746842E+04  0.25175606053E+03 -0.11894028067E+04  0.18028545942E+04  0.90424253647E+02 0.  0.
         13    1    3    3    0    0 -0.72014579719E+03  0.95090464899E+02 -0.66378430287E+03  0.98400293011E+03  0.00000000000E+00 0. -1.
        -13    1    3    3    0    0 -0.60802888700E+03  0.15666559563E+03 -0.52561850379E+03  0.81885166410E+03  0.00000000000E+00 0.  1.
         22    1    1    2    0    0  0.13281746842E+04 -0.25175606053E+03  0.88147873407E+03  0.16138258470E+04  0.00000000000E+00 0.  1.
<mgrwt>
<rscale>  0 0.34027765E+04</rscale>
<asrwt>0</asrwt>
<pdfrwt beam="1">  1        2 0.28650804E+00 0.34027765E+04</pdfrwt>
<pdfrwt beam="2">  1       -2 0.23913511E+00 0.34027765E+04</pdfrwt>
<totfact> 0.49498384E-01</totfact>
</mgrwt>
</event>
<event>
 6    1  0.9512547E-007  0.1831717E+04  0.7818608E-02  0.8689612E-01
          1   -1    0    0  501    0  0.00000000000E+00  0.00000000000E+00  0.75573548014E+03  0.75573548014E+03  0.00000000000E+00 0. -1.
         -1   -1    0    0    0  501 -0.00000000000E+00 -0.00000000000E+00 -0.11099083158E+04  0.11099083158E+04  0.00000000000E+00 0.  1.
         23    2    1    2    0    0 -0.47004544214E+03 -0.69701894764E+03 -0.54180209486E+03  0.10042595205E+04  0.90606531023E+02 0.  0.
         11    1    3    3    0    0 -0.36395950519E+03 -0.51508043822E+03 -0.36108055278E+03  0.72674173187E+03  0.00000000000E+00 0.  1.
        -11    1    3    3    0    0 -0.10608593696E+03 -0.18193850942E+03 -0.18072154208E+03  0.27751778862E+03  0.00000000000E+00 0. -1.
         22    1    1    2    0    0  0.47004544214E+03  0.69701894764E+03  0.18762925921E+03  0.86138427543E+03  0.00000000000E+00 0. -1.
<mgrwt>
<rscale>  0 0.18317173E+04</rscale>
<asrwt>0</asrwt>
<pdfrwt beam="1">  1        1 0.11626700E+00 0.18317173E+04</pdfrwt>
<pdfrwt beam="2">  1       -1 0.17075512E+00 0.18317173E+04</pdfrwt>
<totfact> 0.55328438E+00</totfact>
</mgrwt>
</event>
<event>
 6    1  0.9512547E-007  0.3497987E+04  0.7818608E-02  0.8114267E-01
         -1   -1    0    0    0  501 -0.00000000000E+00  0.00000000000E+00  0.20680373688E+04  0.20680373688E+04  0.00000000000E+00 0.  1.
          1   -1    0    0  501    0  0.00000000000E+00 -0.00000000000E+00 -0.14791695173E+04  0.14791695173E+04  0.00000000000E+00 0. -1.
         23    2    1    2    0    0 -0.75184966450E+03 -0.43165705253E+03 -0.12443149308E+04  0.15193595442E+04  0.92347434449E+02 0.  0.
         11    1    3    3    0    0 -0.18484116309E+03 -0.15143106924E+03 -0.36276293451E+03  0.43438988358E+03  0.00000000000E+00 0. -1.
        -11    1    3    3    0    0 -0.56700850142E+03 -0.28022598329E+03 -0.88155199628E+03  0.10849696607E+04  0.00000000000E+00 0.  1.
         22    1    1    2    0    0  0.75184966450E+03  0.43165705253E+03  0.18331827823E+04  0.20278473419E+04  0.00000000000E+00 0.  1.
<mgrwt>
<rscale>  0 0.34979868E+04</rscale>
<asrwt>0</asrwt>
<pdfrwt beam="1">  1        1 0.22756454E+00 0.34979868E+04</pdfrwt>
<pdfrwt beam="2">  1       -1 0.31815960E+00 0.34979868E+04</pdfrwt>
<totfact> 0.13882730E-01</totfact>
</mgrwt>
</event>
<event>
 6    1  0.9512547E-007  0.6247084E+04  0.7818608E-02  0.7660499E-01
          1   -1    0    0  501    0  0.00000000000E+00  0.00000000000E+00  0.31586284830E+04  0.31586284830E+04  0.00000000000E+00 0. -1.
         -1   -1    0    0    0  501 -0.00000000000E+00 -0.00000000000E+00 -0.30888457300E+04  0.30888457300E+04  0.00000000000E+00 0.  1.
         23    2    1    2    0    0  0.12343713677E+04 -0.18408024211E+04 -0.21652603356E+04  0.30998332177E+04  0.91582912215E+02 0.  0.
         11    1    3    3    0    0  0.71386744199E+03 -0.10214792849E+04 -0.11631111225E+04  0.17046566039E+04  0.00000000000E+00 0. -1.
        -11    1    3    3    0    0  0.52050392571E+03 -0.81932313621E+03 -0.10021492132E+04  0.13951766138E+04  0.00000000000E+00 0.  1.
         22    1    1    2    0    0 -0.12343713677E+04  0.18408024211E+04  0.22350430887E+04  0.31476409953E+04  0.00000000000E+00 0. -1.
<mgrwt>
<rscale>  0 0.62470845E+04</rscale>
<asrwt>0</asrwt>
<pdfrwt beam="1">  1        1 0.48594285E+00 0.62470845E+04</pdfrwt>
<pdfrwt beam="2">  1       -1 0.47520703E+00 0.62470845E+04</pdfrwt>
<totfact> 0.65574656E-04</totfact>
</mgrwt>
</event>
<event>
 6    1  0.9512547E-007  0.1313113E+04  0.7818608E-02  0.9019231E-01
         -1   -1    0    0    0  501 -0.00000000000E+00  0.00000000000E+00  0.22560695400E+03  0.22560695400E+03  0.00000000000E+00 0.  1.
          1   -1    0    0  501    0  0.00000000000E+00 -0.00000000000E+00 -0.19106952925E+04  0.19106952925E+04  0.00000000000E+00 0. -1.
         23    2    1    2    0    0 -0.50198433408E+03  0.37838417102E+03 -0.55665784355E+03  0.84459088769E+03  0.91120580783E+02 0.  0.
         11    1    3    3    0    0 -0.25130944373E+03  0.13592872598E+03 -0.23059701515E+03  0.36716214191E+03  0.00000000000E+00 0. -1.
        -11    1    3    3    0    0 -0.25067489035E+03  0.24245544504E+03 -0.32606082840E+03  0.47742874578E+03  0.00000000000E+00 0.  1.
         22    1    1    2    0    0  0.50198433408E+03 -0.37838417102E+03 -0.11284304949E+04  0.12917113588E+04  0.00000000000E+00 0. -1.
<mgrwt>
<rscale>  0 0.13131126E+04</rscale>
<asrwt>0</asrwt>
<pdfrwt beam="1">  1        1 0.29395311E+00 0.13131126E+04</pdfrwt>
<pdfrwt beam="2">  1       -1 0.34708763E-01 0.13131126E+04</pdfrwt>
<totfact> 0.26514392E+01</totfact>
</mgrwt>
</event>
<event>
 6    1  0.9512547E-007  0.2275309E+04  0.7818608E-02  0.8487721E-01
          1   -1    0    0  501    0  0.00000000000E+00  0.00000000000E+00  0.81084256136E+03  0.81084256136E+03  0.00000000000E+00 0. -1.
         -1   -1    0    0    0  501 -0.00000000000E+00 -0.00000000000E+00 -0.15961883497E+04  0.15961883497E+04  0.00000000000E+00 0.  1.
         23    2    1    2    0    0 -0.81936488326E+03  0.62023542725E+03  0.11839491976E+03  0.10385287866E+04  0.92053714996E+02 0.  0.
         11    1    3    3    0    0 -0.49494129877E+03  0.41579770974E+03  0.43989279590E+02  0.64791178518E+03  0.00000000000E+00 0. -1.
        -11    1    3    3    0    0 -0.32442358449E+03  0.20443771751E+03  0.74405640167E+02  0.39061700142E+03  0.00000000000E+00 0.  1.
         22    1    1    2    0    0  0.81936488326E+03 -0.62023542725E+03 -0.90374070806E+03  0.13685021244E+04  0.00000000000E+00 0.  1.
<mgrwt>
<rscale>  0 0.22753087E+04</rscale>
<asrwt>0</asrwt>
<pdfrwt beam="1">  1        1 0.12474501E+00 0.22753087E+04</pdfrwt>
<pdfrwt beam="2">  1       -1 0.24556744E+00 0.22753087E+04</pdfrwt>
<totfact> 0.14605322E+00</totfact>
</mgrwt>
</event>
<event>
 6    1  0.9512547E-007  0.1112873E+04  0.7818608E-02  0.9192735E-01
          1   -1    0    0  501    0  0.00000000000E+00  0.00000000000E+00  0.69051188527E+03  0.69051188527E+03  0.00000000000E+00 0. -1.
         -1   -1    0    0    0  501 -0.00000000000E+00 -0.00000000000E+00 -0.44839449410E+03  0.44839449410E+03  0.00000000000E+00 0.  1.
         23    2    1    2    0    0  0.34645449451E+03 -0.43032015969E+03  0.10394685040E+03  0.56943534855E+03  0.90804800930E+02 0.  0.
         13    1    3    3    0    0  0.25503476770E+03 -0.26003573365E+03  0.92684679021E+02  0.37583475788E+03  0.00000000000E+00 0.  1.
        -13    1    3    3    0    0  0.91419726810E+02 -0.17028442604E+03  0.11262171374E+02  0.19360059067E+03  0.00000000000E+00 0. -1.
         22    1    1    2    0    0 -0.34645449451E+03  0.43032015969E+03  0.13817054077E+03  0.56947103082E+03  0.00000000000E+00 0.  1.
<mgrwt>
<rscale>  0 0.11128733E+04</rscale>
<asrwt>0</asrwt>
<pdfrwt beam="1">  1        1 0.10623260E+00 0.11128733E+04</pdfrwt>
<pdfrwt beam="2">  1       -1 0.68983769E-01 0.11128733E+04</pdfrwt>
<totfact> 0.58902081E+01</totfact>
</mgrwt>
</event>
<event>
 6    1  0.9512547E-007  0.1873788E+04  0.7818608E-02  0.8668015E-01
          2   -1    0    0  501    0  0.00000000000E+00  0.00000000000E+00  0.29314860237E+04  0.29314860237E+04  0.00000000000E+00 0. -1.
         -2   -1    0    0    0  501 -0.00000000000E+00 -0.00000000000E+00 -0.29942830873E+03  0.29942830873E+03  0.00000000000E+00 0.  1.
         23    2    1    2    0    0  0.72159152369E+02 -0.24577352130E+03  0.28690788224E+04  0.28819292721E+04  0.91057525523E+02 0.  0.
         11    1    3    3    0    0  0.77399661711E+02 -0.19606715271E+03  0.25768217353E+04  0.25854290343E+04  0.00000000000E+00 0.  1.
        -11    1    3    3    0    0 -0.52405093422E+01 -0.49706368592E+02  0.29225708713E+03  0.29650023776E+03  0.00000000000E+00 0. -1.
         22    1    1    2    0    0 -0.72159152369E+02  0.24577352130E+03 -0.23702110739E+03  0.34898506041E+03  0.00000000000E+00 0.  1.
<mgrwt>
<rscale>  0 0.18737875E+04</rscale>
<asrwt>0</asrwt>
<pdfrwt beam="1">  1        2 0.45099783E+00 0.18737875E+04</pdfrwt>
<pdfrwt beam="2">  1       -2 0.46065896E-01 0.18737875E+04</pdfrwt>
<totfact> 0.80790147E+00</totfact>
</mgrwt>
</event>
<event>
 6    1  0.9512547E-007  0.2047156E+04  0.7818608E-02  0.8584886E-01
         -1   -1    0    0    0  501 -0.00000000000E+00  0.00000000000E+00  0.92353116044E+03  0.92353116044E+03  0.00000000000E+00 0.  1.
          1   -1    0    0  501    0  0.00000000000E+00 -0.00000000000E+00 -0.11344629918E+04  0.11344629918E+04  0.00000000000E+00 0. -1.
         23    2    1    2    0    0  0.52889232326E+02  0.86234277672E+03  0.44232913682E+03  0.97485878304E+03  0.90896898338E+02 0.  0.
         11    1    3    3    0    0 -0.17236115260E+02  0.44387519025E+03  0.21528276554E+03  0.49362833927E+03  0.00000000000E+00 0.  1.
        -11    1    3    3    0    0  0.70125347586E+02  0.41846758647E+03  0.22704637128E+03  0.48123044377E+03  0.00000000000E+00 0. -1.
         22    1    1    2    0    0 -0.52889232326E+02 -0.86234277672E+03 -0.65326096817E+03  0.10831353692E+04  0.00000000000E+00 0.  1.
<mgrwt>
<rscale>  0 0.20471560E+04</rscale>
<asrwt>0</asrwt>
<pdfrwt beam="1">  1        1 0.17453277E+00 0.20471560E+04</pdfrwt>
<pdfrwt beam="2">  1       -1 0.14208172E+00 0.20471560E+04</pdfrwt>
<totfact> 0.44506730E+00</totfact>
</mgrwt>
</event>
<event>
 6    1  0.9512547E-007  0.1973112E+04  0.7818608E-02  0.8619296E-01
         -2   -1    0    0    0  501 -0.00000000000E+00  0.00000000000E+00  0.18462380009E+04  0.18462380009E+04  0.00000000000E+00 0.  1.
          2   -1    0    0  501    0  0.00000000000E+00 -0.00000000000E+00 -0.52717606189E+03  0.52717606189E+03  0.00000000000E+00 0. -1.
         23    2    1    2    0    0  0.59371452971E+03  0.26978191555E+03 -0.22618947052E+03  0.69618982514E+03  0.90770982731E+02 0.  0.
         11    1    3    3    0    0  0.44081986402E+03  0.19329852514E+03 -0.20768981934E+03  0.52423423524E+03  0.00000000000E+00 0. -1.
        -11    1    3    3    0    0  0.15289466569E+03  0.76483390400E+02 -0.18499651177E+02  0.17195558990E+03  0.00000000000E+00 0.  1.
         22    1    1    2    0    0 -0.59371452971E+03 -0.26978191555E+03  0.15452514096E+04  0.16772242377E+04  0.00000000000E+00 0. -1.
<mgrwt>
<rscale>  0 0.19731117E+04</rscale>
<asrwt>0</asrwt>
<pdfrwt beam="1">  1        2 0.81104011E-01 0.19731117E+04</pdfrwt>
<pdfrwt beam="2">  1       -2 0.28403661E+00 0.19731117E+04</pdfrwt>
<totfact> 0.21457423E+00</totfact>
</mgrwt>
</event>
<event>
 6    1  0.9512547E-007  0.2382785E+04  0.7818608E-02  0.8445977E-01
         -2   -1    0    0    0  501 -0.00000000000E+00  0.00000000000E+00  0.67415816120E+03  0.67415816120E+03  0.00000000000E+00 0.  1.
          2   -1    0    0  501    0  0.00000000000E+00 -0.00000000000E+00 -0.21054637261E+04  0.21054637261E+04  0.00000000000E+00 0. -1.
         23    2    1    2    0    0 -0.11812444293E+03 -0.42077222292E+03  0.57411239978E+03  0.72713464966E+03  0.90094969626E+02 0.  0.
         13    1    3    3    0    0  0.49397246058E+01 -0.74967387735E+02  0.13792489332E+03  0.15705981758E+03  0.00000000000E+00 0. -1.
        -13    1    3    3    0    0 -0.12306416753E+03 -0.34580483519E+03  0.43618750646E+03  0.57007483207E+03  0.00000000000E+00 0.  1.
         22    1    1    2    0    0  0.11812444293E+03  0.42077222292E+03 -0.20054179647E+04  0.20524872376E+04  0.00000000000E+00 0. -1.
<mgrwt>
<rscale>  0 0.23827846E+04</rscale>
<asrwt>0</asrwt>
<pdfrwt beam="1">  1        2 0.32391750E+00 0.23827846E+04</pdfrwt>
<pdfrwt beam="2">  1       -2 0.10371664E+00 0.23827846E+04</pdfrwt>
<totfact> 0.39775206E+00</totfact>
</mgrwt>
</event>
<event>
 6    1  0.9512547E-007  0.6374701E+04  0.7818608E-02  0.7645603E-01
          2   -1    0    0  501    0  0.00000000000E+00  0.00000000000E+00  0.18927096060E+04  0.18927096060E+04  0.00000000000E+00 0. -1.
         -2   -1    0    0    0  501 -0.00000000000E+00 -0.00000000000E+00 -0.53675450092E+04  0.53675450092E+04  0.00000000000E+00 0.  1.
         23    2    1    2    0    0  0.21758009412E+04 -0.22586332058E+04 -0.23815674180E+04  0.39389945258E+04  0.90998977724E+02 0.  0.
         13    1    3    3    0    0  0.59978848045E+03 -0.57734875621E+03 -0.60076539318E+03  0.10266434947E+04  0.00000000000E+00 0.  1.
        -13    1    3    3    0    0  0.15760124607E+04 -0.16812844496E+04 -0.17808020248E+04  0.29123510311E+04  0.00000000000E+00 0. -1.
         22    1    1    2    0    0 -0.21758009412E+04  0.22586332058E+04 -0.10932679852E+04  0.33212600894E+04  0.00000000000E+00 0.  1.
<mgrwt>
<rscale>  0 0.63747012E+04</rscale>
<asrwt>0</asrwt>
<pdfrwt beam="1">  1        2 0.29118610E+00 0.63747012E+04</pdfrwt>
<pdfrwt beam="2">  1       -2 0.82577615E+00 0.63747012E+04</pdfrwt>
<totfact> 0.26032848E-04</totfact>
</mgrwt>
</event>
<event>
 6    1  0.9512547E-007  0.1359926E+04  0.7818608E-02  0.8983348E-01
          3   -1    0    0  501    0  0.00000000000E+00  0.00000000000E+00  0.14956563298E+04  0.14956563298E+04  0.00000000000E+00 0. -1.
         -3   -1    0    0    0  501 -0.00000000000E+00 -0.00000000000E+00 -0.30912836935E+03  0.30912836935E+03  0.00000000000E+00 0.  1.
         23    2    1    2    0    0  0.43737962992E+03 -0.20565100400E+03  0.12251379940E+04  0.13199300706E+04  0.87515774998E+02 0.  0.
         13    1    3    3    0    0  0.40357042645E+03 -0.18159223764E+03  0.11701798264E+04  0.12510658080E+04  0.00000000000E+00 0. -1.
        -13    1    3    3    0    0  0.33809203466E+02 -0.24058766360E+02  0.54958167592E+02  0.68864262596E+02  0.00000000000E+00 0.  1.
         22    1    1    2    0    0 -0.43737962992E+03  0.20565100400E+03 -0.38610033547E+02  0.48485462852E+03  0.00000000000E+00 0.  1.
<mgrwt>
<rscale>  0 0.13599262E+04</rscale>
<asrwt>0</asrwt>
<pdfrwt beam="1">  1        3 0.23010097E+00 0.13599262E+04</pdfrwt>
<pdfrwt beam="2">  1       -3 0.47558212E-01 0.13599262E+04</pdfrwt>
<totfact> 0.10870993E+00</totfact>
</mgrwt>
</event>
<event>
 6    1  0.9512547E-007  0.1683063E+04  0.7818608E-02  0.8771083E-01
          2   -1    0    0  501    0  0.00000000000E+00  0.00000000000E+00  0.17683357941E+04  0.17683357941E+04  0.00000000000E+00 0. -1.
         -2   -1    0    0    0  501 -0.00000000000E+00 -0.00000000000E+00 -0.40047560127E+03  0.40047560127E+03  0.00000000000E+00 0.  1.
         23    2    1    2    0    0 -0.28159442029E+03 -0.63586659301E+03  0.12910344251E+04  0.14691515207E+04  0.89524086951E+02 0.  0.
         11    1    3    3    0    0 -0.57891700226E+02 -0.15555267616E+03  0.39040797822E+03  0.42422455548E+03  0.00000000000E+00 0. -1.
        -11    1    3    3    0    0 -0.22370272006E+03 -0.48031391685E+03  0.90062644691E+03  0.10449269652E+04  0.00000000000E+00 0.  1.
         22    1    1    2    0    0  0.28159442029E+03  0.63586659301E+03  0.76825767647E+02  0.69965987467E+03  0.00000000000E+00 0.  1.
<mgrwt>
<rscale>  0 0.16830631E+04</rscale>
<asrwt>0</asrwt>
<pdfrwt beam="1">  1        2 0.27205166E+00 0.16830631E+04</pdfrwt>
<pdfrwt beam="2">  1       -2 0.61611632E-01 0.16830631E+04</pdfrwt>
<totfact> 0.20958045E+01</totfact>
</mgrwt>
</event>
<event>
 6    1  0.9512547E-007  0.3268592E+04  0.7818608E-02  0.8170933E-01
          2   -1    0    0  501    0  0.00000000000E+00  0.00000000000E+00  0.11154260587E+04  0.11154260587E+04  0.00000000000E+00 0. -1.
         -2   -1    0    0    0  501 -0.00000000000E+00 -0.00000000000E+00 -0.23945317961E+04  0.23945317961E+04  0.00000000000E+00 0.  1.
         23    2    1    2    0    0  0.11984784130E+04  0.58774750568E+02  0.54951917762E+03  0.13227966678E+04  0.89524968875E+02 0.  0.
         13    1    3    3    0    0  0.46415141687E+03  0.48687316306E+02  0.25235677019E+03  0.53055719014E+03  0.00000000000E+00 0. -1.
        -13    1    3    3    0    0  0.73432699615E+03  0.10087434262E+02  0.29716240743E+03  0.79223947768E+03  0.00000000000E+00 0.  1.
         22    1    1    2    0    0 -0.11984784130E+04 -0.58774750568E+02 -0.18286249150E+04  0.21871611869E+04  0.00000000000E+00 0.  1.
<mgrwt>
<rscale>  0 0.32685918E+04</rscale>
<asrwt>0</asrwt>
<pdfrwt beam="1">  1        2 0.17160401E+00 0.32685918E+04</pdfrwt>
<pdfrwt beam="2">  1       -2 0.36838951E+00 0.32685918E+04</pdfrwt>
<totfact> 0.21206132E-01</totfact>
</mgrwt>
</event>
<event>
 6    1  0.9512547E-007  0.3079753E+04  0.7818608E-02  0.8221317E-01
          1   -1    0    0  501    0  0.00000000000E+00  0.00000000000E+00  0.31458542191E+04  0.31458542191E+04  0.00000000000E+00 0. -1.
         -1   -1    0    0    0  501 -0.00000000000E+00 -0.00000000000E+00 -0.75376012810E+03  0.75376012810E+03  0.00000000000E+00 0.  1.
         23    2    1    2    0    0 -0.52028631822E+03  0.62790631094E+03 -0.45486735068E+03  0.93816982827E+03  0.91072123695E+02 0.  0.
         13    1    3    3    0    0 -0.45389363251E+03  0.58835344601E+03 -0.41726205848E+03  0.85222463736E+03  0.00000000000E+00 0. -1.
        -13    1    3    3    0    0 -0.66392685710E+02  0.39552864926E+02 -0.37605292200E+02  0.85945190913E+02  0.00000000000E+00 0.  1.
         22    1    1    2    0    0  0.52028631822E+03 -0.62790631094E+03  0.28469614416E+04  0.29614445189E+04  0.00000000000E+00 0. -1.
<mgrwt>
<rscale>  0 0.30797529E+04</rscale>
<asrwt>0</asrwt>
<pdfrwt beam="1">  1        1 0.48397756E+00 0.30797529E+04</pdfrwt>
<pdfrwt beam="2">  1       -1 0.11596310E+00 0.30797529E+04</pdfrwt>
<totfact> 0.26511553E-01</totfact>
</mgrwt>
</event>
<event>
 6    1  0.9512547E-007  0.1943871E+04  0.7818608E-02  0.8633322E-01
          2   -1    0    0  501    0  0.00000000000E+00  0.00000000000E+00  0.18348108793E+04  0.18348108793E+04  0.00000000000E+00 0. -1.
         -2   -1    0    0    0  501 -0.00000000000E+00 -0.00000000000E+00 -0.51485315615E+03  0.51485315615E+03  0.00000000000E+00 0.  1.
         23    2    1    2    0    0 -0.42776345451E+03  0.19731879155E+03  0.16860917806E+04  0.17530314629E+04  0.91090827359E+02 0.  0.
         11    1    3    3    0    0 -0.87535536572E+02  0.75834032888E+02  0.49435810372E+03  0.50774324754E+03  0.00000000000E+00 0. -1.
        -11    1    3    3    0    0 -0.34022791794E+03  0.12148475866E+03  0.11917336769E+04  0.12452882154E+04  0.00000000000E+00 0.  1.
         22    1    1    2    0    0  0.42776345451E+03 -0.19731879155E+03 -0.36613405749E+03  0.59663257250E+03  0.00000000000E+00 0.  1.
<mgrwt>
<rscale>  0 0.19438705E+04</rscale>
<asrwt>0</asrwt>
<pdfrwt beam="1">  1        2 0.28227859E+00 0.19438705E+04</pdfrwt>
<pdfrwt beam="2">  1       -2 0.79208179E-01 0.19438705E+04</pdfrwt>
<totfact> 0.10887142E+01</totfact>
</mgrwt>
</event>
<event>
 6    1  0.9512547E-007  0.3787281E+04  0.7818608E-02  0.8048890E-01
          2   -1    0    0  501    0  0.00000000000E+00  0.00000000000E+00  0.33278458941E+04  0.33278458941E+04  0.00000000000E+00 0. -1.
         -2   -1    0    0    0  501 -0.00000000000E+00 -0.00000000000E+00 -0.10775362034E+04  0.10775362034E+04  0.00000000000E+00 0.  1.
         23    2    1    2    0    0  0.51565120875E+03 -0.17499587338E+04  0.54035626884E+03  0.19049436471E+04  0.92594074007E+02 0.  0.
         11    1    3    3    0    0  0.22405739812E+03 -0.64026702245E+03  0.23123574438E+03  0.71666836624E+03  0.00000000000E+00 0.  1.
        -11    1    3    3    0    0  0.29159381064E+03 -0.11096917113E+04  0.30912052446E+03  0.11882752809E+04  0.00000000000E+00 0. -1.
         22    1    1    2    0    0 -0.51565120875E+03  0.17499587338E+04  0.17099534219E+04  0.25004384504E+04  0.00000000000E+00 0. -1.
<mgrwt>
<rscale>  0 0.37872810E+04</rscale>
<asrwt>0</asrwt>
<pdfrwt beam="1">  1        2 0.51197629E+00 0.37872810E+04</pdfrwt>
<pdfrwt beam="2">  1       -2 0.16577480E+00 0.37872810E+04</pdfrwt>
<totfact> 0.19547628E-01</totfact>
</mgrwt>
</event>
<event>
 6    1  0.9512547E-007  0.2774993E+04  0.7818608E-02  0.8311074E-01
         -1   -1    0    0    0  501 -0.00000000000E+00  0.00000000000E+00  0.24518062978E+04  0.24518062978E+04  0.00000000000E+00 0.  1.
          1   -1    0    0  501    0  0.00000000000E+00 -0.00000000000E+00 -0.78519522138E+03  0.78519522138E+03  0.00000000000E+00 0. -1.
         23    2    1    2    0    0  0.82362486834E+03 -0.10674253108E+04  0.45955562775E+03  0.14273779191E+04  0.91987125270E+02 0.  0.
         11    1    3    3    0    0  0.67883614858E+03 -0.87223929181E+03  0.33896503704E+03  0.11560783689E+04  0.00000000000E+00 0.  1.
        -11    1    3    3    0    0  0.14478871975E+03 -0.19518601895E+03  0.12059059071E+03  0.27129955018E+03  0.00000000000E+00 0. -1.
         22    1    1    2    0    0 -0.82362486834E+03  0.10674253108E+04  0.12070554487E+04  0.18096236001E+04  0.00000000000E+00 0.  1.
<mgrwt>
<rscale>  0 0.27749930E+04</rscale>
<asrwt>0</asrwt>
<pdfrwt beam="1">  1        1 0.12079927E+00 0.27749930E+04</pdfrwt>
<pdfrwt beam="2">  1       -1 0.37720097E+00 0.27749930E+04</pdfrwt>
<totfact> 0.20193365E-01</totfact>
</mgrwt>
</event>
<event>
 6    1  0.9512547E-007  0.3703271E+03  0.7818608E-02  0.1054568E+00
          2   -1    0    0  501    0  0.00000000000E+00  0.00000000000E+00  0.32252095141E+04  0.32252095141E+04  0.00000000000E+00 0. -1.
         -2   -1    0    0    0  501 -0.00000000000E+00 -0.00000000000E+00 -0.10630484889E+02  0.10630484889E+02  0.00000000000E+00 0.  1.
         23    2    1    2    0    0 -0.67976655490E+02  0.11246589486E+03  0.27049846392E+04  0.27095740533E+04  0.87064626259E+02 0.  0.
         13    1    3    3    0    0  0.13497753358E+02  0.54157935585E+02  0.11623955596E+04  0.11637348101E+04  0.00000000000E+00 0. -1.
        -13    1    3    3    0    0 -0.81474408847E+02  0.58307959270E+02  0.15425890796E+04  0.15458392432E+04  0.00000000000E+00 0.  1.
         22    1    1    2    0    0  0.67976655490E+02 -0.11246589486E+03  0.50959439003E+03  0.52626594565E+03  0.00000000000E+00 0.  1.
<mgrwt>
<rscale>  0 0.37032710E+03</rscale>
<asrwt>0</asrwt>
<pdfrwt beam="1">  1        2 0.49618530E+00 0.37032710E+03</pdfrwt>
<pdfrwt beam="2">  1       -2 0.16354618E-02 0.37032710E+03</pdfrwt>
<totfact> 0.15597291E+03</totfact>
</mgrwt>
</event>
<event>
 6    1  0.9512547E-007  0.4117462E+04  0.7818608E-02  0.7981261E-01
         -1   -1    0    0    0  501 -0.00000000000E+00  0.00000000000E+00  0.19582483292E+04  0.19582483292E+04  0.00000000000E+00 0.  1.
          1   -1    0    0  501    0  0.00000000000E+00 -0.00000000000E+00 -0.21643696777E+04  0.21643696777E+04  0.00000000000E+00 0. -1.
         23    2    1    2    0    0  0.14580112477E+04 -0.17810148641E+03  0.13398007341E+04  0.19901565129E+04  0.90221953048E+02 0.  0.
         11    1    3    3    0    0  0.31324695874E+03 -0.35089358383E+01  0.26771590045E+03  0.41207738732E+03  0.00000000000E+00 0. -1.
        -11    1    3    3    0    0  0.11447642889E+04 -0.17459255057E+03  0.10720848337E+04  0.15780791256E+04  0.00000000000E+00 0.  1.
         22    1    1    2    0    0 -0.14580112477E+04  0.17810148641E+03 -0.15459220827E+04  0.21324614940E+04  0.00000000000E+00 0. -1.
<mgrwt>
<rscale>  0 0.41174620E+04</rscale>
<asrwt>0</asrwt>
<pdfrwt beam="1">  1        1 0.33297995E+00 0.41174620E+04</pdfrwt>
<pdfrwt beam="2">  1       -1 0.30126897E+00 0.41174620E+04</pdfrwt>
<totfact> 0.57873811E-02</totfact>
</mgrwt>
</event>
<event>
 6    1  0.9512547E-007  0.8100251E+03  0.7818608E-02  0.9545619E-01
          2   -1    0    0  501    0  0.00000000000E+00  0.00000000000E+00  0.27587726075E+04  0.27587726075E+04  0.00000000000E+00 0. -1.
         -2   -1    0    0    0  501 -0.00000000000E+00 -0.00000000000E+00 -0.59459468493E+02  0.59459468493E+02  0.00000000000E+00 0.  1.
         23    2    1    2    0    0 -0.35970338193E+03  0.14205717470E+03  0.10110181884E+04  0.10862082297E+04  0.90131998524E+02 0.  0.
         11    1    3    3    0    0 -0.21828319881E+03  0.11796800388E+03  0.54980627127E+03  0.60320058086E+03  0.00000000000E+00 0.  1.
        -11    1    3    3    0    0 -0.14142018312E+03  0.24089170821E+02  0.46121191714E+03  0.48300764886E+03  0.00000000000E+00 0. -1.
         22    1    1    2    0    0  0.35970338193E+03 -0.14205717470E+03  0.16882949506E+04  0.17320238463E+04  0.00000000000E+00 0.  1.
<mgrwt>
<rscale>  0 0.81002507E+03</rscale>
<asrwt>0</asrwt>
<pdfrwt beam="1">  1        2 0.42442645E+00 0.81002507E+03</pdfrwt>
<pdfrwt beam="2">  1       -2 0.91476127E-02 0.81002507E+03</pdfrwt>
<totfact> 0.20199793E+02</totfact>
</mgrwt>
</event>
<event>
 6    1  0.9512547E-007  0.3018540E+04  0.7818608E-02  0.8238456E-01
          2   -1    0    0  501    0  0.00000000000E+00  0.00000000000E+00  0.11432825193E+04  0.11432825193E+04  0.00000000000E+00 0. -1.
         -2   -1    0    0    0  501 -0.00000000000E+00 -0.00000000000E+00 -0.19924176880E+04  0.19924176880E+04  0.00000000000E+00 0.  1.
         23    2    1    2    0    0 -0.14173124210E+04  0.26264031001E+03  0.34967572661E+02  0.14447264971E+04  0.90870727041E+02 0.  0.
         11    1    3    3    0    0 -0.10126760015E+04  0.17478685142E+03 -0.14247623962E+02  0.10277480830E+04  0.00000000000E+00 0.  1.
        -11    1    3    3    0    0 -0.40463641954E+03  0.87853458589E+02  0.49215196624E+02  0.41697841405E+03  0.00000000000E+00 0. -1.
         22    1    1    2    0    0  0.14173124210E+04 -0.26264031001E+03 -0.88410274136E+03  0.16909737102E+04  0.00000000000E+00 0.  1.
<mgrwt>
<rscale>  0 0.30185403E+04</rscale>
<asrwt>0</asrwt>
<pdfrwt beam="1">  1        2 0.17588962E+00 0.30185403E+04</pdfrwt>
<pdfrwt beam="2">  1       -2 0.30652580E+00 0.30185403E+04</pdfrwt>
<totfact> 0.50769025E-01</totfact>
</mgrwt>
</event>
<event>
 6    1  0.9512547E-007  0.6401434E+03  0.7818608E-02  0.9825452E-01
          1   -1    0    0  501    0  0.00000000000E+00  0.00000000000E+00  0.32058327158E+03  0.32058327158E+03  0.00000000000E+00 0. -1.
         -1   -1    0    0    0  501 -0.00000000000E+00 -0.00000000000E+00 -0.31956096139E+03  0.31956096139E+03  0.00000000000E+00 0.  1.
         23    2    1    2    0    0 -0.17497625106E+03 -0.42153385009E+01  0.26020979897E+03  0.32739415407E+03  0.94039008528E+02 0.  0.
         13    1    3    3    0    0 -0.84522294129E+02  0.43280753484E+02  0.14591838241E+03  0.17409599695E+03  0.00000000000E+00 0. -1.
        -13    1    3    3    0    0 -0.90453956935E+02 -0.47496091985E+02  0.11429141655E+03  0.15329815712E+03  0.00000000000E+00 0.  1.
         22    1    1    2    0    0  0.17497625106E+03  0.42153385009E+01 -0.25918748878E+03  0.31275007891E+03  0.00000000000E+00 0.  1.
<mgrwt>
<rscale>  0 0.64014342E+03</rscale>
<asrwt>0</asrwt>
<pdfrwt beam="1">  1        1 0.49320503E-01 0.64014342E+03</pdfrwt>
<pdfrwt beam="2">  1       -1 0.49163225E-01 0.64014342E+03</pdfrwt>
<totfact> 0.33770145E+02</totfact>
</mgrwt>
</event>
<event>
 6    1  0.9512547E-007  0.7876984E+03  0.7818608E-02  0.9577996E-01
         -2   -1    0    0    0  501 -0.00000000000E+00  0.00000000000E+00  0.11117923903E+03  0.11117923903E+03  0.00000000000E+00 0.  1.
          2   -1    0    0  501    0  0.00000000000E+00 -0.00000000000E+00 -0.13951993361E+04  0.13951993361E+04  0.00000000000E+00 0. -1.
         23    2    1    2    0    0 -0.24662826899E+03  0.18997531780E+03 -0.20048831759E+03  0.37901118089E+03  0.80856572473E+02 0.  0.
         13    1    3    3    0    0 -0.95450678072E+02  0.10842439546E+03 -0.12638697403E+03  0.19193839813E+03  0.00000000000E+00 0.  1.
        -13    1    3    3    0    0 -0.15117759091E+03  0.81550922342E+02 -0.74101343562E+02  0.18707278275E+03  0.00000000000E+00 0. -1.
         22    1    1    2    0    0  0.24662826899E+03 -0.18997531780E+03 -0.10835317795E+04  0.11273673943E+04  0.00000000000E+00 0. -1.
<mgrwt>
<rscale>  0 0.78769842E+03</rscale>
<asrwt>0</asrwt>
<pdfrwt beam="1">  1        2 0.21464604E+00 0.78769842E+03</pdfrwt>
<pdfrwt beam="2">  1       -2 0.17104499E-01 0.78769842E+03</pdfrwt>
<totfact> 0.41138630E+02</totfact>
</mgrwt>
</event>
<event>
 6    1  0.9512547E-007  0.4894436E+04  0.7818608E-02  0.7845001E-01
         -2   -1    0    0    0  501 -0.00000000000E+00  0.00000000000E+00  0.26127986091E+04  0.26127986091E+04  0.00000000000E+00 0.  1.
          2   -1    0    0  501    0  0.00000000000E+00 -0.00000000000E+00 -0.22921305616E+04  0.22921305616E+04  0.00000000000E+00 0. -1.
         23    2    1    2    0    0  0.24431910841E+04 -0.11617342116E+03  0.20814938997E+03  0.24563909566E+04  0.88608273619E+02 0.  0.
         13    1    3    3    0    0  0.10633192636E+04 -0.93999586159E+02  0.97745131964E+02  0.10719318492E+04  0.00000000000E+00 0. -1.
        -13    1    3    3    0    0  0.13798718205E+04 -0.22173834999E+02  0.11040425801E+03  0.13844591075E+04  0.00000000000E+00 0.  1.
         22    1    1    2    0    0 -0.24431910841E+04  0.11617342116E+03  0.11251865749E+03  0.24485382140E+04  0.00000000000E+00 0.  1.
<mgrwt>
<rscale>  0 0.48944358E+04</rscale>
<asrwt>0</asrwt>
<pdfrwt beam="1">  1        2 0.35263547E+00 0.48944358E+04</pdfrwt>
<pdfrwt beam="2">  1       -2 0.40196902E+00 0.48944358E+04</pdfrwt>
<totfact> 0.24245133E-02</totfact>
</mgrwt>
</event>
<event>
 6    1  0.9512547E-007  0.1820422E+04  0.7818608E-02  0.8695514E-01
         -2   -1    0    0    0  501 -0.00000000000E+00  0.00000000000E+00  0.14228069440E+04  0.14228069440E+04  0.00000000000E+00 0.  1.
          2   -1    0    0  501    0  0.00000000000E+00 -0.00000000000E+00 -0.58228872186E+03  0.58228872186E+03  0.00000000000E+00 0. -1.
         23    2    1    2    0    0  0.34319220850E+03  0.74666512861E+03 -0.38512286719E+01  0.82685567516E+03  0.91573846232E+02 0.  0.
         13    1    3    3    0    0  0.45958260904E+02  0.99795344680E+02 -0.31918381972E+02  0.11441178118E+03  0.00000000000E+00 0. -1.
        -13    1    3    3    0    0  0.29723394760E+03  0.64686978393E+03  0.28067153300E+02  0.71244389398E+03  0.00000000000E+00 0.  1.
         22    1    1    2    0    0 -0.34319220850E+03 -0.74666512861E+03  0.84436945084E+03  0.11782399907E+04  0.00000000000E+00 0.  1.
<mgrwt>
<rscale>  0 0.18204224E+04</rscale>
<asrwt>0</asrwt>
<pdfrwt beam="1">  1        2 0.89582881E-01 0.18204224E+04</pdfrwt>
<pdfrwt beam="2">  1       -2 0.21889338E+00 0.18204224E+04</pdfrwt>
<totfact> 0.48651581E+00</totfact>
</mgrwt>
</event>
<event>
 6    1  0.9512547E-007  0.2167664E+04  0.7818608E-02  0.8532009E-01
         -2   -1    0    0    0  501 -0.00000000000E+00  0.00000000000E+00  0.37425018005E+03  0.37425018005E+03  0.00000000000E+00 0.  1.
          2   -1    0    0  501    0  0.00000000000E+00 -0.00000000000E+00 -0.31387882609E+04  0.31387882609E+04  0.00000000000E+00 0. -1.
         23    2    1    2    0    0  0.92601144781E+03 -0.46393237278E+03 -0.18914499062E+04  0.21584117733E+04  0.91805159963E+02 0.  0.
         13    1    3    3    0    0  0.60633131360E+03 -0.35183118542E+03 -0.12788345781E+04  0.14583691998E+04  0.00000000000E+00 0.  1.
        -13    1    3    3    0    0  0.31968013421E+03 -0.11210118736E+03 -0.61261532814E+03  0.70004257348E+03  0.00000000000E+00 0. -1.
         22    1    1    2    0    0 -0.92601144781E+03  0.46393237278E+03 -0.87308817457E+03  0.13546266676E+04  0.00000000000E+00 0.  1.
<mgrwt>
<rscale>  0 0.21676642E+04</rscale>
<asrwt>0</asrwt>
<pdfrwt beam="1">  1        2 0.48289051E+00 0.21676642E+04</pdfrwt>
<pdfrwt beam="2">  1       -2 0.57576950E-01 0.21676642E+04</pdfrwt>
<totfact> 0.36862423E+00</totfact>
</mgrwt>
</event>
<event>
 6    1  0.9512547E-007  0.2347318E+04  0.7818608E-02  0.8459495E-01
         -2   -1    0    0    0  501 -0.00000000000E+00  0.00000000000E+00  0.91221091446E+03  0.91221091446E+03  0.00000000000E+00 0.  1.
          2   -1    0    0  501    0  0.00000000000E+00 -0.00000000000E+00 -0.15100403388E+04  0.15100403388E+04  0.00000000000E+00 0. -1.
         23    2    1    2    0    0 -0.63539083522E+03  0.68560949589E+03 -0.10285138409E+04  0.13930423527E+04  0.94574738135E+02 0.  0.
         11    1    3    3    0    0 -0.55978925414E+03  0.55298486490E+03 -0.85891098309E+03  0.11648537877E+04  0.00000000000E+00 0.  1.
        -11    1    3    3    0    0 -0.75601581087E+02  0.13262463099E+03 -0.16960285778E+03  0.22818856495E+03  0.00000000000E+00 0. -1.
         22    1    1    2    0    0  0.63539083522E+03 -0.68560949589E+03  0.43068441657E+03  0.10292089006E+04  0.00000000000E+00 0.  1.
<mgrwt>
<rscale>  0 0.23473179E+04</rscale>
<asrwt>0</asrwt>
<pdfrwt beam="1">  1        2 0.23231390E+00 0.23473179E+04</pdfrwt>
<pdfrwt beam="2">  1       -2 0.14034014E+00 0.23473179E+04</pdfrwt>
<totfact> 0.40391191E+00</totfact>
</mgrwt>
</event>
<event>
 6    1  0.9512547E-007  0.2973020E+04  0.7818608E-02  0.8251478E-01
         -1   -1    0    0    0  501 -0.00000000000E+00  0.00000000000E+00  0.14237916527E+04  0.14237916527E+04  0.00000000000E+00 0.  1.
          1   -1    0    0  501    0  0.00000000000E+00 -0.00000000000E+00 -0.15519906378E+04  0.15519906378E+04  0.00000000000E+00 0. -1.
         23    2    1    2    0    0 -0.76445574368E+03 -0.11087834937E+04 -0.69073914644E+03  0.15162464558E+04  0.89940682620E+02 0.  0.
         11    1    3    3    0    0 -0.37764017227E+03 -0.61098810187E+03 -0.39807363501E+03  0.82120714758E+03  0.00000000000E+00 0. -1.
        -11    1    3    3    0    0 -0.38681557141E+03 -0.49779539178E+03 -0.29266551143E+03  0.69503930820E+03  0.00000000000E+00 0.  1.
         22    1    1    2    0    0  0.76445574368E+03  0.11087834937E+04  0.56254016130E+03  0.14595358347E+04  0.00000000000E+00 0.  1.
<mgrwt>
<rscale>  0 0.29730196E+04</rscale>
<asrwt>0</asrwt>
<pdfrwt beam="1">  1        1 0.23876779E+00 0.29730196E+04</pdfrwt>
<pdfrwt beam="2">  1       -1 0.21904487E+00 0.29730196E+04</pdfrwt>
<totfact> 0.57370475E-01</totfact>
</mgrwt>
</event>
<event>
 6    1  0.9512547E-007  0.1831533E+04  0.7818608E-02  0.8689708E-01
          2   -1    0    0  501    0  0.00000000000E+00  0.00000000000E+00  0.32841410076E+04  0.32841410076E+04  0.00000000000E+00 0. -1.
         -2   -1    0    0    0  501 -0.00000000000E+00 -0.00000000000E+00 -0.25535691126E+03  0.25535691126E+03  0.00000000000E+00 0.  1.
         23    2    1    2    0    0  0.58212634514E+03  0.47760515382E+03  0.52240047667E+03  0.92245061061E+03  0.10504811435E+03 0.  0.
         13    1    3    3    0    0  0.30680994127E+03  0.18412539604E+03  0.25104909619E+03  0.43710427843E+03  0.00000000000E+00 0. -1.
        -13    1    3    3    0    0  0.27531640387E+03  0.29347975778E+03  0.27135138049E+03  0.48534633218E+03  0.00000000000E+00 0.  1.
         22    1    1    2    0    0 -0.58212634514E+03 -0.47760515382E+03  0.25063836196E+04  0.26170473082E+04  0.00000000000E+00 0. -1.
<mgrwt>
<rscale>  0 0.18315328E+04</rscale>
<asrwt>0</asrwt>
<pdfrwt beam="1">  1        2 0.50525243E+00 0.18315328E+04</pdfrwt>
<pdfrwt beam="2">  1       -2 0.39285681E-01 0.18315328E+04</pdfrwt>
<totfact> 0.66224085E+00</totfact>
</mgrwt>
</event>
<event>
 6    1  0.9512547E-007  0.2216853E+04  0.7818608E-02  0.8511446E-01
         -1   -1    0    0    0  501 -0.00000000000E+00  0.00000000000E+00  0.43142808462E+03  0.43142808462E+03  0.00000000000E+00 0.  1.
          1   -1    0    0  501    0  0.00000000000E+00 -0.00000000000E+00 -0.28477735502E+04  0.28477735502E+04  0.00000000000E+00 0. -1.
         23    2    1    2    0    0  0.35586619150E+03  0.25556492078E+03 -0.27133001291E+04  0.27499226468E+04  0.90126565427E+02 0.  0.
         11    1    3    3    0    0  0.18570394962E+03  0.78658927805E+02 -0.12608474296E+04  0.12768748664E+04  0.00000000000E+00 0. -1.
        -11    1    3    3    0    0  0.17016224188E+03  0.17690599297E+03 -0.14524526995E+04  0.14730477804E+04  0.00000000000E+00 0.  1.
         22    1    1    2    0    0 -0.35586619150E+03 -0.25556492078E+03  0.29695466352E+03  0.52927898803E+03  0.00000000000E+00 0.  1.
<mgrwt>
<rscale>  0 0.22168532E+04</rscale>
<asrwt>0</asrwt>
<pdfrwt beam="1">  1        1 0.43811902E+00 0.22168532E+04</pdfrwt>
<pdfrwt beam="2">  1       -1 0.66373549E-01 0.22168532E+04</pdfrwt>
<totfact> 0.16139048E+00</totfact>
</mgrwt>
</event>
<event>
 6    1  0.9512547E-007  0.1283941E+04  0.7818608E-02  0.9042398E-01
         -2   -1    0    0    0  501 -0.00000000000E+00  0.00000000000E+00  0.13594883559E+03  0.13594883559E+03  0.00000000000E+00 0.  1.
          2   -1    0    0  501    0  0.00000000000E+00 -0.00000000000E+00 -0.30314802289E+04  0.30314802289E+04  0.00000000000E+00 0. -1.
         23    2    1    2    0    0  0.10870820804E+03  0.57440265175E+03 -0.20891365016E+04  0.21714227381E+04  0.93965442857E+02 0.  0.
         11    1    3    3    0    0  0.95665497126E+02  0.31626278826E+03 -0.12830126509E+04  0.13248756549E+04  0.00000000000E+00 0. -1.
        -11    1    3    3    0    0  0.13042710912E+02  0.25813986348E+03 -0.80612385066E+03  0.84654708317E+03  0.00000000000E+00 0.  1.
         22    1    1    2    0    0 -0.10870820804E+03 -0.57440265175E+03 -0.80639489172E+03  0.99600632640E+03  0.00000000000E+00 0.  1.
<mgrwt>
<rscale>  0 0.12839411E+04</rscale>
<asrwt>0</asrwt>
<pdfrwt beam="1">  1        2 0.46638153E+00 0.12839411E+04</pdfrwt>
<pdfrwt beam="2">  1       -2 0.20915207E-01 0.12839411E+04</pdfrwt>
<totfact> 0.32643608E+01</totfact>
</mgrwt>
</event>
<event>
 6    1  0.9512547E-007  0.9974713E+03  0.7818608E-02  0.9311323E-01
          2   -1    0    0  501    0  0.00000000000E+00  0.00000000000E+00  0.23336170538E+03  0.23336170538E+03  0.00000000000E+00 0. -1.
         -2   -1    0    0    0  501 -0.00000000000E+00 -0.00000000000E+00 -0.10658872441E+04  0.10658872441E+04  0.00000000000E+00 0.  1.
         23    2    1    2    0    0 -0.49999806325E+02  0.47483628109E+03 -0.58768640313E+03  0.76267120414E+03  0.91228190396E+02 0.  0.
         11    1    3    3    0    0  0.13184806585E+02  0.23501712364E+03 -0.32644914740E+03  0.40246233782E+03  0.00000000000E+00 0. -1.
        -11    1    3    3    0    0 -0.63184612910E+02  0.23981915745E+03 -0.26123725573E+03  0.36020886631E+03  0.00000000000E+00 0.  1.
         22    1    1    2    0    0  0.49999806325E+02 -0.47483628109E+03 -0.24483913558E+03  0.53657774533E+03  0.00000000000E+00 0. -1.
<mgrwt>
<rscale>  0 0.99747133E+03</rscale>
<asrwt>0</asrwt>
<pdfrwt beam="1">  1        2 0.35901801E-01 0.99747133E+03</pdfrwt>
<pdfrwt beam="2">  1       -2 0.16398265E+00 0.99747133E+03</pdfrwt>
<totfact> 0.34164435E+01</totfact>
</mgrwt>
</event>
<event>
 6    1  0.9512547E-007  0.1533432E+04  0.7818608E-02  0.8862520E-01
          2   -1    0    0  501    0  0.00000000000E+00  0.00000000000E+00  0.46134974022E+03  0.46134974022E+03  0.00000000000E+00 0. -1.
         -2   -1    0    0    0  501 -0.00000000000E+00 -0.00000000000E+00 -0.12742038873E+04  0.12742038873E+04  0.00000000000E+00 0.  1.
         23    2    1    2    0    0  0.42108099501E+03  0.11440960702E+03  0.30196740829E+03  0.53837951200E+03  0.90936355395E+02 0.  0.
         11    1    3    3    0    0  0.19246741165E+03  0.99389246358E+02  0.14620860901E+03  0.26134055213E+03  0.00000000000E+00 0. -1.
        -11    1    3    3    0    0  0.22861358336E+03  0.15020360659E+02  0.15575879928E+03  0.27703895987E+03  0.00000000000E+00 0.  1.
         22    1    1    2    0    0 -0.42108099501E+03 -0.11440960702E+03 -0.11148215554E+04  0.11971741156E+04  0.00000000000E+00 0.  1.
<mgrwt>
<rscale>  0 0.15334323E+04</rscale>
<asrwt>0</asrwt>
<pdfrwt beam="1">  1        2 0.70976882E-01 0.15334323E+04</pdfrwt>
<pdfrwt beam="2">  1       -2 0.19603137E+00 0.15334323E+04</pdfrwt>
<totfact> 0.91927234E+00</totfact>
</mgrwt>
</event>
<event>
 6    1  0.9512547E-007  0.3576623E+04  0.7818608E-02  0.8095868E-01
         -2   -1    0    0    0  501 -0.00000000000E+00  0.00000000000E+00  0.22516904078E+04  0.22516904078E+04  0.00000000000E+00 0.  1.
          2   -1    0    0  501    0  0.00000000000E+00 -0.00000000000E+00 -0.14202919652E+04  0.14202919652E+04  0.00000000000E+00 0. -1.
         23    2    1    2    0    0 -0.61768373947E+03 -0.39112861147E+03  0.20902268349E+04  0.22162476052E+04  0.90501014112E+02 0.  0.
         13    1    3    3    0    0 -0.24659956701E+03 -0.13549242818E+03  0.68491275464E+03  0.74045595819E+03  0.00000000000E+00 0.  1.
        -13    1    3    3    0    0 -0.37108417247E+03 -0.25563618329E+03  0.14053140803E+04  0.14757916470E+04  0.00000000000E+00 0. -1.
         22    1    1    2    0    0  0.61768373947E+03  0.39112861147E+03 -0.12588283924E+04  0.14557347678E+04  0.00000000000E+00 0. -1.
<mgrwt>
<rscale>  0 0.35766229E+04</rscale>
<asrwt>0</asrwt>
<pdfrwt beam="1">  1        2 0.21850646E+00 0.35766229E+04</pdfrwt>
<pdfrwt beam="2">  1       -2 0.34641391E+00 0.35766229E+04</pdfrwt>
<totfact> 0.18847850E-01</totfact>
</mgrwt>
</event>
<event>
 6    1  0.9512547E-007  0.2390239E+04  0.7818608E-02  0.8443167E-01
         -2   -1    0    0    0  501 -0.00000000000E+00  0.00000000000E+00  0.14271522879E+04  0.14271522879E+04  0.00000000000E+00 0.  1.
          2   -1    0    0  501    0  0.00000000000E+00 -0.00000000000E+00 -0.10008119112E+04  0.10008119112E+04  0.00000000000E+00 0. -1.
         23    2    1    2    0    0 -0.86444352197E+03 -0.81803673148E+03  0.12483455353E+03  0.12002213685E+04  0.92200710111E+02 0.  0.
         11    1    3    3    0    0 -0.54089148032E+03 -0.46203902971E+03  0.47157219235E+02  0.71292879152E+03  0.00000000000E+00 0. -1.
        -11    1    3    3    0    0 -0.32355204165E+03 -0.35599770177E+03  0.77677334299E+02  0.48729257698E+03  0.00000000000E+00 0.  1.
         22    1    1    2    0    0  0.86444352197E+03  0.81803673148E+03  0.30150582308E+03  0.12277428306E+04  0.00000000000E+00 0.  1.
<mgrwt>
<rscale>  0 0.23902393E+04</rscale>
<asrwt>0</asrwt>
<pdfrwt beam="1">  1        2 0.15397106E+00 0.23902393E+04</pdfrwt>
<pdfrwt beam="2">  1       -2 0.21956189E+00 0.23902393E+04</pdfrwt>
<totfact> 0.22516475E+00</totfact>
</mgrwt>
</event>
<event>
 6    1  0.9512547E-007  0.3307470E+04  0.7818608E-02  0.8160997E-01
         -1   -1    0    0    0  501 -0.00000000000E+00  0.00000000000E+00  0.23284877191E+04  0.23284877191E+04  0.00000000000E+00 0.  1.
          1   -1    0    0  501    0  0.00000000000E+00 -0.00000000000E+00 -0.11745132179E+04  0.11745132179E+04  0.00000000000E+00 0. -1.
         23    2    1    2    0    0 -0.98975752244E+03 -0.13018567185E+04  0.32590151706E+03  0.16699281790E+04  0.89428493192E+02 0.  0.
         11    1    3    3    0    0 -0.60784218510E+03 -0.86768424045E+03  0.22217367762E+03  0.10824551751E+04  0.00000000000E+00 0.  1.
        -11    1    3    3    0    0 -0.38191533734E+03 -0.43417247808E+03  0.10372783944E+03  0.58747300388E+03  0.00000000000E+00 0. -1.
         22    1    1    2    0    0  0.98975752244E+03  0.13018567185E+04  0.82807298417E+03  0.18330727579E+04  0.00000000000E+00 0.  1.
<mgrwt>
<rscale>  0 0.33074701E+04</rscale>
<asrwt>0</asrwt>
<pdfrwt beam="1">  1        1 0.18069434E+00 0.33074701E+04</pdfrwt>
<pdfrwt beam="2">  1       -1 0.35822888E+00 0.33074701E+04</pdfrwt>
<totfact> 0.12664765E-01</totfact>
</mgrwt>
</event>
<event>
 6    1  0.9512547E-007  0.9656336E+03  0.7818608E-02  0.9347062E-01
         -2   -1    0    0    0  501 -0.00000000000E+00  0.00000000000E+00  0.10389277934E+03  0.10389277934E+03  0.00000000000E+00 0.  1.
          2   -1    0    0  501    0  0.00000000000E+00 -0.00000000000E+00 -0.22437754351E+04  0.22437754351E+04  0.00000000000E+00 0. -1.
         23    2    1    2    0    0 -0.13599509973E+03  0.45868885288E+03 -0.10943057133E+04  0.11978328899E+04  0.91697912375E+02 0.  0.
         11    1    3    3    0    0 -0.91515813589E+02  0.37659458989E+03 -0.79739973888E+03  0.88659177350E+03  0.00000000000E+00 0.  1.
        -11    1    3    3    0    0 -0.44479286137E+02  0.82094262984E+02 -0.29690597440E+03  0.31124111641E+03  0.00000000000E+00 0. -1.
         22    1    1    2    0    0  0.13599509973E+03 -0.45868885288E+03 -0.10455769425E+04  0.11498353245E+04  0.00000000000E+00 0. -1.
<mgrwt>
<rscale>  0 0.96563361E+03</rscale>
<asrwt>0</asrwt>
<pdfrwt beam="1">  1        2 0.34519621E+00 0.96563361E+03</pdfrwt>
<pdfrwt beam="2">  1       -2 0.15983505E-01 0.96563361E+03</pdfrwt>
<totfact> 0.15511284E+02</totfact>
</mgrwt>
</event>
<event>
 6    1  0.9512547E-007  0.3441187E+04  0.7818608E-02  0.8127871E-01
          1   -1    0    0  501    0  0.00000000000E+00  0.00000000000E+00  0.40717806042E+04  0.40717806042E+04  0.00000000000E+00 0. -1.
         -1   -1    0    0    0  501 -0.00000000000E+00 -0.00000000000E+00 -0.72706315491E+03  0.72706315491E+03  0.00000000000E+00 0.  1.
         23    2    1    2    0    0  0.12766438941E+04  0.11442044506E+04  0.14913300373E+04  0.22741520242E+04  0.93159498036E+02 0.  0.
         11    1    3    3    0    0  0.17848960136E+03  0.12656631596E+03  0.16612224757E+03  0.27472562907E+03  0.00000000000E+00 0.  1.
        -11    1    3    3    0    0  0.10981542928E+04  0.10176381346E+04  0.13252077897E+04  0.19994263952E+04  0.00000000000E+00 0. -1.
         22    1    1    2    0    0 -0.12766438941E+04 -0.11442044506E+04  0.18533874120E+04  0.25246917349E+04  0.00000000000E+00 0.  1.
<mgrwt>
<rscale>  0 0.34411868E+04</rscale>
<asrwt>0</asrwt>
<pdfrwt beam="1">  1        1 0.62642777E+00 0.34411868E+04</pdfrwt>
<pdfrwt beam="2">  1       -1 0.11185587E+00 0.34411868E+04</pdfrwt>
<totfact> 0.49688115E-02</totfact>
</mgrwt>
</event>
<event>
 6    1  0.9512547E-007  0.4240014E+04  0.7818608E-02  0.7957804E-01
         -2   -1    0    0    0  501 -0.00000000000E+00  0.00000000000E+00  0.21560533068E+04  0.21560533068E+04  0.00000000000E+00 0.  1.
          2   -1    0    0  501    0  0.00000000000E+00 -0.00000000000E+00 -0.20845635990E+04  0.20845635990E+04  0.00000000000E+00 0. -1.
         23    2    1    2    0    0  0.68601018775E+03 -0.56618669265E+03  0.19593083514E+04  0.21537444660E+04  0.92458965006E+02 0.  0.
         13    1    3    3    0    0  0.43732348716E+03 -0.33990676298E+03  0.13176557592E+04  0.14293373079E+04  0.00000000000E+00 0. -1.
        -13    1    3    3    0    0  0.24868670059E+03 -0.22627992967E+03  0.64165259224E+03  0.72440715813E+03  0.00000000000E+00 0.  1.
         22    1    1    2    0    0 -0.68601018775E+03  0.56618669265E+03 -0.18878186436E+04  0.20868724397E+04  0.00000000000E+00 0. -1.
<mgrwt>
<rscale>  0 0.42400143E+04</rscale>
<asrwt>0</asrwt>
<pdfrwt beam="1">  1        2 0.32070209E+00 0.42400143E+04</pdfrwt>
<pdfrwt beam="2">  1       -2 0.33170051E+00 0.42400143E+04</pdfrwt>
<totfact> 0.93951549E-02</totfact>
</mgrwt>
</event>
<event>
 6    1  0.9512547E-007  0.2956867E+04  0.7818608E-02  0.8256156E-01
         -2   -1    0    0    0  501 -0.00000000000E+00  0.00000000000E+00  0.55931795182E+03  0.55931795182E+03  0.00000000000E+00 0.  1.
          2   -1    0    0  501    0  0.00000000000E+00 -0.00000000000E+00 -0.39079136352E+04  0.39079136352E+04  0.00000000000E+00 0. -1.
         23    2    1    2    0    0 -0.31900695667E+03 -0.14247012446E+04 -0.20137537891E+04  0.24890147239E+04  0.91928766639E+02 0.  0.
         11    1    3    3    0    0 -0.50175185357E+02 -0.27195414706E+03 -0.32492606953E+03  0.42667734647E+03  0.00000000000E+00 0.  1.
        -11    1    3    3    0    0 -0.26883177131E+03 -0.11527470975E+04 -0.16888277196E+04  0.20623373775E+04  0.00000000000E+00 0. -1.
         22    1    1    2    0    0  0.31900695667E+03  0.14247012446E+04 -0.13348418943E+04  0.19782168631E+04  0.00000000000E+00 0.  1.
<mgrwt>
<rscale>  0 0.29568674E+04</rscale>
<asrwt>0</asrwt>
<pdfrwt beam="1">  1        2 0.60121747E+00 0.29568674E+04</pdfrwt>
<pdfrwt beam="2">  1       -2 0.86048918E-01 0.29568674E+04</pdfrwt>
<totfact> 0.40769060E-01</totfact>
</mgrwt>
</event>
<event>
 6    1  0.9512547E-007  0.1242307E+04  0.7818608E-02  0.9076611E-01
         -1   -1    0    0    0  501 -0.00000000000E+00  0.00000000000E+00  0.76599657564E+03  0.76599657564E+03  0.00000000000E+00 0.  1.
          1   -1    0    0  501    0  0.00000000000E+00 -0.00000000000E+00 -0.50369855034E+03  0.50369855034E+03  0.00000000000E+00 0. -1.
         23    2    1    2    0    0 -0.12601445222E+03  0.51062531704E+03 -0.19920914519E+03  0.56997609309E+03  0.92577570652E+02 0.  0.
         13    1    3    3    0    0  0.68094093821E+01  0.47913325954E+02 -0.40453849006E+02  0.63075896819E+02  0.00000000000E+00 0. -1.
        -13    1    3    3    0    0 -0.13282386160E+03  0.46271199109E+03 -0.15875529619E+03  0.50690019627E+03  0.00000000000E+00 0.  1.
         22    1    1    2    0    0  0.12601445222E+03 -0.51062531704E+03  0.46150717049E+03  0.69971903289E+03  0.00000000000E+00 0.  1.
<mgrwt>
<rscale>  0 0.12423065E+04</rscale>
<asrwt>0</asrwt>
<pdfrwt beam="1">  1        1 0.77492085E-01 0.12423065E+04</pdfrwt>
<pdfrwt beam="2">  1       -1 0.11784563E+00 0.12423065E+04</pdfrwt>
<totfact> 0.28023579E+01</totfact>
</mgrwt>
</event>
<event>
 6    1  0.9512547E-007  0.2582982E+04  0.7818608E-02  0.8374005E-01
          2   -1    0    0  501    0  0.00000000000E+00  0.00000000000E+00  0.16498321671E+04  0.16498321671E+04  0.00000000000E+00 0. -1.
         -2   -1    0    0    0  501 -0.00000000000E+00 -0.00000000000E+00 -0.10109810553E+04  0.10109810553E+04  0.00000000000E+00 0.  1.
         23    2    1    2    0    0  0.56689610635E+03  0.91182800714E+03  0.10561898788E+04  0.15088700136E+04  0.91379143563E+02 0.  0.
         11    1    3    3    0    0  0.14100617747E+03  0.24787027955E+03  0.22772468969E+03  0.36493965509E+03  0.00000000000E+00 0. -1.
        -11    1    3    3    0    0  0.42588992888E+03  0.66395772760E+03  0.82846518909E+03  0.11439303585E+04  0.00000000000E+00 0.  1.
         22    1    1    2    0    0 -0.56689610635E+03 -0.91182800714E+03 -0.41733876697E+03  0.11519432089E+04  0.00000000000E+00 0.  1.
<mgrwt>
<rscale>  0 0.25829820E+04</rscale>
<asrwt>0</asrwt>
<pdfrwt beam="1">  1        2 0.25382033E+00 0.25829820E+04</pdfrwt>
<pdfrwt beam="2">  1       -2 0.15553555E+00 0.25829820E+04</pdfrwt>
<totfact> 0.25202844E+00</totfact>
</mgrwt>
</event>
<event>
 6    1  0.9512547E-007  0.1817550E+04  0.7818608E-02  0.8697022E-01
         -1   -1    0    0    0  501 -0.00000000000E+00  0.00000000000E+00  0.35351854745E+03  0.35351854745E+03  0.00000000000E+00 0.  1.
          1   -1    0    0  501    0  0.00000000000E+00 -0.00000000000E+00 -0.23361487305E+04  0.23361487305E+04  0.00000000000E+00 0. -1.
         23    2    1    2    0    0 -0.55727369402E+03 -0.18292041365E+02  0.63896364999E+02  0.56854505594E+03  0.90951450555E+02 0.  0.
         13    1    3    3    0    0 -0.22702914647E+03 -0.44351576815E+02  0.81955834361E+00  0.23132221551E+03  0.00000000000E+00 0. -1.
        -13    1    3    3    0    0 -0.33024454755E+03  0.26059535450E+02  0.63076806656E+02  0.33722284044E+03  0.00000000000E+00 0.  1.
         22    1    1    2    0    0  0.55727369402E+03  0.18292041365E+02 -0.20465265481E+04  0.21211222220E+04  0.00000000000E+00 0. -1.
<mgrwt>
<rscale>  0 0.18175499E+04</rscale>
<asrwt>0</asrwt>
<pdfrwt beam="1">  1        1 0.35940750E+00 0.18175499E+04</pdfrwt>
<pdfrwt beam="2">  1       -1 0.54387469E-01 0.18175499E+04</pdfrwt>
<totfact> 0.56587269E+00</totfact>
</mgrwt>
</event>
<event>
 6    1  0.9512547E-007  0.1516866E+04  0.7818608E-02  0.8873314E-01
         -2   -1    0    0    0  501 -0.00000000000E+00  0.00000000000E+00  0.13391323027E+04  0.13391323027E+04  0.00000000000E+00 0.  1.
          2   -1    0    0  501    0  0.00000000000E+00 -0.00000000000E+00 -0.42954703632E+03  0.42954703632E+03  0.00000000000E+00 0. -1.
         23    2    1    2    0    0  0.91697702349E+02  0.65887835375E+03  0.38863815035E+02  0.67292161057E+03  0.93722698359E+02 0.  0.
         13    1    3    3    0    0  0.99121531044E+02  0.47113161843E+03  0.53762919168E+02  0.48443836685E+03  0.00000000000E+00 0. -1.
        -13    1    3    3    0    0 -0.74238286954E+01  0.18774673533E+03 -0.14899104134E+02  0.18848324372E+03  0.00000000000E+00 0.  1.
         22    1    1    2    0    0 -0.91697702349E+02 -0.65887835375E+03  0.87072145136E+03  0.10957577285E+04  0.00000000000E+00 0.  1.
<mgrwt>
<rscale>  0 0.15168656E+04</rscale>
<asrwt>0</asrwt>
<pdfrwt beam="1">  1        2 0.66084160E-01 0.15168656E+04</pdfrwt>
<pdfrwt beam="2">  1       -2 0.20602035E+00 0.15168656E+04</pdfrwt>
<totfact> 0.85905877E+00</totfact>
</mgrwt>
</event>
<event>
 6    1  0.9512547E-007  0.2766475E+04  0.7818608E-02  0.8313753E-01
         -1   -1    0    0    0  501 -0.00000000000E+00  0.00000000000E+00  0.17326733338E+04  0.17326733338E+04  0.00000000000E+00 0.  1.
          1   -1    0    0  501    0  0.00000000000E+00 -0.00000000000E+00 -0.11042738548E+04  0.11042738548E+04  0.00000000000E+00 0. -1.
         23    2    1    2    0    0 -0.10921027973E+03 -0.13769132143E+04  0.27416655741E+03  0.14110096557E+04  0.89241595843E+02 0.  0.
         11    1    3    3    0    0 -0.99482880770E+02 -0.11045183828E+04  0.25393788582E+03  0.11376915888E+04  0.00000000000E+00 0. -1.
        -11    1    3    3    0    0 -0.97273989616E+01 -0.27239483153E+03  0.20228671587E+02  0.27331806689E+03  0.00000000000E+00 0.  1.
         22    1    1    2    0    0  0.10921027973E+03  0.13769132143E+04  0.35423292157E+03  0.14259375329E+04  0.00000000000E+00 0.  1.
<mgrwt>
<rscale>  0 0.27664749E+04</rscale>
<asrwt>0</asrwt>
<pdfrwt beam="1">  1        1 0.16988829E+00 0.27664749E+04</pdfrwt>
<pdfrwt beam="2">  1       -1 0.26656513E+00 0.27664749E+04</pdfrwt>
<totfact> 0.59426156E-01</totfact>
</mgrwt>
</event>
<event>
 6    1  0.9512547E-007  0.9190672E+03  0.7818608E-02  0.9402055E-01
          1   -1    0    0  501    0  0.00000000000E+00  0.00000000000E+00  0.13945012714E+04  0.13945012714E+04  0.00000000000E+00 0. -1.
         -1   -1    0    0    0  501 -0.00000000000E+00 -0.00000000000E+00 -0.15143129716E+03  0.15143129716E+03  0.00000000000E+00 0.  1.
         23    2    1    2    0    0 -0.34891212552E+03 -0.25153094372E+03  0.87722791252E+03  0.98126638300E+03  0.91364199347E+02 0.  0.
         13    1    3    3    0    0 -0.10335263109E+03 -0.87962299427E+02  0.37473710304E+03  0.39855618032E+03  0.00000000000E+00 0. -1.
        -13    1    3    3    0    0 -0.24555949443E+03 -0.16356864429E+03  0.50249080947E+03  0.58271020268E+03  0.00000000000E+00 0.  1.
         22    1    1    2    0    0  0.34891212552E+03  0.25153094372E+03  0.36584206171E+03  0.56466618554E+03  0.00000000000E+00 0.  1.
<mgrwt>
<rscale>  0 0.91906721E+03</rscale>
<asrwt>0</asrwt>
<pdfrwt beam="1">  1        1 0.21453865E+00 0.91906721E+03</pdfrwt>
<pdfrwt beam="2">  1       -1 0.23297124E-01 0.91906721E+03</pdfrwt>
<totfact> 0.12333302E+02</totfact>
</mgrwt>
</event>
<event>
 6    1  0.9512547E-007  0.2138754E+04  0.7818608E-02  0.8544361E-01
         -2   -1    0    0    0  501 -0.00000000000E+00  0.00000000000E+00  0.14881624184E+04  0.14881624184E+04  0.00000000000E+00 0.  1.
          2   -1    0    0  501    0  0.00000000000E+00 -0.00000000000E+00 -0.76844280429E+03  0.76844280429E+03  0.00000000000E+00 0. -1.
         23    2    1    2    0    0  0.34030840067E+03 -0.15988331554E+03 -0.69327954785E+03  0.79443590492E+03  0.95495515046E+02 0.  0.
         11    1    3    3    0    0  0.17284616243E+03 -0.98327416709E+02 -0.45674586111E+03  0.49815746344E+03  0.00000000000E+00 0.  1.
        -11    1    3    3    0    0  0.16746223824E+03 -0.61555898827E+02 -0.23653368674E+03  0.29627844147E+03  0.00000000000E+00 0. -1.
         22    1    1    2    0    0 -0.34030840067E+03  0.15988331554E+03  0.14129991619E+04  0.14621693178E+04  0.00000000000E+00 0.  1.
<mgrwt>
<rscale>  0 0.21387545E+04</rscale>
<asrwt>0</asrwt>
<pdfrwt beam="1">  1        2 0.11822197E+00 0.21387545E+04</pdfrwt>
<pdfrwt beam="2">  1       -2 0.22894806E+00 0.21387545E+04</pdfrwt>
<totfact> 0.28959300E+00</totfact>
</mgrwt>
</event>
<event>
 6    1  0.9512547E-007  0.2296784E+04  0.7818608E-02  0.8479190E-01
          1   -1    0    0  501    0  0.00000000000E+00  0.00000000000E+00  0.17039700312E+04  0.17039700312E+04  0.00000000000E+00 0. -1.
         -1   -1    0    0    0  501 -0.00000000000E+00 -0.00000000000E+00 -0.77395960490E+03  0.77395960490E+03  0.00000000000E+00 0.  1.
         23    2    1    2    0    0  0.83019937098E+02 -0.39614858262E+03  0.16230812203E+04  0.16753256647E+04  0.92181482032E+02 0.  0.
         11    1    3    3    0    0 -0.15492116059E+02 -0.12838952515E+03  0.54472900732E+03  0.55986924120E+03  0.00000000000E+00 0.  1.
        -11    1    3    3    0    0  0.98512053156E+02 -0.26775905747E+03  0.10783522130E+04  0.11154564235E+04  0.00000000000E+00 0. -1.
         22    1    1    2    0    0 -0.83019937098E+02  0.39614858262E+03 -0.69307079399E+03  0.80260397142E+03  0.00000000000E+00 0.  1.
<mgrwt>
<rscale>  0 0.22967838E+04</rscale>
<asrwt>0</asrwt>
<pdfrwt beam="1">  1        1 0.26214924E+00 0.22967838E+04</pdfrwt>
<pdfrwt beam="2">  1       -1 0.11907071E+00 0.22967838E+04</pdfrwt>
<totfact> 0.27018950E+00</totfact>
</mgrwt>
</event>
<event>
 6    1  0.9512547E-007  0.2154261E+04  0.7818608E-02  0.8537710E-01
         -2   -1    0    0    0  501 -0.00000000000E+00  0.00000000000E+00  0.63991677721E+03  0.63991677721E+03  0.00000000000E+00 0.  1.
          2   -1    0    0  501    0  0.00000000000E+00 -0.00000000000E+00 -0.18130643068E+04  0.18130643068E+04  0.00000000000E+00 0. -1.
         23    2    1    2    0    0  0.63999070496E+03 -0.26880029254E+03  0.34729825926E+03  0.78157535932E+03  0.91663851687E+02 0.  0.
         13    1    3    3    0    0  0.28523649425E+03 -0.14971664555E+03  0.20148725261E+03  0.37996321477E+03  0.00000000000E+00 0.  1.
        -13    1    3    3    0    0  0.35475421071E+03 -0.11908364699E+03  0.14581100664E+03  0.40161214455E+03  0.00000000000E+00 0. -1.
         22    1    1    2    0    0 -0.63999070496E+03  0.26880029254E+03 -0.15204457889E+04  0.16714057247E+04  0.00000000000E+00 0. -1.
<mgrwt>
<rscale>  0 0.21542611E+04</rscale>
<asrwt>0</asrwt>
<pdfrwt beam="1">  1        2 0.27893297E+00 0.21542611E+04</pdfrwt>
<pdfrwt beam="2">  1       -2 0.98448736E-01 0.21542611E+04</pdfrwt>
<totfact> 0.66731110E+00</totfact>
</mgrwt>
</event>
<event>
 6    1  0.9512547E-007  0.3338766E+04  0.7818608E-02  0.8153101E-01
          1   -1    0    0  501    0  0.00000000000E+00  0.00000000000E+00  0.36307808723E+04  0.36307808723E+04  0.00000000000E+00 0. -1.
         -1   -1    0    0    0  501 -0.00000000000E+00 -0.00000000000E+00 -0.76755945499E+03  0.76755945499E+03  0.00000000000E+00 0.  1.
         23    2    1    2    0    0 -0.64224918207E+03 -0.11611473809E+04  0.27644654450E+04  0.30677389617E+04  0.89475628063E+02 0.  0.
         11    1    3    3    0    0 -0.20692512261E+03 -0.46233739415E+03  0.10714458405E+04  0.11851455866E+04  0.00000000000E+00 0.  1.
        -11    1    3    3    0    0 -0.43532405945E+03 -0.69880998678E+03  0.16930196045E+04  0.18825933750E+04  0.00000000000E+00 0. -1.
         22    1    1    2    0    0  0.64224918207E+03  0.11611473809E+04  0.98755972263E+02  0.13306013656E+04  0.00000000000E+00 0.  1.
<mgrwt>
<rscale>  0 0.33387664E+04</rscale>
<asrwt>0</asrwt>
<pdfrwt beam="1">  1        1 0.55858166E+00 0.33387664E+04</pdfrwt>
<pdfrwt beam="2">  1       -1 0.11808607E+00 0.33387664E+04</pdfrwt>
<totfact> 0.10444204E-01</totfact>
</mgrwt>
</event>
<event>
 6    1  0.9512547E-007  0.1987976E+04  0.7818608E-02  0.8612263E-01
         -2   -1    0    0    0  501 -0.00000000000E+00  0.00000000000E+00  0.93989585934E+03  0.93989585934E+03  0.00000000000E+00 0.  1.
          2   -1    0    0  501    0  0.00000000000E+00 -0.00000000000E+00 -0.10511937016E+04  0.10511937016E+04  0.00000000000E+00 0. -1.
         23    2    1    2    0    0  0.33683849230E+03 -0.37520081645E+03 -0.91117713436E+03  0.10455512462E+04  0.93262080804E+02 0.  0.
         11    1    3    3    0    0  0.11685947640E+03 -0.19810665966E+03 -0.38959581793E+03  0.45242379156E+03  0.00000000000E+00 0. -1.
        -11    1    3    3    0    0  0.21997901590E+03 -0.17709415678E+03 -0.52158131643E+03  0.59312745465E+03  0.00000000000E+00 0.  1.
         22    1    1    2    0    0 -0.33683849230E+03  0.37520081645E+03  0.79987929214E+03  0.94553831469E+03  0.00000000000E+00 0.  1.
<mgrwt>
<rscale>  0 0.19879765E+04</rscale>
<asrwt>0</asrwt>
<pdfrwt beam="1">  1        2 0.16172211E+00 0.19879765E+04</pdfrwt>
<pdfrwt beam="2">  1       -2 0.14459936E+00 0.19879765E+04</pdfrwt>
<totfact> 0.71726072E+00</totfact>
</mgrwt>
</event>
<event>
 6    1  0.9512547E-007  0.1845985E+04  0.7818608E-02  0.8682220E-01
         -1   -1    0    0    0  501 -0.00000000000E+00  0.00000000000E+00  0.39032184169E+03  0.39032184169E+03  0.00000000000E+00 0.  1.
          1   -1    0    0  501    0  0.00000000000E+00 -0.00000000000E+00 -0.21825972984E+04  0.21825972984E+04  0.00000000000E+00 0. -1.
         23    2    1    2    0    0 -0.44321940164E+03  0.67458235463E+03 -0.15146106297E+04  0.17193369546E+04  0.10280764953E+03 0.  0.
         11    1    3    3    0    0 -0.22865829588E+03  0.42134910403E+03 -0.95872489560E+03  0.10719016322E+04  0.00000000000E+00 0.  1.
        -11    1    3    3    0    0 -0.21456110577E+03  0.25323325060E+03 -0.55588573407E+03  0.64743532238E+03  0.00000000000E+00 0. -1.
         22    1    1    2    0    0  0.44321940164E+03 -0.67458235463E+03 -0.27766482703E+03  0.85358218547E+03  0.00000000000E+00 0.  1.
<mgrwt>
<rscale>  0 0.18459853E+04</rscale>
<asrwt>0</asrwt>
<pdfrwt beam="1">  1        1 0.33578420E+00 0.18459853E+04</pdfrwt>
<pdfrwt beam="2">  1       -1 0.60049513E-01 0.18459853E+04</pdfrwt>
<totfact> 0.59189153E+00</totfact>
</mgrwt>
</event>
<event>
 6    1  0.9512547E-007  0.1972078E+04  0.7818608E-02  0.8619787E-01
         -2   -1    0    0    0  501 -0.00000000000E+00  0.00000000000E+00  0.66449937973E+03  0.66449937973E+03  0.00000000000E+00 0.  1.
          2   -1    0    0  501    0  0.00000000000E+00 -0.00000000000E+00 -0.14631662292E+04  0.14631662292E+04  0.00000000000E+00 0. -1.
         23    2    1    2    0    0 -0.71548256174E+03 -0.48902729503E+03 -0.90295455252E+03  0.12547744837E+04  0.89828111221E+02 0.  0.
         11    1    3    3    0    0 -0.41097988327E+03 -0.31077599159E+03 -0.48263701016E+03  0.70599197232E+03  0.00000000000E+00 0.  1.
        -11    1    3    3    0    0 -0.30450267847E+03 -0.17825130344E+03 -0.42031754235E+03  0.54878251137E+03  0.00000000000E+00 0. -1.
         22    1    1    2    0    0  0.71548256174E+03  0.48902729503E+03  0.10428770308E+03  0.87289112520E+03  0.00000000000E+00 0.  1.
<mgrwt>
<rscale>  0 0.19720781E+04</rscale>
<asrwt>0</asrwt>
<pdfrwt beam="1">  1        2 0.22510249E+00 0.19720781E+04</pdfrwt>
<pdfrwt beam="2">  1       -2 0.10223068E+00 0.19720781E+04</pdfrwt>
<totfact> 0.97205201E+00</totfact>
</mgrwt>
</event>
<event>
 6    1  0.9512547E-007  0.1474227E+04  0.7818608E-02  0.8901775E-01
         -2   -1    0    0    0  501 -0.00000000000E+00  0.00000000000E+00  0.22404350334E+03  0.22404350334E+03  0.00000000000E+00 0.  1.
          2   -1    0    0  501    0  0.00000000000E+00 -0.00000000000E+00 -0.24251372110E+04  0.24251372110E+04  0.00000000000E+00 0. -1.
         23    2    1    2    0    0 -0.56506274044E+03 -0.38358172860E+03 -0.15893897568E+04  0.17323314538E+04  0.91551206492E+02 0.  0.
         13    1    3    3    0    0 -0.28199163743E+03 -0.20103571409E+03 -0.91886462608E+03  0.98196071356E+03  0.00000000000E+00 0.  1.
        -13    1    3    3    0    0 -0.28307110301E+03 -0.18254601451E+03 -0.67052513077E+03  0.75037074021E+03  0.00000000000E+00 0. -1.
         22    1    1    2    0    0  0.56506274044E+03  0.38358172860E+03 -0.61170395078E+03  0.91684926054E+03  0.00000000000E+00 0.  1.
<mgrwt>
<rscale>  0 0.14742269E+04</rscale>
<asrwt>0</asrwt>
<pdfrwt beam="1">  1        2 0.37309803E+00 0.14742269E+04</pdfrwt>
<pdfrwt beam="2">  1       -2 0.34468231E-01 0.14742269E+04</pdfrwt>
<totfact> 0.29439153E+01</totfact>
</mgrwt>
</event>
<event>
 6    1  0.9512547E-007  0.3672373E+04  0.7818608E-02  0.8074112E-01
          2   -1    0    0  501    0  0.00000000000E+00  0.00000000000E+00  0.11671357237E+04  0.11671357237E+04  0.00000000000E+00 0. -1.
         -2   -1    0    0    0  501 -0.00000000000E+00 -0.00000000000E+00 -0.28887652482E+04  0.28887652482E+04  0.00000000000E+00 0.  1.
         23    2    1    2    0    0 -0.81062738418E+03  0.44540844084E+03 -0.26118528332E+04  0.27721552905E+04  0.86972968471E+02 0.  0.
         11    1    3    3    0    0 -0.38837237094E+03  0.22784815261E+03 -0.13953881960E+04  0.14662387585E+04  0.00000000000E+00 0. -1.
        -11    1    3    3    0    0 -0.42225501323E+03  0.21756028823E+03 -0.12164646371E+04  0.13059165320E+04  0.00000000000E+00 0.  1.
         22    1    1    2    0    0  0.81062738418E+03 -0.44540844084E+03  0.89022330872E+03  0.12837456814E+04  0.00000000000E+00 0. -1.
<mgrwt>
<rscale>  0 0.36723731E+04</rscale>
<asrwt>0</asrwt>
<pdfrwt beam="1">  1        2 0.17955935E+00 0.36723731E+04</pdfrwt>
<pdfrwt beam="2">  1       -2 0.44442541E+00 0.36723731E+04</pdfrwt>
<totfact> 0.60638031E-02</totfact>
</mgrwt>
</event>
<event>
 6    1  0.9512547E-007  0.2708237E+04  0.7818608E-02  0.8332337E-01
         -2   -1    0    0    0  501 -0.00000000000E+00  0.00000000000E+00  0.10615191545E+04  0.10615191545E+04  0.00000000000E+00 0.  1.
          2   -1    0    0  501    0  0.00000000000E+00 -0.00000000000E+00 -0.17273706852E+04  0.17273706852E+04  0.00000000000E+00 0. -1.
         23    2    1    2    0    0 -0.60129369865E+03  0.32716366770E+03 -0.15346406862E+04  0.16828225840E+04  0.90441339790E+02 0.  0.
         13    1    3    3    0    0 -0.16459484987E+03  0.57664261926E+02 -0.45980259068E+03  0.49176727637E+03  0.00000000000E+00 0.  1.
        -13    1    3    3    0    0 -0.43669884878E+03  0.26949940577E+03 -0.10748380955E+04  0.11910553076E+04  0.00000000000E+00 0. -1.
         22    1    1    2    0    0  0.60129369865E+03 -0.32716366770E+03  0.86878915549E+03  0.11060672557E+04  0.00000000000E+00 0.  1.
<mgrwt>
<rscale>  0 0.27082371E+04</rscale>
<asrwt>0</asrwt>
<pdfrwt beam="1">  1        2 0.26574933E+00 0.27082371E+04</pdfrwt>
<pdfrwt beam="2">  1       -2 0.16331064E+00 0.27082371E+04</pdfrwt>
<totfact> 0.19774552E+00</totfact>
</mgrwt>
</event>
<event>
 6    1  0.9512547E-007  0.3008639E+04  0.7818608E-02  0.8241268E-01
         -1   -1    0    0    0  501 -0.00000000000E+00  0.00000000000E+00  0.58746803512E+03  0.58746803512E+03  0.00000000000E+00 0.  1.
          1   -1    0    0  501    0  0.00000000000E+00 -0.00000000000E+00 -0.38520844501E+04  0.38520844501E+04  0.00000000000E+00 0. -1.
         23    2    1    2    0    0  0.98030676997E+03  0.11204550827E+04 -0.19377894926E+04  0.24453381945E+04  0.90718310854E+02 0.  0.
         11    1    3    3    0    0  0.16545139753E+03  0.19126585649E+03 -0.38741631184E+03  0.46265342480E+03  0.00000000000E+00 0. -1.
        -11    1    3    3    0    0  0.81485537244E+03  0.92918922623E+03 -0.15503731808E+04  0.19826847697E+04  0.00000000000E+00 0.  1.
         22    1    1    2    0    0 -0.98030676997E+03 -0.11204550827E+04 -0.13268269224E+04  0.19942142908E+04  0.00000000000E+00 0.  1.
<mgrwt>
<rscale>  0 0.30086386E+04</rscale>
<asrwt>0</asrwt>
<pdfrwt beam="1">  1        1 0.59262835E+00 0.30086386E+04</pdfrwt>
<pdfrwt beam="2">  1       -1 0.90379702E-01 0.30086386E+04</pdfrwt>
<totfact> 0.13098343E-01</totfact>
</mgrwt>
</event>
<event>
 6    1  0.9512547E-007  0.7378957E+03  0.7818608E-02  0.9654534E-01
         -1   -1    0    0    0  501 -0.00000000000E+00  0.00000000000E+00  0.29154087670E+03  0.29154087670E+03  0.00000000000E+00 0.  1.
          1   -1    0    0  501    0  0.00000000000E+00 -0.00000000000E+00 -0.46690714039E+03  0.46690714039E+03  0.00000000000E+00 0. -1.
         23    2    1    2    0    0  0.91260409420E+02  0.30818713191E+03 -0.26320756139E+03  0.42524557985E+03  0.90817466426E+02 0.  0.
         11    1    3    3    0    0  0.59228783446E+02  0.20692111950E+03 -0.22753516169E+03  0.31320384463E+03  0.00000000000E+00 0.  1.
        -11    1    3    3    0    0  0.32031625974E+02  0.10126601241E+03 -0.35672399700E+02  0.11204173523E+03  0.00000000000E+00 0. -1.
         22    1    1    2    0    0 -0.91260409420E+02 -0.30818713191E+03  0.87841297698E+02  0.33320243724E+03  0.00000000000E+00 0. -1.
<mgrwt>
<rscale>  0 0.73789570E+03</rscale>
<asrwt>0</asrwt>
<pdfrwt beam="1">  1        1 0.71831867E-01 0.73789570E+03</pdfrwt>
<pdfrwt beam="2">  1       -1 0.44852443E-01 0.73789570E+03</pdfrwt>
<totfact> 0.24299774E+02</totfact>
</mgrwt>
</event>
<event>
 6    1  0.9512547E-007  0.1618390E+04  0.7818608E-02  0.8809329E-01
          1   -1    0    0  501    0  0.00000000000E+00  0.00000000000E+00  0.14294067518E+04  0.14294067518E+04  0.00000000000E+00 0. -1.
         -1   -1    0    0    0  501 -0.00000000000E+00 -0.00000000000E+00 -0.45808988204E+03  0.45808988204E+03  0.00000000000E+00 0.  1.
         23    2    1    2    0    0  0.34153585654E+03 -0.27564961001E+03  0.12764566467E+04  0.13529503474E+04  0.92215090526E+02 0.  0.
         11    1    3    3    0    0  0.91999031630E+02 -0.46745213384E+02  0.20929677821E+03  0.23335397611E+03  0.00000000000E+00 0. -1.
        -11    1    3    3    0    0  0.24953682491E+03 -0.22890439663E+03  0.10671598685E+04  0.11195963713E+04  0.00000000000E+00 0.  1.
         22    1    1    2    0    0 -0.34153585654E+03  0.27564961001E+03 -0.30513977696E+03  0.53454628638E+03  0.00000000000E+00 0.  1.
<mgrwt>
<rscale>  0 0.16183903E+04</rscale>
<asrwt>0</asrwt>
<pdfrwt beam="1">  1        1 0.21990873E+00 0.16183903E+04</pdfrwt>
<pdfrwt beam="2">  1       -1 0.70475367E-01 0.16183903E+04</pdfrwt>
<totfact> 0.14281518E+01</totfact>
</mgrwt>
</event>
<event>
 6    1  0.9512547E-007  0.3227847E+04  0.7818608E-02  0.8181501E-01
          2   -1    0    0  501    0  0.00000000000E+00  0.00000000000E+00  0.17973661123E+04  0.17973661123E+04  0.00000000000E+00 0. -1.
         -2   -1    0    0    0  501 -0.00000000000E+00 -0.00000000000E+00 -0.14492035949E+04  0.14492035949E+04  0.00000000000E+00 0.  1.
         23    2    1    2    0    0 -0.97176904874E+03 -0.61030457402E+03  0.13138324444E+04  0.17467946691E+04  0.91264269763E+02 0.  0.
         13    1    3    3    0    0 -0.45626772919E+03 -0.28301341796E+03  0.68393701651E+03  0.86950944675E+03  0.00000000000E+00 0. -1.
        -13    1    3    3    0    0 -0.51550131955E+03 -0.32729115606E+03  0.62989542787E+03  0.87728522235E+03  0.00000000000E+00 0.  1.
         22    1    1    2    0    0  0.97176904874E+03  0.61030457402E+03 -0.96566992699E+03  0.14997750381E+04  0.00000000000E+00 0.  1.
<mgrwt>
<rscale>  0 0.32278472E+04</rscale>
<asrwt>0</asrwt>
<pdfrwt beam="1">  1        2 0.27651786E+00 0.32278472E+04</pdfrwt>
<pdfrwt beam="2">  1       -2 0.22295440E+00 0.32278472E+04</pdfrwt>
<totfact> 0.68868433E-01</totfact>
</mgrwt>
</event>
<event>
 6    1  0.9512547E-007  0.1526733E+04  0.7818608E-02  0.8866868E-01
         -2   -1    0    0    0  501 -0.00000000000E+00  0.00000000000E+00  0.26667240273E+03  0.26667240273E+03  0.00000000000E+00 0.  1.
          2   -1    0    0  501    0  0.00000000000E+00 -0.00000000000E+00 -0.21851858864E+04  0.21851858864E+04  0.00000000000E+00 0. -1.
         23    2    1    2    0    0  0.17469957023E+03 -0.48389414505E+03 -0.67342716261E+02  0.53052888125E+03  0.11069041945E+03 0.  0.
         11    1    3    3    0    0  0.14556107596E+03 -0.42124540691E+03 -0.95696647842E+02  0.45584379790E+03  0.00000000000E+00 0. -1.
        -11    1    3    3    0    0  0.29138494272E+02 -0.62648738139E+02  0.28353931582E+02  0.74685083350E+02  0.00000000000E+00 0.  1.
         22    1    1    2    0    0 -0.17469957023E+03  0.48389414505E+03 -0.18511707674E+04  0.19213294078E+04  0.00000000000E+00 0. -1.
<mgrwt>
<rscale>  0 0.15267335E+04</rscale>
<asrwt>0</asrwt>
<pdfrwt beam="1">  1        2 0.33618245E+00 0.15267335E+04</pdfrwt>
<pdfrwt beam="2">  1       -2 0.41026522E-01 0.15267335E+04</pdfrwt>
<totfact> 0.28587390E+01</totfact>
</mgrwt>
</event>
<event>
 6    1  0.9512547E-007  0.5231016E+03  0.7818608E-02  0.1007919E+00
          1   -1    0    0  501    0  0.00000000000E+00  0.00000000000E+00  0.40226903275E+03  0.40226903275E+03  0.00000000000E+00 0. -1.
         -1   -1    0    0    0  501 -0.00000000000E+00 -0.00000000000E+00 -0.17005740246E+03  0.17005740246E+03  0.00000000000E+00 0.  1.
         23    2    1    2    0    0 -0.17023066303E+03 -0.16142970046E+03  0.14357262650E+02  0.25217248423E+03  0.91360844907E+02 0.  0.
         11    1    3    3    0    0 -0.15772203868E+03 -0.10917695539E+03  0.34293813679E+02  0.19486383638E+03  0.00000000000E+00 0. -1.
        -11    1    3    3    0    0 -0.12508624353E+02 -0.52252745069E+02 -0.19936551029E+02  0.57308647841E+02  0.00000000000E+00 0.  1.
         22    1    1    2    0    0  0.17023066303E+03  0.16142970046E+03  0.21785436765E+03  0.32015395098E+03  0.00000000000E+00 0. -1.
<mgrwt>
<rscale>  0 0.52310162E+03</rscale>
<asrwt>0</asrwt>
<pdfrwt beam="1">  1        1 0.61887543E-01 0.52310162E+03</pdfrwt>
<pdfrwt beam="2">  1       -1 0.26162677E-01 0.52310162E+03</pdfrwt>
<totfact> 0.77598752E+02</totfact>
</mgrwt>
</event>
<event>
 6    1  0.9512547E-007  0.1263875E+04  0.7818608E-02  0.9058713E-01
          1   -1    0    0  501    0  0.00000000000E+00  0.00000000000E+00  0.41847248626E+03  0.41847248626E+03  0.00000000000E+00 0. -1.
         -1   -1    0    0    0  501 -0.00000000000E+00 -0.00000000000E+00 -0.95429273028E+03  0.95429273028E+03  0.00000000000E+00 0.  1.
         23    2    1    2    0    0 -0.26352560004E+03  0.45593525272E+03  0.10413601598E+03  0.54399099442E+03  0.88086296498E+02 0.  0.
         11    1    3    3    0    0 -0.93937125188E+02  0.23019802860E+03  0.20250842143E+02  0.24945022042E+03  0.00000000000E+00 0.  1.
        -11    1    3    3    0    0 -0.16958847486E+03  0.22573722412E+03  0.83885173834E+02  0.29454077400E+03  0.00000000000E+00 0. -1.
         22    1    1    2    0    0  0.26352560004E+03 -0.45593525272E+03 -0.63995626000E+03  0.82877422213E+03  0.00000000000E+00 0.  1.
<mgrwt>
<rscale>  0 0.12638754E+04</rscale>
<asrwt>0</asrwt>
<pdfrwt beam="1">  1        1 0.64380383E-01 0.12638754E+04</pdfrwt>
<pdfrwt beam="2">  1       -1 0.14681427E+00 0.12638754E+04</pdfrwt>
<totfact> 0.20567342E+01</totfact>
</mgrwt>
</event>
<event>
 6    1  0.9512547E-007  0.1159566E+04  0.7818608E-02  0.9149004E-01
          2   -1    0    0  501    0  0.00000000000E+00  0.00000000000E+00  0.31489049788E+04  0.31489049788E+04  0.00000000000E+00 0. -1.
         -2   -1    0    0    0  501 -0.00000000000E+00 -0.00000000000E+00 -0.10675085501E+03  0.10675085501E+03  0.00000000000E+00 0.  1.
         23    2    1    2    0    0 -0.23014831207E+03 -0.44606025666E+03  0.73655831125E+03  0.89605628115E+03  0.91982144978E+02 0.  0.
         13    1    3    3    0    0 -0.34233387762E+02 -0.15950922495E+03  0.23993858658E+03  0.29014762279E+03  0.00000000000E+00 0. -1.
        -13    1    3    3    0    0 -0.19591492431E+03 -0.28655103171E+03  0.49661972467E+03  0.60590865836E+03  0.00000000000E+00 0.  1.
         22    1    1    2    0    0  0.23014831207E+03  0.44606025666E+03  0.23055958126E+04  0.23595995527E+04  0.00000000000E+00 0. -1.
<mgrwt>
<rscale>  0 0.11595660E+04</rscale>
<asrwt>0</asrwt>
<pdfrwt beam="1">  1        2 0.48444685E+00 0.11595660E+04</pdfrwt>
<pdfrwt beam="2">  1       -2 0.16423211E-01 0.11595660E+04</pdfrwt>
<totfact> 0.42481133E+01</totfact>
</mgrwt>
</event>
<event>
 6    1  0.9512547E-007  0.4257405E+04  0.7818608E-02  0.7954542E-01
          2   -1    0    0  501    0  0.00000000000E+00  0.00000000000E+00  0.22322250285E+04  0.22322250285E+04  0.00000000000E+00 0. -1.
         -2   -1    0    0    0  501 -0.00000000000E+00 -0.00000000000E+00 -0.20299812076E+04  0.20299812076E+04  0.00000000000E+00 0.  1.
         23    2    1    2    0    0 -0.11551709999E+04 -0.14474577902E+04 -0.94774031939E+03  0.20822939405E+04  0.90455779118E+02 0.  0.
         11    1    3    3    0    0 -0.34924185789E+03 -0.42679032070E+03 -0.23681621986E+03  0.60016812239E+03  0.00000000000E+00 0. -1.
        -11    1    3    3    0    0 -0.80592914205E+03 -0.10206674695E+04 -0.71092409953E+03  0.14821258181E+04  0.00000000000E+00 0.  1.
         22    1    1    2    0    0  0.11551709999E+04  0.14474577902E+04  0.11499841403E+04  0.21799122956E+04  0.00000000000E+00 0. -1.
<mgrwt>
<rscale>  0 0.42574052E+04</rscale>
<asrwt>0</asrwt>
<pdfrwt beam="1">  1        2 0.34341924E+00 0.42574052E+04</pdfrwt>
<pdfrwt beam="2">  1       -2 0.31230480E+00 0.42574052E+04</pdfrwt>
<totfact> 0.10220345E-01</totfact>
</mgrwt>
</event>
<event>
 6    1  0.9512547E-007  0.2356038E+04  0.7818608E-02  0.8456148E-01
         -2   -1    0    0    0  501 -0.00000000000E+00  0.00000000000E+00  0.63550945634E+03  0.63550945634E+03  0.00000000000E+00 0.  1.
          2   -1    0    0  501    0  0.00000000000E+00 -0.00000000000E+00 -0.21836476356E+04  0.21836476356E+04  0.00000000000E+00 0. -1.
         23    2    1    2    0    0 -0.26721677724E+03  0.11192748886E+04 -0.48537788631E+03  0.12527470171E+04  0.97991398625E+02 0.  0.
         11    1    3    3    0    0 -0.19894179122E+03  0.82596158546E+03 -0.40425592507E+03  0.94085770970E+03  0.00000000000E+00 0. -1.
        -11    1    3    3    0    0 -0.68274986014E+02  0.29331330310E+03 -0.81121961237E+02  0.31188930743E+03  0.00000000000E+00 0.  1.
         22    1    1    2    0    0  0.26721677724E+03 -0.11192748886E+04 -0.10627602929E+04  0.15664100748E+04  0.00000000000E+00 0.  1.
<mgrwt>
<rscale>  0 0.23560380E+04</rscale>
<asrwt>0</asrwt>
<pdfrwt beam="1">  1        2 0.33594579E+00 0.23560380E+04</pdfrwt>
<pdfrwt beam="2">  1       -2 0.97770687E-01 0.23560380E+04</pdfrwt>
<totfact> 0.41463496E+00</totfact>
</mgrwt>
</event>
<event>
 6    1  0.9512547E-007  0.6942220E+04  0.7818608E-02  0.7583424E-01
          2   -1    0    0  501    0  0.00000000000E+00  0.00000000000E+00  0.36568349274E+04  0.36568349274E+04  0.00000000000E+00 0. -1.
         -2   -1    0    0    0  501 -0.00000000000E+00 -0.00000000000E+00 -0.32948178486E+04  0.32948178486E+04  0.00000000000E+00 0.  1.
         23    2    1    2    0    0 -0.13702658843E+03 -0.28857696197E+04  0.21066721764E+04  0.35767062588E+04  0.91199885883E+02 0.  0.
         11    1    3    3    0    0 -0.44918103574E+02 -0.16291408917E+04  0.11490108594E+04  0.19940771389E+04  0.00000000000E+00 0. -1.
        -11    1    3    3    0    0 -0.92108484857E+02 -0.12566287280E+04  0.95766131704E+03  0.15826291199E+04  0.00000000000E+00 0.  1.
         22    1    1    2    0    0  0.13702658843E+03  0.28857696197E+04 -0.17446550977E+04  0.33749465171E+04  0.00000000000E+00 0.  1.
<mgrwt>
<rscale>  0 0.69422201E+04</rscale>
<asrwt>0</asrwt>
<pdfrwt beam="1">  1        2 0.56258998E+00 0.69422201E+04</pdfrwt>
<pdfrwt beam="2">  1       -2 0.50689506E+00 0.69422201E+04</pdfrwt>
<totfact> 0.59610180E-04</totfact>
</mgrwt>
</event>
<event>
 6    1  0.9512547E-007  0.8852170E+04  0.7818608E-02  0.7411726E-01
          1   -1    0    0  501    0  0.00000000000E+00  0.00000000000E+00  0.37238374175E+04  0.37238374175E+04  0.00000000000E+00 0. -1.
         -1   -1    0    0    0  501 -0.00000000000E+00 -0.00000000000E+00 -0.52607632878E+04  0.52607632878E+04  0.00000000000E+00 0.  1.
         23    2    1    2    0    0 -0.96431652722E+03 -0.11295658743E+04 -0.49998235843E+04  0.52166455559E+04  0.96589610238E+02 0.  0.
         11    1    3    3    0    0 -0.49801727655E+03 -0.57702402626E+03 -0.23970393794E+04  0.25153082755E+04  0.00000000000E+00 0. -1.
        -11    1    3    3    0    0 -0.46629925067E+03 -0.55254184802E+03 -0.26027842049E+04  0.27013372804E+04  0.00000000000E+00 0.  1.
         22    1    1    2    0    0  0.96431652722E+03  0.11295658743E+04  0.34628977141E+04  0.37679551493E+04  0.00000000000E+00 0. -1.
<mgrwt>
<rscale>  0 0.88521697E+04</rscale>
<asrwt>0</asrwt>
<pdfrwt beam="1">  1        1 0.57289807E+00 0.88521697E+04</pdfrwt>
<pdfrwt beam="2">  1       -1 0.80934819E+00 0.88521697E+04</pdfrwt>
<totfact> 0.55062354E-06</totfact>
</mgrwt>
</event>
<event>
 6    1  0.9512547E-007  0.2014075E+04  0.7818608E-02  0.8600068E-01
         -2   -1    0    0    0  501 -0.00000000000E+00  0.00000000000E+00  0.24534792281E+03  0.24534792281E+03  0.00000000000E+00 0.  1.
          2   -1    0    0  501    0  0.00000000000E+00 -0.00000000000E+00 -0.41334159459E+04  0.41334159459E+04  0.00000000000E+00 0. -1.
         23    2    1    2    0    0  0.21835485554E+03 -0.46503828316E+03 -0.38257979630E+04  0.38612534745E+04  0.92784118402E+02 0.  0.
         13    1    3    3    0    0  0.12002090338E+03 -0.28925490896E+03 -0.19984736469E+04  0.20228619175E+04  0.00000000000E+00 0.  1.
        -13    1    3    3    0    0  0.98333952165E+02 -0.17578337419E+03 -0.18273243161E+04  0.18383915570E+04  0.00000000000E+00 0. -1.
         22    1    1    2    0    0 -0.21835485554E+03  0.46503828316E+03 -0.62270060061E+02  0.51751039421E+03  0.00000000000E+00 0.  1.
<mgrwt>
<rscale>  0 0.20140755E+04</rscale>
<asrwt>0</asrwt>
<pdfrwt beam="1">  1        2 0.63591012E+00 0.20140755E+04</pdfrwt>
<pdfrwt beam="2">  1       -2 0.37745836E-01 0.20140755E+04</pdfrwt>
<totfact> 0.16493684E+00</totfact>
</mgrwt>
</event>
<event>
 6    1  0.9512547E-007  0.2432623E+04  0.7818608E-02  0.8427390E-01
         -2   -1    0    0    0  501 -0.00000000000E+00  0.00000000000E+00  0.98123149241E+03  0.98123149241E+03  0.00000000000E+00 0.  1.
          2   -1    0    0  501    0  0.00000000000E+00 -0.00000000000E+00 -0.15077110505E+04  0.15077110505E+04  0.00000000000E+00 0. -1.
         23    2    1    2    0    0  0.97979411394E+03 -0.18769876805E+02 -0.99770223609E+03  0.14015605372E+04  0.92808262135E+02 0.  0.
         13    1    3    3    0    0  0.76741560120E+03  0.65595099439E+01 -0.73307630641E+03  0.10613060836E+04  0.00000000000E+00 0. -1.
        -13    1    3    3    0    0  0.21237851274E+03 -0.25329386749E+02 -0.26462592967E+03  0.34025445355E+03  0.00000000000E+00 0.  1.
         22    1    1    2    0    0 -0.97979411394E+03  0.18769876805E+02  0.47122267803E+03  0.10873820057E+04  0.00000000000E+00 0.  1.
<mgrwt>
<rscale>  0 0.24326229E+04</rscale>
<asrwt>0</asrwt>
<pdfrwt beam="1">  1        2 0.23195555E+00 0.24326229E+04</pdfrwt>
<pdfrwt beam="2">  1       -2 0.15095869E+00 0.24326229E+04</pdfrwt>
<totfact> 0.33207511E+00</totfact>
</mgrwt>
</event>
<event>
 6    1  0.9512547E-007  0.5828118E+04  0.7818608E-02  0.7712086E-01
          1   -1    0    0  501    0  0.00000000000E+00  0.00000000000E+00  0.30648328237E+04  0.30648328237E+04  0.00000000000E+00 0. -1.
         -1   -1    0    0    0  501 -0.00000000000E+00 -0.00000000000E+00 -0.27707024070E+04  0.27707024070E+04  0.00000000000E+00 0.  1.
         23    2    1    2    0    0 -0.94098404155E+03 -0.47827019825E+03 -0.25716691438E+04  0.27815214015E+04  0.95842437072E+02 0.  0.
         11    1    3    3    0    0 -0.76304153426E+03 -0.38327700058E+03 -0.21723972105E+04  0.23341900699E+04  0.00000000000E+00 0.  1.
        -11    1    3    3    0    0 -0.17794250728E+03 -0.94993197673E+02 -0.39927193330E+03  0.44733133159E+03  0.00000000000E+00 0. -1.
         22    1    1    2    0    0  0.94098404155E+03  0.47827019825E+03  0.28657995604E+04  0.30540138293E+04  0.00000000000E+00 0. -1.
<mgrwt>
<rscale>  0 0.58281179E+04</rscale>
<asrwt>0</asrwt>
<pdfrwt beam="1">  1        1 0.47151274E+00 0.58281179E+04</pdfrwt>
<pdfrwt beam="2">  1       -1 0.42626191E+00 0.58281179E+04</pdfrwt>
<totfact> 0.17147073E-03</totfact>
</mgrwt>
</event>
<event>
 6    1  0.9512547E-007  0.2440108E+04  0.7818608E-02  0.8424638E-01
         -2   -1    0    0    0  501 -0.00000000000E+00  0.00000000000E+00  0.86217297112E+03  0.86217297112E+03  0.00000000000E+00 0.  1.
          2   -1    0    0  501    0  0.00000000000E+00 -0.00000000000E+00 -0.17264890578E+04  0.17264890578E+04  0.00000000000E+00 0. -1.
         23    2    1    2    0    0  0.46990056922E+03 -0.65683693591E+03 -0.14004760003E+04  0.16192762656E+04  0.92093928390E+02 0.  0.
         13    1    3    3    0    0  0.13570228226E+03 -0.23044004817E+03 -0.53723392726E+03  0.60011500382E+03  0.00000000000E+00 0.  1.
        -13    1    3    3    0    0  0.33419828695E+03 -0.42639688774E+03 -0.86324207301E+03  0.10191612618E+04  0.00000000000E+00 0. -1.
         22    1    1    2    0    0 -0.46990056922E+03  0.65683693591E+03  0.53615991355E+03  0.96938576337E+03  0.00000000000E+00 0.  1.
<mgrwt>
<rscale>  0 0.24401084E+04</rscale>
<asrwt>0</asrwt>
<pdfrwt beam="1">  1        2 0.26561370E+00 0.24401084E+04</pdfrwt>
<pdfrwt beam="2">  1       -2 0.13264200E+00 0.24401084E+04</pdfrwt>
<totfact> 0.35066029E+00</totfact>
</mgrwt>
</event>
<event>
 6    1  0.9512547E-007  0.3053126E+04  0.7818608E-02  0.8228721E-01
         -1   -1    0    0    0  501 -0.00000000000E+00  0.00000000000E+00  0.16143425205E+04  0.16143425205E+04  0.00000000000E+00 0.  1.
          1   -1    0    0  501    0  0.00000000000E+00 -0.00000000000E+00 -0.14435562187E+04  0.14435562187E+04  0.00000000000E+00 0. -1.
         23    2    1    2    0    0 -0.81845268009E+03  0.80857650027E+03 -0.91728706496E+03  0.14743696432E+04  0.93217696471E+02 0.  0.
         11    1    3    3    0    0 -0.54798877969E+03  0.58746547101E+03 -0.67401792029E+03  0.10486694137E+04  0.00000000000E+00 0.  1.
        -11    1    3    3    0    0 -0.27046390041E+03  0.22111102926E+03 -0.24326914468E+03  0.42570022954E+03  0.00000000000E+00 0. -1.
         22    1    1    2    0    0  0.81845268009E+03 -0.80857650027E+03  0.10880733668E+04  0.15835290960E+04  0.00000000000E+00 0.  1.
<mgrwt>
<rscale>  0 0.30531257E+04</rscale>
<asrwt>0</asrwt>
<pdfrwt beam="1">  1        1 0.22208557E+00 0.30531257E+04</pdfrwt>
<pdfrwt beam="2">  1       -1 0.24836039E+00 0.30531257E+04</pdfrwt>
<totfact> 0.43356413E-01</totfact>
</mgrwt>
</event>
<event>
 6    1  0.9512547E-007  0.1673867E+04  0.7818608E-02  0.8776411E-01
          1   -1    0    0  501    0  0.00000000000E+00  0.00000000000E+00  0.12802938487E+04  0.12802938487E+04  0.00000000000E+00 0. -1.
         -1   -1    0    0    0  501 -0.00000000000E+00 -0.00000000000E+00 -0.54710709454E+03  0.54710709454E+03  0.00000000000E+00 0.  1.
         23    2    1    2    0    0 -0.39750541288E+03 -0.56316857275E+03 -0.14556796435E+03  0.71053960453E+03  0.92233956645E+02 0.  0.
         13    1    3    3    0    0 -0.23649747048E+03 -0.35462268644E+03 -0.45346688972E+02  0.42865443597E+03  0.00000000000E+00 0. -1.
        -13    1    3    3    0    0 -0.16100794240E+03 -0.20854588632E+03 -0.10022127538E+03  0.28188516856E+03  0.00000000000E+00 0.  1.
         22    1    1    2    0    0  0.39750541288E+03  0.56316857275E+03  0.87875471852E+03  0.11168613387E+04  0.00000000000E+00 0. -1.
<mgrwt>
<rscale>  0 0.16738672E+04</rscale>
<asrwt>0</asrwt>
<pdfrwt beam="1">  1        1 0.19696828E+00 0.16738672E+04</pdfrwt>
<pdfrwt beam="2">  1       -1 0.84170323E-01 0.16738672E+04</pdfrwt>
<totfact> 0.12464454E+01</totfact>
</mgrwt>
</event>
<event>
 6    1  0.9512547E-007  0.1058013E+04  0.7818608E-02  0.9247110E-01
          1   -1    0    0  501    0  0.00000000000E+00  0.00000000000E+00  0.60551762561E+03  0.60551762561E+03  0.00000000000E+00 0. -1.
         -1   -1    0    0    0  501 -0.00000000000E+00 -0.00000000000E+00 -0.46216345006E+03  0.46216345006E+03  0.00000000000E+00 0.  1.
         23    2    1    2    0    0  0.30786615587E+03  0.40023031277E+03  0.21693022157E+03  0.55740731803E+03  0.93157522339E+02 0.  0.
         13    1    3    3    0    0  0.33568571615E+02  0.63291779529E+02 -0.32460881142E+00  0.71643588179E+02  0.00000000000E+00 0.  1.
        -13    1    3    3    0    0  0.27429758426E+03  0.33693853324E+03  0.21725483039E+03  0.48576372985E+03  0.00000000000E+00 0. -1.
         22    1    1    2    0    0 -0.30786615587E+03 -0.40023031277E+03 -0.73576046021E+02  0.51027375764E+03  0.00000000000E+00 0. -1.
<mgrwt>
<rscale>  0 0.10580134E+04</rscale>
<asrwt>0</asrwt>
<pdfrwt beam="1">  1        1 0.93156558E-01 0.10580134E+04</pdfrwt>
<pdfrwt beam="2">  1       -1 0.71102069E-01 0.10580134E+04</pdfrwt>
<totfact> 0.67492845E+01</totfact>
</mgrwt>
</event>
<event>
 6    1  0.9512547E-007  0.2965761E+04  0.7818608E-02  0.8253576E-01
          1   -1    0    0  501    0  0.00000000000E+00  0.00000000000E+00  0.13735866885E+04  0.13735866885E+04  0.00000000000E+00 0. -1.
         -1   -1    0    0    0  501 -0.00000000000E+00 -0.00000000000E+00 -0.16008707319E+04  0.16008707319E+04  0.00000000000E+00 0.  1.
         23    2    1    2    0    0  0.14146199021E+03  0.14330035582E+04 -0.46306747457E+03  0.15153122874E+04  0.90714661412E+02 0.  0.
         13    1    3    3    0    0  0.32876128797E+02  0.71029437333E+03 -0.25581743564E+03  0.75567287698E+03  0.00000000000E+00 0. -1.
        -13    1    3    3    0    0  0.10858586141E+03  0.72270918492E+03 -0.20725003893E+03  0.75963941045E+03  0.00000000000E+00 0.  1.
         22    1    1    2    0    0 -0.14146199021E+03 -0.14330035582E+04  0.23578343126E+03  0.14591451330E+04  0.00000000000E+00 0. -1.
<mgrwt>
<rscale>  0 0.29657611E+04</rscale>
<asrwt>0</asrwt>
<pdfrwt beam="1">  1        1 0.21132103E+00 0.29657611E+04</pdfrwt>
<pdfrwt beam="2">  1       -1 0.24628780E+00 0.29657611E+04</pdfrwt>
<totfact> 0.50466257E-01</totfact>
</mgrwt>
</event>
<event>
 6    1  0.9512547E-007  0.3094707E+04  0.7818608E-02  0.8217192E-01
         -2   -1    0    0    0  501 -0.00000000000E+00  0.00000000000E+00  0.20480177498E+04  0.20480177498E+04  0.00000000000E+00 0.  1.
          2   -1    0    0  501    0  0.00000000000E+00 -0.00000000000E+00 -0.11690830586E+04  0.11690830586E+04  0.00000000000E+00 0. -1.
         23    2    1    2    0    0  0.15486541497E+03  0.58642402355E+03  0.19180829945E+04  0.20138944136E+04  0.94084551733E+02 0.  0.
         13    1    3    3    0    0  0.25893497023E+02  0.19307524358E+03  0.73953516202E+03  0.76476190984E+03  0.00000000000E+00 0. -1.
        -13    1    3    3    0    0  0.12897191795E+03  0.39334877997E+03  0.11785478325E+04  0.12491325037E+04  0.00000000000E+00 0.  1.
         22    1    1    2    0    0 -0.15486541497E+03 -0.58642402355E+03 -0.10391483034E+04  0.12032063948E+04  0.00000000000E+00 0. -1.
<mgrwt>
<rscale>  0 0.30947070E+04</rscale>
<asrwt>0</asrwt>
<pdfrwt beam="1">  1        2 0.17985893E+00 0.30947070E+04</pdfrwt>
<pdfrwt beam="2">  1       -2 0.31507965E+00 0.30947070E+04</pdfrwt>
<totfact> 0.43111330E-01</totfact>
</mgrwt>
</event>
<event>
 6    1  0.9512547E-007  0.2428565E+04  0.7818608E-02  0.8428886E-01
         -2   -1    0    0    0  501 -0.00000000000E+00  0.00000000000E+00  0.21072918229E+04  0.21072918229E+04  0.00000000000E+00 0.  1.
          2   -1    0    0  501    0  0.00000000000E+00 -0.00000000000E+00 -0.69970448766E+03  0.69970448766E+03  0.00000000000E+00 0. -1.
         23    2    1    2    0    0 -0.29450068704E+03  0.11310798042E+04  0.33129179926E+03  0.12181337429E+04  0.89573327402E+02 0.  0.
         13    1    3    3    0    0 -0.10783478097E+03  0.59043443353E+03  0.16377148646E+03  0.62214327937E+03  0.00000000000E+00 0. -1.
        -13    1    3    3    0    0 -0.18666590607E+03  0.54064537072E+03  0.16752031281E+03  0.59599046349E+03  0.00000000000E+00 0.  1.
         22    1    1    2    0    0  0.29450068704E+03 -0.11310798042E+04  0.10762955359E+04  0.15888625677E+04  0.00000000000E+00 0.  1.
<mgrwt>
<rscale>  0 0.24285646E+04</rscale>
<asrwt>0</asrwt>
<pdfrwt beam="1">  1        2 0.10764685E+00 0.24285646E+04</pdfrwt>
<pdfrwt beam="2">  1       -2 0.32419874E+00 0.24285646E+04</pdfrwt>
<totfact> 0.82986403E-01</totfact>
</mgrwt>
</event>
<event>
 6    1  0.9512547E-007  0.2606468E+04  0.7818608E-02  0.8366008E-01
         -2   -1    0    0    0  501 -0.00000000000E+00  0.00000000000E+00  0.12103025913E+04  0.12103025913E+04  0.00000000000E+00 0.  1.
          2   -1    0    0  501    0  0.00000000000E+00 -0.00000000000E+00 -0.14033006494E+04  0.14033006494E+04  0.00000000000E+00 0. -1.
         23    2    1    2    0    0 -0.94559413380E+03 -0.88491949652E+03  0.34113282014E+02  0.12987609147E+04  0.91571919343E+02 0.  0.
         11    1    3    3    0    0 -0.69881320968E+03 -0.65892628481E+03 -0.14706655419E+02  0.96059358552E+03  0.00000000000E+00 0. -1.
        -11    1    3    3    0    0 -0.24678092412E+03 -0.22599321170E+03  0.48819937432E+02  0.33816732920E+03  0.00000000000E+00 0.  1.
         22    1    1    2    0    0  0.94559413380E+03  0.88491949652E+03 -0.22711134012E+03  0.13148423259E+04  0.00000000000E+00 0.  1.
<mgrwt>
<rscale>  0 0.26064677E+04</rscale>
<asrwt>0</asrwt>
<pdfrwt beam="1">  1        2 0.21589241E+00 0.26064677E+04</pdfrwt>
<pdfrwt beam="2">  1       -2 0.18620040E+00 0.26064677E+04</pdfrwt>
<totfact> 0.20947170E+00</totfact>
</mgrwt>
</event>
<event>
 6    1  0.9512547E-007  0.1161773E+04  0.7818608E-02  0.9146990E-01
          1   -1    0    0  501    0  0.00000000000E+00  0.00000000000E+00  0.43151529059E+03  0.43151529059E+03  0.00000000000E+00 0. -1.
         -1   -1    0    0    0  501 -0.00000000000E+00 -0.00000000000E+00 -0.78196374941E+03  0.78196374941E+03  0.00000000000E+00 0.  1.
         23    2    1    2    0    0  0.29962262634E+03  0.23466257396E+03 -0.62965132787E+03  0.74146793429E+03  0.92052490711E+02 0.  0.
         11    1    3    3    0    0  0.24514194398E+03  0.15595224310E+03 -0.52200510335E+03  0.59741526825E+03  0.00000000000E+00 0. -1.
        -11    1    3    3    0    0  0.54480682367E+02  0.78710330863E+02 -0.10764622453E+03  0.14405266603E+03  0.00000000000E+00 0.  1.
         22    1    1    2    0    0 -0.29962262634E+03 -0.23466257396E+03  0.27920286905E+03  0.47201110572E+03  0.00000000000E+00 0. -1.
<mgrwt>
<rscale>  0 0.11617733E+04</rscale>
<asrwt>0</asrwt>
<pdfrwt beam="1">  1        1 0.66386969E-01 0.11617733E+04</pdfrwt>
<pdfrwt beam="2">  1       -1 0.12030211E+00 0.11617733E+04</pdfrwt>
<totfact> 0.33101673E+01</totfact>
</mgrwt>
</event>
<event>
 6    1  0.9512547E-007  0.2372490E+04  0.7818608E-02  0.8449875E-01
         -2   -1    0    0    0  501 -0.00000000000E+00  0.00000000000E+00  0.46377345448E+03  0.46377345448E+03  0.00000000000E+00 0.  1.
          2   -1    0    0  501    0  0.00000000000E+00 -0.00000000000E+00 -0.30341901577E+04  0.30341901577E+04  0.00000000000E+00 0. -1.
         23    2    1    2    0    0 -0.86867542850E+03 -0.26593617915E+03 -0.16625740201E+03  0.92788559838E+03  0.89504795932E+02 0.  0.
         11    1    3    3    0    0 -0.13932038645E+03 -0.73239169009E+02 -0.45977219742E+02  0.16397576252E+03  0.00000000000E+00 0.  1.
        -11    1    3    3    0    0 -0.72935504204E+03 -0.19269701015E+03 -0.12028018227E+03  0.76390983586E+03  0.00000000000E+00 0. -1.
         22    1    1    2    0    0  0.86867542850E+03  0.26593617915E+03 -0.24041593012E+04  0.25700780138E+04  0.00000000000E+00 0. -1.
<mgrwt>
<rscale>  0 0.23724897E+04</rscale>
<asrwt>0</asrwt>
<pdfrwt beam="1">  1        2 0.46679850E+00 0.23724897E+04</pdfrwt>
<pdfrwt beam="2">  1       -2 0.71349761E-01 0.23724897E+04</pdfrwt>
<totfact> 0.26639604E+00</totfact>
</mgrwt>
</event>
<event>
 6    1  0.9512547E-007  0.2240663E+04  0.7818608E-02  0.8501692E-01
          1   -1    0    0  501    0  0.00000000000E+00  0.00000000000E+00  0.25065209446E+04  0.25065209446E+04  0.00000000000E+00 0. -1.
         -1   -1    0    0    0  501 -0.00000000000E+00 -0.00000000000E+00 -0.50075073377E+03  0.50075073377E+03  0.00000000000E+00 0.  1.
         23    2    1    2    0    0  0.20211530341E+03 -0.83607725678E+03  0.44768089180E+02  0.86591577700E+03  0.89051534955E+02 0.  0.
         13    1    3    3    0    0  0.31516446308E+02 -0.27835489842E+03 -0.84594604988E+01  0.28026112527E+03  0.00000000000E+00 0.  1.
        -13    1    3    3    0    0  0.17059885711E+03 -0.55772235835E+03  0.53227549679E+02  0.58565465174E+03  0.00000000000E+00 0. -1.
         22    1    1    2    0    0 -0.20211530341E+03  0.83607725678E+03  0.19610021217E+04  0.21413559014E+04  0.00000000000E+00 0. -1.
<mgrwt>
<rscale>  0 0.22406626E+04</rscale>
<asrwt>0</asrwt>
<pdfrwt beam="1">  1        1 0.38561860E+00 0.22406626E+04</pdfrwt>
<pdfrwt beam="2">  1       -1 0.77038576E-01 0.22406626E+04</pdfrwt>
<totfact> 0.20582549E+00</totfact>
</mgrwt>
</event>
<event>
 6    1  0.9512547E-007  0.2789205E+03  0.7818608E-02  0.1096280E+00
          2   -1    0    0  501    0  0.00000000000E+00  0.00000000000E+00  0.42010175975E+03  0.42010175975E+03  0.00000000000E+00 0. -1.
         -2   -1    0    0    0  501 -0.00000000000E+00 -0.00000000000E+00 -0.46296313468E+02  0.46296313468E+02  0.00000000000E+00 0.  1.
         23    2    1    2    0    0  0.45257971959E+02 -0.61402624065E+02  0.42249057833E+02  0.12618019452E+03  0.91202479858E+02 0.  0.
         11    1    3    3    0    0  0.25010801421E+02  0.20349603603E+02  0.66252355606E+00  0.32250356463E+02  0.00000000000E+00 0. -1.
        -11    1    3    3    0    0  0.20247170538E+02 -0.81752227668E+02  0.41586534277E+02  0.93929838053E+02  0.00000000000E+00 0.  1.
         22    1    1    2    0    0 -0.45257971959E+02  0.61402624065E+02  0.33155638844E+03  0.34021787870E+03  0.00000000000E+00 0. -1.
<mgrwt>
<rscale>  0 0.27892051E+03</rscale>
<asrwt>0</asrwt>
<pdfrwt beam="1">  1        2 0.64631037E-01 0.27892051E+03</pdfrwt>
<pdfrwt beam="2">  1       -2 0.71225101E-02 0.27892051E+03</pdfrwt>
<totfact> 0.85293782E+03</totfact>
</mgrwt>
</event>
<event>
 6    1  0.9512547E-007  0.1544908E+04  0.7818608E-02  0.8855127E-01
         -2   -1    0    0    0  501 -0.00000000000E+00  0.00000000000E+00  0.26051156314E+03  0.26051156314E+03  0.00000000000E+00 0.  1.
          2   -1    0    0  501    0  0.00000000000E+00 -0.00000000000E+00 -0.22904362035E+04  0.22904362035E+04  0.00000000000E+00 0. -1.
         23    2    1    2    0    0  0.53023182617E+03  0.28475412815E+02 -0.98178971873E+02  0.54755115928E+03  0.90645037876E+02 0.  0.
         13    1    3    3    0    0  0.20973722129E+03 -0.10583871768E+02  0.28659792953E+00  0.21000429156E+03  0.00000000000E+00 0.  1.
        -13    1    3    3    0    0  0.32049460488E+03  0.39059284583E+02 -0.98465569803E+02  0.33754686772E+03  0.00000000000E+00 0. -1.
         22    1    1    2    0    0 -0.53023182617E+03 -0.28475412815E+02 -0.19317456685E+04  0.20033966073E+04  0.00000000000E+00 0. -1.
<mgrwt>
<rscale>  0 0.15449079E+04</rscale>
<asrwt>0</asrwt>
<pdfrwt beam="1">  1        2 0.35237480E+00 0.15449079E+04</pdfrwt>
<pdfrwt beam="2">  1       -2 0.40078703E-01 0.15449079E+04</pdfrwt>
<totfact> 0.26077736E+01</totfact>
</mgrwt>
</event>
<event>
 6    1  0.9512547E-007  0.1680694E+04  0.7818608E-02  0.8772452E-01
         -2   -1    0    0    0  501 -0.00000000000E+00  0.00000000000E+00  0.40679217983E+03  0.40679217983E+03  0.00000000000E+00 0.  1.
          2   -1    0    0  501    0  0.00000000000E+00 -0.00000000000E+00 -0.17359808980E+04  0.17359808980E+04  0.00000000000E+00 0. -1.
         23    2    1    2    0    0  0.89333642100E+01 -0.81287450083E+03 -0.92475049410E+03  0.12348000407E+04  0.93396493867E+02 0.  0.
         13    1    3    3    0    0  0.34639052688E+02 -0.13117852677E+03 -0.13907445066E+03  0.19429197792E+03  0.00000000000E+00 0. -1.
        -13    1    3    3    0    0 -0.25705688478E+02 -0.68169597406E+03 -0.78567604344E+03  0.10405080628E+04  0.00000000000E+00 0.  1.
         22    1    1    2    0    0 -0.89333642100E+01  0.81287450083E+03 -0.40443822406E+03  0.90797303714E+03  0.00000000000E+00 0.  1.
<mgrwt>
<rscale>  0 0.16806944E+04</rscale>
<asrwt>0</asrwt>
<pdfrwt beam="1">  1        2 0.26707398E+00 0.16806944E+04</pdfrwt>
<pdfrwt beam="2">  1       -2 0.62583413E-01 0.16806944E+04</pdfrwt>
<totfact> 0.21130788E+01</totfact>
</mgrwt>
</event>
<event>
 6    1  0.9512547E-007  0.2742933E+04  0.7818608E-02  0.8321207E-01
         -2   -1    0    0    0  501 -0.00000000000E+00  0.00000000000E+00  0.11631724760E+04  0.11631724760E+04  0.00000000000E+00 0.  1.
          2   -1    0    0  501    0  0.00000000000E+00 -0.00000000000E+00 -0.16170611183E+04  0.16170611183E+04  0.00000000000E+00 0. -1.
         23    2    1    2    0    0 -0.10863776620E+04  0.31995900964E+03 -0.10085274382E+04  0.15191965662E+04  0.90776763432E+02 0.  0.
         11    1    3    3    0    0 -0.83146924081E+03  0.28439869069E+03 -0.78241501696E+03  0.11766039998E+04  0.00000000000E+00 0. -1.
        -11    1    3    3    0    0 -0.25490842123E+03  0.35560318952E+02 -0.22611242122E+03  0.34259256636E+03  0.00000000000E+00 0.  1.
         22    1    1    2    0    0  0.10863776620E+04 -0.31995900964E+03  0.55463879590E+03  0.12610370281E+04  0.00000000000E+00 0.  1.
<mgrwt>
<rscale>  0 0.27429335E+04</rscale>
<asrwt>0</asrwt>
<pdfrwt beam="1">  1        2 0.24877863E+00 0.27429335E+04</pdfrwt>
<pdfrwt beam="2">  1       -2 0.17894961E+00 0.27429335E+04</pdfrwt>
<totfact> 0.17588623E+00</totfact>
</mgrwt>
</event>
<event>
 6    1  0.9512547E-007  0.2300051E+04  0.7818608E-02  0.8477901E-01
          2   -1    0    0  501    0  0.00000000000E+00  0.00000000000E+00  0.26238371016E+04  0.26238371016E+04  0.00000000000E+00 0. -1.
         -2   -1    0    0    0  501 -0.00000000000E+00 -0.00000000000E+00 -0.50405512920E+03  0.50405512920E+03  0.00000000000E+00 0.  1.
         23    2    1    2    0    0  0.20487990790E+03 -0.12833367204E+03  0.25880218330E+04  0.26009255573E+04  0.92257456964E+02 0.  0.
         13    1    3    3    0    0  0.91172352856E+02 -0.10322005695E+03  0.11554098254E+04  0.11635886913E+04  0.00000000000E+00 0. -1.
        -13    1    3    3    0    0  0.11370755505E+03 -0.25113615094E+02  0.14326120076E+04  0.14373368659E+04  0.00000000000E+00 0.  1.
         22    1    1    2    0    0 -0.20487990790E+03  0.12833367204E+03 -0.46823986055E+03  0.52696667357E+03  0.00000000000E+00 0.  1.
<mgrwt>
<rscale>  0 0.23000509E+04</rscale>
<asrwt>0</asrwt>
<pdfrwt beam="1">  1        2 0.40366724E+00 0.23000509E+04</pdfrwt>
<pdfrwt beam="2">  1       -2 0.77546944E-01 0.23000509E+04</pdfrwt>
<totfact> 0.39601431E+00</totfact>
</mgrwt>
</event>
<event>
 6    1  0.9512547E-007  0.1155278E+04  0.7818608E-02  0.9152928E-01
         -2   -1    0    0    0  501 -0.00000000000E+00  0.00000000000E+00  0.19819451462E+03  0.19819451462E+03  0.00000000000E+00 0.  1.
          2   -1    0    0  501    0  0.00000000000E+00 -0.00000000000E+00 -0.16835314238E+04  0.16835314238E+04  0.00000000000E+00 0. -1.
         23    2    1    2    0    0  0.10621485359E+02 -0.40184113875E+03 -0.79989238989E+02  0.42001762592E+03  0.91800931310E+02 0.  0.
         11    1    3    3    0    0 -0.16273893523E+01 -0.33580932376E+03 -0.31711086885E+02  0.33730719433E+03  0.00000000000E+00 0. -1.
        -11    1    3    3    0    0  0.12248874712E+02 -0.66031814988E+02 -0.48278152104E+02  0.82710431584E+02  0.00000000000E+00 0.  1.
         22    1    1    2    0    0 -0.10621485359E+02  0.40184113875E+03 -0.14053476701E+04  0.14617083125E+04  0.00000000000E+00 0. -1.
<mgrwt>
<rscale>  0 0.11552778E+04</rscale>
<asrwt>0</asrwt>
<pdfrwt beam="1">  1        2 0.25900482E+00 0.11552778E+04</pdfrwt>
<pdfrwt beam="2">  1       -2 0.30491465E-01 0.11552778E+04</pdfrwt>
<totfact> 0.98576543E+01</totfact>
</mgrwt>
</event>
<event>
 6    1  0.9512547E-007  0.3016498E+04  0.7818608E-02  0.8239036E-01
         -1   -1    0    0    0  501 -0.00000000000E+00  0.00000000000E+00  0.16374351880E+04  0.16374351880E+04  0.00000000000E+00 0.  1.
          1   -1    0    0  501    0  0.00000000000E+00 -0.00000000000E+00 -0.13892546923E+04  0.13892546923E+04  0.00000000000E+00 0. -1.
         23    2    1    2    0    0  0.27722304659E+03  0.68551650388E+03 -0.11931339872E+04  0.14067599642E+04  0.92840673817E+02 0.  0.
         13    1    3    3    0    0  0.15278666168E+03  0.30642337908E+03 -0.62278368310E+03  0.71070286841E+03  0.00000000000E+00 0.  1.
        -13    1    3    3    0    0  0.12443638491E+03  0.37909312480E+03 -0.57035030409E+03  0.69605709575E+03  0.00000000000E+00 0. -1.
         22    1    1    2    0    0 -0.27722304659E+03 -0.68551650388E+03  0.14413144828E+04  0.16199299161E+04  0.00000000000E+00 0.  1.
<mgrwt>
<rscale>  0 0.30164977E+04</rscale>
<asrwt>0</asrwt>
<pdfrwt beam="1">  1        1 0.21373149E+00 0.30164977E+04</pdfrwt>
<pdfrwt beam="2">  1       -1 0.25191311E+00 0.30164977E+04</pdfrwt>
<totfact> 0.45006639E-01</totfact>
</mgrwt>
</event>
<event>
 6    1  0.9512547E-007  0.1855246E+04  0.7818608E-02  0.8677459E-01
          1   -1    0    0  501    0  0.00000000000E+00  0.00000000000E+00  0.75995041176E+03  0.75995041176E+03  0.00000000000E+00 0. -1.
         -1   -1    0    0    0  501 -0.00000000000E+00 -0.00000000000E+00 -0.11322908201E+04  0.11322908201E+04  0.00000000000E+00 0.  1.
         23    2    1    2    0    0 -0.50910454313E+03  0.28324716278E+03  0.54639320760E+03  0.80435895509E+03  0.95033679630E+02 0.  0.
         11    1    3    3    0    0 -0.39101397993E+03  0.24034525584E+03  0.38005778879E+03  0.59590410078E+03  0.00000000000E+00 0.  1.
        -11    1    3    3    0    0 -0.11809056320E+03  0.42901906947E+02  0.16633541881E+03  0.20845485431E+03  0.00000000000E+00 0. -1.
         22    1    1    2    0    0  0.50910454313E+03 -0.28324716278E+03 -0.91873361596E+03  0.10878822768E+04  0.00000000000E+00 0.  1.
<mgrwt>
<rscale>  0 0.18552465E+04</rscale>
<asrwt>0</asrwt>
<pdfrwt beam="1">  1        1 0.11691545E+00 0.18552465E+04</pdfrwt>
<pdfrwt beam="2">  1       -1 0.17419859E+00 0.18552465E+04</pdfrwt>
<totfact> 0.51652919E+00</totfact>
</mgrwt>
</event>
<event>
 6    1  0.9512547E-007  0.4119278E+04  0.7818608E-02  0.7980907E-01
          2   -1    0    0  501    0  0.00000000000E+00  0.00000000000E+00  0.17429070654E+04  0.17429070654E+04  0.00000000000E+00 0. -1.
         -2   -1    0    0    0  501 -0.00000000000E+00 -0.00000000000E+00 -0.24339293450E+04  0.24339293450E+04  0.00000000000E+00 0.  1.
         23    2    1    2    0    0 -0.86814775286E+03  0.17127549585E+04 -0.10986193059E+04  0.22138424203E+04  0.83209458510E+02 0.  0.
         13    1    3    3    0    0 -0.67963441274E+03  0.12616939852E+04 -0.82568167433E+03  0.16539422223E+04  0.00000000000E+00 0. -1.
        -13    1    3    3    0    0 -0.18851334012E+03  0.45106097331E+03 -0.27293763161E+03  0.55990019806E+03  0.00000000000E+00 0.  1.
         22    1    1    2    0    0  0.86814775286E+03 -0.17127549585E+04  0.40759702633E+03  0.19629939900E+04  0.00000000000E+00 0.  1.
<mgrwt>
<rscale>  0 0.41192779E+04</rscale>
<asrwt>0</asrwt>
<pdfrwt beam="1">  1        2 0.26813955E+00 0.41192779E+04</pdfrwt>
<pdfrwt beam="2">  1       -2 0.37445067E+00 0.41192779E+04</pdfrwt>
<totfact> 0.78820965E-02</totfact>
</mgrwt>
</event>
<event>
 6    1  0.9512547E-007  0.1400548E+04  0.7818608E-02  0.8953422E-01
          1   -1    0    0  501    0  0.00000000000E+00  0.00000000000E+00  0.11474702866E+04  0.11474702866E+04  0.00000000000E+00 0. -1.
         -1   -1    0    0    0  501 -0.00000000000E+00 -0.00000000000E+00 -0.42736045744E+03  0.42736045744E+03  0.00000000000E+00 0.  1.
         23    2    1    2    0    0 -0.50696519321E+03  0.29134513698E+03 -0.64382581677E+02  0.59640137070E+03  0.98253662453E+02 0.  0.
         11    1    3    3    0    0 -0.12901791856E+03  0.27555923141E+02 -0.10054879296E+02  0.13231044103E+03  0.00000000000E+00 0. -1.
        -11    1    3    3    0    0 -0.37794727465E+03  0.26378921384E+03 -0.54327702381E+02  0.46409092967E+03  0.00000000000E+00 0.  1.
         22    1    1    2    0    0  0.50696519321E+03 -0.29134513698E+03  0.78449241086E+03  0.97842937336E+03  0.00000000000E+00 0. -1.
<mgrwt>
<rscale>  0 0.14005476E+04</rscale>
<asrwt>0</asrwt>
<pdfrwt beam="1">  1        1 0.17653389E+00 0.14005476E+04</pdfrwt>
<pdfrwt beam="2">  1       -1 0.65747763E-01 0.14005476E+04</pdfrwt>
<totfact> 0.26710570E+01</totfact>
</mgrwt>
</event>
<event>
 6    1  0.9512547E-007  0.2779891E+04  0.7818608E-02  0.8309539E-01
         -2   -1    0    0    0  501 -0.00000000000E+00  0.00000000000E+00  0.14041549263E+04  0.14041549263E+04  0.00000000000E+00 0.  1.
          2   -1    0    0  501    0  0.00000000000E+00 -0.00000000000E+00 -0.13758803237E+04  0.13758803237E+04  0.00000000000E+00 0. -1.
         23    2    1    2    0    0 -0.12531214841E+04  0.59730136625E+03  0.38889793104E+02  0.13918007387E+04  0.92274070899E+02 0.  0.
         11    1    3    3    0    0 -0.80291562912E+03  0.38442614006E+03  0.69170449322E+02  0.89288381983E+03  0.00000000000E+00 0. -1.
        -11    1    3    3    0    0 -0.45020585500E+03  0.21287522619E+03 -0.30280656218E+02  0.49891691888E+03  0.00000000000E+00 0.  1.
         22    1    1    2    0    0  0.12531214841E+04 -0.59730136625E+03 -0.10615190581E+02  0.13882345113E+04  0.00000000000E+00 0. -1.
<mgrwt>
<rscale>  0 0.27798915E+04</rscale>
<asrwt>0</asrwt>
<pdfrwt beam="1">  1        2 0.21167390E+00 0.27798915E+04</pdfrwt>
<pdfrwt beam="2">  1       -2 0.21602384E+00 0.27798915E+04</pdfrwt>
<totfact> 0.13641846E+00</totfact>
</mgrwt>
</event>
<event>
 6    1  0.9512547E-007  0.2917547E+04  0.7818608E-02  0.8267676E-01
         -1   -1    0    0    0  501 -0.00000000000E+00  0.00000000000E+00  0.73892764850E+03  0.73892764850E+03  0.00000000000E+00 0.  1.
          1   -1    0    0  501    0  0.00000000000E+00 -0.00000000000E+00 -0.28798758049E+04  0.28798758049E+04  0.00000000000E+00 0. -1.
         23    2    1    2    0    0 -0.59527812499E+03  0.10995135337E+04 -0.14295615116E+03  0.12618439480E+04  0.92345174034E+02 0.  0.
         13    1    3    3    0    0 -0.44558272787E+02  0.79446937352E+02 -0.35037166424E+02  0.97595381855E+02  0.00000000000E+00 0. -1.
        -13    1    3    3    0    0 -0.55071985220E+03  0.10200665964E+04 -0.10791898473E+03  0.11642485662E+04  0.00000000000E+00 0.  1.
         22    1    1    2    0    0  0.59527812499E+03 -0.10995135337E+04 -0.19979920053E+04  0.23569595054E+04  0.00000000000E+00 0. -1.
<mgrwt>
<rscale>  0 0.29175468E+04</rscale>
<asrwt>0</asrwt>
<pdfrwt beam="1">  1        1 0.44305782E+00 0.29175468E+04</pdfrwt>
<pdfrwt beam="2">  1       -1 0.11368117E+00 0.29175468E+04</pdfrwt>
<totfact> 0.44150070E-01</totfact>
</mgrwt>
</event>
<event>
 6    1  0.9512547E-007  0.4463019E+04  0.7818608E-02  0.7917143E-01
          2   -1    0    0  501    0  0.00000000000E+00  0.00000000000E+00  0.31531460517E+04  0.31531460517E+04  0.00000000000E+00 0. -1.
         -2   -1    0    0    0  501 -0.00000000000E+00 -0.00000000000E+00 -0.15792593873E+04  0.15792593873E+04  0.00000000000E+00 0.  1.
         23    2    1    2    0    0  0.19750091919E+04  0.49311855894E+03 -0.17999559386E+03  0.20454126595E+04  0.86529259781E+02 0.  0.
         13    1    3    3    0    0  0.24621108000E+03  0.60640083189E+02  0.61643911966E+01  0.25364367787E+03  0.00000000000E+00 0.  1.
        -13    1    3    3    0    0  0.17287981119E+04  0.43247847576E+03 -0.18615998505E+03  0.17917689817E+04  0.00000000000E+00 0. -1.
         22    1    1    2    0    0 -0.19750091919E+04 -0.49311855894E+03  0.17538822582E+04  0.26869927795E+04  0.00000000000E+00 0. -1.
<mgrwt>
<rscale>  0 0.44630194E+04</rscale>
<asrwt>0</asrwt>
<pdfrwt beam="1">  1        2 0.48509939E+00 0.44630194E+04</pdfrwt>
<pdfrwt beam="2">  1       -2 0.24296298E+00 0.44630194E+04</pdfrwt>
<totfact> 0.75002238E-02</totfact>
</mgrwt>
</event>
<event>
 6    1  0.9512547E-007  0.2116856E+04  0.7818608E-02  0.8553854E-01
         -1   -1    0    0    0  501 -0.00000000000E+00  0.00000000000E+00  0.56860281697E+03  0.56860281697E+03  0.00000000000E+00 0.  1.
          1   -1    0    0  501    0  0.00000000000E+00 -0.00000000000E+00 -0.19702159836E+04  0.19702159836E+04  0.00000000000E+00 0. -1.
         23    2    1    2    0    0 -0.11593483217E+03  0.66604622415E+03  0.27167065426E+03  0.73412015446E+03  0.89827605892E+02 0.  0.
         13    1    3    3    0    0 -0.60143613879E+02  0.33979576174E+03  0.18694156021E+03  0.39246090368E+03  0.00000000000E+00 0.  1.
        -13    1    3    3    0    0 -0.55791218293E+02  0.32625046242E+03  0.84729094057E+02  0.34165925078E+03  0.00000000000E+00 0. -1.
         22    1    1    2    0    0  0.11593483217E+03 -0.66604622415E+03 -0.16732838209E+04  0.18046986461E+04  0.00000000000E+00 0. -1.
<mgrwt>
<rscale>  0 0.21168565E+04</rscale>
<asrwt>0</asrwt>
<pdfrwt beam="1">  1        1 0.30311015E+00 0.21168565E+04</pdfrwt>
<pdfrwt beam="2">  1       -1 0.87477357E-01 0.21168565E+04</pdfrwt>
<totfact> 0.36862998E+00</totfact>
</mgrwt>
</event>
<event>
 6    1  0.9512547E-007  0.1841288E+04  0.7818608E-02  0.8684646E-01
         -2   -1    0    0    0  501 -0.00000000000E+00  0.00000000000E+00  0.17093013538E+04  0.17093013538E+04  0.00000000000E+00 0.  1.
          2   -1    0    0  501    0  0.00000000000E+00 -0.00000000000E+00 -0.49586643914E+03  0.49586643914E+03  0.00000000000E+00 0. -1.
         23    2    1    2    0    0 -0.78021988797E+03  0.12650870123E+03  0.48090523823E+02  0.79705733053E+03  0.90775352402E+02 0.  0.
         11    1    3    3    0    0 -0.41611749001E+03  0.87538799755E+02 -0.14951402139E+02  0.42548836809E+03  0.00000000000E+00 0.  1.
        -11    1    3    3    0    0 -0.36410239795E+03  0.38969901477E+02  0.63041925962E+02  0.37156896244E+03  0.00000000000E+00 0. -1.
         22    1    1    2    0    0  0.78021988797E+03 -0.12650870123E+03  0.11653443908E+04  0.14081104624E+04  0.00000000000E+00 0.  1.
<mgrwt>
<rscale>  0 0.18412878E+04</rscale>
<asrwt>0</asrwt>
<pdfrwt beam="1">  1        2 0.76287145E-01 0.18412878E+04</pdfrwt>
<pdfrwt beam="2">  1       -2 0.26296944E+00 0.18412878E+04</pdfrwt>
<totfact> 0.31313004E+00</totfact>
</mgrwt>
</event>
<event>
 6    1  0.9512547E-007  0.2494641E+04  0.7818608E-02  0.8404897E-01
         -2   -1    0    0    0  501 -0.00000000000E+00  0.00000000000E+00  0.20283455221E+04  0.20283455221E+04  0.00000000000E+00 0.  1.
          2   -1    0    0  501    0  0.00000000000E+00 -0.00000000000E+00 -0.76703308754E+03  0.76703308754E+03  0.00000000000E+00 0. -1.
         23    2    1    2    0    0  0.10587567818E+04 -0.25022474929E+03 -0.48321685588E+02  0.10928158716E+04  0.91286339394E+02 0.  0.
         11    1    3    3    0    0  0.85680531620E+03 -0.17465611652E+03 -0.62983469462E+02  0.87669095258E+03  0.00000000000E+00 0. -1.
        -11    1    3    3    0    0  0.20195146562E+03 -0.75568632766E+02  0.14661783874E+02  0.21612491904E+03  0.00000000000E+00 0.  1.
         22    1    1    2    0    0 -0.10587567818E+04  0.25022474929E+03  0.13096341201E+04  0.17025627380E+04  0.00000000000E+00 0.  1.
<mgrwt>
<rscale>  0 0.24946408E+04</rscale>
<asrwt>0</asrwt>
<pdfrwt beam="1">  1        2 0.11800509E+00 0.24946408E+04</pdfrwt>
<pdfrwt beam="2">  1       -2 0.31205316E+00 0.24946408E+04</pdfrwt>
<totfact> 0.87120964E-01</totfact>
</mgrwt>
</event>
<event>
 6    1  0.9512547E-007  0.6325475E+03  0.7818608E-02  0.9840090E-01
          3   -1    0    0  501    0  0.00000000000E+00  0.00000000000E+00  0.39026197894E+03  0.39026197894E+03  0.00000000000E+00 0. -1.
         -3   -1    0    0    0  501 -0.00000000000E+00 -0.00000000000E+00 -0.25631262009E+03  0.25631262009E+03  0.00000000000E+00 0.  1.
         23    2    1    2    0    0  0.23918473920E+03 -0.73879768650E+02  0.25515225236E+03  0.36844207473E+03  0.89327100390E+02 0.  0.
         11    1    3    3    0    0  0.19640592869E+03 -0.43960205850E+02  0.24171358845E+03  0.31453655966E+03  0.00000000000E+00 0. -1.
        -11    1    3    3    0    0  0.42778810507E+02 -0.29919562801E+02  0.13438663908E+02  0.53905515063E+02  0.00000000000E+00 0.  1.
         22    1    1    2    0    0 -0.23918473920E+03  0.73879768650E+02 -0.12120289351E+03  0.27813252430E+03  0.00000000000E+00 0.  1.
<mgrwt>
<rscale>  0 0.63254745E+03</rscale>
<asrwt>0</asrwt>
<pdfrwt beam="1">  1        3 0.60040305E-01 0.63254745E+03</pdfrwt>
<pdfrwt beam="2">  1       -3 0.39432711E-01 0.63254745E+03</pdfrwt>
<totfact> 0.45614763E+01</totfact>
</mgrwt>
</event>
<event>
 6    1  0.9512547E-007  0.2626768E+04  0.7818608E-02  0.8359165E-01
         -2   -1    0    0    0  501 -0.00000000000E+00  0.00000000000E+00  0.71453141124E+03  0.71453141124E+03  0.00000000000E+00 0.  1.
          2   -1    0    0  501    0  0.00000000000E+00 -0.00000000000E+00 -0.24141381129E+04  0.24141381129E+04  0.00000000000E+00 0. -1.
         23    2    1    2    0    0  0.96943552677E+03  0.57821661051E+03 -0.16470552745E+04  0.19986689305E+04  0.88015495236E+02 0.  0.
         11    1    3    3    0    0  0.48261816279E+03  0.33659684374E+03 -0.83242241928E+03  0.10193845253E+04  0.00000000000E+00 0. -1.
        -11    1    3    3    0    0  0.48681736398E+03  0.24161976677E+03 -0.81463285517E+03  0.97928440521E+03  0.00000000000E+00 0.  1.
         22    1    1    2    0    0 -0.96943552677E+03 -0.57821661051E+03 -0.52551427250E+02  0.11300005937E+04  0.00000000000E+00 0.  1.
<mgrwt>
<rscale>  0 0.26267680E+04</rscale>
<asrwt>0</asrwt>
<pdfrwt beam="1">  1        2 0.37140587E+00 0.26267680E+04</pdfrwt>
<pdfrwt beam="2">  1       -2 0.10992791E+00 0.26267680E+04</pdfrwt>
<totfact> 0.22658183E+00</totfact>
</mgrwt>
</event>
<event>
 6    1  0.9512547E-007  0.2574487E+04  0.7818608E-02  0.8376919E-01
         -2   -1    0    0    0  501 -0.00000000000E+00  0.00000000000E+00  0.59217237138E+03  0.59217237138E+03  0.00000000000E+00 0.  1.
          2   -1    0    0  501    0  0.00000000000E+00 -0.00000000000E+00 -0.27981655026E+04  0.27981655026E+04  0.00000000000E+00 0. -1.
         23    2    1    2    0    0 -0.10899184264E+04 -0.12372854365E+03 -0.19874181182E+04  0.22718540944E+04  0.90880805377E+02 0.  0.
         13    1    3    3    0    0 -0.82045724800E+03 -0.89293483327E+02 -0.15725388302E+04  0.17759509550E+04  0.00000000000E+00 0.  1.
        -13    1    3    3    0    0 -0.26946117844E+03 -0.34435060325E+02 -0.41487928799E+03  0.49590313940E+03  0.00000000000E+00 0. -1.
         22    1    1    2    0    0  0.10899184264E+04  0.12372854365E+03 -0.21857501297E+03  0.11184837795E+04  0.00000000000E+00 0.  1.
<mgrwt>
<rscale>  0 0.25744874E+04</rscale>
<asrwt>0</asrwt>
<pdfrwt beam="1">  1        2 0.43048700E+00 0.25744874E+04</pdfrwt>
<pdfrwt beam="2">  1       -2 0.91103442E-01 0.25744874E+04</pdfrwt>
<totfact> 0.21110683E+00</totfact>
</mgrwt>
</event>
<event>
 6    1  0.9512547E-007  0.2804676E+04  0.7818608E-02  0.8301818E-01
          1   -1    0    0  501    0  0.00000000000E+00  0.00000000000E+00  0.61994904112E+03  0.61994904112E+03  0.00000000000E+00 0. -1.
         -1   -1    0    0    0  501 -0.00000000000E+00 -0.00000000000E+00 -0.31721195106E+04  0.31721195106E+04  0.00000000000E+00 0.  1.
         23    2    1    2    0    0  0.65914042332E+03  0.21421704379E+02 -0.29484411083E+04  0.30226821688E+04  0.91528888278E+02 0.  0.
         13    1    3    3    0    0  0.48349706453E+03  0.51669904973E+02 -0.20702029305E+04  0.21265416440E+04  0.00000000000E+00 0. -1.
        -13    1    3    3    0    0  0.17564335879E+03 -0.30248200594E+02 -0.87823817783E+03  0.89614052477E+03  0.00000000000E+00 0.  1.
         22    1    1    2    0    0 -0.65914042332E+03 -0.21421704379E+02  0.39627063880E+03  0.76938638294E+03  0.00000000000E+00 0. -1.
<mgrwt>
<rscale>  0 0.28046764E+04</rscale>
<asrwt>0</asrwt>
<pdfrwt beam="1">  1        1 0.95376776E-01 0.28046764E+04</pdfrwt>
<pdfrwt beam="2">  1       -1 0.48801839E+00 0.28046764E+04</pdfrwt>
<totfact> 0.50325117E-02</totfact>
</mgrwt>
</event>
<event>
 6    1  0.9512547E-007  0.2002850E+04  0.7818608E-02  0.8605289E-01
          1   -1    0    0  501    0  0.00000000000E+00  0.00000000000E+00  0.25799874474E+04  0.25799874474E+04  0.00000000000E+00 0. -1.
         -1   -1    0    0    0  501 -0.00000000000E+00 -0.00000000000E+00 -0.38870413550E+03  0.38870413550E+03  0.00000000000E+00 0.  1.
         23    2    1    2    0    0 -0.45326767194E+03  0.10612022945E+03  0.24087859805E+04  0.24548623346E+04  0.85942403170E+02 0.  0.
         13    1    3    3    0    0 -0.49151540208E+02  0.40157867905E+02  0.36174522003E+03  0.36727119745E+03  0.00000000000E+00 0.  1.
        -13    1    3    3    0    0 -0.40411613174E+03  0.65962361540E+02  0.20470407605E+04  0.20875911372E+04  0.00000000000E+00 0. -1.
         22    1    1    2    0    0  0.45326767194E+03 -0.10612022945E+03 -0.21750266859E+03  0.51382924827E+03  0.00000000000E+00 0.  1.
<mgrwt>
<rscale>  0 0.20028498E+04</rscale>
<asrwt>0</asrwt>
<pdfrwt beam="1">  1        1 0.39692114E+00 0.20028498E+04</pdfrwt>
<pdfrwt beam="2">  1       -1 0.59800638E-01 0.20028498E+04</pdfrwt>
<totfact> 0.31352831E+00</totfact>
</mgrwt>
</event>
<event>
 6    1  0.9512547E-007  0.3296624E+04  0.7818608E-02  0.8163755E-01
          2   -1    0    0  501    0  0.00000000000E+00  0.00000000000E+00  0.32221923627E+04  0.32221923627E+04  0.00000000000E+00 0. -1.
         -2   -1    0    0    0  501 -0.00000000000E+00 -0.00000000000E+00 -0.84319358429E+03  0.84319358429E+03  0.00000000000E+00 0.  1.
         23    2    1    2    0    0 -0.53458768738E+03 -0.96147195030E+03 -0.32095336746E+03  0.11499179062E+04  0.95330059751E+02 0.  0.
         13    1    3    3    0    0 -0.27265479209E+03 -0.56371409175E+03 -0.14996790536E+03  0.64389796204E+03  0.00000000000E+00 0. -1.
        -13    1    3    3    0    0 -0.26193289529E+03 -0.39775785855E+03 -0.17098546209E+03  0.50601994419E+03  0.00000000000E+00 0.  1.
         22    1    1    2    0    0  0.53458768738E+03  0.96147195030E+03  0.26999521458E+04  0.29154680407E+04  0.00000000000E+00 0. -1.
<mgrwt>
<rscale>  0 0.32966237E+04</rscale>
<asrwt>0</asrwt>
<pdfrwt beam="1">  1        2 0.49572190E+00 0.32966237E+04</pdfrwt>
<pdfrwt beam="2">  1       -2 0.12972209E+00 0.32966237E+04</pdfrwt>
<totfact> 0.45702905E-01</totfact>
</mgrwt>
</event>
<event>
 6    1  0.9512547E-007  0.8721746E+03  0.7818608E-02  0.9461049E-01
         -1   -1    0    0    0  501 -0.00000000000E+00  0.00000000000E+00  0.81126283250E+02  0.81126283250E+02  0.00000000000E+00 0.  1.
          1   -1    0    0  501    0  0.00000000000E+00 -0.00000000000E+00 -0.23441497084E+04  0.23441497084E+04  0.00000000000E+00 0. -1.
         23    2    1    2    0    0 -0.81948302835E+02  0.18968041565E+01 -0.23213905186E+04  0.23246487598E+04  0.91753990470E+02 0.  0.
         11    1    3    3    0    0 -0.51960124815E+02  0.39743413311E+02 -0.87032768257E+03  0.87278271553E+03  0.00000000000E+00 0. -1.
        -11    1    3    3    0    0 -0.29988178020E+02 -0.37846609154E+02 -0.14510628360E+04  0.14518660443E+04  0.00000000000E+00 0.  1.
         22    1    1    2    0    0  0.81948302835E+02 -0.18968041565E+01  0.58367093363E+02  0.10062723186E+03  0.00000000000E+00 0.  1.
<mgrwt>
<rscale>  0 0.87217465E+03</rscale>
<asrwt>0</asrwt>
<pdfrwt beam="1">  1        1 0.36063845E+00 0.87217465E+03</pdfrwt>
<pdfrwt beam="2">  1       -1 0.12480965E-01 0.87217465E+03</pdfrwt>
<totfact> 0.78868383E+01</totfact>
</mgrwt>
</event>
<event>
 6    1  0.9512547E-007  0.2043212E+04  0.7818608E-02  0.8586680E-01
         -2   -1    0    0    0  501 -0.00000000000E+00  0.00000000000E+00  0.73371213917E+03  0.73371213917E+03  0.00000000000E+00 0.  1.
          2   -1    0    0  501    0  0.00000000000E+00 -0.00000000000E+00 -0.14224632574E+04  0.14224632574E+04  0.00000000000E+00 0. -1.
         23    2    1    2    0    0 -0.21663782881E+03  0.44865899260E+03 -0.12837531870E+04  0.13801249456E+04  0.92172553541E+02 0.  0.
         11    1    3    3    0    0 -0.17255363303E+03  0.30708201698E+03 -0.99528053669E+03  0.10557733981E+04  0.00000000000E+00 0. -1.
        -11    1    3    3    0    0 -0.44084195779E+02  0.14157697562E+03 -0.28847265036E+03  0.32435154748E+03  0.00000000000E+00 0.  1.
         22    1    1    2    0    0  0.21663782881E+03 -0.44865899260E+03  0.59500206885E+03  0.77605045097E+03  0.00000000000E+00 0.  1.
<mgrwt>
<rscale>  0 0.20432117E+04</rscale>
<asrwt>0</asrwt>
<pdfrwt beam="1">  1        2 0.21884050E+00 0.20432117E+04</pdfrwt>
<pdfrwt beam="2">  1       -2 0.11287879E+00 0.20432117E+04</pdfrwt>
<totfact> 0.80269840E+00</totfact>
</mgrwt>
</event>
<event>
 6    1  0.9512547E-007  0.1239293E+04  0.7818608E-02  0.9079142E-01
          2   -1    0    0  501    0  0.00000000000E+00  0.00000000000E+00  0.11634447563E+04  0.11634447563E+04  0.00000000000E+00 0. -1.
         -2   -1    0    0    0  501 -0.00000000000E+00 -0.00000000000E+00 -0.33002169433E+03  0.33002169433E+03  0.00000000000E+00 0.  1.
         23    2    1    2    0    0  0.52966762010E+03 -0.56151002185E+02  0.79224074694E+03  0.95924111807E+03  0.93794448990E+02 0.  0.
         11    1    3    3    0    0  0.18493843452E+03 -0.45501558695E+02  0.34944003345E+03  0.39797104592E+03  0.00000000000E+00 0.  1.
        -11    1    3    3    0    0  0.34472918557E+03 -0.10649443490E+02  0.44280071348E+03  0.56127007215E+03  0.00000000000E+00 0. -1.
         22    1    1    2    0    0 -0.52966762010E+03  0.56151002185E+02  0.41182314990E+02  0.53422533251E+03  0.00000000000E+00 0.  1.
<mgrwt>
<rscale>  0 0.12392934E+04</rscale>
<asrwt>0</asrwt>
<pdfrwt beam="1">  1        2 0.17899150E+00 0.12392934E+04</pdfrwt>
<pdfrwt beam="2">  1       -2 0.50772569E-01 0.12392934E+04</pdfrwt>
<totfact> 0.71901198E+01</totfact>
</mgrwt>
</event>
<event>
 6    1  0.9512547E-007  0.2996168E+04  0.7818608E-02  0.8244826E-01
         -2   -1    0    0    0  501 -0.00000000000E+00  0.00000000000E+00  0.90436297326E+03  0.90436297326E+03  0.00000000000E+00 0.  1.
          2   -1    0    0  501    0  0.00000000000E+00 -0.00000000000E+00 -0.24815869448E+04  0.24815869448E+04  0.00000000000E+00 0. -1.
         23    2    1    2    0    0 -0.10059778816E+04  0.85970450606E+03 -0.15798109893E+04  0.20626623346E+04  0.87691553420E+02 0.  0.
         11    1    3    3    0    0 -0.21306500508E+03  0.13765931683E+03 -0.31284125493E+03  0.40276101436E+03  0.00000000000E+00 0.  1.
        -11    1    3    3    0    0 -0.79291287654E+03  0.72204518923E+03 -0.12669697344E+04  0.16599013202E+04  0.00000000000E+00 0. -1.
         22    1    1    2    0    0  0.10059778816E+04 -0.85970450606E+03  0.25870177309E+01  0.13232875835E+04  0.00000000000E+00 0.  1.
<mgrwt>
<rscale>  0 0.29961678E+04</rscale>
<asrwt>0</asrwt>
<pdfrwt beam="1">  1        2 0.38178260E+00 0.29961678E+04</pdfrwt>
<pdfrwt beam="2">  1       -2 0.13913277E+00 0.29961678E+04</pdfrwt>
<totfact> 0.11148678E+00</totfact>
</mgrwt>
</event>
<event>
 6    1  0.9512547E-007  0.3182330E+04  0.7818608E-02  0.8193499E-01
         -1   -1    0    0    0  501 -0.00000000000E+00  0.00000000000E+00  0.19673858774E+04  0.19673858774E+04  0.00000000000E+00 0.  1.
          1   -1    0    0  501    0  0.00000000000E+00 -0.00000000000E+00 -0.12868885314E+04  0.12868885314E+04  0.00000000000E+00 0. -1.
         23    2    1    2    0    0  0.69942359528E+03 -0.11312744931E+02  0.18004973254E+04  0.19337740122E+04  0.91487528226E+02 0.  0.
         11    1    3    3    0    0  0.53685112981E+03  0.21918681707E+02  0.14380966265E+04  0.15351910211E+04  0.00000000000E+00 0. -1.
        -11    1    3    3    0    0  0.16257246548E+03 -0.33231426638E+02  0.36240069884E+03  0.39858299106E+03  0.00000000000E+00 0.  1.
         22    1    1    2    0    0 -0.69942359528E+03  0.11312744931E+02 -0.11199999793E+04  0.13205003966E+04  0.00000000000E+00 0. -1.
<mgrwt>
<rscale>  0 0.31823302E+04</rscale>
<asrwt>0</asrwt>
<pdfrwt beam="1">  1        1 0.19798285E+00 0.31823302E+04</pdfrwt>
<pdfrwt beam="2">  1       -1 0.30267475E+00 0.31823302E+04</pdfrwt>
<totfact> 0.24573003E-01</totfact>
</mgrwt>
</event>
<event>
 6    1  0.1058871E-006  0.2662182E+04  0.7818608E-02  0.8347381E-01
          1   -1    0    0  501    0  0.00000000000E+00  0.00000000000E+00  0.90260765045E+03  0.90260765045E+03  0.00000000000E+00 0. -1.
         -1   -1    0    0    0  501 -0.00000000000E+00 -0.00000000000E+00 -0.19629820584E+04  0.19629820584E+04  0.00000000000E+00 0.  1.
         23    2    1    2    0    0  0.45928573079E+03  0.88729291131E+01 -0.18737842084E+04  0.19314282588E+04  0.91245535396E+02 0.  0.
         13    1    3    3    0    0  0.19273491622E+03  0.36346127864E+02 -0.66622228942E+03  0.69449256861E+03  0.00000000000E+00 0. -1.
        -13    1    3    3    0    0  0.26655081457E+03 -0.27473198751E+02 -0.12075619190E+04  0.12369356902E+04  0.00000000000E+00 0.  1.
         22    1    1    2    0    0 -0.45928573079E+03 -0.88729291131E+01  0.81340980044E+03  0.93416145009E+03  0.00000000000E+00 0. -1.
<mgrwt>
<rscale>  0 0.26621815E+04</rscale>
<asrwt>0</asrwt>
<pdfrwt beam="1">  1        1 0.13886272E+00 0.26621815E+04</pdfrwt>
<pdfrwt beam="2">  1       -1 0.30199724E+00 0.26621815E+04</pdfrwt>
<totfact> 0.50844286E-01</totfact>
</mgrwt>
</event>
<event>
 6    1  0.9512547E-007  0.3937898E+04  0.7818608E-02  0.8017193E-01
         -2   -1    0    0    0  501 -0.00000000000E+00  0.00000000000E+00  0.17428699157E+04  0.17428699157E+04  0.00000000000E+00 0.  1.
          2   -1    0    0  501    0  0.00000000000E+00 -0.00000000000E+00 -0.22243537290E+04  0.22243537290E+04  0.00000000000E+00 0. -1.
         23    2    1    2    0    0  0.11502768295E+04  0.14843549789E+04 -0.83348533052E+03  0.20566343231E+04  0.92738638983E+02 0.  0.
         11    1    3    3    0    0  0.36741734208E+03  0.53690919264E+03 -0.31221431653E+03  0.72162647114E+03  0.00000000000E+00 0. -1.
        -11    1    3    3    0    0  0.78285948740E+03  0.94744578621E+03 -0.52127101398E+03  0.13350078520E+04  0.00000000000E+00 0.  1.
         22    1    1    2    0    0 -0.11502768295E+04 -0.14843549789E+04  0.35200151722E+03  0.19105893216E+04  0.00000000000E+00 0.  1.
<mgrwt>
<rscale>  0 0.39378975E+04</rscale>
<asrwt>0</asrwt>
<pdfrwt beam="1">  1        2 0.34220827E+00 0.39378975E+04</pdfrwt>
<pdfrwt beam="2">  1       -2 0.26813383E+00 0.39378975E+04</pdfrwt>
<totfact> 0.19738472E-01</totfact>
</mgrwt>
</event>
<event>
 6    1  0.9512547E-007  0.1654867E+04  0.7818608E-02  0.8787533E-01
          2   -1    0    0  501    0  0.00000000000E+00  0.00000000000E+00  0.68018919308E+03  0.68018919308E+03  0.00000000000E+00 0. -1.
         -2   -1    0    0    0  501 -0.00000000000E+00 -0.00000000000E+00 -0.10065522949E+04  0.10065522949E+04  0.00000000000E+00 0.  1.
         23    2    1    2    0    0  0.48720950359E+03 -0.42817427819E+03  0.35547753387E+03  0.74567137083E+03  0.94631935931E+02 0.  0.
         11    1    3    3    0    0  0.19836641588E+03 -0.11838655480E+03  0.14450800712E+03  0.27248334890E+03  0.00000000000E+00 0. -1.
        -11    1    3    3    0    0  0.28884308771E+03 -0.30978772339E+03  0.21096952675E+03  0.47318802193E+03  0.00000000000E+00 0.  1.
         22    1    1    2    0    0 -0.48720950359E+03  0.42817427819E+03 -0.68184063567E+03  0.94107011712E+03  0.00000000000E+00 0.  1.
<mgrwt>
<rscale>  0 0.16548668E+04</rscale>
<asrwt>0</asrwt>
<pdfrwt beam="1">  1        2 0.10464449E+00 0.16548668E+04</pdfrwt>
<pdfrwt beam="2">  1       -2 0.15485420E+00 0.16548668E+04</pdfrwt>
<totfact> 0.11158238E+01</totfact>
</mgrwt>
</event>
<event>
 6    1  0.9512547E-007  0.2149655E+04  0.7818608E-02  0.8539680E-01
          2   -1    0    0  501    0  0.00000000000E+00  0.00000000000E+00  0.20780189501E+04  0.20780189501E+04  0.00000000000E+00 0. -1.
         -2   -1    0    0    0  501 -0.00000000000E+00 -0.00000000000E+00 -0.55593990899E+03  0.55593990899E+03  0.00000000000E+00 0.  1.
         23    2    1    2    0    0 -0.20032463585E+03  0.96869895979E+03  0.25301543989E+03  0.10249125396E+04  0.89001497313E+02 0.  0.
         13    1    3    3    0    0 -0.51747475810E+02  0.46057703279E+03  0.13104286755E+03  0.48164430602E+03  0.00000000000E+00 0. -1.
        -13    1    3    3    0    0 -0.14857716004E+03  0.50812192700E+03  0.12197257234E+03  0.54326823355E+03  0.00000000000E+00 0.  1.
         22    1    1    2    0    0  0.20032463585E+03 -0.96869895979E+03  0.12690636012E+04  0.16090463195E+04  0.00000000000E+00 0. -1.
<mgrwt>
<rscale>  0 0.21496545E+04</rscale>
<asrwt>0</asrwt>
<pdfrwt beam="1">  1        2 0.31969522E+00 0.21496545E+04</pdfrwt>
<pdfrwt beam="2">  1       -2 0.85529218E-01 0.21496545E+04</pdfrwt>
<totfact> 0.65898318E+00</totfact>
</mgrwt>
</event>
<event>
 6    1  0.9512547E-007  0.3664277E+03  0.7818608E-02  0.1056067E+00
          4   -1    0    0  501    0  0.00000000000E+00  0.00000000000E+00  0.10009997473E+04  0.10009997473E+04  0.00000000000E+00 0. -1.
         -4   -1    0    0    0  501 -0.00000000000E+00 -0.00000000000E+00 -0.33533794148E+02  0.33533794148E+02  0.00000000000E+00 0.  1.
         23    2    1    2    0    0  0.82964954192E+02 -0.81326964647E+02  0.87104539861E+03  0.88355611883E+03  0.91946016135E+02 0.  0.
         11    1    3    3    0    0  0.12442581741E+02 -0.56678133786E+02  0.58663211252E+03  0.58949509254E+03  0.00000000000E+00 0.  1.
        -11    1    3    3    0    0  0.70522372451E+02 -0.24648830861E+02  0.28441328608E+03  0.29406102628E+03  0.00000000000E+00 0. -1.
         22    1    1    2    0    0 -0.82964954192E+02  0.81326964647E+02  0.96420554557E+02  0.15097742263E+03  0.00000000000E+00 0.  1.
<mgrwt>
<rscale>  0 0.36642773E+03</rscale>
<asrwt>0</asrwt>
<pdfrwt beam="1">  1        4 0.15399994E+00 0.36642773E+03</pdfrwt>
<pdfrwt beam="2">  1       -4 0.51590460E-02 0.36642773E+03</pdfrwt>
<totfact> 0.12839360E+02</totfact>
</mgrwt>
</event>
<event>
 6    1  0.9512547E-007  0.1028954E+04  0.7818608E-02  0.9277346E-01
          2   -1    0    0  501    0  0.00000000000E+00  0.00000000000E+00  0.26646636245E+04  0.26646636245E+04  0.00000000000E+00 0. -1.
         -2   -1    0    0    0  501 -0.00000000000E+00 -0.00000000000E+00 -0.99332123992E+02  0.99332123992E+02  0.00000000000E+00 0.  1.
         23    2    1    2    0    0 -0.49571901821E+03  0.12112805656E+03  0.12905087048E+04  0.13908306049E+04  0.92669861740E+02 0.  0.
         13    1    3    3    0    0 -0.23903045305E+03  0.46203317393E+02  0.73589271341E+03  0.77511830689E+03  0.00000000000E+00 0. -1.
        -13    1    3    3    0    0 -0.25668856516E+03  0.74924739167E+02  0.55461599138E+03  0.61571229801E+03  0.00000000000E+00 0.  1.
         22    1    1    2    0    0  0.49571901821E+03 -0.12112805656E+03  0.12748227957E+04  0.13731651436E+04  0.00000000000E+00 0. -1.
<mgrwt>
<rscale>  0 0.10289542E+04</rscale>
<asrwt>0</asrwt>
<pdfrwt beam="1">  1        2 0.40994820E+00 0.10289542E+04</pdfrwt>
<pdfrwt beam="2">  1       -2 0.15281867E-01 0.10289542E+04</pdfrwt>
<totfact> 0.95918076E+01</totfact>
</mgrwt>
</event>
<event>
 6    1  0.9512547E-007  0.2687522E+04  0.7818608E-02  0.8339065E-01
         -2   -1    0    0    0  501 -0.00000000000E+00  0.00000000000E+00  0.28338061046E+04  0.28338061046E+04  0.00000000000E+00 0.  1.
          2   -1    0    0  501    0  0.00000000000E+00 -0.00000000000E+00 -0.63719726255E+03  0.63719726255E+03  0.00000000000E+00 0. -1.
         23    2    1    2    0    0  0.26262665145E+03  0.54419741617E+03 -0.44811989086E+03  0.75812414823E+03  0.93899955949E+02 0.  0.
         13    1    3    3    0    0  0.96077779795E+02  0.23476849647E+03 -0.24276958783E+03  0.35111858322E+03  0.00000000000E+00 0. -1.
        -13    1    3    3    0    0  0.16654887166E+03  0.30942891970E+03 -0.20535030302E+03  0.40700556501E+03  0.00000000000E+00 0.  1.
         22    1    1    2    0    0 -0.26262665145E+03 -0.54419741617E+03  0.26447287329E+04  0.27128792189E+04  0.00000000000E+00 0.  1.
<mgrwt>
<rscale>  0 0.26875219E+04</rscale>
<asrwt>0</asrwt>
<pdfrwt beam="1">  1        2 0.98030349E-01 0.26875219E+04</pdfrwt>
<pdfrwt beam="2">  1       -2 0.43597016E+00 0.26875219E+04</pdfrwt>
<totfact> 0.17380303E-01</totfact>
</mgrwt>
</event>
<event>
 6    1  0.9645974E-007  0.4344786E+04  0.7818608E-02  0.7938388E-01
          1   -1    0    0  501    0  0.00000000000E+00  0.00000000000E+00  0.23649948601E+04  0.23649948601E+04  0.00000000000E+00 0. -1.
         -1   -1    0    0    0  501 -0.00000000000E+00 -0.00000000000E+00 -0.19954759607E+04  0.19954759607E+04  0.00000000000E+00 0.  1.
         23    2    1    2    0    0  0.68106244654E+03  0.43840750244E+03 -0.18371369775E+04  0.20098586976E+04  0.91719769651E+02 0.  0.
         11    1    3    3    0    0  0.32050387232E+03  0.19213566391E+03 -0.73920822623E+03  0.82829200602E+03  0.00000000000E+00 0.  1.
        -11    1    3    3    0    0  0.36055857422E+03  0.24627183853E+03 -0.10979287513E+04  0.11815666916E+04  0.00000000000E+00 0. -1.
         22    1    1    2    0    0 -0.68106244654E+03 -0.43840750244E+03  0.22066558769E+04  0.23506121231E+04  0.00000000000E+00 0. -1.
<mgrwt>
<rscale>  0 0.43447856E+04</rscale>
<asrwt>0</asrwt>
<pdfrwt beam="1">  1        1 0.36384537E+00 0.43447856E+04</pdfrwt>
<pdfrwt beam="2">  1       -1 0.30699630E+00 0.43447856E+04</pdfrwt>
<totfact> 0.38014242E-02</totfact>
</mgrwt>
</event>
<event>
 6    1  0.9512547E-007  0.3366148E+04  0.7818608E-02  0.8146265E-01
         -1   -1    0    0    0  501 -0.00000000000E+00  0.00000000000E+00  0.14135299833E+04  0.14135299833E+04  0.00000000000E+00 0.  1.
          1   -1    0    0  501    0  0.00000000000E+00 -0.00000000000E+00 -0.20040164857E+04  0.20040164857E+04  0.00000000000E+00 0. -1.
         23    2    1    2    0    0  0.74010320878E+03 -0.65261771789E+03 -0.16782173116E+04  0.19489345534E+04  0.90939009290E+02 0.  0.
         11    1    3    3    0    0  0.12910142645E+03 -0.16292347896E+03 -0.34593117382E+03  0.40358346761E+03  0.00000000000E+00 0.  1.
        -11    1    3    3    0    0  0.61100178233E+03 -0.48969423893E+03 -0.13322861377E+04  0.15453510858E+04  0.00000000000E+00 0. -1.
         22    1    1    2    0    0 -0.74010320878E+03  0.65261771789E+03  0.10877308092E+04  0.14686119156E+04  0.00000000000E+00 0.  1.
<mgrwt>
<rscale>  0 0.33661476E+04</rscale>
<asrwt>0</asrwt>
<pdfrwt beam="1">  1        1 0.30831023E+00 0.33661476E+04</pdfrwt>
<pdfrwt beam="2">  1       -1 0.21746615E+00 0.33661476E+04</pdfrwt>
<totfact> 0.27964060E-01</totfact>
</mgrwt>
</event>
<event>
 6    1  0.9512547E-007  0.1482359E+04  0.7818608E-02  0.8896270E-01
          1   -1    0    0  501    0  0.00000000000E+00  0.00000000000E+00  0.11307743120E+04  0.11307743120E+04  0.00000000000E+00 0. -1.
         -1   -1    0    0    0  501 -0.00000000000E+00 -0.00000000000E+00 -0.48581463771E+03  0.48581463771E+03  0.00000000000E+00 0.  1.
         23    2    1    2    0    0 -0.52368013005E+03 -0.17117498434E+03 -0.21257816802E+03  0.59731817859E+03  0.89765110617E+02 0.  0.
         13    1    3    3    0    0 -0.37135983877E+03 -0.96324137968E+02 -0.11040662562E+03  0.39921935372E+03  0.00000000000E+00 0. -1.
        -13    1    3    3    0    0 -0.15232029128E+03 -0.74850846372E+02 -0.10217154240E+03  0.19809882487E+03  0.00000000000E+00 0.  1.
         22    1    1    2    0    0  0.52368013005E+03  0.17117498434E+03  0.85753784234E+03  0.10192707711E+04  0.00000000000E+00 0. -1.
<mgrwt>
<rscale>  0 0.14823585E+04</rscale>
<asrwt>0</asrwt>
<pdfrwt beam="1">  1        1 0.17396528E+00 0.14823585E+04</pdfrwt>
<pdfrwt beam="2">  1       -1 0.74740714E-01 0.14823585E+04</pdfrwt>
<totfact> 0.20976254E+01</totfact>
</mgrwt>
</event>
<event>
 6    1  0.9512547E-007  0.1266292E+04  0.7818608E-02  0.9056732E-01
          1   -1    0    0  501    0  0.00000000000E+00  0.00000000000E+00  0.25163861868E+04  0.25163861868E+04  0.00000000000E+00 0. -1.
         -1   -1    0    0    0  501 -0.00000000000E+00 -0.00000000000E+00 -0.15930533078E+03  0.15930533078E+03  0.00000000000E+00 0.  1.
         23    2    1    2    0    0 -0.23922701374E+03 -0.54838474415E+03  0.15996892726E+04  0.17104985823E+04  0.94043816377E+02 0.  0.
         11    1    3    3    0    0 -0.22056062494E+03 -0.41081979524E+03  0.12017994656E+04  0.12890856639E+04  0.00000000000E+00 0. -1.
        -11    1    3    3    0    0 -0.18666388806E+02 -0.13756494891E+03  0.39788980703E+03  0.42141291838E+03  0.00000000000E+00 0.  1.
         22    1    1    2    0    0  0.23922701374E+03  0.54838474415E+03  0.75739158342E+03  0.96519293531E+03  0.00000000000E+00 0.  1.
<mgrwt>
<rscale>  0 0.12662918E+04</rscale>
<asrwt>0</asrwt>
<pdfrwt beam="1">  1        1 0.38713631E+00 0.12662918E+04</pdfrwt>
<pdfrwt beam="2">  1       -1 0.24508514E-01 0.12662918E+04</pdfrwt>
<totfact> 0.18938255E+01</totfact>
</mgrwt>
</event>
<event>
 6    1  0.9512547E-007  0.2318321E+04  0.7818608E-02  0.8470732E-01
         -2   -1    0    0    0  501 -0.00000000000E+00  0.00000000000E+00  0.47324103305E+03  0.47324103305E+03  0.00000000000E+00 0.  1.
          2   -1    0    0  501    0  0.00000000000E+00 -0.00000000000E+00 -0.28392583425E+04  0.28392583425E+04  0.00000000000E+00 0. -1.
         23    2    1    2    0    0 -0.53453418083E+03  0.73898581820E+03 -0.16716526924E+03  0.93200003199E+03  0.94090394868E+02 0.  0.
         13    1    3    3    0    0 -0.26865137581E+03  0.33620946176E+03 -0.12173064800E+03  0.44724569821E+03  0.00000000000E+00 0.  1.
        -13    1    3    3    0    0 -0.26588280502E+03  0.40277635644E+03 -0.45434621244E+02  0.48475433378E+03  0.00000000000E+00 0. -1.
         22    1    1    2    0    0  0.53453418083E+03 -0.73898581820E+03 -0.21988520402E+04  0.23804993435E+04  0.00000000000E+00 0. -1.
<mgrwt>
<rscale>  0 0.23183214E+04</rscale>
<asrwt>0</asrwt>
<pdfrwt beam="1">  1        2 0.43680897E+00 0.23183214E+04</pdfrwt>
<pdfrwt beam="2">  1       -2 0.72806313E-01 0.23183214E+04</pdfrwt>
<totfact> 0.33801069E+00</totfact>
</mgrwt>
</event>
<event>
 6    1  0.9512547E-007  0.8084014E+03  0.7818608E-02  0.9547935E-01
          1   -1    0    0  501    0  0.00000000000E+00  0.00000000000E+00  0.23447731861E+03  0.23447731861E+03  0.00000000000E+00 0. -1.
         -1   -1    0    0    0  501 -0.00000000000E+00 -0.00000000000E+00 -0.69677610276E+03  0.69677610276E+03  0.00000000000E+00 0.  1.
         23    2    1    2    0    0 -0.21602985206E+03 -0.33057122923E+03 -0.30295124732E+03  0.50541557422E+03  0.87859033865E+02 0.  0.
         13    1    3    3    0    0 -0.25363422889E+02 -0.94831547196E+01 -0.41511814107E+02  0.49562729490E+02  0.00000000000E+00 0.  1.
        -13    1    3    3    0    0 -0.19066642917E+03 -0.32108807451E+03 -0.26143943322E+03  0.45585284473E+03  0.00000000000E+00 0. -1.
         22    1    1    2    0    0  0.21602985206E+03  0.33057122923E+03 -0.15934753683E+03  0.42583784716E+03  0.00000000000E+00 0. -1.
<mgrwt>
<rscale>  0 0.80840137E+03</rscale>
<asrwt>0</asrwt>
<pdfrwt beam="1">  1        1 0.36073434E-01 0.80840137E+03</pdfrwt>
<pdfrwt beam="2">  1       -1 0.10719632E+00 0.80840137E+03</pdfrwt>
<totfact> 0.99285119E+01</totfact>
</mgrwt>
</event>
<event>
 6    1  0.9512547E-007  0.1771281E+04  0.7818608E-02  0.8721723E-01
         -2   -1    0    0    0  501 -0.00000000000E+00  0.00000000000E+00  0.21786551306E+04  0.21786551306E+04  0.00000000000E+00 0.  1.
          2   -1    0    0  501    0  0.00000000000E+00 -0.00000000000E+00 -0.36001988783E+03  0.36001988783E+03  0.00000000000E+00 0. -1.
         23    2    1    2    0    0  0.97892350563E+02  0.87663647295E+03  0.97769462315E+03  0.13199644114E+04  0.91350168052E+02 0.  0.
         13    1    3    3    0    0  0.59081520216E+02  0.61331058269E+03  0.74169156090E+03  0.96423382453E+03  0.00000000000E+00 0. -1.
        -13    1    3    3    0    0  0.38810830347E+02  0.26332589027E+03  0.23600306225E+03  0.35573058686E+03  0.00000000000E+00 0.  1.
         22    1    1    2    0    0 -0.97892350563E+02 -0.87663647295E+03  0.84094061966E+03  0.12187106071E+04  0.00000000000E+00 0.  1.
<mgrwt>
<rscale>  0 0.17712811E+04</rscale>
<asrwt>0</asrwt>
<pdfrwt beam="1">  1        2 0.55387676E-01 0.17712811E+04</pdfrwt>
<pdfrwt beam="2">  1       -2 0.33517770E+00 0.17712811E+04</pdfrwt>
<totfact> 0.16382423E+00</totfact>
</mgrwt>
</event>
<event>
 6    1  0.9512547E-007  0.2671949E+04  0.7818608E-02  0.8344164E-01
         -1   -1    0    0    0  501 -0.00000000000E+00  0.00000000000E+00  0.25831262412E+04  0.25831262412E+04  0.00000000000E+00 0.  1.
          1   -1    0    0  501    0  0.00000000000E+00 -0.00000000000E+00 -0.69095669142E+03  0.69095669142E+03  0.00000000000E+00 0. -1.
         23    2    1    2    0    0  0.46764990698E+03  0.17716993685E+03 -0.56874339340E+03  0.76287244045E+03  0.91758873412E+02 0.  0.
         13    1    3    3    0    0  0.37741468353E+03  0.10666580549E+03 -0.41287454381E+03  0.56946011829E+03  0.00000000000E+00 0. -1.
        -13    1    3    3    0    0  0.90235223446E+02  0.70504131364E+02 -0.15586884959E+03  0.19341232216E+03  0.00000000000E+00 0.  1.
         22    1    1    2    0    0 -0.46764990698E+03 -0.17716993685E+03  0.24609129432E+04  0.25112104921E+04  0.00000000000E+00 0.  1.
<mgrwt>
<rscale>  0 0.26719494E+04</rscale>
<asrwt>0</asrwt>
<pdfrwt beam="1">  1        1 0.10630103E+00 0.26719494E+04</pdfrwt>
<pdfrwt beam="2">  1       -1 0.39740403E+00 0.26719494E+04</pdfrwt>
<totfact> 0.18119296E-01</totfact>
</mgrwt>
</event>
<event>
 6    1  0.9512547E-007  0.8440492E+04  0.7818608E-02  0.7444744E-01
          2   -1    0    0  501    0  0.00000000000E+00  0.00000000000E+00  0.34429668362E+04  0.34429668362E+04  0.00000000000E+00 0. -1.
         -2   -1    0    0    0  501 -0.00000000000E+00 -0.00000000000E+00 -0.51730025211E+04  0.51730025211E+04  0.00000000000E+00 0.  1.
         23    2    1    2    0    0 -0.34523293000E+04 -0.52345317842E+03  0.15535353769E+04  0.38228055021E+04  0.88254822485E+02 0.  0.
         11    1    3    3    0    0 -0.15666191700E+04 -0.26410796281E+03  0.66823156844E+03  0.17235376610E+04  0.00000000000E+00 0. -1.
        -11    1    3    3    0    0 -0.18857101300E+04 -0.25934521561E+03  0.88530380844E+03  0.20992678411E+04  0.00000000000E+00 0.  1.
         22    1    1    2    0    0  0.34523293000E+04  0.52345317842E+03 -0.32835710617E+04  0.47931638552E+04  0.00000000000E+00 0.  1.
<mgrwt>
<rscale>  0 0.84404920E+04</rscale>
<asrwt>0</asrwt>
<pdfrwt beam="1">  1        2 0.52968721E+00 0.84404920E+04</pdfrwt>
<pdfrwt beam="2">  1       -2 0.79584654E+00 0.84404920E+04</pdfrwt>
<totfact> 0.41946656E-05</totfact>
</mgrwt>
</event>
<event>
 6    1  0.9512547E-007  0.3264830E+04  0.7818608E-02  0.8171903E-01
          1   -1    0    0  501    0  0.00000000000E+00  0.00000000000E+00  0.29024996909E+04  0.29024996909E+04  0.00000000000E+00 0. -1.
         -1   -1    0    0    0  501 -0.00000000000E+00 -0.00000000000E+00 -0.91809757715E+03  0.91809757715E+03  0.00000000000E+00 0.  1.
         23    2    1    2    0    0 -0.36378114705E+03 -0.12608180059E+04  0.21266914058E+04  0.25006559778E+04  0.92006613581E+02 0.  0.
         11    1    3    3    0    0 -0.20699548384E+03 -0.56980351888E+03  0.10200264726E+04  0.11865821443E+04  0.00000000000E+00 0.  1.
        -11    1    3    3    0    0 -0.15678566321E+03 -0.69101448705E+03  0.11066649332E+04  0.13140738335E+04  0.00000000000E+00 0. -1.
         22    1    1    2    0    0  0.36378114705E+03  0.12608180059E+04 -0.14228929203E+03  0.13199412902E+04  0.00000000000E+00 0.  1.
<mgrwt>
<rscale>  0 0.32648295E+04</rscale>
<asrwt>0</asrwt>
<pdfrwt beam="1">  1        1 0.44653841E+00 0.32648295E+04</pdfrwt>
<pdfrwt beam="2">  1       -1 0.14124578E+00 0.32648295E+04</pdfrwt>
<totfact> 0.23956689E-01</totfact>
</mgrwt>
</event>
<event>
 6    1  0.9512547E-007  0.2452970E+04  0.7818608E-02  0.8419935E-01
          2   -1    0    0  501    0  0.00000000000E+00  0.00000000000E+00  0.23320603670E+04  0.23320603670E+04  0.00000000000E+00 0. -1.
         -2   -1    0    0    0  501 -0.00000000000E+00 -0.00000000000E+00 -0.64503683978E+03  0.64503683978E+03  0.00000000000E+00 0.  1.
         23    2    1    2    0    0 -0.19134173020E+03 -0.39153855825E+03 -0.54433945312E+03  0.70357684173E+03  0.93812747957E+02 0.  0.
         13    1    3    3    0    0 -0.13781923757E+03 -0.17879320569E+03 -0.25700560270E+03  0.34207167738E+03  0.00000000000E+00 0. -1.
        -13    1    3    3    0    0 -0.53522492630E+02 -0.21274535256E+03 -0.28733385042E+03  0.36150516435E+03  0.00000000000E+00 0.  1.
         22    1    1    2    0    0  0.19134173020E+03  0.39153855825E+03  0.22313629803E+04  0.22735203650E+04  0.00000000000E+00 0. -1.
<mgrwt>
<rscale>  0 0.24529695E+04</rscale>
<asrwt>0</asrwt>
<pdfrwt beam="1">  1        2 0.35877851E+00 0.24529695E+04</pdfrwt>
<pdfrwt beam="2">  1       -2 0.99236438E-01 0.24529695E+04</pdfrwt>
<totfact> 0.32733848E+00</totfact>
</mgrwt>
</event>
<event>
 6    1  0.9512547E-007  0.1935453E+04  0.7818608E-02  0.8637408E-01
         -1   -1    0    0    0  501 -0.00000000000E+00  0.00000000000E+00  0.11617979311E+04  0.11617979311E+04  0.00000000000E+00 0.  1.
          1   -1    0    0  501    0  0.00000000000E+00 -0.00000000000E+00 -0.80607321577E+03  0.80607321577E+03  0.00000000000E+00 0. -1.
         23    2    1    2    0    0  0.54164771895E+03 -0.79929175659E+03  0.18066541892E+03  0.98659884986E+03  0.92128895242E+02 0.  0.
         11    1    3    3    0    0  0.35936003975E+03 -0.49168675301E+03  0.74145087858E+02  0.61350875732E+03  0.00000000000E+00 0.  1.
        -11    1    3    3    0    0  0.18228767920E+03 -0.30760500358E+03  0.10652033107E+03  0.37309009254E+03  0.00000000000E+00 0. -1.
         22    1    1    2    0    0 -0.54164771895E+03  0.79929175659E+03  0.17505929640E+03  0.98127229700E+03  0.00000000000E+00 0.  1.
<mgrwt>
<rscale>  0 0.19354526E+04</rscale>
<asrwt>0</asrwt>
<pdfrwt beam="1">  1        1 0.12401126E+00 0.19354526E+04</pdfrwt>
<pdfrwt beam="2">  1       -1 0.17873814E+00 0.19354526E+04</pdfrwt>
<totfact> 0.43294099E+00</totfact>
</mgrwt>
</event>
<event>
 6    1  0.9512547E-007  0.1062293E+04  0.7818608E-02  0.9242744E-01
         -1   -1    0    0    0  501 -0.00000000000E+00  0.00000000000E+00  0.33483855856E+03  0.33483855856E+03  0.00000000000E+00 0.  1.
          1   -1    0    0  501    0  0.00000000000E+00 -0.00000000000E+00 -0.84254504074E+03  0.84254504074E+03  0.00000000000E+00 0. -1.
         23    2    1    2    0    0 -0.27602058028E+03  0.16702948997E+03  0.20581362329E+03  0.39431453966E+03  0.95071012388E+02 0.  0.
         13    1    3    3    0    0 -0.18893971723E+03  0.67684425318E+02  0.15158186535E+03  0.25150836980E+03  0.00000000000E+00 0.  1.
        -13    1    3    3    0    0 -0.87080863048E+02  0.99345064649E+02  0.54231757947E+02  0.14280616986E+03  0.00000000000E+00 0. -1.
         22    1    1    2    0    0  0.27602058028E+03 -0.16702948997E+03 -0.71352010547E+03  0.78306905964E+03  0.00000000000E+00 0. -1.
<mgrwt>
<rscale>  0 0.10622929E+04</rscale>
<asrwt>0</asrwt>
<pdfrwt beam="1">  1        1 0.12962231E+00 0.10622929E+04</pdfrwt>
<pdfrwt beam="2">  1       -1 0.51513625E-01 0.10622929E+04</pdfrwt>
<totfact> 0.76937134E+01</totfact>
</mgrwt>
</event>
<event>
 6    1  0.9512547E-007  0.2329458E+04  0.7818608E-02  0.8466396E-01
          2   -1    0    0  501    0  0.00000000000E+00  0.00000000000E+00  0.17959832416E+04  0.17959832416E+04  0.00000000000E+00 0. -1.
         -2   -1    0    0    0  501 -0.00000000000E+00 -0.00000000000E+00 -0.75534867686E+03  0.75534867686E+03  0.00000000000E+00 0.  1.
         23    2    1    2    0    0  0.51474369277E+02  0.66213183179E+03  0.15666609449E+04  0.17041177035E+04  0.92317158536E+02 0.  0.
         11    1    3    3    0    0  0.63164294902E+02  0.26319768024E+03  0.59420261780E+03  0.65294678040E+03  0.00000000000E+00 0.  1.
        -11    1    3    3    0    0 -0.11689925625E+02  0.39893415155E+03  0.97245832712E+03  0.10511709231E+04  0.00000000000E+00 0. -1.
         22    1    1    2    0    0 -0.51474369277E+02 -0.66213183179E+03 -0.52602638018E+03  0.84721421494E+03  0.00000000000E+00 0.  1.
<mgrwt>
<rscale>  0 0.23294579E+04</rscale>
<asrwt>0</asrwt>
<pdfrwt beam="1">  1        2 0.27630511E+00 0.23294579E+04</pdfrwt>
<pdfrwt beam="2">  1       -2 0.11620749E+00 0.23294579E+04</pdfrwt>
<totfact> 0.45090422E+00</totfact>
</mgrwt>
</event>
<event>
 6    1  0.9512547E-007  0.4040867E+04  0.7818608E-02  0.7996353E-01
          2   -1    0    0  501    0  0.00000000000E+00  0.00000000000E+00  0.32023805573E+04  0.32023805573E+04  0.00000000000E+00 0. -1.
         -2   -1    0    0    0  501 -0.00000000000E+00 -0.00000000000E+00 -0.12747241145E+04  0.12747241145E+04  0.00000000000E+00 0.  1.
         23    2    1    2    0    0 -0.11657116569E+04  0.29633426367E+02 -0.86236799916E+03  0.14532002100E+04  0.91380946998E+02 0.  0.
         11    1    3    3    0    0 -0.79548914335E+03 -0.30296895444E+01 -0.54276793414E+03  0.96302086506E+03  0.00000000000E+00 0. -1.
        -11    1    3    3    0    0 -0.37022251356E+03  0.32663115911E+02 -0.31960006501E+03  0.49017934498E+03  0.00000000000E+00 0.  1.
         22    1    1    2    0    0  0.11657116569E+04 -0.29633426367E+02  0.27900244420E+04  0.30239044617E+04  0.00000000000E+00 0. -1.
<mgrwt>
<rscale>  0 0.40408671E+04</rscale>
<asrwt>0</asrwt>
<pdfrwt beam="1">  1        2 0.49267393E+00 0.40408671E+04</pdfrwt>
<pdfrwt beam="2">  1       -2 0.19611140E+00 0.40408671E+04</pdfrwt>
<totfact> 0.14320960E-01</totfact>
</mgrwt>
</event>
<event>
 6    1  0.9512547E-007  0.3286832E+04  0.7818608E-02  0.8166254E-01
         -1   -1    0    0    0  501 -0.00000000000E+00  0.00000000000E+00  0.13181715070E+04  0.13181715070E+04  0.00000000000E+00 0.  1.
          1   -1    0    0  501    0  0.00000000000E+00 -0.00000000000E+00 -0.20489113458E+04  0.20489113458E+04  0.00000000000E+00 0. -1.
         23    2    1    2    0    0 -0.13529331670E+04 -0.26063475937E+03 -0.12808880837E+04  0.18834987724E+04  0.92383495163E+02 0.  0.
         11    1    3    3    0    0 -0.30770792323E+03 -0.42487811002E+02 -0.24230564169E+03  0.39395609412E+03  0.00000000000E+00 0. -1.
        -11    1    3    3    0    0 -0.10452252438E+04 -0.21814694837E+03 -0.10385824420E+04  0.14895426782E+04  0.00000000000E+00 0.  1.
         22    1    1    2    0    0  0.13529331670E+04  0.26063475937E+03  0.55014824491E+03  0.14835840804E+04  0.00000000000E+00 0.  1.
<mgrwt>
<rscale>  0 0.32868322E+04</rscale>
<asrwt>0</asrwt>
<pdfrwt beam="1">  1        1 0.31521713E+00 0.32868322E+04</pdfrwt>
<pdfrwt beam="2">  1       -1 0.20279562E+00 0.32868322E+04</pdfrwt>
<totfact> 0.33012008E-01</totfact>
</mgrwt>
</event>
<event>
 6    1  0.9512547E-007  0.4188306E+04  0.7818608E-02  0.7967600E-01
         -2   -1    0    0    0  501 -0.00000000000E+00  0.00000000000E+00  0.25172931899E+04  0.25172931899E+04  0.00000000000E+00 0.  1.
          2   -1    0    0  501    0  0.00000000000E+00 -0.00000000000E+00 -0.17421396483E+04  0.17421396483E+04  0.00000000000E+00 0. -1.
         23    2    1    2    0    0  0.31733695521E+03 -0.12239382010E+04  0.20841984393E+04  0.24394531660E+04  0.91220344996E+02 0.  0.
         13    1    3    3    0    0  0.12807742184E+03 -0.36661024306E+03  0.58744383913E+03  0.70419965949E+03  0.00000000000E+00 0.  1.
        -13    1    3    3    0    0  0.18925953337E+03 -0.85732795793E+03  0.14967546002E+04  0.17352535065E+04  0.00000000000E+00 0. -1.
         22    1    1    2    0    0 -0.31733695521E+03  0.12239382010E+04 -0.13090448977E+04  0.18199796722E+04  0.00000000000E+00 0. -1.
<mgrwt>
<rscale>  0 0.41883058E+04</rscale>
<asrwt>0</asrwt>
<pdfrwt beam="1">  1        2 0.26802148E+00 0.41883058E+04</pdfrwt>
<pdfrwt beam="2">  1       -2 0.38727588E+00 0.41883058E+04</pdfrwt>
<totfact> 0.64838705E-02</totfact>
</mgrwt>
</event>
<event>
 6    1  0.9512547E-007  0.2036087E+04  0.7818608E-02  0.8589932E-01
          2   -1    0    0  501    0  0.00000000000E+00  0.00000000000E+00  0.15305815441E+04  0.15305815441E+04  0.00000000000E+00 0. -1.
         -2   -1    0    0    0  501 -0.00000000000E+00 -0.00000000000E+00 -0.67713660858E+03  0.67713660858E+03  0.00000000000E+00 0.  1.
         23    2    1    2    0    0 -0.29483278727E+02  0.65468346311E+03 -0.41426670005E+03  0.78063283933E+03  0.91055095846E+02 0.  0.
         11    1    3    3    0    0 -0.52142422731E+02  0.60249461119E+03 -0.37876466562E+03  0.71356938042E+03  0.00000000000E+00 0. -1.
        -11    1    3    3    0    0  0.22659144004E+02  0.52188851929E+02 -0.35502034432E+02  0.67063458913E+02  0.00000000000E+00 0.  1.
         22    1    1    2    0    0  0.29483278727E+02 -0.65468346311E+03  0.12677116356E+04  0.14270853134E+04  0.00000000000E+00 0. -1.
<mgrwt>
<rscale>  0 0.20360872E+04</rscale>
<asrwt>0</asrwt>
<pdfrwt beam="1">  1        2 0.23547408E+00 0.20360872E+04</pdfrwt>
<pdfrwt beam="2">  1       -2 0.10417486E+00 0.20360872E+04</pdfrwt>
<totfact> 0.84668700E+00</totfact>
</mgrwt>
</event>
<event>
 6    1  0.9512547E-007  0.1208286E+04  0.7818608E-02  0.9105635E-01
          2   -1    0    0  501    0  0.00000000000E+00  0.00000000000E+00  0.48213357091E+03  0.48213357091E+03  0.00000000000E+00 0. -1.
         -2   -1    0    0    0  501 -0.00000000000E+00 -0.00000000000E+00 -0.75702830387E+03  0.75702830387E+03  0.00000000000E+00 0.  1.
         23    2    1    2    0    0 -0.46077885895E+03  0.13230094299E+03 -0.51020177823E+03  0.70512994510E+03  0.84152769416E+02 0.  0.
         13    1    3    3    0    0 -0.10898477315E+03  0.18539039019E+02 -0.16946240582E+03  0.20233359516E+03  0.00000000000E+00 0. -1.
        -13    1    3    3    0    0 -0.35179408580E+03  0.11376190397E+03 -0.34073937241E+03  0.50279634994E+03  0.00000000000E+00 0.  1.
         22    1    1    2    0    0  0.46077885895E+03 -0.13230094299E+03  0.23530704527E+03  0.53403192968E+03  0.00000000000E+00 0. -1.
<mgrwt>
<rscale>  0 0.12082860E+04</rscale>
<asrwt>0</asrwt>
<pdfrwt beam="1">  1        2 0.74174396E-01 0.12082860E+04</pdfrwt>
<pdfrwt beam="2">  1       -2 0.11646589E+00 0.12082860E+04</pdfrwt>
<totfact> 0.36207486E+01</totfact>
</mgrwt>
</event>
<event>
 6    1  0.9512547E-007  0.1104786E+04  0.7818608E-02  0.9200540E-01
          2   -1    0    0  501    0  0.00000000000E+00  0.00000000000E+00  0.17875494093E+04  0.17875494093E+04  0.00000000000E+00 0. -1.
         -2   -1    0    0    0  501 -0.00000000000E+00 -0.00000000000E+00 -0.17070182818E+03  0.17070182818E+03  0.00000000000E+00 0.  1.
         23    2    1    2    0    0  0.42519216769E+03 -0.15929078310E+03  0.26780406298E+03  0.53484674582E+03  0.90443862815E+02 0.  0.
         11    1    3    3    0    0  0.15418530665E+03 -0.46101563797E+02  0.47769097605E+02  0.16787003800E+03  0.00000000000E+00 0. -1.
        -11    1    3    3    0    0  0.27100686104E+03 -0.11318921930E+03  0.22003496538E+03  0.36697670782E+03  0.00000000000E+00 0.  1.
         22    1    1    2    0    0 -0.42519216769E+03  0.15929078310E+03  0.13490435181E+04  0.14234044916E+04  0.00000000000E+00 0. -1.
<mgrwt>
<rscale>  0 0.11047859E+04</rscale>
<asrwt>0</asrwt>
<pdfrwt beam="1">  1        2 0.27500759E+00 0.11047859E+04</pdfrwt>
<pdfrwt beam="2">  1       -2 0.26261821E-01 0.11047859E+04</pdfrwt>
<totfact> 0.11418030E+02</totfact>
</mgrwt>
</event>
<event>
 6    1  0.9512547E-007  0.1514005E+04  0.7818608E-02  0.8875193E-01
         -1   -1    0    0    0  501 -0.00000000000E+00  0.00000000000E+00  0.44886634193E+03  0.44886634193E+03  0.00000000000E+00 0.  1.
          1   -1    0    0  501    0  0.00000000000E+00 -0.00000000000E+00 -0.12766665739E+04  0.12766665739E+04  0.00000000000E+00 0. -1.
         23    2    1    2    0    0  0.70850543187E+03 -0.19212796488E+03 -0.61230187997E+03  0.96046256505E+03  0.93175344265E+02 0.  0.
         13    1    3    3    0    0  0.63853889213E+03 -0.14289134255E+03 -0.54640971871E+03  0.85247488716E+03  0.00000000000E+00 0.  1.
        -13    1    3    3    0    0  0.69966539738E+02 -0.49236622327E+02 -0.65892161254E+02  0.10798767789E+03  0.00000000000E+00 0. -1.
         22    1    1    2    0    0 -0.70850543187E+03  0.19212796488E+03 -0.21549835197E+03  0.76507035074E+03  0.00000000000E+00 0.  1.
<mgrwt>
<rscale>  0 0.15140048E+04</rscale>
<asrwt>0</asrwt>
<pdfrwt beam="1">  1        1 0.19641024E+00 0.15140048E+04</pdfrwt>
<pdfrwt beam="2">  1       -1 0.69056361E-01 0.15140048E+04</pdfrwt>
<totfact> 0.19272101E+01</totfact>
</mgrwt>
</event>
<event>
 6    1  0.9512547E-007  0.1481886E+04  0.7818608E-02  0.8896588E-01
         -2   -1    0    0    0  501 -0.00000000000E+00  0.00000000000E+00  0.80187373205E+03  0.80187373205E+03  0.00000000000E+00 0.  1.
          2   -1    0    0  501    0  0.00000000000E+00 -0.00000000000E+00 -0.68464242492E+03  0.68464242492E+03  0.00000000000E+00 0. -1.
         23    2    1    2    0    0 -0.17514535878E+03  0.35425395552E+03 -0.56661940089E+03  0.69669114308E+03  0.90273150394E+02 0.  0.
         13    1    3    3    0    0 -0.50374430043E+02  0.20319748526E+03 -0.30017605281E+03  0.36596784544E+03  0.00000000000E+00 0. -1.
        -13    1    3    3    0    0 -0.12477092874E+03  0.15105647025E+03 -0.26644334808E+03  0.33072329764E+03  0.00000000000E+00 0.  1.
         22    1    1    2    0    0  0.17514535878E+03 -0.35425395552E+03  0.68385070802E+03  0.78982501389E+03  0.00000000000E+00 0.  1.
<mgrwt>
<rscale>  0 0.14818863E+04</rscale>
<asrwt>0</asrwt>
<pdfrwt beam="1">  1        2 0.10532960E+00 0.14818863E+04</pdfrwt>
<pdfrwt beam="2">  1       -2 0.12336519E+00 0.14818863E+04</pdfrwt>
<totfact> 0.20200028E+01</totfact>
</mgrwt>
</event>
<event>
 6    1  0.9512547E-007  0.1121620E+04  0.7818608E-02  0.9184372E-01
         -2   -1    0    0    0  501 -0.00000000000E+00  0.00000000000E+00  0.15914428907E+03  0.15914428907E+03  0.00000000000E+00 0.  1.
          2   -1    0    0  501    0  0.00000000000E+00 -0.00000000000E+00 -0.19762424726E+04  0.19762424726E+04  0.00000000000E+00 0. -1.
         23    2    1    2    0    0  0.72826206799E+02  0.55227128151E+03 -0.90398900545E+03  0.10657720666E+04  0.91469947224E+02 0.  0.
         11    1    3    3    0    0  0.44310719977E+02  0.18439095871E+03 -0.38268270437E+03  0.42709427271E+03  0.00000000000E+00 0. -1.
        -11    1    3    3    0    0  0.28515486822E+02  0.36788032280E+03 -0.52130630108E+03  0.63867779392E+03  0.00000000000E+00 0.  1.
         22    1    1    2    0    0 -0.72826206799E+02 -0.55227128151E+03 -0.91310917810E+03  0.10696146951E+04  0.00000000000E+00 0. -1.
<mgrwt>
<rscale>  0 0.11216197E+04</rscale>
<asrwt>0</asrwt>
<pdfrwt beam="1">  1        2 0.30403729E+00 0.11216197E+04</pdfrwt>
<pdfrwt beam="2">  1       -2 0.24483738E-01 0.11216197E+04</pdfrwt>
<totfact> 0.10193702E+02</totfact>
</mgrwt>
</event>
<event>
 6    1  0.9512547E-007  0.1679147E+04  0.7818608E-02  0.8773348E-01
         -1   -1    0    0    0  501 -0.00000000000E+00  0.00000000000E+00  0.10362326380E+04  0.10362326380E+04  0.00000000000E+00 0.  1.
          1   -1    0    0  501    0  0.00000000000E+00 -0.00000000000E+00 -0.68023695633E+03  0.68023695633E+03  0.00000000000E+00 0. -1.
         23    2    1    2    0    0 -0.53572378707E+03  0.31425743119E+03  0.75228519123E+03  0.97971788270E+03  0.90312854299E+02 0.  0.
         13    1    3    3    0    0 -0.42298411552E+03  0.28260322404E+03  0.58100485249E+03  0.77223492723E+03  0.00000000000E+00 0. -1.
        -13    1    3    3    0    0 -0.11273967155E+03  0.31654207147E+02  0.17128033874E+03  0.20748295547E+03  0.00000000000E+00 0.  1.
         22    1    1    2    0    0  0.53572378707E+03 -0.31425743119E+03 -0.39628950961E+03  0.73675171158E+03  0.00000000000E+00 0. -1.
<mgrwt>
<rscale>  0 0.16791471E+04</rscale>
<asrwt>0</asrwt>
<pdfrwt beam="1">  1        1 0.10465184E+00 0.16791471E+04</pdfrwt>
<pdfrwt beam="2">  1       -1 0.15942041E+00 0.16791471E+04</pdfrwt>
<totfact> 0.80072874E+00</totfact>
</mgrwt>
</event>
<event>
 6    1  0.9512547E-007  0.1287784E+04  0.7818608E-02  0.9039309E-01
         -2   -1    0    0    0  501 -0.00000000000E+00  0.00000000000E+00  0.37394643826E+03  0.37394643826E+03  0.00000000000E+00 0.  1.
          2   -1    0    0  501    0  0.00000000000E+00 -0.00000000000E+00 -0.11087061107E+04  0.11087061107E+04  0.00000000000E+00 0. -1.
         23    2    1    2    0    0 -0.29186176115E+03  0.52270361661E+03 -0.10555068333E+03  0.61414445434E+03  0.87350475765E+02 0.  0.
         13    1    3    3    0    0 -0.12913528369E+02  0.79553033930E+02 -0.24765418138E+02  0.84313524170E+02  0.00000000000E+00 0.  1.
        -13    1    3    3    0    0 -0.27894823278E+03  0.44315058268E+03 -0.80785265195E+02  0.52983093017E+03  0.00000000000E+00 0. -1.
         22    1    1    2    0    0  0.29186176115E+03 -0.52270361661E+03 -0.62920898912E+03  0.86850809462E+03  0.00000000000E+00 0. -1.
<mgrwt>
<rscale>  0 0.12877837E+04</rscale>
<asrwt>0</asrwt>
<pdfrwt beam="1">  1        2 0.17057017E+00 0.12877837E+04</pdfrwt>
<pdfrwt beam="2">  1       -2 0.57530221E-01 0.12877837E+04</pdfrwt>
<totfact> 0.59737446E+01</totfact>
</mgrwt>
</event>
<event>
 6    1  0.9512547E-007  0.2725523E+04  0.7818608E-02  0.8326771E-01
          1   -1    0    0  501    0  0.00000000000E+00  0.00000000000E+00  0.28725838328E+04  0.28725838328E+04  0.00000000000E+00 0. -1.
         -1   -1    0    0    0  501 -0.00000000000E+00 -0.00000000000E+00 -0.64649762232E+03  0.64649762232E+03  0.00000000000E+00 0.  1.
         23    2    1    2    0    0 -0.22628605876E+03 -0.13037235411E+04  0.70249483825E+03  0.15011044678E+04  0.94420195963E+02 0.  0.
         13    1    3    3    0    0 -0.71220880127E+02 -0.44351648147E+03  0.18883394823E+03  0.48727563361E+03  0.00000000000E+00 0.  1.
        -13    1    3    3    0    0 -0.15506517863E+03 -0.86020705962E+03  0.51366089002E+03  0.10138288342E+04  0.00000000000E+00 0. -1.
         22    1    1    2    0    0  0.22628605876E+03  0.13037235411E+04  0.15235913722E+04  0.20179769874E+04  0.00000000000E+00 0.  1.
<mgrwt>
<rscale>  0 0.27255228E+04</rscale>
<asrwt>0</asrwt>
<pdfrwt beam="1">  1        1 0.44193597E+00 0.27255228E+04</pdfrwt>
<pdfrwt beam="2">  1       -1 0.99461174E-01 0.27255228E+04</pdfrwt>
<totfact> 0.62128321E-01</totfact>
</mgrwt>
</event>
<event>
 6    1  0.9512547E-007  0.2146038E+04  0.7818608E-02  0.8541230E-01
         -2   -1    0    0    0  501 -0.00000000000E+00  0.00000000000E+00  0.60677929481E+03  0.60677929481E+03  0.00000000000E+00 0.  1.
          2   -1    0    0  501    0  0.00000000000E+00 -0.00000000000E+00 -0.18975098026E+04  0.18975098026E+04  0.00000000000E+00 0. -1.
         23    2    1    2    0    0  0.52088064352E+03 -0.64170199916E+03 -0.14414468022E+04  0.16641620225E+04  0.92564859098E+02 0.  0.
         11    1    3    3    0    0  0.24330896092E+03 -0.23596203591E+03 -0.54600138351E+03  0.64264674872E+03  0.00000000000E+00 0.  1.
        -11    1    3    3    0    0  0.27757168260E+03 -0.40573996325E+03 -0.89544541867E+03  0.10215152738E+04  0.00000000000E+00 0. -1.
         22    1    1    2    0    0 -0.52088064352E+03  0.64170199916E+03  0.15071629442E+03  0.84012707487E+03  0.00000000000E+00 0.  1.
<mgrwt>
<rscale>  0 0.21460379E+04</rscale>
<asrwt>0</asrwt>
<pdfrwt beam="1">  1        2 0.29192458E+00 0.21460379E+04</pdfrwt>
<pdfrwt beam="2">  1       -2 0.93350661E-01 0.21460379E+04</pdfrwt>
<totfact> 0.67898507E+00</totfact>
</mgrwt>
</event>
<event>
 6    1  0.9512547E-007  0.2096674E+04  0.7818608E-02  0.8562710E-01
          1   -1    0    0  501    0  0.00000000000E+00  0.00000000000E+00  0.19755725714E+04  0.19755725714E+04  0.00000000000E+00 0. -1.
         -1   -1    0    0    0  501 -0.00000000000E+00 -0.00000000000E+00 -0.55629963973E+03  0.55629963973E+03  0.00000000000E+00 0.  1.
         23    2    1    2    0    0 -0.61690917359E+03 -0.21890670860E+03 -0.27512002082E+03  0.71542938159E+03  0.87470558839E+02 0.  0.
         11    1    3    3    0    0 -0.14481258046E+03 -0.55855026878E+02 -0.10665138074E+03  0.18832149240E+03  0.00000000000E+00 0.  1.
        -11    1    3    3    0    0 -0.47209659313E+03 -0.16305168173E+03 -0.16846864008E+03  0.52710788919E+03  0.00000000000E+00 0. -1.
         22    1    1    2    0    0  0.61690917359E+03  0.21890670860E+03  0.16943929524E+04  0.18164428295E+04  0.00000000000E+00 0. -1.
<mgrwt>
<rscale>  0 0.20966739E+04</rscale>
<asrwt>0</asrwt>
<pdfrwt beam="1">  1        1 0.30393424E+00 0.20966739E+04</pdfrwt>
<pdfrwt beam="2">  1       -1 0.85584561E-01 0.20966739E+04</pdfrwt>
<totfact> 0.38411650E+00</totfact>
</mgrwt>
</event>
<event>
 6    1  0.9512547E-007  0.1783105E+04  0.7818608E-02  0.8715336E-01
          2   -1    0    0  501    0  0.00000000000E+00  0.00000000000E+00  0.12244258484E+04  0.12244258484E+04  0.00000000000E+00 0. -1.
         -2   -1    0    0    0  501 -0.00000000000E+00 -0.00000000000E+00 -0.64917441727E+03  0.64917441727E+03  0.00000000000E+00 0.  1.
         23    2    1    2    0    0 -0.53025636032E+03  0.66734773140E+03  0.55465572996E+03  0.10209872320E+04  0.90813803375E+02 0.  0.
         11    1    3    3    0    0 -0.58213760057E+02  0.12219356753E+03  0.10318301170E+03  0.17019648560E+03  0.00000000000E+00 0.  1.
        -11    1    3    3    0    0 -0.47204260026E+03  0.54515416386E+03  0.45147271825E+03  0.85079074641E+03  0.00000000000E+00 0. -1.
         22    1    1    2    0    0  0.53025636032E+03 -0.66734773140E+03  0.20595701176E+02  0.85261303366E+03  0.00000000000E+00 0.  1.
<mgrwt>
<rscale>  0 0.17831051E+04</rscale>
<asrwt>0</asrwt>
<pdfrwt beam="1">  1        2 0.18837321E+00 0.17831051E+04</pdfrwt>
<pdfrwt beam="2">  1       -2 0.99872987E-01 0.17831051E+04</pdfrwt>
<totfact> 0.14347811E+01</totfact>
</mgrwt>
</event>
<event>
 6    1  0.9512547E-007  0.2183026E+04  0.7818608E-02  0.8525526E-01
         -2   -1    0    0    0  501 -0.00000000000E+00  0.00000000000E+00  0.34336968775E+03  0.34336968775E+03  0.00000000000E+00 0.  1.
          2   -1    0    0  501    0  0.00000000000E+00 -0.00000000000E+00 -0.34697315615E+04  0.34697315615E+04  0.00000000000E+00 0. -1.
         23    2    1    2    0    0  0.92213452688E+03 -0.35646031117E+03 -0.23659709323E+04  0.25658681424E+04  0.92004523755E+02 0.  0.
         13    1    3    3    0    0  0.33060420280E+03 -0.17550370710E+03 -0.89880073081E+03  0.97362387184E+03  0.00000000000E+00 0. -1.
        -13    1    3    3    0    0  0.59153032407E+03 -0.18095660407E+03 -0.14671702015E+04  0.15922442705E+04  0.00000000000E+00 0.  1.
         22    1    1    2    0    0 -0.92213452688E+03  0.35646031117E+03 -0.76039094146E+03  0.12472331069E+04  0.00000000000E+00 0. -1.
<mgrwt>
<rscale>  0 0.21830260E+04</rscale>
<asrwt>0</asrwt>
<pdfrwt beam="1">  1        2 0.53380482E+00 0.21830260E+04</pdfrwt>
<pdfrwt beam="2">  1       -2 0.52826109E-01 0.21830260E+04</pdfrwt>
<totfact> 0.26498990E+00</totfact>
</mgrwt>
</event>
<event>
 6    1  0.9512547E-007  0.2640548E+04  0.7818608E-02  0.8354557E-01
         -1   -1    0    0    0  501 -0.00000000000E+00  0.00000000000E+00  0.13201746777E+04  0.13201746777E+04  0.00000000000E+00 0.  1.
          1   -1    0    0  501    0  0.00000000000E+00 -0.00000000000E+00 -0.13203733494E+04  0.13203733494E+04  0.00000000000E+00 0. -1.
         23    2    1    2    0    0 -0.10017333165E+04  0.82909038574E+03  0.21949966894E+03  0.13217880542E+04  0.89905787462E+02 0.  0.
         11    1    3    3    0    0 -0.35101464427E+03  0.34691693269E+03  0.86839155965E+02  0.50110246227E+03  0.00000000000E+00 0. -1.
        -11    1    3    3    0    0 -0.65071867219E+03  0.48217345304E+03  0.13266051297E+03  0.82068559196E+03  0.00000000000E+00 0.  1.
         22    1    1    2    0    0  0.10017333165E+04 -0.82909038574E+03 -0.21969834061E+03  0.13187599728E+04  0.00000000000E+00 0. -1.
<mgrwt>
<rscale>  0 0.26405480E+04</rscale>
<asrwt>0</asrwt>
<pdfrwt beam="1">  1        1 0.20313436E+00 0.26405480E+04</pdfrwt>
<pdfrwt beam="2">  1       -1 0.20310380E+00 0.26405480E+04</pdfrwt>
<totfact> 0.11000233E+00</totfact>
</mgrwt>
</event>
<event>
 6    1  0.9512547E-007  0.1672128E+04  0.7818608E-02  0.8777423E-01
         -2   -1    0    0    0  501 -0.00000000000E+00  0.00000000000E+00  0.10907173913E+04  0.10907173913E+04  0.00000000000E+00 0.  1.
          2   -1    0    0  501    0  0.00000000000E+00 -0.00000000000E+00 -0.64086510387E+03  0.64086510387E+03  0.00000000000E+00 0. -1.
         23    2    1    2    0    0 -0.28569409800E+03 -0.74011828460E+03 -0.38858788273E+02  0.79979136602E+03  0.93595036771E+02 0.  0.
         11    1    3    3    0    0 -0.13519201300E+03 -0.47099157186E+03 -0.37428159532E+02  0.49143749172E+03  0.00000000000E+00 0. -1.
        -11    1    3    3    0    0 -0.15050208500E+03 -0.26912671274E+03 -0.14306287411E+01  0.30835387430E+03  0.00000000000E+00 0.  1.
         22    1    1    2    0    0  0.28569409800E+03  0.74011828460E+03  0.48871107566E+03  0.93179112912E+03  0.00000000000E+00 0.  1.
<mgrwt>
<rscale>  0 0.16721276E+04</rscale>
<asrwt>0</asrwt>
<pdfrwt beam="1">  1        2 0.98594631E-01 0.16721276E+04</pdfrwt>
<pdfrwt beam="2">  1       -2 0.16780268E+00 0.16721276E+04</pdfrwt>
<totfact> 0.96347166E+00</totfact>
</mgrwt>
</event>
<event>
 6    1  0.9512547E-007  0.2390268E+04  0.7818608E-02  0.8443156E-01
          2   -1    0    0  501    0  0.00000000000E+00  0.00000000000E+00  0.16410335823E+04  0.16410335823E+04  0.00000000000E+00 0. -1.
         -2   -1    0    0    0  501 -0.00000000000E+00 -0.00000000000E+00 -0.87039367322E+03  0.87039367322E+03  0.00000000000E+00 0.  1.
         23    2    1    2    0    0 -0.27864634853E+03  0.36614954345E+01  0.16051173794E+04  0.16316489638E+04  0.90660605148E+02 0.  0.
         13    1    3    3    0    0 -0.67583319686E+02 -0.19746846257E+02  0.61483900236E+03  0.61885736794E+03  0.00000000000E+00 0.  1.
        -13    1    3    3    0    0 -0.21106302884E+03  0.23408341692E+02  0.99027837705E+03  0.10127915959E+04  0.00000000000E+00 0. -1.
         22    1    1    2    0    0  0.27864634853E+03 -0.36614954345E+01 -0.83447747033E+03  0.87977829172E+03  0.00000000000E+00 0.  1.
<mgrwt>
<rscale>  0 0.23902680E+04</rscale>
<asrwt>0</asrwt>
<pdfrwt beam="1">  1        2 0.25246670E+00 0.23902680E+04</pdfrwt>
<pdfrwt beam="2">  1       -2 0.13390672E+00 0.23902680E+04</pdfrwt>
<totfact> 0.38350994E+00</totfact>
</mgrwt>
</event>
<event>
 6    1  0.9512547E-007  0.2830917E+04  0.7818608E-02  0.8293734E-01
         -2   -1    0    0    0  501 -0.00000000000E+00  0.00000000000E+00  0.83076485345E+03  0.83076485345E+03  0.00000000000E+00 0.  1.
          2   -1    0    0  501    0  0.00000000000E+00 -0.00000000000E+00 -0.24116600332E+04  0.24116600332E+04  0.00000000000E+00 0. -1.
         23    2    1    2    0    0  0.45281092249E+03 -0.10222508370E+04  0.20022453092E+03  0.11394693643E+04  0.90917898019E+02 0.  0.
         11    1    3    3    0    0  0.33088898896E+03 -0.67600522985E+03  0.10242120451E+03  0.75957928943E+03  0.00000000000E+00 0.  1.
        -11    1    3    3    0    0  0.12192193352E+03 -0.34624560713E+03  0.97803326404E+02  0.37989007487E+03  0.00000000000E+00 0. -1.
         22    1    1    2    0    0 -0.45281092249E+03  0.10222508370E+04 -0.17811197107E+04  0.21029555224E+04  0.00000000000E+00 0. -1.
<mgrwt>
<rscale>  0 0.28309167E+04</rscale>
<asrwt>0</asrwt>
<pdfrwt beam="1">  1        2 0.37102462E+00 0.28309167E+04</pdfrwt>
<pdfrwt beam="2">  1       -2 0.12780998E+00 0.28309167E+04</pdfrwt>
<totfact> 0.15402080E+00</totfact>
</mgrwt>
</event>
<event>
 6    1  0.9512547E-007  0.7995560E+03  0.7818608E-02  0.9560660E-01
         -4   -1    0    0    0  501 -0.00000000000E+00  0.00000000000E+00  0.12491316728E+03  0.12491316728E+03  0.00000000000E+00 0.  1.
          4   -1    0    0  501    0  0.00000000000E+00 -0.00000000000E+00 -0.12794682369E+04  0.12794682369E+04  0.00000000000E+00 0. -1.
         23    2    1    2    0    0  0.28931235402E+03 -0.20629478455E+03 -0.88699779906E+03  0.95958249528E+03  0.88171953619E+02 0.  0.
         11    1    3    3    0    0  0.19858436967E+03 -0.14189280702E+03 -0.49196577632E+03  0.54918088608E+03  0.00000000000E+00 0.  1.
        -11    1    3    3    0    0  0.90727984349E+02 -0.64401977535E+02 -0.39503202274E+03  0.41040160921E+03  0.00000000000E+00 0. -1.
         22    1    1    2    0    0 -0.28931235402E+03  0.20629478455E+03 -0.26755727055E+03  0.44479890889E+03  0.00000000000E+00 0.  1.
<mgrwt>
<rscale>  0 0.79955595E+03</rscale>
<asrwt>0</asrwt>
<pdfrwt beam="1">  1        4 0.19684126E+00 0.79955595E+03</pdfrwt>
<pdfrwt beam="2">  1       -4 0.19217411E-01 0.79955595E+03</pdfrwt>
<totfact> 0.68907173E+00</totfact>
</mgrwt>
</event>
<event>
 6    1  0.9512547E-007  0.4210273E+04  0.7818608E-02  0.7963421E-01
          2   -1    0    0  501    0  0.00000000000E+00  0.00000000000E+00  0.51054704811E+04  0.51054704811E+04  0.00000000000E+00 0. -1.
         -2   -1    0    0    0  501 -0.00000000000E+00 -0.00000000000E+00 -0.86801001066E+03  0.86801001066E+03  0.00000000000E+00 0.  1.
         23    2    1    2    0    0  0.55402614400E+03  0.81799025961E+02  0.49973712742E+04  0.50294993063E+04  0.92236498242E+02 0.  0.
         11    1    3    3    0    0  0.29869475444E+03  0.49570339637E+02  0.31005593093E+04  0.31153079793E+04  0.00000000000E+00 0.  1.
        -11    1    3    3    0    0  0.25533138956E+03  0.32228686325E+02  0.18968119648E+04  0.19141913271E+04  0.00000000000E+00 0. -1.
         22    1    1    2    0    0 -0.55402614400E+03 -0.81799025961E+02 -0.75991080371E+03  0.94398118545E+03  0.00000000000E+00 0.  1.
<mgrwt>
<rscale>  0 0.42102729E+04</rscale>
<asrwt>0</asrwt>
<pdfrwt beam="1">  1        2 0.78545698E+00 0.42102729E+04</pdfrwt>
<pdfrwt beam="2">  1       -2 0.13354000E+00 0.42102729E+04</pdfrwt>
<totfact> 0.77477220E-03</totfact>
</mgrwt>
</event>
<event>
 6    1  0.9512547E-007  0.1754053E+04  0.7818608E-02  0.8731123E-01
          2   -1    0    0  501    0  0.00000000000E+00  0.00000000000E+00  0.17318012437E+04  0.17318012437E+04  0.00000000000E+00 0. -1.
         -2   -1    0    0    0  501 -0.00000000000E+00 -0.00000000000E+00 -0.44414765255E+03  0.44414765255E+03  0.00000000000E+00 0.  1.
         23    2    1    2    0    0  0.66469070831E+03 -0.25591062495E+02 -0.59095912900E+02  0.67388269704E+03  0.90315681112E+02 0.  0.
         13    1    3    3    0    0  0.27406867162E+03  0.33751699614E+02 -0.28083313522E+02  0.27756348191E+03  0.00000000000E+00 0.  1.
        -13    1    3    3    0    0  0.39062203669E+03 -0.59342762109E+02 -0.31012599378E+02  0.39631921513E+03  0.00000000000E+00 0. -1.
         22    1    1    2    0    0 -0.66469070831E+03  0.25591062495E+02  0.13467495041E+04  0.15020661992E+04  0.00000000000E+00 0. -1.
<mgrwt>
<rscale>  0 0.17540530E+04</rscale>
<asrwt>0</asrwt>
<pdfrwt beam="1">  1        2 0.26643096E+00 0.17540530E+04</pdfrwt>
<pdfrwt beam="2">  1       -2 0.68330409E-01 0.17540530E+04</pdfrwt>
<totfact> 0.17478536E+01</totfact>
</mgrwt>
</event>
<event>
 6    1  0.9512547E-007  0.2065126E+04  0.7818608E-02  0.8576763E-01
          2   -1    0    0  501    0  0.00000000000E+00  0.00000000000E+00  0.16737531775E+04  0.16737531775E+04  0.00000000000E+00 0. -1.
         -2   -1    0    0    0  501 -0.00000000000E+00 -0.00000000000E+00 -0.63700329281E+03  0.63700329281E+03  0.00000000000E+00 0.  1.
         23    2    1    2    0    0  0.22960746935E+03  0.78178817641E+03  0.12252808076E+04  0.14744214587E+04  0.93237533238E+02 0.  0.
         11    1    3    3    0    0  0.14831730975E+03  0.63692290901E+03  0.97071014471E+03  0.11704473510E+04  0.00000000000E+00 0. -1.
        -11    1    3    3    0    0  0.81290159594E+02  0.14486526740E+03  0.25457066290E+03  0.30397410771E+03  0.00000000000E+00 0.  1.
         22    1    1    2    0    0 -0.22960746935E+03 -0.78178817641E+03 -0.18853092292E+03  0.83633501161E+03  0.00000000000E+00 0.  1.
<mgrwt>
<rscale>  0 0.20651259E+04</rscale>
<asrwt>0</asrwt>
<pdfrwt beam="1">  1        2 0.25750049E+00 0.20651259E+04</pdfrwt>
<pdfrwt beam="2">  1       -2 0.98000507E-01 0.20651259E+04</pdfrwt>
<totfact> 0.81214766E+00</totfact>
</mgrwt>
</event>
<event>
 6    1  0.9512547E-007  0.2911809E+04  0.7818608E-02  0.8269373E-01
         -2   -1    0    0    0  501 -0.00000000000E+00  0.00000000000E+00  0.79962401091E+03  0.79962401091E+03  0.00000000000E+00 0.  1.
          2   -1    0    0  501    0  0.00000000000E+00 -0.00000000000E+00 -0.26508176932E+04  0.26508176932E+04  0.00000000000E+00 0. -1.
         23    2    1    2    0    0  0.12444635954E+04 -0.33500844938E+03 -0.12763417724E+03  0.12983316538E+04  0.91947260035E+02 0.  0.
         13    1    3    3    0    0  0.33448663810E+03 -0.73482837515E+02  0.35015727118E+01  0.34248109362E+03  0.00000000000E+00 0.  1.
        -13    1    3    3    0    0  0.90997695726E+03 -0.26152561187E+03 -0.13113574995E+03  0.95585056014E+03  0.00000000000E+00 0. -1.
         22    1    1    2    0    0 -0.12444635954E+04  0.33500844938E+03 -0.17235595050E+04  0.21521100503E+04  0.00000000000E+00 0. -1.
<mgrwt>
<rscale>  0 0.29118087E+04</rscale>
<asrwt>0</asrwt>
<pdfrwt beam="1">  1        2 0.40781811E+00 0.29118087E+04</pdfrwt>
<pdfrwt beam="2">  1       -2 0.12301908E+00 0.29118087E+04</pdfrwt>
<totfact> 0.12218359E+00</totfact>
</mgrwt>
</event>
<event>
 6    1  0.9512547E-007  0.1844108E+04  0.7818608E-02  0.8683189E-01
         -1   -1    0    0    0  501 -0.00000000000E+00  0.00000000000E+00  0.56054640453E+03  0.56054640453E+03  0.00000000000E+00 0.  1.
          1   -1    0    0  501    0  0.00000000000E+00 -0.00000000000E+00 -0.15167048100E+04  0.15167048100E+04  0.00000000000E+00 0. -1.
         23    2    1    2    0    0 -0.38236266441E+03  0.45088114765E+03  0.31456546890E+03  0.67573982275E+03  0.90431506546E+02 0.  0.
         11    1    3    3    0    0 -0.14166464683E+03  0.19106834194E+03  0.17393735961E+03  0.29466962606E+03  0.00000000000E+00 0.  1.
        -11    1    3    3    0    0 -0.24069801758E+03  0.25981280572E+03  0.14062810928E+03  0.38107019669E+03  0.00000000000E+00 0. -1.
         22    1    1    2    0    0  0.38236266441E+03 -0.45088114765E+03 -0.12707238744E+04  0.14015113918E+04  0.00000000000E+00 0. -1.
<mgrwt>
<rscale>  0 0.18441078E+04</rscale>
<asrwt>0</asrwt>
<pdfrwt beam="1">  1        1 0.23333919E+00 0.18441078E+04</pdfrwt>
<pdfrwt beam="2">  1       -1 0.86237911E-01 0.18441078E+04</pdfrwt>
<totfact> 0.79433775E+00</totfact>
</mgrwt>
</event>
<event>
 6    1  0.9512547E-007  0.2861717E+04  0.7818608E-02  0.8284360E-01
          2   -1    0    0  501    0  0.00000000000E+00  0.00000000000E+00  0.22339166300E+04  0.22339166300E+04  0.00000000000E+00 0. -1.
         -2   -1    0    0    0  501 -0.00000000000E+00 -0.00000000000E+00 -0.91648722504E+03  0.91648722504E+03  0.00000000000E+00 0.  1.
         23    2    1    2    0    0  0.25578978881E+03  0.11279293915E+04 -0.26537696511E+03  0.11900648197E+04  0.90422414977E+02 0.  0.
         11    1    3    3    0    0  0.39267587595E+02  0.15108700909E+03 -0.49883880634E+01  0.15618614461E+03  0.00000000000E+00 0. -1.
        -11    1    3    3    0    0  0.21652220121E+03  0.97684238244E+03 -0.26038857705E+03  0.10338786751E+04  0.00000000000E+00 0.  1.
         22    1    1    2    0    0 -0.25578978881E+03 -0.11279293915E+04  0.15828063701E+04  0.19603390353E+04  0.00000000000E+00 0. -1.
<mgrwt>
<rscale>  0 0.28617170E+04</rscale>
<asrwt>0</asrwt>
<pdfrwt beam="1">  1        2 0.34367948E+00 0.28617170E+04</pdfrwt>
<pdfrwt beam="2">  1       -2 0.14099803E+00 0.28617170E+04</pdfrwt>
<totfact> 0.15082968E+00</totfact>
</mgrwt>
</event>
<event>
 6    1  0.9512547E-007  0.2182524E+04  0.7818608E-02  0.8525737E-01
          1   -1    0    0  501    0  0.00000000000E+00  0.00000000000E+00  0.22961027309E+04  0.22961027309E+04  0.00000000000E+00 0. -1.
         -1   -1    0    0    0  501 -0.00000000000E+00 -0.00000000000E+00 -0.51864092313E+03  0.51864092313E+03  0.00000000000E+00 0.  1.
         23    2    1    2    0    0 -0.70766101920E+03  0.93656458035E+02  0.19515011202E+04  0.20800019766E+04  0.92173480573E+02 0.  0.
         13    1    3    3    0    0 -0.43872139176E+03  0.98209731011E+02  0.12782974550E+04  0.13550520264E+04  0.00000000000E+00 0. -1.
        -13    1    3    3    0    0 -0.26893962744E+03 -0.45532729753E+01  0.67320366516E+03  0.72494995019E+03  0.00000000000E+00 0.  1.
         22    1    1    2    0    0  0.70766101920E+03 -0.93656458035E+02 -0.17403931241E+03  0.73474167739E+03  0.00000000000E+00 0.  1.
<mgrwt>
<rscale>  0 0.21825241E+04</rscale>
<asrwt>0</asrwt>
<pdfrwt beam="1">  1        1 0.35324657E+00 0.21825241E+04</pdfrwt>
<pdfrwt beam="2">  1       -1 0.79790913E-01 0.21825241E+04</pdfrwt>
<totfact> 0.26819803E+00</totfact>
</mgrwt>
</event>
<event>
 6    1  0.9512547E-007  0.1851717E+04  0.7818608E-02  0.8679270E-01
          1   -1    0    0  501    0  0.00000000000E+00  0.00000000000E+00  0.12112625018E+04  0.12112625018E+04  0.00000000000E+00 0. -1.
         -1   -1    0    0    0  501 -0.00000000000E+00 -0.00000000000E+00 -0.70770268228E+03  0.70770268228E+03  0.00000000000E+00 0.  1.
         23    2    1    2    0    0 -0.91337020166E+03  0.41675811557E+02  0.11627524679E+03  0.92600428918E+03  0.89342106593E+02 0.  0.
         13    1    3    3    0    0 -0.35774162207E+03 -0.22368967272E+02  0.25143319570E+02  0.35932106170E+03  0.00000000000E+00 0.  1.
        -13    1    3    3    0    0 -0.55562857958E+03  0.64044778829E+02  0.91131927219E+02  0.56668322748E+03  0.00000000000E+00 0. -1.
         22    1    1    2    0    0  0.91337020166E+03 -0.41675811557E+02  0.38728457273E+03  0.99296089491E+03  0.00000000000E+00 0.  1.
<mgrwt>
<rscale>  0 0.18517167E+04</rscale>
<asrwt>0</asrwt>
<pdfrwt beam="1">  1        1 0.18634808E+00 0.18517167E+04</pdfrwt>
<pdfrwt beam="2">  1       -1 0.10887734E+00 0.18517167E+04</pdfrwt>
<totfact> 0.77027543E+00</totfact>
</mgrwt>
</event>
<event>
 6    1  0.9512547E-007  0.4751048E+04  0.7818608E-02  0.7868102E-01
         -2   -1    0    0    0  501 -0.00000000000E+00  0.00000000000E+00  0.11784584682E+04  0.11784584682E+04  0.00000000000E+00 0.  1.
          2   -1    0    0  501    0  0.00000000000E+00 -0.00000000000E+00 -0.47885553378E+04  0.47885553378E+04  0.00000000000E+00 0. -1.
         23    2    1    2    0    0  0.90406461076E+03  0.10831779658E+04 -0.42046345787E+04  0.44359741548E+04  0.91145134593E+02 0.  0.
         11    1    3    3    0    0  0.62117330838E+03  0.67903860192E+03 -0.27744118487E+04  0.29230653103E+04  0.00000000000E+00 0. -1.
        -11    1    3    3    0    0  0.28289130238E+03  0.40413936390E+03 -0.14302227299E+04  0.15129088445E+04  0.00000000000E+00 0.  1.
         22    1    1    2    0    0 -0.90406461076E+03 -0.10831779658E+04  0.59453770915E+03  0.15310396512E+04  0.00000000000E+00 0.  1.
<mgrwt>
<rscale>  0 0.47510477E+04</rscale>
<asrwt>0</asrwt>
<pdfrwt beam="1">  1        2 0.73670080E+00 0.47510477E+04</pdfrwt>
<pdfrwt beam="2">  1       -2 0.18130131E+00 0.47510477E+04</pdfrwt>
<totfact> 0.79830908E-03</totfact>
</mgrwt>
</event>
<event>
 6    1  0.9512547E-007  0.7065472E+03  0.7818608E-02  0.9706101E-01
         -2   -1    0    0    0  501 -0.00000000000E+00  0.00000000000E+00  0.21902673917E+03  0.21902673917E+03  0.00000000000E+00 0.  1.
          2   -1    0    0  501    0  0.00000000000E+00 -0.00000000000E+00 -0.56980370143E+03  0.56980370143E+03  0.00000000000E+00 0. -1.
         23    2    1    2    0    0 -0.13760829939E+03  0.79127697293E+02  0.16696099410E+03  0.24730497675E+03  0.89925199125E+02 0.  0.
         11    1    3    3    0    0 -0.12728443446E+03  0.39254188365E+02  0.15509314536E+03  0.20444095063E+03  0.00000000000E+00 0. -1.
        -11    1    3    3    0    0 -0.10323864933E+02  0.39873508929E+02  0.11867848737E+02  0.42864026118E+02  0.00000000000E+00 0.  1.
         22    1    1    2    0    0  0.13760829939E+03 -0.79127697293E+02 -0.51773795636E+03  0.54152546384E+03  0.00000000000E+00 0. -1.
<mgrwt>
<rscale>  0 0.70654723E+03</rscale>
<asrwt>0</asrwt>
<pdfrwt beam="1">  1        2 0.87662106E-01 0.70654723E+03</pdfrwt>
<pdfrwt beam="2">  1       -2 0.33696422E-01 0.70654723E+03</pdfrwt>
<totfact> 0.43764597E+02</totfact>
</mgrwt>
</event>
<event>
 6    1  0.9512547E-007  0.2510748E+04  0.7818608E-02  0.8399166E-01
          2   -1    0    0  501    0  0.00000000000E+00  0.00000000000E+00  0.64724403735E+03  0.64724403735E+03  0.00000000000E+00 0. -1.
         -2   -1    0    0    0  501 -0.00000000000E+00 -0.00000000000E+00 -0.24348837600E+04  0.24348837600E+04  0.00000000000E+00 0.  1.
         23    2    1    2    0    0  0.10169148595E+04 -0.69976996408E+03 -0.11642240274E+04  0.16992174738E+04  0.90158766303E+02 0.  0.
         13    1    3    3    0    0  0.61652697147E+03 -0.37722238919E+03 -0.65030441585E+03  0.97226440371E+03  0.00000000000E+00 0.  1.
        -13    1    3    3    0    0  0.40038788801E+03 -0.32254757489E+03 -0.51391961153E+03  0.72695307004E+03  0.00000000000E+00 0. -1.
         22    1    1    2    0    0 -0.10169148595E+04  0.69976996408E+03 -0.62341569531E+03  0.13829103236E+04  0.00000000000E+00 0. -1.
<mgrwt>
<rscale>  0 0.25107481E+04</rscale>
<asrwt>0</asrwt>
<pdfrwt beam="1">  1        2 0.99576004E-01 0.25107481E+04</pdfrwt>
<pdfrwt beam="2">  1       -2 0.37459751E+00 0.25107481E+04</pdfrwt>
<totfact> 0.43711643E-01</totfact>
</mgrwt>
</event>
<event>
 6    1  0.9512547E-007  0.3171105E+04  0.7818608E-02  0.8196490E-01
         -2   -1    0    0    0  501 -0.00000000000E+00  0.00000000000E+00  0.68736856740E+03  0.68736856740E+03  0.00000000000E+00 0.  1.
          2   -1    0    0  501    0  0.00000000000E+00 -0.00000000000E+00 -0.36573926669E+04  0.36573926669E+04  0.00000000000E+00 0. -1.
         23    2    1    2    0    0 -0.13544258143E+02  0.97758373198E+03  0.22167770982E+03  0.10066758789E+04  0.91661978203E+02 0.  0.
         13    1    3    3    0    0  0.32240651859E+01  0.72715717886E+03  0.12562158871E+03  0.73793545850E+03  0.00000000000E+00 0. -1.
        -13    1    3    3    0    0 -0.16768323329E+02  0.25042655312E+03  0.96056121109E+02  0.26874042044E+03  0.00000000000E+00 0.  1.
         22    1    1    2    0    0  0.13544258143E+02 -0.97758373198E+03 -0.31917018093E+04  0.33380853553E+04  0.00000000000E+00 0. -1.
<mgrwt>
<rscale>  0 0.31711050E+04</rscale>
<asrwt>0</asrwt>
<pdfrwt beam="1">  1        2 0.56267579E+00 0.31711050E+04</pdfrwt>
<pdfrwt beam="2">  1       -2 0.10574901E+00 0.31711050E+04</pdfrwt>
<totfact> 0.38212658E-01</totfact>
</mgrwt>
</event>
<event>
 6    1  0.9512547E-007  0.1955621E+04  0.7818608E-02  0.8627655E-01
         -1   -1    0    0    0  501 -0.00000000000E+00  0.00000000000E+00  0.15250614678E+04  0.15250614678E+04  0.00000000000E+00 0.  1.
          1   -1    0    0  501    0  0.00000000000E+00 -0.00000000000E+00 -0.62693461295E+03  0.62693461295E+03  0.00000000000E+00 0. -1.
         23    2    1    2    0    0  0.39554099867E+03 -0.83477492063E+03  0.10466675310E+03  0.93426015584E+03  0.92655598001E+02 0.  0.
         13    1    3    3    0    0  0.13200366439E+03 -0.38187829217E+03  0.33086112557E+02  0.40540188491E+03  0.00000000000E+00 0.  1.
        -13    1    3    3    0    0  0.26353733428E+03 -0.45289662846E+03  0.71580640540E+02  0.52885827093E+03  0.00000000000E+00 0. -1.
         22    1    1    2    0    0 -0.39554099867E+03  0.83477492063E+03  0.79346010172E+03  0.12177359249E+04  0.00000000000E+00 0.  1.
<mgrwt>
<rscale>  0 0.19556215E+04</rscale>
<asrwt>0</asrwt>
<pdfrwt beam="1">  1        1 0.96451479E-01 0.19556215E+04</pdfrwt>
<pdfrwt beam="2">  1       -1 0.23462484E+00 0.19556215E+04</pdfrwt>
<totfact> 0.26311310E+00</totfact>
</mgrwt>
</event>
<event>
 6    1  0.9512547E-007  0.2199299E+04  0.7818608E-02  0.8518720E-01
         -2   -1    0    0    0  501 -0.00000000000E+00  0.00000000000E+00  0.29026134597E+03  0.29026134597E+03  0.00000000000E+00 0.  1.
          2   -1    0    0  501    0  0.00000000000E+00 -0.00000000000E+00 -0.41660015102E+04  0.41660015102E+04  0.00000000000E+00 0. -1.
         23    2    1    2    0    0 -0.64882720835E+03  0.88411552677E+03 -0.20425986626E+04  0.23201344013E+04  0.90428603674E+02 0.  0.
         11    1    3    3    0    0 -0.51552948307E+03  0.74143182697E+03 -0.16226258379E+04  0.18569885330E+04  0.00000000000E+00 0.  1.
        -11    1    3    3    0    0 -0.13329772528E+03  0.14268369980E+03 -0.41997282473E+03  0.46314586824E+03  0.00000000000E+00 0. -1.
         22    1    1    2    0    0  0.64882720835E+03 -0.88411552677E+03 -0.18331415016E+04  0.21361284549E+04  0.00000000000E+00 0.  1.
<mgrwt>
<rscale>  0 0.21992992E+04</rscale>
<asrwt>0</asrwt>
<pdfrwt beam="1">  1        2 0.64092323E+00 0.21992992E+04</pdfrwt>
<pdfrwt beam="2">  1       -2 0.44655597E-01 0.21992992E+04</pdfrwt>
<totfact> 0.10908453E+00</totfact>
</mgrwt>
</event>
<event>
 6    1  0.9512547E-007  0.1709444E+04  0.7818608E-02  0.8755996E-01
         -2   -1    0    0    0  501 -0.00000000000E+00  0.00000000000E+00  0.46043945051E+03  0.46043945051E+03  0.00000000000E+00 0.  1.
          2   -1    0    0  501    0  0.00000000000E+00 -0.00000000000E+00 -0.15866365670E+04  0.15866365670E+04  0.00000000000E+00 0. -1.
         23    2    1    2    0    0  0.63080211293E+03 -0.10777770141E+03 -0.12388861389E+04  0.13972867022E+04  0.89687926665E+02 0.  0.
         13    1    3    3    0    0  0.51443553643E+03 -0.55315417706E+02 -0.10256373607E+04  0.11487539824E+04  0.00000000000E+00 0. -1.
        -13    1    3    3    0    0  0.11636657650E+03 -0.52462283709E+02 -0.21324877827E+03  0.24853271972E+03  0.00000000000E+00 0.  1.
         22    1    1    2    0    0 -0.63080211293E+03  0.10777770141E+03  0.11268902242E+03  0.64978931538E+03  0.00000000000E+00 0.  1.
<mgrwt>
<rscale>  0 0.17094444E+04</rscale>
<asrwt>0</asrwt>
<pdfrwt beam="1">  1        2 0.24409794E+00 0.17094444E+04</pdfrwt>
<pdfrwt beam="2">  1       -2 0.70836837E-01 0.17094444E+04</pdfrwt>
<totfact> 0.19537595E+01</totfact>
</mgrwt>
</event>
<event>
 6    1  0.9512547E-007  0.1143925E+04  0.7818608E-02  0.9163406E-01
         -1   -1    0    0    0  501 -0.00000000000E+00  0.00000000000E+00  0.67509469092E+03  0.67509469092E+03  0.00000000000E+00 0.  1.
          1   -1    0    0  501    0  0.00000000000E+00 -0.00000000000E+00 -0.48458562876E+03  0.48458562876E+03  0.00000000000E+00 0. -1.
         23    2    1    2    0    0 -0.33599760770E+02 -0.35681373092E+03 -0.35103261034E+03  0.51028647496E+03  0.93399199697E+02 0.  0.
         13    1    3    3    0    0  0.92402448603E+01 -0.60224137670E+02 -0.10985922056E+03  0.12562395164E+03  0.00000000000E+00 0. -1.
        -13    1    3    3    0    0 -0.42840005631E+02 -0.29658959325E+03 -0.24117338978E+03  0.38466252332E+03  0.00000000000E+00 0.  1.
         22    1    1    2    0    0  0.33599760770E+02  0.35681373092E+03  0.54154167250E+03  0.64939384471E+03  0.00000000000E+00 0.  1.
<mgrwt>
<rscale>  0 0.11439251E+04</rscale>
<asrwt>0</asrwt>
<pdfrwt beam="1">  1        1 0.74551635E-01 0.11439251E+04</pdfrwt>
<pdfrwt beam="2">  1       -1 0.10386072E+00 0.11439251E+04</pdfrwt>
<totfact> 0.40176234E+01</totfact>
</mgrwt>
</event>
<event>
 6    1  0.9512547E-007  0.4491062E+04  0.7818608E-02  0.7912203E-01
         -2   -1    0    0    0  501 -0.00000000000E+00  0.00000000000E+00  0.18061836682E+04  0.18061836682E+04  0.00000000000E+00 0.  1.
          2   -1    0    0  501    0  0.00000000000E+00 -0.00000000000E+00 -0.27917478646E+04  0.27917478646E+04  0.00000000000E+00 0. -1.
         23    2    1    2    0    0 -0.16241027660E+04 -0.27346094915E+03 -0.20543605173E+04  0.26345629325E+04  0.89632723713E+02 0.  0.
         13    1    3    3    0    0 -0.85474408035E+03 -0.11446395155E+03 -0.11293538645E+04  0.14209607983E+04  0.00000000000E+00 0. -1.
        -13    1    3    3    0    0 -0.76935868567E+03 -0.15899699760E+03 -0.92500665285E+03  0.12136021343E+04  0.00000000000E+00 0.  1.
         22    1    1    2    0    0  0.16241027660E+04  0.27346094915E+03  0.10687963209E+04  0.19633686003E+04  0.00000000000E+00 0.  1.
<mgrwt>
<rscale>  0 0.44910620E+04</rscale>
<asrwt>0</asrwt>
<pdfrwt beam="1">  1        2 0.42949967E+00 0.44910620E+04</pdfrwt>
<pdfrwt beam="2">  1       -2 0.27787441E+00 0.44910620E+04</pdfrwt>
<totfact> 0.76941602E-02</totfact>
</mgrwt>
</event>
<event>
 6    1  0.9512547E-007  0.1073877E+04  0.7818608E-02  0.9231034E-01
          2   -1    0    0  501    0  0.00000000000E+00  0.00000000000E+00  0.11105194310E+04  0.11105194310E+04  0.00000000000E+00 0. -1.
         -2   -1    0    0    0  501 -0.00000000000E+00 -0.00000000000E+00 -0.25961075868E+03  0.25961075868E+03  0.00000000000E+00 0.  1.
         23    2    1    2    0    0 -0.36380937321E+03  0.21429465552E+02 -0.67204463425E+02  0.38233050752E+03  0.94040922181E+02 0.  0.
         11    1    3    3    0    0 -0.68215606985E+02  0.12789539774E+02 -0.51073231134E+02  0.86170855296E+02  0.00000000000E+00 0. -1.
        -11    1    3    3    0    0 -0.29559376623E+03  0.86399257780E+01 -0.16131232292E+02  0.29615965222E+03  0.00000000000E+00 0.  1.
         22    1    1    2    0    0  0.36380937321E+03 -0.21429465552E+02  0.91811313575E+03  0.98779968215E+03  0.00000000000E+00 0. -1.
<mgrwt>
<rscale>  0 0.10738767E+04</rscale>
<asrwt>0</asrwt>
<pdfrwt beam="1">  1        2 0.17084914E+00 0.10738767E+04</pdfrwt>
<pdfrwt beam="2">  1       -2 0.39940117E-01 0.10738767E+04</pdfrwt>
<totfact> 0.12649065E+02</totfact>
</mgrwt>
</event>
<event>
 6    1  0.9512547E-007  0.1031523E+04  0.7818608E-02  0.9274631E-01
         -2   -1    0    0    0  501 -0.00000000000E+00  0.00000000000E+00  0.55305434802E+03  0.55305434802E+03  0.00000000000E+00 0.  1.
          2   -1    0    0  501    0  0.00000000000E+00 -0.00000000000E+00 -0.48098317263E+03  0.48098317263E+03  0.00000000000E+00 0. -1.
         23    2    1    2    0    0 -0.40397219214E+03 -0.20705225694E+03  0.27303402665E+03  0.53759997501E+03  0.91662338471E+02 0.  0.
         13    1    3    3    0    0 -0.20971784460E+03 -0.57918248412E+02  0.11440305122E+03  0.24581325427E+03  0.00000000000E+00 0.  1.
        -13    1    3    3    0    0 -0.19425434754E+03 -0.14913400853E+03  0.15863097543E+03  0.29178672075E+03  0.00000000000E+00 0. -1.
         22    1    1    2    0    0  0.40397219214E+03  0.20705225694E+03 -0.20096285127E+03  0.49643754564E+03  0.00000000000E+00 0. -1.
<mgrwt>
<rscale>  0 0.10315228E+04</rscale>
<asrwt>0</asrwt>
<pdfrwt beam="1">  1        2 0.73997411E-01 0.10315228E+04</pdfrwt>
<pdfrwt beam="2">  1       -2 0.85085284E-01 0.10315228E+04</pdfrwt>
<totfact> 0.77232774E+01</totfact>
</mgrwt>
</event>
<event>
 6    1  0.9512547E-007  0.1136409E+04  0.7818608E-02  0.9170414E-01
         -2   -1    0    0    0  501 -0.00000000000E+00  0.00000000000E+00  0.14160746034E+03  0.14160746034E+03  0.00000000000E+00 0.  1.
          2   -1    0    0  501    0  0.00000000000E+00 -0.00000000000E+00 -0.22799407357E+04  0.22799407357E+04  0.00000000000E+00 0. -1.
         23    2    1    2    0    0  0.94301119748E+02  0.38219264849E+03 -0.19383788592E+04  0.19800216507E+04  0.90604710562E+02 0.  0.
         13    1    3    3    0    0  0.76753246575E+02  0.15066224783E+03 -0.93093857015E+03  0.94616953828E+03  0.00000000000E+00 0.  1.
        -13    1    3    3    0    0  0.17547873173E+02  0.23153040066E+03 -0.10074402891E+04  0.10338521124E+04  0.00000000000E+00 0. -1.
         22    1    1    2    0    0 -0.94301119748E+02 -0.38219264849E+03 -0.19995441618E+03  0.44152654540E+03  0.00000000000E+00 0.  1.
<mgrwt>
<rscale>  0 0.11364095E+04</rscale>
<asrwt>0</asrwt>
<pdfrwt beam="1">  1        2 0.35076008E+00 0.11364095E+04</pdfrwt>
<pdfrwt beam="2">  1       -2 0.21785765E-01 0.11364095E+04</pdfrwt>
<totfact> 0.85115769E+01</totfact>
</mgrwt>
</event>
<event>
 6    1  0.9512547E-007  0.3664573E+03  0.7818608E-02  0.1056056E+00
          2   -1    0    0  501    0  0.00000000000E+00  0.00000000000E+00  0.29670191363E+04  0.29670191363E+04  0.00000000000E+00 0. -1.
         -2   -1    0    0    0  501 -0.00000000000E+00 -0.00000000000E+00 -0.11315307641E+02  0.11315307641E+02  0.00000000000E+00 0.  1.
         23    2    1    2    0    0 -0.24595081623E+02  0.64884743191E+01  0.29507446178E+04  0.29524189638E+04  0.96108897680E+02 0.  0.
         11    1    3    3    0    0  0.13078097382E+02  0.76872982725E+01  0.25153854940E+04  0.25154312383E+04  0.00000000000E+00 0.  1.
        -11    1    3    3    0    0 -0.37673179005E+02 -0.11988239534E+01  0.43535912376E+03  0.43698772550E+03  0.00000000000E+00 0. -1.
         22    1    1    2    0    0  0.24595081623E+02 -0.64884743191E+01  0.49592109157E+01  0.25915480160E+02  0.00000000000E+00 0.  1.
<mgrwt>
<rscale>  0 0.36645728E+03</rscale>
<asrwt>0</asrwt>
<pdfrwt beam="1">  1        2 0.45646386E+00 0.36645728E+03</pdfrwt>
<pdfrwt beam="2">  1       -2 0.17408189E-02 0.36645728E+03</pdfrwt>
<totfact> 0.20450592E+03</totfact>
</mgrwt>
</event>
<event>
 6    1  0.9512547E-007  0.2037917E+04  0.7818608E-02  0.8589096E-01
          1   -1    0    0  501    0  0.00000000000E+00  0.00000000000E+00  0.30514051561E+04  0.30514051561E+04  0.00000000000E+00 0. -1.
         -1   -1    0    0    0  501 -0.00000000000E+00 -0.00000000000E+00 -0.34026179169E+03  0.34026179169E+03  0.00000000000E+00 0.  1.
         23    2    1    2    0    0 -0.67849819420E+03  0.69621014870E+03  0.18553097573E+04  0.20964760222E+04  0.89269510252E+02 0.  0.
         11    1    3    3    0    0 -0.44153258054E+03  0.49107498358E+03  0.13256420703E+04  0.14810241584E+04  0.00000000000E+00 0. -1.
        -11    1    3    3    0    0 -0.23696561367E+03  0.20513516512E+03  0.52966768705E+03  0.61545186386E+03  0.00000000000E+00 0.  1.
         22    1    1    2    0    0  0.67849819420E+03 -0.69621014870E+03  0.85583360713E+03  0.12951909256E+04  0.00000000000E+00 0. -1.
<mgrwt>
<rscale>  0 0.20379172E+04</rscale>
<asrwt>0</asrwt>
<pdfrwt beam="1">  1        1 0.46944693E+00 0.20379172E+04</pdfrwt>
<pdfrwt beam="2">  1       -1 0.52347970E-01 0.20379172E+04</pdfrwt>
<totfact> 0.18664798E+00</totfact>
</mgrwt>
</event>
<event>
 6    1  0.9512547E-007  0.1392755E+04  0.7818608E-02  0.8959080E-01
          2   -1    0    0  501    0  0.00000000000E+00  0.00000000000E+00  0.51024152704E+03  0.51024152704E+03  0.00000000000E+00 0. -1.
         -2   -1    0    0    0  501 -0.00000000000E+00 -0.00000000000E+00 -0.95041536277E+03  0.95041536277E+03  0.00000000000E+00 0.  1.
         23    2    1    2    0    0  0.33214287113E+02 -0.53313930799E+03  0.24241753576E+03  0.59389758583E+03  0.92775914024E+02 0.  0.
         13    1    3    3    0    0 -0.13083796576E+02 -0.34678636019E+03  0.18614161157E+03  0.39380282490E+03  0.00000000000E+00 0.  1.
        -13    1    3    3    0    0  0.46298083689E+02 -0.18635294780E+03  0.56275924189E+02  0.20009476093E+03  0.00000000000E+00 0. -1.
         22    1    1    2    0    0 -0.33214287113E+02  0.53313930799E+03 -0.68259137149E+03  0.86675930398E+03  0.00000000000E+00 0.  1.
<mgrwt>
<rscale>  0 0.13927547E+04</rscale>
<asrwt>0</asrwt>
<pdfrwt beam="1">  1        2 0.78498697E-01 0.13927547E+04</pdfrwt>
<pdfrwt beam="2">  1       -2 0.14621775E+00 0.13927547E+04</pdfrwt>
<totfact> 0.18757308E+01</totfact>
</mgrwt>
</event>
<event>
 6    1  0.9512547E-007  0.1461852E+04  0.7818608E-02  0.8910225E-01
          2   -1    0    0  501    0  0.00000000000E+00  0.00000000000E+00  0.16089908032E+04  0.16089908032E+04  0.00000000000E+00 0. -1.
         -2   -1    0    0    0  501 -0.00000000000E+00 -0.00000000000E+00 -0.33204235212E+03  0.33204235212E+03  0.00000000000E+00 0.  1.
         23    2    1    2    0    0 -0.50701070125E+03  0.29576250758E+02 -0.50587925355E+02  0.51966499875E+03  0.97764855334E+02 0.  0.
         13    1    3    3    0    0 -0.25132736785E+03  0.51739426651E+01 -0.73213546346E+02  0.26182520674E+03  0.00000000000E+00 0.  1.
        -13    1    3    3    0    0 -0.25568333340E+03  0.24402308093E+02  0.22625620992E+02  0.25783979201E+03  0.00000000000E+00 0. -1.
         22    1    1    2    0    0  0.50701070125E+03 -0.29576250758E+02  0.13275363765E+04  0.14213681566E+04  0.00000000000E+00 0. -1.
<mgrwt>
<rscale>  0 0.14618524E+04</rscale>
<asrwt>0</asrwt>
<pdfrwt beam="1">  1        2 0.24753704E+00 0.14618524E+04</pdfrwt>
<pdfrwt beam="2">  1       -2 0.51083440E-01 0.14618524E+04</pdfrwt>
<totfact> 0.38676954E+01</totfact>
</mgrwt>
</event>
<event>
 6    1  0.9512547E-007  0.4861361E+04  0.7818608E-02  0.7850257E-01
         -2   -1    0    0    0  501 -0.00000000000E+00  0.00000000000E+00  0.16321742809E+04  0.16321742809E+04  0.00000000000E+00 0.  1.
          2   -1    0    0  501    0  0.00000000000E+00 -0.00000000000E+00 -0.36198380536E+04  0.36198380536E+04  0.00000000000E+00 0. -1.
         23    2    1    2    0    0 -0.17213098304E+04 -0.10486475767E+04  0.47053171157E+03  0.20731297775E+04  0.11788855048E+03 0.  0.
         13    1    3    3    0    0 -0.67918271565E+03 -0.47631078267E+03  0.21661503310E+03  0.85736992920E+03  0.00000000000E+00 0. -1.
        -13    1    3    3    0    0 -0.10421271147E+04 -0.57233679404E+03  0.25391667848E+03  0.12157598483E+04  0.00000000000E+00 0.  1.
         22    1    1    2    0    0  0.17213098304E+04  0.10486475767E+04 -0.24581954843E+04  0.31788825570E+04  0.00000000000E+00 0. -1.
<mgrwt>
<rscale>  0 0.48613605E+04</rscale>
<asrwt>0</asrwt>
<pdfrwt beam="1">  1        2 0.55689816E+00 0.48613605E+04</pdfrwt>
<pdfrwt beam="2">  1       -2 0.25110374E+00 0.48613605E+04</pdfrwt>
<totfact> 0.31031382E-02</totfact>
</mgrwt>
</event>
<event>
 6    1  0.9512547E-007  0.1555357E+04  0.7818608E-02  0.8848453E-01
          2   -1    0    0  501    0  0.00000000000E+00  0.00000000000E+00  0.21466121682E+04  0.21466121682E+04  0.00000000000E+00 0. -1.
         -2   -1    0    0    0  501 -0.00000000000E+00 -0.00000000000E+00 -0.28173893321E+03  0.28173893321E+03  0.00000000000E+00 0.  1.
         23    2    1    2    0    0  0.56633923210E+02 -0.77179871051E+03  0.98077643765E+03  0.12534009757E+04  0.10104916851E+03 0.  0.
         13    1    3    3    0    0  0.57429291677E+02 -0.55331657923E+03  0.76908505260E+03  0.94918342723E+03  0.00000000000E+00 0.  1.
        -13    1    3    3    0    0 -0.79536846686E+00 -0.21848213127E+03  0.21169138505E+03  0.30421754848E+03  0.00000000000E+00 0. -1.
         22    1    1    2    0    0 -0.56633923210E+02  0.77179871051E+03  0.88409679734E+03  0.11749501257E+04  0.00000000000E+00 0. -1.
<mgrwt>
<rscale>  0 0.15553575E+04</rscale>
<asrwt>0</asrwt>
<pdfrwt beam="1">  1        2 0.33024802E+00 0.15553575E+04</pdfrwt>
<pdfrwt beam="2">  1       -2 0.43344453E-01 0.15553575E+04</pdfrwt>
<totfact> 0.26888503E+01</totfact>
</mgrwt>
</event>
<event>
 6    1  0.1007383E-006  0.3387091E+04  0.7818608E-02  0.8141082E-01
         -2   -1    0    0    0  501 -0.00000000000E+00  0.00000000000E+00  0.10575253035E+04  0.10575253035E+04  0.00000000000E+00 0.  1.
          2   -1    0    0  501    0  0.00000000000E+00 -0.00000000000E+00 -0.27120837210E+04  0.27120837210E+04  0.00000000000E+00 0. -1.
         23    2    1    2    0    0  0.16600142522E+04 -0.11902609487E+03 -0.48616314095E+03  0.17361484149E+04  0.89678260024E+02 0.  0.
         13    1    3    3    0    0  0.69882606001E+03 -0.23557158520E+02 -0.24116343550E+03  0.73964356585E+03  0.00000000000E+00 0. -1.
        -13    1    3    3    0    0  0.96118819217E+03 -0.95468936346E+02 -0.24499970545E+03  0.99650484909E+03  0.00000000000E+00 0.  1.
         22    1    1    2    0    0 -0.16600142522E+04  0.11902609487E+03 -0.11683952765E+04  0.20334606096E+04  0.00000000000E+00 0.  1.
<mgrwt>
<rscale>  0 0.33870915E+04</rscale>
<asrwt>0</asrwt>
<pdfrwt beam="1">  1        2 0.41724365E+00 0.33870915E+04</pdfrwt>
<pdfrwt beam="2">  1       -2 0.16269620E+00 0.33870915E+04</pdfrwt>
<totfact> 0.52104218E-01</totfact>
</mgrwt>
</event>
<event>
 6    1  0.9512547E-007  0.1011266E+04  0.7818608E-02  0.9296274E-01
         -1   -1    0    0    0  501 -0.00000000000E+00  0.00000000000E+00  0.16702104399E+03  0.16702104399E+03  0.00000000000E+00 0.  1.
          1   -1    0    0  501    0  0.00000000000E+00 -0.00000000000E+00 -0.15307337156E+04  0.15307337156E+04  0.00000000000E+00 0. -1.
         23    2    1    2    0    0 -0.23525114684E+03  0.33821907895E+03 -0.11677731008E+04  0.12415447609E+04  0.89465808866E+02 0.  0.
         13    1    3    3    0    0 -0.10571706829E+02  0.67076855161E+02 -0.15238744873E+03  0.16683225112E+03  0.00000000000E+00 0.  1.
        -13    1    3    3    0    0 -0.22467944001E+03  0.27114222379E+03 -0.10153856521E+04  0.10747125098E+04  0.00000000000E+00 0. -1.
         22    1    1    2    0    0  0.23525114684E+03 -0.33821907895E+03 -0.19593957075E+03  0.45620999862E+03  0.00000000000E+00 0.  1.
<mgrwt>
<rscale>  0 0.10112660E+04</rscale>
<asrwt>0</asrwt>
<pdfrwt beam="1">  1        1 0.23549750E+00 0.10112660E+04</pdfrwt>
<pdfrwt beam="2">  1       -1 0.25695545E-01 0.10112660E+04</pdfrwt>
<totfact> 0.83395271E+01</totfact>
</mgrwt>
</event>
<event>
 6    1  0.9512547E-007  0.1174472E+04  0.7818608E-02  0.9135499E-01
          2   -1    0    0  501    0  0.00000000000E+00  0.00000000000E+00  0.25884362115E+04  0.25884362115E+04  0.00000000000E+00 0. -1.
         -2   -1    0    0    0  501 -0.00000000000E+00 -0.00000000000E+00 -0.13322569541E+03  0.13322569541E+03  0.00000000000E+00 0.  1.
         23    2    1    2    0    0 -0.47591295958E+03 -0.20251105338E+03  0.18598695243E+04  0.19330334974E+04  0.99999913358E+02 0.  0.
         11    1    3    3    0    0 -0.21536803688E+03 -0.49033733031E+02  0.67683285230E+03  0.71196236434E+03  0.00000000000E+00 0.  1.
        -11    1    3    3    0    0 -0.26054492271E+03 -0.15347732035E+03  0.11830366720E+04  0.12210711330E+04  0.00000000000E+00 0. -1.
         22    1    1    2    0    0  0.47591295958E+03  0.20251105338E+03  0.59534099180E+03  0.78862840955E+03  0.00000000000E+00 0.  1.
<mgrwt>
<rscale>  0 0.11744722E+04</rscale>
<asrwt>0</asrwt>
<pdfrwt beam="1">  1        2 0.39822092E+00 0.11744722E+04</pdfrwt>
<pdfrwt beam="2">  1       -2 0.20496263E-01 0.11744722E+04</pdfrwt>
<totfact> 0.63061338E+01</totfact>
</mgrwt>
</event>
<event>
 6    1  0.9512547E-007  0.3142500E+04  0.7818608E-02  0.8204170E-01
          1   -1    0    0  501    0  0.00000000000E+00  0.00000000000E+00  0.35767331763E+04  0.35767331763E+04  0.00000000000E+00 0. -1.
         -1   -1    0    0    0  501 -0.00000000000E+00 -0.00000000000E+00 -0.69024607007E+03  0.69024607007E+03  0.00000000000E+00 0.  1.
         23    2    1    2    0    0 -0.10040238425E+04 -0.39770824323E+03 -0.10154971669E+03  0.10897792561E+04  0.10521767505E+03 0.  0.
         11    1    3    3    0    0 -0.71759240511E+03 -0.30880665426E+03 -0.31798347101E+02  0.78186414707E+03  0.00000000000E+00 0. -1.
        -11    1    3    3    0    0 -0.28643143735E+03 -0.88901588968E+02 -0.69751369587E+02  0.30791510905E+03  0.00000000000E+00 0.  1.
         22    1    1    2    0    0  0.10040238425E+04  0.39770824323E+03  0.29880368229E+04  0.31771999902E+04  0.00000000000E+00 0. -1.
<mgrwt>
<rscale>  0 0.31424997E+04</rscale>
<asrwt>0</asrwt>
<pdfrwt beam="1">  1        1 0.55026663E+00 0.31424997E+04</pdfrwt>
<pdfrwt beam="2">  1       -1 0.10619171E+00 0.31424997E+04</pdfrwt>
<totfact> 0.15120921E-01</totfact>
</mgrwt>
</event>
<event>
 6    1  0.9512547E-007  0.1978757E+04  0.7818608E-02  0.8616617E-01
          1   -1    0    0  501    0  0.00000000000E+00  0.00000000000E+00  0.10842850213E+04  0.10842850213E+04  0.00000000000E+00 0. -1.
         -1   -1    0    0    0  501 -0.00000000000E+00 -0.00000000000E+00 -0.90277901625E+03  0.90277901625E+03  0.00000000000E+00 0.  1.
         23    2    1    2    0    0  0.34929721026E+03  0.54532407204E+03 -0.65732516734E+03  0.92733547777E+03  0.92129409405E+02 0.  0.
         13    1    3    3    0    0  0.26634026451E+03  0.33552797990E+03 -0.43936979995E+03  0.61364646410E+03  0.00000000000E+00 0.  1.
        -13    1    3    3    0    0  0.82956945752E+02  0.20979609213E+03 -0.21795536739E+03  0.31368901367E+03  0.00000000000E+00 0. -1.
         22    1    1    2    0    0 -0.34929721026E+03 -0.54532407204E+03  0.83883117242E+03  0.10597285598E+04  0.00000000000E+00 0. -1.
<mgrwt>
<rscale>  0 0.19787569E+04</rscale>
<asrwt>0</asrwt>
<pdfrwt beam="1">  1        1 0.16681308E+00 0.19787569E+04</pdfrwt>
<pdfrwt beam="2">  1       -1 0.13888908E+00 0.19787569E+04</pdfrwt>
<totfact> 0.51833005E+00</totfact>
</mgrwt>
</event>
<event>
 6    1  0.9512547E-007  0.7511182E+03  0.7818608E-02  0.9633598E-01
          2   -1    0    0  501    0  0.00000000000E+00  0.00000000000E+00  0.76386052764E+03  0.76386052764E+03  0.00000000000E+00 0. -1.
         -2   -1    0    0    0  501 -0.00000000000E+00 -0.00000000000E+00 -0.18464709456E+03  0.18464709456E+03  0.00000000000E+00 0.  1.
         23    2    1    2    0    0 -0.29442825177E+03 -0.43217667978E+02  0.57119883326E+03  0.65081651370E+03  0.93478688062E+02 0.  0.
         11    1    3    3    0    0 -0.24413552979E+03  0.19181856183E+01  0.43755363693E+03  0.50105790237E+03  0.00000000000E+00 0.  1.
        -11    1    3    3    0    0 -0.50292721983E+02 -0.45135853597E+02  0.13364519634E+03  0.14975861133E+03  0.00000000000E+00 0. -1.
         22    1    1    2    0    0  0.29442825177E+03  0.43217667978E+02  0.80145998177E+01  0.29769110850E+03  0.00000000000E+00 0.  1.
<mgrwt>
<rscale>  0 0.75111817E+03</rscale>
<asrwt>0</asrwt>
<pdfrwt beam="1">  1        2 0.11751700E+00 0.75111817E+03</pdfrwt>
<pdfrwt beam="2">  1       -2 0.28407246E-01 0.75111817E+03</pdfrwt>
<totfact> 0.41767447E+02</totfact>
</mgrwt>
</event>
<event>
 6    1  0.9512547E-007  0.4202890E+04  0.7818608E-02  0.7964823E-01
          2   -1    0    0  501    0  0.00000000000E+00  0.00000000000E+00  0.23285328540E+04  0.23285328540E+04  0.00000000000E+00 0. -1.
         -2   -1    0    0    0  501 -0.00000000000E+00 -0.00000000000E+00 -0.18965037325E+04  0.18965037325E+04  0.00000000000E+00 0.  1.
         23    2    1    2    0    0  0.92594264203E+03 -0.65248550181E+03  0.19944237367E+04  0.22952220773E+04  0.84918996078E+02 0.  0.
         11    1    3    3    0    0  0.24629001524E+03 -0.18976181303E+03  0.62122194956E+03  0.69468340120E+03  0.00000000000E+00 0. -1.
        -11    1    3    3    0    0  0.67965262679E+03 -0.46272368879E+03  0.13732017872E+04  0.16005386761E+04  0.00000000000E+00 0.  1.
         22    1    1    2    0    0 -0.92594264203E+03  0.65248550181E+03 -0.15623946152E+04  0.19298145092E+04  0.00000000000E+00 0.  1.
<mgrwt>
<rscale>  0 0.42028901E+04</rscale>
<asrwt>0</asrwt>
<pdfrwt beam="1">  1        2 0.35823582E+00 0.42028901E+04</pdfrwt>
<pdfrwt beam="2">  1       -2 0.29176981E+00 0.42028901E+04</pdfrwt>
<totfact> 0.12097496E-01</totfact>
</mgrwt>
</event>
<event>
 6    1  0.9512547E-007  0.1180631E+04  0.7818608E-02  0.9129981E-01
         -1   -1    0    0    0  501 -0.00000000000E+00  0.00000000000E+00  0.78116086600E+03  0.78116086600E+03  0.00000000000E+00 0.  1.
          1   -1    0    0  501    0  0.00000000000E+00 -0.00000000000E+00 -0.44609540187E+03  0.44609540187E+03  0.00000000000E+00 0. -1.
         23    2    1    2    0    0 -0.35890046847E+03  0.38723656871E+03 -0.97327842179E+02  0.54481529771E+03  0.92678440507E+02 0.  0.
         13    1    3    3    0    0 -0.19943778180E+03  0.22649451191E+03 -0.10137487440E+03  0.31835837965E+03  0.00000000000E+00 0.  1.
        -13    1    3    3    0    0 -0.15946268667E+03  0.16074205680E+03  0.40470322198E+01  0.22645691805E+03  0.00000000000E+00 0. -1.
         22    1    1    2    0    0  0.35890046847E+03 -0.38723656871E+03  0.43239330631E+03  0.68244097017E+03  0.00000000000E+00 0. -1.
<mgrwt>
<rscale>  0 0.11806308E+04</rscale>
<asrwt>0</asrwt>
<pdfrwt beam="1">  1        1 0.68630062E-01 0.11806308E+04</pdfrwt>
<pdfrwt beam="2">  1       -1 0.12017859E+00 0.11806308E+04</pdfrwt>
<totfact> 0.31686264E+01</totfact>
</mgrwt>
</event>
<event>
 6    1  0.9512547E-007  0.3053013E+04  0.7818608E-02  0.8228753E-01
          2   -1    0    0  501    0  0.00000000000E+00  0.00000000000E+00  0.14207378550E+04  0.14207378550E+04  0.00000000000E+00 0. -1.
         -2   -1    0    0    0  501 -0.00000000000E+00 -0.00000000000E+00 -0.16401496284E+04  0.16401496284E+04  0.00000000000E+00 0.  1.
         23    2    1    2    0    0  0.24715109217E+03  0.14368331717E+04 -0.55879219650E+03  0.15639732249E+04  0.90500297381E+02 0.  0.
         13    1    3    3    0    0  0.13601392399E+03  0.54117291506E+03 -0.20067970811E+03  0.59299262792E+03  0.00000000000E+00 0.  1.
        -13    1    3    3    0    0  0.11113716819E+03  0.89566025661E+03 -0.35811248838E+03  0.97098059701E+03  0.00000000000E+00 0. -1.
         22    1    1    2    0    0 -0.24715109217E+03 -0.14368331717E+04  0.33938042319E+03  0.14969142585E+04  0.00000000000E+00 0.  1.
<mgrwt>
<rscale>  0 0.30530134E+04</rscale>
<asrwt>0</asrwt>
<pdfrwt beam="1">  1        2 0.21857505E+00 0.30530134E+04</pdfrwt>
<pdfrwt beam="2">  1       -2 0.25233071E+00 0.30530134E+04</pdfrwt>
<totfact> 0.74616954E-01</totfact>
</mgrwt>
</event>
<event>
 6    1  0.9512547E-007  0.1793701E+04  0.7818608E-02  0.8709656E-01
         -1   -1    0    0    0  501 -0.00000000000E+00  0.00000000000E+00  0.65516229647E+03  0.65516229647E+03  0.00000000000E+00 0.  1.
          1   -1    0    0  501    0  0.00000000000E+00 -0.00000000000E+00 -0.12276976588E+04  0.12276976588E+04  0.00000000000E+00 0. -1.
         23    2    1    2    0    0  0.39321034485E+03  0.53047997245E+01 -0.11303991670E+04  0.12003245783E+04  0.91292389829E+02 0.  0.
         11    1    3    3    0    0  0.23269025500E+03 -0.24941729619E+02 -0.55832304852E+03  0.60538539060E+03  0.00000000000E+00 0. -1.
        -11    1    3    3    0    0  0.16052008986E+03  0.30246529343E+02 -0.57207611844E+03  0.59493918772E+03  0.00000000000E+00 0.  1.
         22    1    1    2    0    0 -0.39321034485E+03 -0.53047997245E+01  0.55786380466E+03  0.68253537693E+03  0.00000000000E+00 0.  1.
<mgrwt>
<rscale>  0 0.17937014E+04</rscale>
<asrwt>0</asrwt>
<pdfrwt beam="1">  1        1 0.18887656E+00 0.17937014E+04</pdfrwt>
<pdfrwt beam="2">  1       -1 0.10079420E+00 0.17937014E+04</pdfrwt>
<totfact> 0.90138340E+00</totfact>
</mgrwt>
</event>
<event>
 6    1  0.9512547E-007  0.1412283E+04  0.7818608E-02  0.8944975E-01
         -2   -1    0    0    0  501 -0.00000000000E+00  0.00000000000E+00  0.58540340556E+03  0.58540340556E+03  0.00000000000E+00 0.  1.
          2   -1    0    0  501    0  0.00000000000E+00 -0.00000000000E+00 -0.85178192290E+03  0.85178192290E+03  0.00000000000E+00 0. -1.
         23    2    1    2    0    0 -0.17460217093E+03 -0.68068301592E+03 -0.15714593316E+03  0.72602638441E+03  0.92758720800E+02 0.  0.
         11    1    3    3    0    0 -0.13205862851E+03 -0.37007720274E+03 -0.11686123600E+03  0.40994288118E+03  0.00000000000E+00 0. -1.
        -11    1    3    3    0    0 -0.42543542424E+02 -0.31060581319E+03 -0.40284697156E+02  0.31608350323E+03  0.00000000000E+00 0.  1.
         22    1    1    2    0    0  0.17460217093E+03  0.68068301592E+03 -0.10923258418E+03  0.71115894405E+03  0.00000000000E+00 0. -1.
<mgrwt>
<rscale>  0 0.14122833E+04</rscale>
<asrwt>0</asrwt>
<pdfrwt beam="1">  1        2 0.13104337E+00 0.14122833E+04</pdfrwt>
<pdfrwt beam="2">  1       -2 0.90062062E-01 0.14122833E+04</pdfrwt>
<totfact> 0.32482525E+01</totfact>
</mgrwt>
</event>
<event>
 6    1  0.9512547E-007  0.4161411E+04  0.7818608E-02  0.7972754E-01
         -1   -1    0    0    0  501 -0.00000000000E+00  0.00000000000E+00  0.30400917312E+04  0.30400917312E+04  0.00000000000E+00 0.  1.
          1   -1    0    0  501    0  0.00000000000E+00 -0.00000000000E+00 -0.14240803695E+04  0.14240803695E+04  0.00000000000E+00 0. -1.
         23    2    1    2    0    0  0.13678912510E+04 -0.62035055451E+03  0.23520103777E+04  0.27915526471E+04  0.69656872555E+02 0.  0.
         13    1    3    3    0    0  0.69925238948E+03 -0.28046062691E+03  0.11601812280E+04  0.13833410820E+04  0.00000000000E+00 0.  1.
        -13    1    3    3    0    0  0.66863886152E+03 -0.33988992760E+03  0.11918291497E+04  0.14082115651E+04  0.00000000000E+00 0. -1.
         22    1    1    2    0    0 -0.13678912510E+04  0.62035055451E+03 -0.73599901603E+03  0.16726194536E+04  0.00000000000E+00 0. -1.
<mgrwt>
<rscale>  0 0.41614108E+04</rscale>
<asrwt>0</asrwt>
<pdfrwt beam="1">  1        1 0.21908929E+00 0.41614108E+04</pdfrwt>
<pdfrwt beam="2">  1       -1 0.46770642E+00 0.41614108E+04</pdfrwt>
<totfact> 0.13972960E-02</totfact>
</mgrwt>
</event>
<event>
 6    1  0.9512547E-007  0.3594615E+04  0.7818608E-02  0.8091726E-01
         -2   -1    0    0    0  501 -0.00000000000E+00  0.00000000000E+00  0.24433464666E+04  0.24433464666E+04  0.00000000000E+00 0.  1.
          2   -1    0    0  501    0  0.00000000000E+00 -0.00000000000E+00 -0.13220859769E+04  0.13220859769E+04  0.00000000000E+00 0. -1.
         23    2    1    2    0    0 -0.23846902893E+03  0.43151096859E+03  0.23702112601E+04  0.24226937419E+04  0.92056264065E+02 0.  0.
         11    1    3    3    0    0 -0.24463616370E+03  0.41064730162E+03  0.22168284267E+04  0.22677756353E+04  0.00000000000E+00 0.  1.
        -11    1    3    3    0    0  0.61671347715E+01  0.20863666978E+02  0.15338283342E+03  0.15491810656E+03  0.00000000000E+00 0. -1.
         22    1    1    2    0    0  0.23846902893E+03 -0.43151096859E+03 -0.12489507704E+04  0.13427387015E+04  0.00000000000E+00 0. -1.
<mgrwt>
<rscale>  0 0.35946149E+04</rscale>
<asrwt>0</asrwt>
<pdfrwt beam="1">  1        2 0.20339784E+00 0.35946149E+04</pdfrwt>
<pdfrwt beam="2">  1       -2 0.37589946E+00 0.35946149E+04</pdfrwt>
<totfact> 0.13915426E-01</totfact>
</mgrwt>
</event>
<event>
 6    1  0.9512547E-007  0.2080819E+04  0.7818608E-02  0.8569740E-01
         -1   -1    0    0    0  501 -0.00000000000E+00  0.00000000000E+00  0.45539194669E+03  0.45539194669E+03  0.00000000000E+00 0.  1.
          1   -1    0    0  501    0  0.00000000000E+00 -0.00000000000E+00 -0.23769666716E+04  0.23769666716E+04  0.00000000000E+00 0. -1.
         23    2    1    2    0    0 -0.51003829557E+03 -0.20986518261E+03 -0.21602037076E+04  0.22314208101E+04  0.92608399216E+02 0.  0.
         11    1    3    3    0    0 -0.70625202070E+02 -0.31027496803E+01 -0.35934686048E+03  0.36623450460E+03  0.00000000000E+00 0. -1.
        -11    1    3    3    0    0 -0.43941309350E+03 -0.20676243293E+03 -0.18008568472E+04  0.18651863055E+04  0.00000000000E+00 0.  1.
         22    1    1    2    0    0  0.51003829557E+03  0.20986518261E+03  0.23862898277E+03  0.60093780812E+03  0.00000000000E+00 0.  1.
<mgrwt>
<rscale>  0 0.20808186E+04</rscale>
<asrwt>0</asrwt>
<pdfrwt beam="1">  1        1 0.36568718E+00 0.20808186E+04</pdfrwt>
<pdfrwt beam="2">  1       -1 0.70060300E-01 0.20808186E+04</pdfrwt>
<totfact> 0.31268011E+00</totfact>
</mgrwt>
</event>
<event>
 6    1  0.9512547E-007  0.6074372E+03  0.7818608E-02  0.9890095E-01
          3   -1    0    0  501    0  0.00000000000E+00  0.00000000000E+00  0.18236529370E+03  0.18236529370E+03  0.00000000000E+00 0. -1.
         -3   -1    0    0    0  501 -0.00000000000E+00 -0.00000000000E+00 -0.50582540071E+03  0.50582540071E+03  0.00000000000E+00 0.  1.
         23    2    1    2    0    0 -0.40420961530E+02 -0.25757722501E+03 -0.32572542929E+03  0.42745133670E+03  0.92939275827E+02 0.  0.
         13    1    3    3    0    0 -0.16601579091E+02 -0.15754328061E+03 -0.12453676928E+03  0.20150658698E+03  0.00000000000E+00 0.  1.
        -13    1    3    3    0    0 -0.23819382439E+02 -0.10003394439E+03 -0.20118866001E+03  0.22594474972E+03  0.00000000000E+00 0. -1.
         22    1    1    2    0    0  0.40420961530E+02  0.25757722501E+03  0.22653222762E+01  0.26073935771E+03  0.00000000000E+00 0. -1.
<mgrwt>
<rscale>  0 0.60743723E+03</rscale>
<asrwt>0</asrwt>
<pdfrwt beam="1">  1        3 0.28056199E-01 0.60743723E+03</pdfrwt>
<pdfrwt beam="2">  1       -3 0.77819293E-01 0.60743723E+03</pdfrwt>
<totfact> 0.50018849E+01</totfact>
</mgrwt>
</event>
<event>
 6    1  0.9512547E-007  0.3630445E+04  0.7818608E-02  0.8083553E-01
         -2   -1    0    0    0  501 -0.00000000000E+00  0.00000000000E+00  0.16427778292E+04  0.16427778292E+04  0.00000000000E+00 0.  1.
          2   -1    0    0  501    0  0.00000000000E+00 -0.00000000000E+00 -0.20057692557E+04  0.20057692557E+04  0.00000000000E+00 0. -1.
         23    2    1    2    0    0  0.58517922480E+03  0.14926246046E+04 -0.10346489248E+04  0.19103046592E+04  0.91665467314E+02 0.  0.
         11    1    3    3    0    0  0.46509708572E+03  0.12382058829E+04 -0.81756294598E+03  0.15549528219E+04  0.00000000000E+00 0.  1.
        -11    1    3    3    0    0  0.12008213907E+03  0.25441872168E+03 -0.21708597886E+03  0.35535183731E+03  0.00000000000E+00 0. -1.
         22    1    1    2    0    0 -0.58517922480E+03 -0.14926246046E+04  0.67165749835E+03  0.17382424257E+04  0.00000000000E+00 0.  1.
<mgrwt>
<rscale>  0 0.36304453E+04</rscale>
<asrwt>0</asrwt>
<pdfrwt beam="1">  1        2 0.30857989E+00 0.36304453E+04</pdfrwt>
<pdfrwt beam="2">  1       -2 0.25273505E+00 0.36304453E+04</pdfrwt>
<totfact> 0.33334845E-01</totfact>
</mgrwt>
</event>
<event>
 6    1  0.9512547E-007  0.1970462E+04  0.7818608E-02  0.8620556E-01
          3   -1    0    0  501    0  0.00000000000E+00  0.00000000000E+00  0.37925267783E+03  0.37925267783E+03  0.00000000000E+00 0. -1.
         -3   -1    0    0    0  501 -0.00000000000E+00 -0.00000000000E+00 -0.25594551452E+04  0.25594551452E+04  0.00000000000E+00 0.  1.
         23    2    1    2    0    0  0.64349041153E+03 -0.73776415194E+03 -0.12278786292E+04  0.15729492256E+04  0.90041572367E+02 0.  0.
         13    1    3    3    0    0  0.50253053706E+03 -0.60061192281E+03 -0.92719173890E+03  0.12136540459E+04  0.00000000000E+00 0.  1.
        -13    1    3    3    0    0  0.14095987446E+03 -0.13715222913E+03 -0.30068689027E+03  0.35929517968E+03  0.00000000000E+00 0. -1.
         22    1    1    2    0    0 -0.64349041153E+03  0.73776415194E+03 -0.95232383818E+03  0.13657585974E+04  0.00000000000E+00 0. -1.
<mgrwt>
<rscale>  0 0.19704621E+04</rscale>
<asrwt>0</asrwt>
<pdfrwt beam="1">  1        3 0.58346567E-01 0.19704621E+04</pdfrwt>
<pdfrwt beam="2">  1       -3 0.39376232E+00 0.19704621E+04</pdfrwt>
<totfact> 0.80566709E-02</totfact>
</mgrwt>
</event>
<event>
 6    1  0.9512547E-007  0.1402321E+04  0.7818608E-02  0.8952140E-01
          1   -1    0    0  501    0  0.00000000000E+00  0.00000000000E+00  0.23215635199E+04  0.23215635199E+04  0.00000000000E+00 0. -1.
         -1   -1    0    0    0  501 -0.00000000000E+00 -0.00000000000E+00 -0.21176498375E+03  0.21176498375E+03  0.00000000000E+00 0.  1.
         23    2    1    2    0    0 -0.60465987802E+03 -0.20945640065E+03  0.15641410707E+04  0.16923602394E+04  0.89779390789E+02 0.  0.
         13    1    3    3    0    0 -0.24839981722E+03 -0.12937949297E+03  0.63366659787E+03  0.69280219374E+03  0.00000000000E+00 0. -1.
        -13    1    3    3    0    0 -0.35626006080E+03 -0.80076907680E+02  0.93047447285E+03  0.99955804569E+03  0.00000000000E+00 0.  1.
         22    1    1    2    0    0  0.60465987802E+03  0.20945640065E+03  0.54565746540E+03  0.84096826421E+03  0.00000000000E+00 0. -1.
<mgrwt>
<rscale>  0 0.14023207E+04</rscale>
<asrwt>0</asrwt>
<pdfrwt beam="1">  1        1 0.35716360E+00 0.14023207E+04</pdfrwt>
<pdfrwt beam="2">  1       -1 0.32579230E-01 0.14023207E+04</pdfrwt>
<totfact> 0.15503578E+01</totfact>
</mgrwt>
</event>
<event>
 6    1  0.9512547E-007  0.3274896E+04  0.7818608E-02  0.8169312E-01
         -2   -1    0    0    0  501 -0.00000000000E+00  0.00000000000E+00  0.78896290393E+03  0.78896290393E+03  0.00000000000E+00 0.  1.
          2   -1    0    0  501    0  0.00000000000E+00 -0.00000000000E+00 -0.33984319536E+04  0.33984319536E+04  0.00000000000E+00 0. -1.
         23    2    1    2    0    0  0.12599749611E+04 -0.10436207458E+04 -0.13227969780E+04  0.21059996083E+04  0.93602038039E+02 0.  0.
         11    1    3    3    0    0  0.20012806061E+03 -0.13155440811E+03 -0.16832909679E+03  0.29273279243E+03  0.00000000000E+00 0. -1.
        -11    1    3    3    0    0  0.10598469005E+04 -0.91206633766E+03 -0.11544678812E+04  0.18132668159E+04  0.00000000000E+00 0.  1.
         22    1    1    2    0    0 -0.12599749611E+04  0.10436207458E+04 -0.12866720716E+04  0.20813952492E+04  0.00000000000E+00 0.  1.
<mgrwt>
<rscale>  0 0.32748965E+04</rscale>
<asrwt>0</asrwt>
<pdfrwt beam="1">  1        2 0.52283568E+00 0.32748965E+04</pdfrwt>
<pdfrwt beam="2">  1       -2 0.12137891E+00 0.32748965E+04</pdfrwt>
<totfact> 0.41230395E-01</totfact>
</mgrwt>
</event>
<event>
 6    1  0.9512547E-007  0.2613081E+04  0.7818608E-02  0.8363771E-01
          2   -1    0    0  501    0  0.00000000000E+00  0.00000000000E+00  0.66142648207E+03  0.66142648207E+03  0.00000000000E+00 0. -1.
         -2   -1    0    0    0  501 -0.00000000000E+00 -0.00000000000E+00 -0.25808590571E+04  0.25808590571E+04  0.00000000000E+00 0.  1.
         23    2    1    2    0    0 -0.10730319939E+04 -0.29351457756E+03 -0.11513727929E+03  0.11226086814E+04  0.97186374704E+02 0.  0.
         13    1    3    3    0    0 -0.91289700849E+03 -0.24739584451E+03 -0.13250667657E+03  0.95506212957E+03  0.00000000000E+00 0.  1.
        -13    1    3    3    0    0 -0.16013498536E+03 -0.46118733044E+02  0.17369397271E+02  0.16754655185E+03  0.00000000000E+00 0. -1.
         22    1    1    2    0    0  0.10730319939E+04  0.29351457756E+03 -0.18042952957E+04  0.21196768578E+04  0.00000000000E+00 0.  1.
<mgrwt>
<rscale>  0 0.26130813E+04</rscale>
<asrwt>0</asrwt>
<pdfrwt beam="1">  1        2 0.10175792E+00 0.26130813E+04</pdfrwt>
<pdfrwt beam="2">  1       -2 0.39705523E+00 0.26130813E+04</pdfrwt>
<totfact> 0.30164720E-01</totfact>
</mgrwt>
</event>
<event>
 6    1  0.9512547E-007  0.1420033E+04  0.7818608E-02  0.8939444E-01
          2   -1    0    0  501    0  0.00000000000E+00  0.00000000000E+00  0.59951897786E+03  0.59951897786E+03  0.00000000000E+00 0. -1.
         -2   -1    0    0    0  501 -0.00000000000E+00 -0.00000000000E+00 -0.84087995792E+03  0.84087995792E+03  0.00000000000E+00 0.  1.
         23    2    1    2    0    0 -0.93273399446E+02 -0.62287594849E+03 -0.44847908121E+03  0.77739646062E+03  0.80854167827E+02 0.  0.
         11    1    3    3    0    0 -0.80884250893E+02 -0.34438469629E+03 -0.21662628021E+03  0.41481324275E+03  0.00000000000E+00 0.  1.
        -11    1    3    3    0    0 -0.12389148552E+02 -0.27849125220E+03 -0.23185280100E+03  0.36258321787E+03  0.00000000000E+00 0. -1.
         22    1    1    2    0    0  0.93273399446E+02  0.62287594849E+03  0.20711810115E+03  0.66300247516E+03  0.00000000000E+00 0. -1.
<mgrwt>
<rscale>  0 0.14200331E+04</rscale>
<asrwt>0</asrwt>
<pdfrwt beam="1">  1        2 0.92233689E-01 0.14200331E+04</pdfrwt>
<pdfrwt beam="2">  1       -2 0.12936615E+00 0.14200331E+04</pdfrwt>
<totfact> 0.21207476E+01</totfact>
</mgrwt>
</event>
<event>
 6    1  0.9512547E-007  0.3573863E+04  0.7818608E-02  0.8096505E-01
         -1   -1    0    0    0  501 -0.00000000000E+00  0.00000000000E+00  0.14711087959E+04  0.14711087959E+04  0.00000000000E+00 0.  1.
          1   -1    0    0  501    0  0.00000000000E+00 -0.00000000000E+00 -0.21705558070E+04  0.21705558070E+04  0.00000000000E+00 0. -1.
         23    2    1    2    0    0  0.88895103834E+03  0.11998535060E+04  0.64787514964E+03  0.16304064422E+04  0.92739273417E+02 0.  0.
         11    1    3    3    0    0  0.18131435216E+03  0.26163722961E+03  0.17869419473E+03  0.36504869462E+03  0.00000000000E+00 0.  1.
        -11    1    3    3    0    0  0.70763668618E+03  0.93821627635E+03  0.46918095492E+03  0.12653577476E+04  0.00000000000E+00 0. -1.
         22    1    1    2    0    0 -0.88895103834E+03 -0.11998535060E+04 -0.13473221608E+04  0.20112581608E+04  0.00000000000E+00 0. -1.
<mgrwt>
<rscale>  0 0.35738628E+04</rscale>
<asrwt>0</asrwt>
<pdfrwt beam="1">  1        1 0.33393166E+00 0.35738628E+04</pdfrwt>
<pdfrwt beam="2">  1       -1 0.22632443E+00 0.35738628E+04</pdfrwt>
<totfact> 0.18473647E-01</totfact>
</mgrwt>
</event>
<event>
 6    1  0.9512547E-007  0.2486266E+04  0.7818608E-02  0.8407895E-01
          2   -1    0    0  501    0  0.00000000000E+00  0.00000000000E+00  0.17330259934E+04  0.17330259934E+04  0.00000000000E+00 0. -1.
         -2   -1    0    0    0  501 -0.00000000000E+00 -0.00000000000E+00 -0.89172324225E+03  0.89172324225E+03  0.00000000000E+00 0.  1.
         23    2    1    2    0    0 -0.49180297321E+03  0.11089419843E+04  0.14359854650E+03  0.12253159052E+04  0.95687177889E+02 0.  0.
         13    1    3    3    0    0 -0.24746183049E+03  0.64179639037E+03  0.11457900852E+03  0.69732941529E+03  0.00000000000E+00 0. -1.
        -13    1    3    3    0    0 -0.24434114272E+03  0.46714559396E+03  0.29019537983E+02  0.52798648995E+03  0.00000000000E+00 0.  1.
         22    1    1    2    0    0  0.49180297321E+03 -0.11089419843E+04  0.69770420461E+03  0.13994333304E+04  0.00000000000E+00 0.  1.
<mgrwt>
<rscale>  0 0.24862659E+04</rscale>
<asrwt>0</asrwt>
<pdfrwt beam="1">  1        2 0.26661938E+00 0.24862659E+04</pdfrwt>
<pdfrwt beam="2">  1       -2 0.13718819E+00 0.24862659E+04</pdfrwt>
<totfact> 0.31780084E+00</totfact>
</mgrwt>
</event>
<event>
 6    1  0.9512547E-007  0.1660208E+04  0.7818608E-02  0.8784390E-01
          2   -1    0    0  501    0  0.00000000000E+00  0.00000000000E+00  0.81781510934E+03  0.81781510934E+03  0.00000000000E+00 0. -1.
         -2   -1    0    0    0  501 -0.00000000000E+00 -0.00000000000E+00 -0.84257770099E+03  0.84257770099E+03  0.00000000000E+00 0.  1.
         23    2    1    2    0    0 -0.44454747768E+03  0.69631969356E+03  0.34456441619E+02  0.83214739413E+03  0.93800125950E+02 0.  0.
         11    1    3    3    0    0 -0.11532125714E+03  0.17984497887E+03 -0.32168143577E+02  0.21605091584E+03  0.00000000000E+00 0.  1.
        -11    1    3    3    0    0 -0.32922622054E+03  0.51647471469E+03  0.66624585195E+02  0.61609647829E+03  0.00000000000E+00 0. -1.
         22    1    1    2    0    0  0.44454747768E+03 -0.69631969356E+03 -0.59219033267E+02  0.82824541620E+03  0.00000000000E+00 0. -1.
<mgrwt>
<rscale>  0 0.16602081E+04</rscale>
<asrwt>0</asrwt>
<pdfrwt beam="1">  1        2 0.12581771E+00 0.16602081E+04</pdfrwt>
<pdfrwt beam="2">  1       -2 0.12962734E+00 0.16602081E+04</pdfrwt>
<totfact> 0.13963229E+01</totfact>
</mgrwt>
</event>
<event>
 6    1  0.9512547E-007  0.2329669E+04  0.7818608E-02  0.8466314E-01
         -2   -1    0    0    0  501 -0.00000000000E+00  0.00000000000E+00  0.10006039085E+04  0.10006039085E+04  0.00000000000E+00 0.  1.
          2   -1    0    0  501    0  0.00000000000E+00 -0.00000000000E+00 -0.13560208039E+04  0.13560208039E+04  0.00000000000E+00 0. -1.
         23    2    1    2    0    0  0.49133761306E+03 -0.67003885340E+02 -0.12424797723E+04  0.13403655337E+04  0.83196205467E+02 0.  0.
         13    1    3    3    0    0  0.19004436911E+03 -0.65927101380E+02 -0.47255361342E+03  0.51358559412E+03  0.00000000000E+00 0. -1.
        -13    1    3    3    0    0  0.30129324395E+03 -0.10767839609E+01 -0.76992615889E+03  0.82677993956E+03  0.00000000000E+00 0.  1.
         22    1    1    2    0    0 -0.49133761306E+03  0.67003885340E+02  0.88706287697E+03  0.10162591787E+04  0.00000000000E+00 0.  1.
<mgrwt>
<rscale>  0 0.23296693E+04</rscale>
<asrwt>0</asrwt>
<pdfrwt beam="1">  1        2 0.20861858E+00 0.23296693E+04</pdfrwt>
<pdfrwt beam="2">  1       -2 0.15393906E+00 0.23296693E+04</pdfrwt>
<totfact> 0.38796041E+00</totfact>
</mgrwt>
</event>
<event>
 6    1  0.9512547E-007  0.2651820E+04  0.7818608E-02  0.8350809E-01
         -1   -1    0    0    0  501 -0.00000000000E+00  0.00000000000E+00  0.15146870904E+04  0.15146870904E+04  0.00000000000E+00 0.  1.
          1   -1    0    0  501    0  0.00000000000E+00 -0.00000000000E+00 -0.11606602421E+04  0.11606602421E+04  0.00000000000E+00 0. -1.
         23    2    1    2    0    0 -0.28939634078E+03  0.60573505760E+02 -0.11255950693E+04  0.11664734443E+04  0.79225277773E+02 0.  0.
         11    1    3    3    0    0 -0.45160411110E+02 -0.76516853306E+01 -0.27830750110E+03  0.28205154882E+03  0.00000000000E+00 0. -1.
        -11    1    3    3    0    0 -0.24423592967E+03  0.68225191091E+02 -0.84728756817E+03  0.88442189549E+03  0.00000000000E+00 0.  1.
         22    1    1    2    0    0  0.28939634078E+03 -0.60573505760E+02  0.14796219176E+04  0.15088738883E+04  0.00000000000E+00 0.  1.
<mgrwt>
<rscale>  0 0.26518198E+04</rscale>
<asrwt>0</asrwt>
<pdfrwt beam="1">  1        1 0.17856311E+00 0.26518198E+04</pdfrwt>
<pdfrwt beam="2">  1       -1 0.23302878E+00 0.26518198E+04</pdfrwt>
<totfact> 0.90263910E-01</totfact>
</mgrwt>
</event>
<event>
 6    1  0.9512547E-007  0.1818422E+04  0.7818608E-02  0.8696564E-01
         -2   -1    0    0    0  501 -0.00000000000E+00  0.00000000000E+00  0.55014806713E+03  0.55014806713E+03  0.00000000000E+00 0.  1.
          2   -1    0    0  501    0  0.00000000000E+00 -0.00000000000E+00 -0.15026225890E+04  0.15026225890E+04  0.00000000000E+00 0. -1.
         23    2    1    2    0    0 -0.51079291397E+03  0.95938298372E+01 -0.13233704565E+04  0.14214504230E+04  0.90611795094E+02 0.  0.
         11    1    3    3    0    0 -0.37262218984E+03  0.46743322934E+02 -0.93884221047E+03  0.10111661242E+04  0.00000000000E+00 0.  1.
        -11    1    3    3    0    0 -0.13817072412E+03 -0.37149493097E+02 -0.38452824602E+03  0.41028429879E+03  0.00000000000E+00 0. -1.
         22    1    1    2    0    0  0.51079291397E+03 -0.95938298372E+01  0.37089593457E+03  0.63132023317E+03  0.00000000000E+00 0.  1.
<mgrwt>
<rscale>  0 0.18184223E+04</rscale>
<asrwt>0</asrwt>
<pdfrwt beam="1">  1        2 0.23117270E+00 0.18184223E+04</pdfrwt>
<pdfrwt beam="2">  1       -2 0.84638165E-01 0.18184223E+04</pdfrwt>
<totfact> 0.14509670E+01</totfact>
</mgrwt>
</event>
<event>
 6    1  0.9512547E-007  0.1484112E+04  0.7818608E-02  0.8895087E-01
          2   -1    0    0  501    0  0.00000000000E+00  0.00000000000E+00  0.22832764336E+04  0.22832764336E+04  0.00000000000E+00 0. -1.
         -2   -1    0    0    0  501 -0.00000000000E+00 -0.00000000000E+00 -0.24116543338E+03  0.24116543338E+03  0.00000000000E+00 0.  1.
         23    2    1    2    0    0  0.67312070903E+03  0.30438131586E+03  0.97558287122E+03  0.12270515154E+04  0.90299549025E+02 0.  0.
         11    1    3    3    0    0  0.11087019151E+03  0.75534850953E+02  0.13630508592E+03  0.19125059352E+03  0.00000000000E+00 0.  1.
        -11    1    3    3    0    0  0.56225051752E+03  0.22884646491E+03  0.83927778530E+03  0.10358009219E+04  0.00000000000E+00 0. -1.
         22    1    1    2    0    0 -0.67312070903E+03 -0.30438131586E+03  0.10665281290E+04  0.12973903516E+04  0.00000000000E+00 0.  1.
<mgrwt>
<rscale>  0 0.14841123E+04</rscale>
<asrwt>0</asrwt>
<pdfrwt beam="1">  1        2 0.35127328E+00 0.14841123E+04</pdfrwt>
<pdfrwt beam="2">  1       -2 0.37102376E-01 0.14841123E+04</pdfrwt>
<totfact> 0.30739185E+01</totfact>
</mgrwt>
</event>
<event>
 6    1  0.9512547E-007  0.3919669E+04  0.7818608E-02  0.8020951E-01
         -2   -1    0    0    0  501 -0.00000000000E+00  0.00000000000E+00  0.18728495055E+04  0.18728495055E+04  0.00000000000E+00 0.  1.
          2   -1    0    0  501    0  0.00000000000E+00 -0.00000000000E+00 -0.20508597754E+04  0.20508597754E+04  0.00000000000E+00 0. -1.
         23    2    1    2    0    0  0.98536107315E+03 -0.16863734283E+04  0.59474042490E+02  0.19561751433E+04  0.91061765944E+02 0.  0.
         13    1    3    3    0    0  0.67921482929E+03 -0.10765038142E+04  0.36582176309E+02  0.12733936948E+04  0.00000000000E+00 0. -1.
        -13    1    3    3    0    0  0.30614624386E+03 -0.60986961411E+03  0.22891866181E+02  0.68278144848E+03  0.00000000000E+00 0.  1.
         22    1    1    2    0    0 -0.98536107315E+03  0.16863734283E+04 -0.23748431239E+03  0.19675341377E+04  0.00000000000E+00 0.  1.
<mgrwt>
<rscale>  0 0.39196692E+04</rscale>
<asrwt>0</asrwt>
<pdfrwt beam="1">  1        2 0.31551689E+00 0.39196692E+04</pdfrwt>
<pdfrwt beam="2">  1       -2 0.28813069E+00 0.39196692E+04</pdfrwt>
<totfact> 0.18669986E-01</totfact>
</mgrwt>
</event>
<event>
 6    1  0.9512547E-007  0.1516478E+04  0.7818608E-02  0.8873569E-01
         -2   -1    0    0    0  501 -0.00000000000E+00  0.00000000000E+00  0.63380760667E+03  0.63380760667E+03  0.00000000000E+00 0.  1.
          2   -1    0    0  501    0  0.00000000000E+00 -0.00000000000E+00 -0.90709882185E+03  0.90709882185E+03  0.00000000000E+00 0. -1.
         23    2    1    2    0    0 -0.10519448030E+03  0.55002366788E+03 -0.65252443244E+03  0.86458568583E+03  0.90157413973E+02 0.  0.
         13    1    3    3    0    0 -0.72038710712E+02  0.32559808626E+03 -0.45272704159E+03  0.56228592709E+03  0.00000000000E+00 0. -1.
        -13    1    3    3    0    0 -0.33155769587E+02  0.22442558162E+03 -0.19979739085E+03  0.30229975873E+03  0.00000000000E+00 0.  1.
         22    1    1    2    0    0  0.10519448030E+03 -0.55002366788E+03  0.37923321726E+03  0.67632074269E+03  0.00000000000E+00 0.  1.
<mgrwt>
<rscale>  0 0.15164777E+04</rscale>
<asrwt>0</asrwt>
<pdfrwt beam="1">  1        2 0.13955366E+00 0.15164777E+04</pdfrwt>
<pdfrwt beam="2">  1       -2 0.97508863E-01 0.15164777E+04</pdfrwt>
<totfact> 0.24539662E+01</totfact>
</mgrwt>
</event>
<event>
 6    1  0.9512547E-007  0.1903095E+04  0.7818608E-02  0.8653317E-01
          1   -1    0    0  501    0  0.00000000000E+00  0.00000000000E+00  0.48320657561E+03  0.48320657561E+03  0.00000000000E+00 0. -1.
         -1   -1    0    0    0  501 -0.00000000000E+00 -0.00000000000E+00 -0.18738209897E+04  0.18738209897E+04  0.00000000000E+00 0.  1.
         23    2    1    2    0    0 -0.72284701222E+03  0.49520333452E+03 -0.24369963612E+03  0.91371621514E+03  0.88054889495E+02 0.  0.
         13    1    3    3    0    0 -0.41506508561E+03  0.31633239279E+03 -0.18027050573E+03  0.55212558649E+03  0.00000000000E+00 0. -1.
        -13    1    3    3    0    0 -0.30778192661E+03  0.17887094173E+03 -0.63429130394E+02  0.36159062865E+03  0.00000000000E+00 0.  1.
         22    1    1    2    0    0  0.72284701222E+03 -0.49520333452E+03 -0.11469147779E+04  0.14433113501E+04  0.00000000000E+00 0.  1.
<mgrwt>
<rscale>  0 0.19030950E+04</rscale>
<asrwt>0</asrwt>
<pdfrwt beam="1">  1        1 0.74339471E-01 0.19030950E+04</pdfrwt>
<pdfrwt beam="2">  1       -1 0.28828016E+00 0.19030950E+04</pdfrwt>
<totfact> 0.17105790E+00</totfact>
</mgrwt>
</event>
<event>
 6    1  0.9512547E-007  0.1181521E+04  0.7818608E-02  0.9129187E-01
         -3   -1    0    0    0  501 -0.00000000000E+00  0.00000000000E+00  0.11076833701E+03  0.11076833701E+03  0.00000000000E+00 0.  1.
          3   -1    0    0  501    0  0.00000000000E+00 -0.00000000000E+00 -0.31507019821E+04  0.31507019821E+04  0.00000000000E+00 0. -1.
         23    2    1    2    0    0  0.49009246021E+03  0.11859255587E+02 -0.63560819346E+03  0.80767486332E+03  0.89496635401E+02 0.  0.
         11    1    3    3    0    0  0.38094271488E+03  0.46319453125E+02 -0.49723460001E+03  0.62809640280E+03  0.00000000000E+00 0. -1.
        -11    1    3    3    0    0  0.10914974533E+03 -0.34460197539E+02 -0.13837359344E+03  0.17957846052E+03  0.00000000000E+00 0.  1.
         22    1    1    2    0    0 -0.49009246021E+03 -0.11859255587E+02 -0.24043254516E+04  0.24537954558E+04  0.00000000000E+00 0. -1.
<mgrwt>
<rscale>  0 0.11815211E+04</rscale>
<asrwt>0</asrwt>
<pdfrwt beam="1">  1        3 0.48472333E+00 0.11815211E+04</pdfrwt>
<pdfrwt beam="2">  1       -3 0.17041284E-01 0.11815211E+04</pdfrwt>
<totfact> 0.33109220E-01</totfact>
</mgrwt>
</event>
<event>
 6    1  0.9512547E-007  0.3170201E+04  0.7818608E-02  0.8196732E-01
          1   -1    0    0  501    0  0.00000000000E+00  0.00000000000E+00  0.21485656222E+04  0.21485656222E+04  0.00000000000E+00 0. -1.
         -1   -1    0    0    0  501 -0.00000000000E+00 -0.00000000000E+00 -0.11694053756E+04  0.11694053756E+04  0.00000000000E+00 0.  1.
         23    2    1    2    0    0 -0.14890897417E+04  0.15741514277E+03 -0.49978646165E+02  0.15010244806E+04  0.91699728940E+02 0.  0.
         13    1    3    3    0    0 -0.22347628330E+03  0.52961378789E+02 -0.23081632108E+02  0.23082313268E+03  0.00000000000E+00 0. -1.
        -13    1    3    3    0    0 -0.12656134584E+04  0.10445376398E+03 -0.26897014057E+02  0.12702013479E+04  0.00000000000E+00 0.  1.
         22    1    1    2    0    0  0.14890897417E+04 -0.15741514277E+03  0.10291388928E+04  0.18169465173E+04  0.00000000000E+00 0. -1.
<mgrwt>
<rscale>  0 0.31702014E+04</rscale>
<asrwt>0</asrwt>
<pdfrwt beam="1">  1        1 0.33054856E+00 0.31702014E+04</pdfrwt>
<pdfrwt beam="2">  1       -1 0.17990852E+00 0.31702014E+04</pdfrwt>
<totfact> 0.41286404E-01</totfact>
</mgrwt>
</event>
<event>
 6    1  0.9512547E-007  0.2710272E+04  0.7818608E-02  0.8331680E-01
         -1   -1    0    0    0  501 -0.00000000000E+00  0.00000000000E+00  0.77734131849E+03  0.77734131849E+03  0.00000000000E+00 0.  1.
          1   -1    0    0  501    0  0.00000000000E+00 -0.00000000000E+00 -0.23624030212E+04  0.23624030212E+04  0.00000000000E+00 0. -1.
         23    2    1    2    0    0  0.98988856760E+03  0.79056934688E+03 -0.24073289418E+03  0.12925575018E+04  0.88731621890E+02 0.  0.
         13    1    3    3    0    0  0.47480405264E+03  0.32348225622E+03 -0.10137098395E+03  0.58340014988E+03  0.00000000000E+00 0. -1.
        -13    1    3    3    0    0  0.51508451496E+03  0.46708709066E+03 -0.13936191023E+03  0.70915735196E+03  0.00000000000E+00 0.  1.
         22    1    1    2    0    0 -0.98988856760E+03 -0.79056934688E+03 -0.13443288085E+04  0.18471868379E+04  0.00000000000E+00 0. -1.
<mgrwt>
<rscale>  0 0.27102719E+04</rscale>
<asrwt>0</asrwt>
<pdfrwt beam="1">  1        1 0.36344661E+00 0.27102719E+04</pdfrwt>
<pdfrwt beam="2">  1       -1 0.11959098E+00 0.27102719E+04</pdfrwt>
<totfact> 0.91806504E-01</totfact>
</mgrwt>
</event>
<event>
 6    1  0.9512547E-007  0.2009822E+04  0.7818608E-02  0.8602042E-01
          1   -1    0    0  501    0  0.00000000000E+00  0.00000000000E+00  0.51316319411E+03  0.51316319411E+03  0.00000000000E+00 0. -1.
         -1   -1    0    0    0  501 -0.00000000000E+00 -0.00000000000E+00 -0.19678840543E+04  0.19678840543E+04  0.00000000000E+00 0.  1.
         23    2    1    2    0    0 -0.19805850289E+03  0.93005392211E+03 -0.11221182670E+04  0.14736486413E+04  0.90903488839E+02 0.  0.
         13    1    3    3    0    0 -0.13456404058E+03  0.78922359454E+03 -0.93092893603E+03  0.12278477296E+04  0.00000000000E+00 0. -1.
        -13    1    3    3    0    0 -0.63494462306E+02  0.14083032756E+03 -0.19118933101E+03  0.24580091171E+03  0.00000000000E+00 0.  1.
         22    1    1    2    0    0  0.19805850289E+03 -0.93005392211E+03 -0.33260259315E+03  0.10073986071E+04  0.00000000000E+00 0. -1.
<mgrwt>
<rscale>  0 0.20098216E+04</rscale>
<asrwt>0</asrwt>
<pdfrwt beam="1">  1        1 0.78948184E-01 0.20098216E+04</pdfrwt>
<pdfrwt beam="2">  1       -1 0.30275139E+00 0.20098216E+04</pdfrwt>
<totfact> 0.12568551E+00</totfact>
</mgrwt>
</event>
<event>
 6    1  0.9512547E-007  0.1822018E+04  0.7818608E-02  0.8694677E-01
         -1   -1    0    0    0  501 -0.00000000000E+00  0.00000000000E+00  0.48382530389E+03  0.48382530389E+03  0.00000000000E+00 0.  1.
          1   -1    0    0  501    0  0.00000000000E+00 -0.00000000000E+00 -0.17153656035E+04  0.17153656035E+04  0.00000000000E+00 0. -1.
         23    2    1    2    0    0  0.24090954157E+03  0.34565663142E+03  0.35495625914E+03  0.55770156993E+03  0.86724743505E+02 0.  0.
         13    1    3    3    0    0  0.24155798006E+03  0.30531732771E+03  0.32912381797E+03  0.50979546475E+03  0.00000000000E+00 0.  1.
        -13    1    3    3    0    0 -0.64843848420E+00  0.40339303717E+02  0.25832441173E+02  0.47906105183E+02  0.00000000000E+00 0. -1.
         22    1    1    2    0    0 -0.24090954157E+03 -0.34565663142E+03 -0.15864965587E+04  0.16414893374E+04  0.00000000000E+00 0. -1.
<mgrwt>
<rscale>  0 0.18220179E+04</rscale>
<asrwt>0</asrwt>
<pdfrwt beam="1">  1        1 0.26390240E+00 0.18220179E+04</pdfrwt>
<pdfrwt beam="2">  1       -1 0.74434663E-01 0.18220179E+04</pdfrwt>
<totfact> 0.79585006E+00</totfact>
</mgrwt>
</event>
<event>
 6    1  0.9512547E-007  0.2436596E+04  0.7818608E-02  0.8425928E-01
          2   -1    0    0  501    0  0.00000000000E+00  0.00000000000E+00  0.11844457311E+04  0.11844457311E+04  0.00000000000E+00 0. -1.
         -2   -1    0    0    0  501 -0.00000000000E+00 -0.00000000000E+00 -0.12531175442E+04  0.12531175442E+04  0.00000000000E+00 0.  1.
         23    2    1    2    0    0  0.35281026004E+03  0.11010972257E+04  0.34598360322E+03  0.12092191483E+04  0.74940742834E+02 0.  0.
         11    1    3    3    0    0  0.13875950218E+03  0.40138703438E+03  0.90908474311E+02  0.43431567035E+03  0.00000000000E+00 0. -1.
        -11    1    3    3    0    0  0.21405075786E+03  0.69971019131E+03  0.25507512891E+03  0.77490347795E+03  0.00000000000E+00 0.  1.
         22    1    1    2    0    0 -0.35281026004E+03 -0.11010972257E+04 -0.41465541634E+03  0.12283441270E+04  0.00000000000E+00 0. -1.
<mgrwt>
<rscale>  0 0.24365958E+04</rscale>
<asrwt>0</asrwt>
<pdfrwt beam="1">  1        2 0.18222242E+00 0.24365958E+04</pdfrwt>
<pdfrwt beam="2">  1       -2 0.19278731E+00 0.24365958E+04</pdfrwt>
<totfact> 0.25760028E+00</totfact>
</mgrwt>
</event>
<event>
 6    1  0.9512547E-007  0.1483897E+04  0.7818608E-02  0.8895232E-01
         -2   -1    0    0    0  501 -0.00000000000E+00  0.00000000000E+00  0.46113310236E+03  0.46113310236E+03  0.00000000000E+00 0.  1.
          2   -1    0    0  501    0  0.00000000000E+00 -0.00000000000E+00 -0.11937712723E+04  0.11937712723E+04  0.00000000000E+00 0. -1.
         23    2    1    2    0    0 -0.60296876078E+03 -0.41234097875E+03 -0.49328483795E+03  0.88621300175E+03  0.91908345119E+02 0.  0.
         11    1    3    3    0    0 -0.39901768960E+03 -0.31398358664E+03 -0.30996406408E+03  0.59487690350E+03  0.00000000000E+00 0.  1.
        -11    1    3    3    0    0 -0.20395107117E+03 -0.98357392103E+02 -0.18332077386E+03  0.29133609825E+03  0.00000000000E+00 0. -1.
         22    1    1    2    0    0  0.60296876078E+03  0.41234097875E+03 -0.23935333197E+03  0.76869137289E+03  0.00000000000E+00 0. -1.
<mgrwt>
<rscale>  0 0.14838968E+04</rscale>
<asrwt>0</asrwt>
<pdfrwt beam="1">  1        2 0.18365711E+00 0.14838968E+04</pdfrwt>
<pdfrwt beam="2">  1       -2 0.70943556E-01 0.14838968E+04</pdfrwt>
<totfact> 0.33364545E+01</totfact>
</mgrwt>
</event>
<event>
 6    1  0.9512547E-007  0.1642151E+04  0.7818608E-02  0.8795064E-01
         -2   -1    0    0    0  501 -0.00000000000E+00  0.00000000000E+00  0.42773138411E+03  0.42773138411E+03  0.00000000000E+00 0.  1.
          2   -1    0    0  501    0  0.00000000000E+00 -0.00000000000E+00 -0.15761405779E+04  0.15761405779E+04  0.00000000000E+00 0. -1.
         23    2    1    2    0    0 -0.10087639036E+02 -0.21547789975E+03 -0.15394525813E+04  0.15572766009E+04  0.93078869196E+02 0.  0.
         13    1    3    3    0    0  0.31262198882E+02 -0.13029166320E+03 -0.10710412016E+04  0.10793898731E+04  0.00000000000E+00 0. -1.
        -13    1    3    3    0    0 -0.41349837918E+02 -0.85186236549E+02 -0.46841137963E+03  0.47788672775E+03  0.00000000000E+00 0.  1.
         22    1    1    2    0    0  0.10087639036E+02  0.21547789975E+03  0.39104338746E+03  0.44659536117E+03  0.00000000000E+00 0.  1.
<mgrwt>
<rscale>  0 0.16421508E+04</rscale>
<asrwt>0</asrwt>
<pdfrwt beam="1">  1        2 0.24248317E+00 0.16421508E+04</pdfrwt>
<pdfrwt beam="2">  1       -2 0.65804828E-01 0.16421508E+04</pdfrwt>
<totfact> 0.23368154E+01</totfact>
</mgrwt>
</event>
<event>
 6    1  0.9512547E-007  0.3790012E+04  0.7818608E-02  0.8048302E-01
         -2   -1    0    0    0  501 -0.00000000000E+00  0.00000000000E+00  0.28536513195E+04  0.28536513195E+04  0.00000000000E+00 0.  1.
          2   -1    0    0  501    0  0.00000000000E+00 -0.00000000000E+00 -0.12584046903E+04  0.12584046903E+04  0.00000000000E+00 0. -1.
         23    2    1    2    0    0  0.93754502735E+02 -0.27814830174E+03  0.28280795810E+04  0.28447622508E+04  0.92096484687E+02 0.  0.
         11    1    3    3    0    0  0.50517362035E+02 -0.16053211919E+03  0.11821313122E+04  0.11940506708E+04  0.00000000000E+00 0.  1.
        -11    1    3    3    0    0  0.43237140700E+02 -0.11761618256E+03  0.16459482688E+04  0.16507115800E+04  0.00000000000E+00 0. -1.
         22    1    1    2    0    0 -0.93754502735E+02  0.27814830174E+03 -0.12328329518E+04  0.12672937590E+04  0.00000000000E+00 0. -1.
<mgrwt>
<rscale>  0 0.37900122E+04</rscale>
<asrwt>0</asrwt>
<pdfrwt beam="1">  1        2 0.19360072E+00 0.37900122E+04</pdfrwt>
<pdfrwt beam="2">  1       -2 0.43902328E+00 0.37900122E+04</pdfrwt>
<totfact> 0.57540104E-02</totfact>
</mgrwt>
</event>
<event>
 6    1  0.9512547E-007  0.8984777E+03  0.7818608E-02  0.9427486E-01
          1   -1    0    0  501    0  0.00000000000E+00  0.00000000000E+00  0.47608699673E+03  0.47608699673E+03  0.00000000000E+00 0. -1.
         -1   -1    0    0    0  501 -0.00000000000E+00 -0.00000000000E+00 -0.42390471393E+03  0.42390471393E+03  0.00000000000E+00 0.  1.
         23    2    1    2    0    0 -0.13899224521E+03 -0.13265040530E+03  0.42798441664E+03  0.47792273756E+03  0.91238741438E+02 0.  0.
         13    1    3    3    0    0 -0.99884757786E+02 -0.58655217610E+02  0.16250110886E+03  0.19955953941E+03  0.00000000000E+00 0. -1.
        -13    1    3    3    0    0 -0.39107487425E+02 -0.73995187692E+02  0.26548330778E+03  0.27836319815E+03  0.00000000000E+00 0.  1.
         22    1    1    2    0    0  0.13899224521E+03  0.13265040530E+03 -0.37580213383E+03  0.42206897310E+03  0.00000000000E+00 0.  1.
<mgrwt>
<rscale>  0 0.89847765E+03</rscale>
<asrwt>0</asrwt>
<pdfrwt beam="1">  1        1 0.73244154E-01 0.89847765E+03</pdfrwt>
<pdfrwt beam="2">  1       -1 0.65216110E-01 0.89847765E+03</pdfrwt>
<totfact> 0.11396625E+02</totfact>
</mgrwt>
</event>
<event>
 6    1  0.9512547E-007  0.1731065E+04  0.7818608E-02  0.8743842E-01
         -1   -1    0    0    0  501 -0.00000000000E+00  0.00000000000E+00  0.23321962759E+04  0.23321962759E+04  0.00000000000E+00 0.  1.
          1   -1    0    0  501    0  0.00000000000E+00 -0.00000000000E+00 -0.32121949969E+03  0.32121949969E+03  0.00000000000E+00 0. -1.
         23    2    1    2    0    0 -0.63049316807E+03  0.41708955384E+03  0.36950752020E+03  0.84623381206E+03  0.89947352827E+02 0.  0.
         11    1    3    3    0    0 -0.28615187069E+03  0.24115794962E+03  0.19540354319E+03  0.42216417950E+03  0.00000000000E+00 0.  1.
        -11    1    3    3    0    0 -0.34434129738E+03  0.17593160422E+03  0.17410397701E+03  0.42406963256E+03  0.00000000000E+00 0. -1.
         22    1    1    2    0    0  0.63049316807E+03 -0.41708955384E+03  0.16414692560E+04  0.18071819635E+04  0.00000000000E+00 0. -1.
<mgrwt>
<rscale>  0 0.17310655E+04</rscale>
<asrwt>0</asrwt>
<pdfrwt beam="1">  1        1 0.49418386E-01 0.17310655E+04</pdfrwt>
<pdfrwt beam="2">  1       -1 0.35879942E+00 0.17310655E+04</pdfrwt>
<totfact> 0.10365771E+00</totfact>
</mgrwt>
</event>
<event>
 6    1  0.9512547E-007  0.2745660E+04  0.7818608E-02  0.8320340E-01
         -1   -1    0    0    0  501 -0.00000000000E+00  0.00000000000E+00  0.19837247738E+04  0.19837247738E+04  0.00000000000E+00 0.  1.
          1   -1    0    0  501    0  0.00000000000E+00 -0.00000000000E+00 -0.95006202443E+03  0.95006202443E+03  0.00000000000E+00 0. -1.
         23    2    1    2    0    0  0.80895024276E+03  0.46317527886E+02 -0.66472411622E+03  0.10520153578E+04  0.91281727449E+02 0.  0.
         11    1    3    3    0    0  0.68272881930E+03  0.35795074589E+02 -0.51519609919E+03  0.85605312258E+03  0.00000000000E+00 0. -1.
        -11    1    3    3    0    0  0.12622142347E+03  0.10522453297E+02 -0.14952801703E+03  0.19596223525E+03  0.00000000000E+00 0.  1.
         22    1    1    2    0    0 -0.80895024276E+03 -0.46317527886E+02  0.16983868656E+04  0.18817714404E+04  0.00000000000E+00 0.  1.
<mgrwt>
<rscale>  0 0.27456595E+04</rscale>
<asrwt>0</asrwt>
<pdfrwt beam="1">  1        1 0.14616339E+00 0.27456595E+04</pdfrwt>
<pdfrwt beam="2">  1       -1 0.30518843E+00 0.27456595E+04</pdfrwt>
<totfact> 0.44048930E-01</totfact>
</mgrwt>
</event>
<event>
 6    1  0.9512547E-007  0.3840362E+04  0.7818608E-02  0.8037548E-01
          2   -1    0    0  501    0  0.00000000000E+00  0.00000000000E+00  0.28124600583E+04  0.28124600583E+04  0.00000000000E+00 0. -1.
         -2   -1    0    0    0  501 -0.00000000000E+00 -0.00000000000E+00 -0.13109857178E+04  0.13109857178E+04  0.00000000000E+00 0.  1.
         23    2    1    2    0    0 -0.29105419203E+02 -0.18770067854E+04  0.11787826831E+04  0.22186803040E+04  0.94931972083E+02 0.  0.
         13    1    3    3    0    0 -0.54967291653E+02 -0.12238996253E+04  0.73620098257E+03  0.14293157743E+04  0.00000000000E+00 0. -1.
        -13    1    3    3    0    0  0.25861872451E+02 -0.65310716017E+03  0.44258170049E+03  0.78936452968E+03  0.00000000000E+00 0.  1.
         22    1    1    2    0    0  0.29105419203E+02  0.18770067854E+04  0.32269165748E+03  0.19047654721E+04  0.00000000000E+00 0.  1.
<mgrwt>
<rscale>  0 0.38403619E+04</rscale>
<asrwt>0</asrwt>
<pdfrwt beam="1">  1        2 0.43268616E+00 0.38403619E+04</pdfrwt>
<pdfrwt beam="2">  1       -2 0.20169011E+00 0.38403619E+04</pdfrwt>
<totfact> 0.23537876E-01</totfact>
</mgrwt>
</event>
<event>
 6    1  0.9512547E-007  0.2044741E+04  0.7818608E-02  0.8585984E-01
         -2   -1    0    0    0  501 -0.00000000000E+00  0.00000000000E+00  0.13081427593E+04  0.13081427593E+04  0.00000000000E+00 0.  1.
          2   -1    0    0  501    0  0.00000000000E+00 -0.00000000000E+00 -0.79902671741E+03  0.79902671741E+03  0.00000000000E+00 0. -1.
         23    2    1    2    0    0 -0.82352319711E+03 -0.45109303800E+03  0.66608845541E+03  0.11551633193E+04  0.95147668097E+02 0.  0.
         13    1    3    3    0    0 -0.65800836640E+03 -0.39982826849E+03  0.55879049603E+03  0.95135927650E+03  0.00000000000E+00 0.  1.
        -13    1    3    3    0    0 -0.16551483072E+03 -0.51264769508E+02  0.10729795939E+03  0.20380404282E+03  0.00000000000E+00 0. -1.
         22    1    1    2    0    0  0.82352319711E+03  0.45109303800E+03 -0.15697241352E+03  0.95200615740E+03  0.00000000000E+00 0. -1.
<mgrwt>
<rscale>  0 0.20447406E+04</rscale>
<asrwt>0</asrwt>
<pdfrwt beam="1">  1        2 0.12292719E+00 0.20447406E+04</pdfrwt>
<pdfrwt beam="2">  1       -2 0.20125273E+00 0.20447406E+04</pdfrwt>
<totfact> 0.41660705E+00</totfact>
</mgrwt>
</event>
<event>
 6    1  0.9512547E-007  0.1899816E+04  0.7818608E-02  0.8654948E-01
          2   -1    0    0  501    0  0.00000000000E+00  0.00000000000E+00  0.26568783080E+04  0.26568783080E+04  0.00000000000E+00 0. -1.
         -2   -1    0    0    0  501 -0.00000000000E+00 -0.00000000000E+00 -0.33961862251E+03  0.33961862251E+03  0.00000000000E+00 0.  1.
         23    2    1    2    0    0  0.11425608727E+03  0.34789582615E+02  0.26442515274E+04  0.26483756396E+04  0.86963323984E+02 0.  0.
         11    1    3    3    0    0  0.92575083783E+01  0.31518612014E+02  0.11336575651E+04  0.11341334133E+04  0.00000000000E+00 0. -1.
        -11    1    3    3    0    0  0.10499857890E+03  0.32709706005E+01  0.15105939623E+04  0.15142422262E+04  0.00000000000E+00 0.  1.
         22    1    1    2    0    0 -0.11425608727E+03 -0.34789582615E+02 -0.32699184189E+03  0.34812129093E+03  0.00000000000E+00 0.  1.
<mgrwt>
<rscale>  0 0.18998162E+04</rscale>
<asrwt>0</asrwt>
<pdfrwt beam="1">  1        2 0.40875050E+00 0.18998162E+04</pdfrwt>
<pdfrwt beam="2">  1       -2 0.52249020E-01 0.18998162E+04</pdfrwt>
<totfact> 0.91346224E+00</totfact>
</mgrwt>
</event>
<event>
 6    1  0.9512547E-007  0.2117301E+04  0.7818608E-02  0.8553660E-01
          1   -1    0    0  501    0  0.00000000000E+00  0.00000000000E+00  0.93426819424E+03  0.93426819424E+03  0.00000000000E+00 0. -1.
         -1   -1    0    0    0  501 -0.00000000000E+00 -0.00000000000E+00 -0.11995922372E+04  0.11995922372E+04  0.00000000000E+00 0.  1.
         23    2    1    2    0    0 -0.69889133104E+03 -0.62603798085E+03 -0.62267078117E+03  0.11298338694E+04  0.91831501460E+02 0.  0.
         13    1    3    3    0    0 -0.61460866985E+03 -0.50811533921E+03 -0.53815273415E+03  0.96204645432E+03  0.00000000000E+00 0. -1.
        -13    1    3    3    0    0 -0.84282661191E+02 -0.11792264165E+03 -0.84518047026E+02  0.16778741509E+03  0.00000000000E+00 0.  1.
         22    1    1    2    0    0  0.69889133104E+03  0.62603798085E+03  0.35734673817E+03  0.10040265621E+04  0.00000000000E+00 0.  1.
<mgrwt>
<rscale>  0 0.21173010E+04</rscale>
<asrwt>0</asrwt>
<pdfrwt beam="1">  1        1 0.14373357E+00 0.21173010E+04</pdfrwt>
<pdfrwt beam="2">  1       -1 0.18455265E+00 0.21173010E+04</pdfrwt>
<totfact> 0.30255690E+00</totfact>
</mgrwt>
</event>
<event>
 6    1  0.9512547E-007  0.3661620E+04  0.7818608E-02  0.8076521E-01
         -1   -1    0    0    0  501 -0.00000000000E+00  0.00000000000E+00  0.17683714299E+04  0.17683714299E+04  0.00000000000E+00 0.  1.
          1   -1    0    0  501    0  0.00000000000E+00 -0.00000000000E+00 -0.18954530490E+04  0.18954530490E+04  0.00000000000E+00 0. -1.
         23    2    1    2    0    0 -0.15724023228E+04  0.93485193013E+03 -0.28784516633E+02  0.18318693712E+04  0.92301942662E+02 0.  0.
         13    1    3    3    0    0 -0.54718253969E+03  0.29529795019E+03  0.25506549695E+02  0.62230233424E+03  0.00000000000E+00 0.  1.
        -13    1    3    3    0    0 -0.10252197831E+04  0.63955397994E+03 -0.54291066329E+02  0.12095670370E+04  0.00000000000E+00 0. -1.
         22    1    1    2    0    0  0.15724023228E+04 -0.93485193013E+03 -0.98297102514E+02  0.18319551077E+04  0.00000000000E+00 0.  1.
<mgrwt>
<rscale>  0 0.36616199E+04</rscale>
<asrwt>0</asrwt>
<pdfrwt beam="1">  1        1 0.29160816E+00 0.36616199E+04</pdfrwt>
<pdfrwt beam="2">  1       -1 0.27205714E+00 0.36616199E+04</pdfrwt>
<totfact> 0.14152046E-01</totfact>
</mgrwt>
</event>
<event>
 6    1  0.9512547E-007  0.2701538E+04  0.7818608E-02  0.8334506E-01
         -2   -1    0    0    0  501 -0.00000000000E+00  0.00000000000E+00  0.98509146783E+03  0.98509146783E+03  0.00000000000E+00 0.  1.
          2   -1    0    0  501    0  0.00000000000E+00 -0.00000000000E+00 -0.18521907058E+04  0.18521907058E+04  0.00000000000E+00 0. -1.
         23    2    1    2    0    0 -0.74878597433E+03 -0.63216649121E+03 -0.14079488236E+04  0.17179818644E+04  0.93951521581E+02 0.  0.
         13    1    3    3    0    0 -0.12674110748E+03 -0.66365213271E+02 -0.22472869834E+03  0.26640314885E+03  0.00000000000E+00 0. -1.
        -13    1    3    3    0    0 -0.62204486685E+03 -0.56580127794E+03 -0.11832201253E+04  0.14515787155E+04  0.00000000000E+00 0.  1.
         22    1    1    2    0    0  0.74878597433E+03  0.63216649121E+03  0.54084958566E+03  0.11193003092E+04  0.00000000000E+00 0.  1.
<mgrwt>
<rscale>  0 0.27015383E+04</rscale>
<asrwt>0</asrwt>
<pdfrwt beam="1">  1        2 0.28495241E+00 0.27015383E+04</pdfrwt>
<pdfrwt beam="2">  1       -2 0.15155253E+00 0.27015383E+04</pdfrwt>
<totfact> 0.20644644E+00</totfact>
</mgrwt>
</event>
<event>
 6    1  0.9512547E-007  0.6638642E+03  0.7818608E-02  0.9781106E-01
          2   -1    0    0  501    0  0.00000000000E+00  0.00000000000E+00  0.26499815543E+03  0.26499815543E+03  0.00000000000E+00 0. -1.
         -2   -1    0    0    0  501 -0.00000000000E+00 -0.00000000000E+00 -0.41577244044E+03  0.41577244044E+03  0.00000000000E+00 0.  1.
         23    2    1    2    0    0 -0.21391125150E+03  0.12622545511E+03  0.13939305065E+03  0.29881775621E+03  0.90392144685E+02 0.  0.
         11    1    3    3    0    0 -0.20814282515E+02  0.50603696892E+02  0.45553609229E+02  0.71197610982E+02  0.00000000000E+00 0.  1.
        -11    1    3    3    0    0 -0.19309696899E+03  0.75621758214E+02  0.93839441422E+02  0.22762014523E+03  0.00000000000E+00 0. -1.
         22    1    1    2    0    0  0.21391125150E+03 -0.12622545511E+03 -0.29016733566E+03  0.38195283965E+03  0.00000000000E+00 0.  1.
<mgrwt>
<rscale>  0 0.66386423E+03</rscale>
<asrwt>0</asrwt>
<pdfrwt beam="1">  1        2 0.40768947E-01 0.66386423E+03</pdfrwt>
<pdfrwt beam="2">  1       -2 0.63964990E-01 0.66386423E+03</pdfrwt>
<totfact> 0.28780641E+02</totfact>
</mgrwt>
</event>
<event>
 6    1  0.9512547E-007  0.2503892E+04  0.7818608E-02  0.8401600E-01
         -2   -1    0    0    0  501 -0.00000000000E+00  0.00000000000E+00  0.13088785849E+04  0.13088785849E+04  0.00000000000E+00 0.  1.
          2   -1    0    0  501    0  0.00000000000E+00 -0.00000000000E+00 -0.11974902812E+04  0.11974902812E+04  0.00000000000E+00 0. -1.
         23    2    1    2    0    0 -0.86637223574E+03 -0.56343414121E+03  0.75980607538E+03  0.12863260435E+04  0.96283621475E+02 0.  0.
         11    1    3    3    0    0 -0.41429661769E+03 -0.23122530939E+03  0.30403555041E+03  0.56351082248E+03  0.00000000000E+00 0. -1.
        -11    1    3    3    0    0 -0.45207561805E+03 -0.33220883182E+03  0.45577052497E+03  0.72281522107E+03  0.00000000000E+00 0.  1.
         22    1    1    2    0    0  0.86637223574E+03  0.56343414121E+03 -0.64841777164E+03  0.12200428226E+04  0.00000000000E+00 0. -1.
<mgrwt>
<rscale>  0 0.25038925E+04</rscale>
<asrwt>0</asrwt>
<pdfrwt beam="1">  1        2 0.18422927E+00 0.25038925E+04</pdfrwt>
<pdfrwt beam="2">  1       -2 0.20136594E+00 0.25038925E+04</pdfrwt>
<totfact> 0.22077142E+00</totfact>
</mgrwt>
</event>
<event>
 6    1  0.9512547E-007  0.1789517E+04  0.7818608E-02  0.8711894E-01
          1   -1    0    0  501    0  0.00000000000E+00  0.00000000000E+00  0.12370714474E+04  0.12370714474E+04  0.00000000000E+00 0. -1.
         -1   -1    0    0    0  501 -0.00000000000E+00 -0.00000000000E+00 -0.64716807661E+03  0.64716807661E+03  0.00000000000E+00 0.  1.
         23    2    1    2    0    0  0.42397648802E+03  0.17800458933E+03  0.11006366296E+04  0.11970058244E+04  0.99901237231E+02 0.  0.
         13    1    3    3    0    0  0.21993325546E+03  0.14083660127E+03  0.55827232303E+03  0.61633884493E+03  0.00000000000E+00 0.  1.
        -13    1    3    3    0    0  0.20404323257E+03  0.37167988055E+02  0.54236430653E+03  0.58066697951E+03  0.00000000000E+00 0. -1.
         22    1    1    2    0    0 -0.42397648802E+03 -0.17800458933E+03 -0.51073325877E+03  0.68723369958E+03  0.00000000000E+00 0.  1.
<mgrwt>
<rscale>  0 0.17895174E+04</rscale>
<asrwt>0</asrwt>
<pdfrwt beam="1">  1        1 0.19031868E+00 0.17895174E+04</pdfrwt>
<pdfrwt beam="2">  1       -1 0.99564320E-01 0.17895174E+04</pdfrwt>
<totfact> 0.91303264E+00</totfact>
</mgrwt>
</event>
<event>
 6    1  0.9512547E-007  0.4923636E+04  0.7818608E-02  0.7840396E-01
          1   -1    0    0  501    0  0.00000000000E+00  0.00000000000E+00  0.11193189181E+04  0.11193189181E+04  0.00000000000E+00 0. -1.
         -1   -1    0    0    0  501 -0.00000000000E+00 -0.00000000000E+00 -0.54144969510E+04  0.54144969510E+04  0.00000000000E+00 0.  1.
         23    2    1    2    0    0  0.49842296411E+03 -0.60487148885E+03 -0.52440701476E+04  0.53030879485E+04  0.90416302215E+02 0.  0.
         11    1    3    3    0    0  0.31546813928E+03 -0.41462008193E+03 -0.37250121379E+04  0.37612691192E+04  0.00000000000E+00 0. -1.
        -11    1    3    3    0    0  0.18295482483E+03 -0.19025140691E+03 -0.15190580097E+04  0.15418188293E+04  0.00000000000E+00 0.  1.
         22    1    1    2    0    0 -0.49842296411E+03  0.60487148885E+03  0.94889211467E+03  0.12307279206E+04  0.00000000000E+00 0. -1.
<mgrwt>
<rscale>  0 0.49236364E+04</rscale>
<asrwt>0</asrwt>
<pdfrwt beam="1">  1        1 0.17220291E+00 0.49236364E+04</pdfrwt>
<pdfrwt beam="2">  1       -1 0.83299953E+00 0.49236364E+04</pdfrwt>
<totfact> 0.36527060E-04</totfact>
</mgrwt>
</event>
<event>
 6    1  0.9512547E-007  0.4191116E+04  0.7818608E-02  0.7967064E-01
          2   -1    0    0  501    0  0.00000000000E+00  0.00000000000E+00  0.39566906610E+04  0.39566906610E+04  0.00000000000E+00 0. -1.
         -2   -1    0    0    0  501 -0.00000000000E+00 -0.00000000000E+00 -0.11098574458E+04  0.11098574458E+04  0.00000000000E+00 0.  1.
         23    2    1    2    0    0 -0.11776162513E+04 -0.15746070985E+04  0.55146806017E+03  0.20441535685E+04  0.90990330311E+02 0.  0.
         13    1    3    3    0    0 -0.28301074461E+03 -0.38085884215E+03  0.92965081572E+02  0.48351943663E+03  0.00000000000E+00 0.  1.
        -13    1    3    3    0    0 -0.89460550671E+03 -0.11937482563E+04  0.45850297860E+03  0.15606341318E+04  0.00000000000E+00 0. -1.
         22    1    1    2    0    0  0.11776162513E+04  0.15746070985E+04  0.22953651551E+04  0.30223945383E+04  0.00000000000E+00 0. -1.
<mgrwt>
<rscale>  0 0.41911156E+04</rscale>
<asrwt>0</asrwt>
<pdfrwt beam="1">  1        2 0.60872163E+00 0.41911156E+04</pdfrwt>
<pdfrwt beam="2">  1       -2 0.17074730E+00 0.41911156E+04</pdfrwt>
<totfact> 0.60407432E-02</totfact>
</mgrwt>
</event>
<event>
 6    1  0.9512547E-007  0.3607154E+04  0.7818608E-02  0.8088855E-01
         -2   -1    0    0    0  501 -0.00000000000E+00  0.00000000000E+00  0.18488778609E+04  0.18488778609E+04  0.00000000000E+00 0.  1.
          2   -1    0    0  501    0  0.00000000000E+00 -0.00000000000E+00 -0.17593864487E+04  0.17593864487E+04  0.00000000000E+00 0. -1.
         23    2    1    2    0    0 -0.65924712838E+03 -0.77136104953E+03 -0.14446826493E+04  0.17688908576E+04  0.11073510689E+03 0.  0.
         13    1    3    3    0    0 -0.19536239251E+03 -0.25283053279E+03 -0.37260636368E+03  0.49084136437E+03  0.00000000000E+00 0.  1.
        -13    1    3    3    0    0 -0.46388473587E+03 -0.51853051674E+03 -0.10720762856E+04  0.12780494932E+04  0.00000000000E+00 0. -1.
         22    1    1    2    0    0  0.65924712838E+03  0.77136104953E+03  0.15341740615E+04  0.18393734520E+04  0.00000000000E+00 0.  1.
<mgrwt>
<rscale>  0 0.36071544E+04</rscale>
<asrwt>0</asrwt>
<pdfrwt beam="1">  1        2 0.27067484E+00 0.36071544E+04</pdfrwt>
<pdfrwt beam="2">  1       -2 0.28444275E+00 0.36071544E+04</pdfrwt>
<totfact> 0.29290714E-01</totfact>
</mgrwt>
</event>
<event>
 6    1  0.9512547E-007  0.9512515E+03  0.7818608E-02  0.9363689E-01
         -2   -1    0    0    0  501 -0.00000000000E+00  0.00000000000E+00  0.18298168430E+03  0.18298168430E+03  0.00000000000E+00 0.  1.
          2   -1    0    0  501    0  0.00000000000E+00 -0.00000000000E+00 -0.12362977756E+04  0.12362977756E+04  0.00000000000E+00 0. -1.
         23    2    1    2    0    0 -0.29400283954E+03  0.19508608815E+03 -0.99753563272E+03  0.10620572448E+04  0.91607866147E+02 0.  0.
         11    1    3    3    0    0 -0.80945157199E+02  0.35655457624E+02 -0.37013263690E+03  0.38055433124E+03  0.00000000000E+00 0. -1.
        -11    1    3    3    0    0 -0.21305768234E+03  0.15943063052E+03 -0.62740299583E+03  0.68150291351E+03  0.00000000000E+00 0.  1.
         22    1    1    2    0    0  0.29400283954E+03 -0.19508608815E+03 -0.55780458597E+02  0.35722221516E+03  0.00000000000E+00 0.  1.
<mgrwt>
<rscale>  0 0.95125149E+03</rscale>
<asrwt>0</asrwt>
<pdfrwt beam="1">  1        2 0.19019965E+00 0.95125149E+03</pdfrwt>
<pdfrwt beam="2">  1       -2 0.28151029E-01 0.95125149E+03</pdfrwt>
<totfact> 0.20780730E+02</totfact>
</mgrwt>
</event>
<event>
 6    1  0.9512547E-007  0.5925508E+04  0.7818608E-02  0.7699707E-01
         -2   -1    0    0    0  501 -0.00000000000E+00  0.00000000000E+00  0.21922309628E+04  0.21922309628E+04  0.00000000000E+00 0.  1.
          2   -1    0    0  501    0  0.00000000000E+00 -0.00000000000E+00 -0.40040990599E+04  0.40040990599E+04  0.00000000000E+00 0. -1.
         23    2    1    2    0    0  0.58958270815E+03  0.12363065718E+04 -0.36525411083E+04  0.39019589012E+04  0.90360442057E+02 0.  0.
         11    1    3    3    0    0  0.42518926539E+03  0.97789501969E+03 -0.28212272474E+04  0.30160218438E+04  0.00000000000E+00 0.  1.
        -11    1    3    3    0    0  0.16439344276E+03  0.25841155214E+03 -0.83131386085E+03  0.88593705732E+03  0.00000000000E+00 0. -1.
         22    1    1    2    0    0 -0.58958270815E+03 -0.12363065718E+04  0.18406730112E+04  0.22943711216E+04  0.00000000000E+00 0.  1.
<mgrwt>
<rscale>  0 0.59255076E+04</rscale>
<asrwt>0</asrwt>
<pdfrwt beam="1">  1        2 0.61601524E+00 0.59255076E+04</pdfrwt>
<pdfrwt beam="2">  1       -2 0.33726630E+00 0.59255076E+04</pdfrwt>
<totfact> 0.42756933E-03</totfact>
</mgrwt>
</event>
<event>
 6    1  0.9512547E-007  0.2152382E+04  0.7818608E-02  0.8538513E-01
         -2   -1    0    0    0  501 -0.00000000000E+00  0.00000000000E+00  0.57597452067E+03  0.57597452067E+03  0.00000000000E+00 0.  1.
          2   -1    0    0  501    0  0.00000000000E+00 -0.00000000000E+00 -0.20108303800E+04  0.20108303800E+04  0.00000000000E+00 0. -1.
         23    2    1    2    0    0 -0.83526789141E+03  0.34519342013E+03 -0.14164426994E+04  0.16828303478E+04  0.93686236944E+02 0.  0.
         13    1    3    3    0    0 -0.44870569099E+03  0.18874409418E+03 -0.67599605035E+03  0.83302568406E+03  0.00000000000E+00 0. -1.
        -13    1    3    3    0    0 -0.38656220042E+03  0.15644932596E+03 -0.74044664909E+03  0.84980466375E+03  0.00000000000E+00 0.  1.
         22    1    1    2    0    0  0.83526789141E+03 -0.34519342013E+03 -0.18413159862E+02  0.90397455284E+03  0.00000000000E+00 0.  1.
<mgrwt>
<rscale>  0 0.21523820E+04</rscale>
<asrwt>0</asrwt>
<pdfrwt beam="1">  1        2 0.30935852E+00 0.21523820E+04</pdfrwt>
<pdfrwt beam="2">  1       -2 0.88611466E-01 0.21523820E+04</pdfrwt>
<totfact> 0.66223342E+00</totfact>
</mgrwt>
</event>
<event>
 6    1  0.9512547E-007  0.1154140E+04  0.7818608E-02  0.9153973E-01
         -2   -1    0    0    0  501 -0.00000000000E+00  0.00000000000E+00  0.49308357196E+03  0.49308357196E+03  0.00000000000E+00 0.  1.
          2   -1    0    0  501    0  0.00000000000E+00 -0.00000000000E+00 -0.67536182399E+03  0.67536182399E+03  0.00000000000E+00 0. -1.
         23    2    1    2    0    0 -0.36760338443E+03 -0.85628979432E+02 -0.52884045862E+03  0.65602961419E+03  0.90763724339E+02 0.  0.
         11    1    3    3    0    0 -0.25693549557E+03 -0.60087761387E+02 -0.43466146735E+03  0.50848498420E+03  0.00000000000E+00 0.  1.
        -11    1    3    3    0    0 -0.11066788885E+03 -0.25541218044E+02 -0.94178991270E+02  0.14754462999E+03  0.00000000000E+00 0. -1.
         22    1    1    2    0    0  0.36760338443E+03  0.85628979432E+02  0.34656220660E+03  0.51241578177E+03  0.00000000000E+00 0.  1.
<mgrwt>
<rscale>  0 0.11541401E+04</rscale>
<asrwt>0</asrwt>
<pdfrwt beam="1">  1        2 0.10390182E+00 0.11541401E+04</pdfrwt>
<pdfrwt beam="2">  1       -2 0.75859012E-01 0.11541401E+04</pdfrwt>
<totfact> 0.66084811E+01</totfact>
</mgrwt>
</event>
<event>
 6    1  0.9512547E-007  0.6715913E+03  0.7818608E-02  0.9767087E-01
         -2   -1    0    0    0  501 -0.00000000000E+00  0.00000000000E+00  0.86313994822E+02  0.86313994822E+02  0.00000000000E+00 0.  1.
          2   -1    0    0  501    0  0.00000000000E+00 -0.00000000000E+00 -0.13063781088E+04  0.13063781088E+04  0.00000000000E+00 0. -1.
         23    2    1    2    0    0 -0.15305876783E+03  0.27035316129E+03 -0.84978879898E+03  0.90934789178E+03  0.90855749303E+02 0.  0.
         11    1    3    3    0    0  0.81207252946E+01  0.39053830570E+02 -0.76557629011E+02  0.86326232522E+02  0.00000000000E+00 0. -1.
        -11    1    3    3    0    0 -0.16117949313E+03  0.23129933072E+03 -0.77323116997E+03  0.82302165926E+03  0.00000000000E+00 0.  1.
         22    1    1    2    0    0  0.15305876783E+03 -0.27035316129E+03 -0.37027531501E+03  0.48334421186E+03  0.00000000000E+00 0.  1.
<mgrwt>
<rscale>  0 0.67159128E+03</rscale>
<asrwt>0</asrwt>
<pdfrwt beam="1">  1        2 0.20098124E+00 0.67159128E+03</pdfrwt>
<pdfrwt beam="2">  1       -2 0.13279077E-01 0.67159128E+03</pdfrwt>
<totfact> 0.71348915E+02</totfact>
</mgrwt>
</event>
<event>
 6    1  0.9512547E-007  0.2241601E+04  0.7818608E-02  0.8501310E-01
         -2   -1    0    0    0  501 -0.00000000000E+00  0.00000000000E+00  0.84266144236E+03  0.84266144236E+03  0.00000000000E+00 0.  1.
          2   -1    0    0  501    0  0.00000000000E+00 -0.00000000000E+00 -0.14907456006E+04  0.14907456006E+04  0.00000000000E+00 0. -1.
         23    2    1    2    0    0  0.20203120934E+03  0.10770099766E+04 -0.88969882417E+02  0.11032136140E+04  0.91638086820E+02 0.  0.
         11    1    3    3    0    0  0.14305970421E+03  0.57549316445E+03 -0.18020770235E+02  0.59328172857E+03  0.00000000000E+00 0.  1.
        -11    1    3    3    0    0  0.58971505139E+02  0.50151681214E+03 -0.70949112182E+02  0.50993188545E+03  0.00000000000E+00 0. -1.
         22    1    1    2    0    0 -0.20203120934E+03 -0.10770099766E+04 -0.55911427585E+03  0.12301934290E+04  0.00000000000E+00 0.  1.
<mgrwt>
<rscale>  0 0.22416011E+04</rscale>
<asrwt>0</asrwt>
<pdfrwt beam="1">  1        2 0.22934548E+00 0.22416011E+04</pdfrwt>
<pdfrwt beam="2">  1       -2 0.12964022E+00 0.22416011E+04</pdfrwt>
<totfact> 0.51195584E+00</totfact>
</mgrwt>
</event>
<event>
 6    1  0.1062883E-006  0.3686025E+04  0.7818608E-02  0.8071066E-01
          2   -1    0    0  501    0  0.00000000000E+00  0.00000000000E+00  0.15513078256E+04  0.15513078256E+04  0.00000000000E+00 0. -1.
         -2   -1    0    0    0  501 -0.00000000000E+00 -0.00000000000E+00 -0.21895683731E+04  0.21895683731E+04  0.00000000000E+00 0.  1.
         23    2    1    2    0    0 -0.83501151086E+02 -0.92747066937E+03 -0.19321487112E+04  0.21467241152E+04  0.89730149854E+02 0.  0.
         11    1    3    3    0    0 -0.44383442806E+02 -0.35546703975E+03 -0.84099285164E+03  0.91410922917E+03  0.00000000000E+00 0. -1.
        -11    1    3    3    0    0 -0.39117708280E+02 -0.57200362962E+03 -0.10911558596E+04  0.12326148861E+04  0.00000000000E+00 0.  1.
         22    1    1    2    0    0  0.83501151086E+02  0.92747066937E+03  0.12938881638E+04  0.15941520835E+04  0.00000000000E+00 0. -1.
<mgrwt>
<rscale>  0 0.36860247E+04</rscale>
<asrwt>0</asrwt>
<pdfrwt beam="1">  1        2 0.23866274E+00 0.36860247E+04</pdfrwt>
<pdfrwt beam="2">  1       -2 0.33685667E+00 0.36860247E+04</pdfrwt>
<totfact> 0.18077395E-01</totfact>
</mgrwt>
</event>
<event>
 6    1  0.9512547E-007  0.1840119E+04  0.7818608E-02  0.8685251E-01
          2   -1    0    0  501    0  0.00000000000E+00  0.00000000000E+00  0.63227406630E+03  0.63227406630E+03  0.00000000000E+00 0. -1.
         -2   -1    0    0    0  501 -0.00000000000E+00 -0.00000000000E+00 -0.13388336009E+04  0.13388336009E+04  0.00000000000E+00 0.  1.
         23    2    1    2    0    0 -0.46713961145E+03 -0.31525359317E+03 -0.11301092903E+04  0.12661263625E+04  0.91239866191E+02 0.  0.
         11    1    3    3    0    0 -0.31650220725E+03 -0.24633460067E+03 -0.72668020875E+03  0.83001114960E+03  0.00000000000E+00 0.  1.
        -11    1    3    3    0    0 -0.15063740420E+03 -0.68918992506E+02 -0.40342908153E+03  0.43611521287E+03  0.00000000000E+00 0. -1.
         22    1    1    2    0    0  0.46713961145E+03  0.31525359317E+03  0.42354975563E+03  0.70498130478E+03  0.00000000000E+00 0. -1.
<mgrwt>
<rscale>  0 0.18401193E+04</rscale>
<asrwt>0</asrwt>
<pdfrwt beam="1">  1        2 0.97272935E-01 0.18401193E+04</pdfrwt>
<pdfrwt beam="2">  1       -2 0.20597440E+00 0.18401193E+04</pdfrwt>
<totfact> 0.53186669E+00</totfact>
</mgrwt>
</event>
<event>
 6    1  0.9512547E-007  0.2541600E+04  0.7818608E-02  0.8388313E-01
          2   -1    0    0  501    0  0.00000000000E+00  0.00000000000E+00  0.13295718227E+04  0.13295718227E+04  0.00000000000E+00 0. -1.
         -2   -1    0    0    0  501 -0.00000000000E+00 -0.00000000000E+00 -0.12146262185E+04  0.12146262185E+04  0.00000000000E+00 0.  1.
         23    2    1    2    0    0  0.88290931590E+03 -0.81720303179E+03  0.46225933201E+03  0.12920093650E+04  0.90856227088E+02 0.  0.
         11    1    3    3    0    0  0.21748802524E+03 -0.15463776750E+03  0.85583116052E+02  0.28024694470E+03  0.00000000000E+00 0. -1.
        -11    1    3    3    0    0  0.66542129066E+03 -0.66256526429E+03  0.37667621596E+03  0.10117624203E+04  0.00000000000E+00 0.  1.
         22    1    1    2    0    0 -0.88290931590E+03  0.81720303179E+03 -0.34731372780E+03  0.12521886762E+04  0.00000000000E+00 0. -1.
<mgrwt>
<rscale>  0 0.25416001E+04</rscale>
<asrwt>0</asrwt>
<pdfrwt beam="1">  1        2 0.20454951E+00 0.25416001E+04</pdfrwt>
<pdfrwt beam="2">  1       -2 0.18686557E+00 0.25416001E+04</pdfrwt>
<totfact> 0.22983799E+00</totfact>
</mgrwt>
</event>
<event>
 6    1  0.9512547E-007  0.3308123E+04  0.7818608E-02  0.8160832E-01
         -2   -1    0    0    0  501 -0.00000000000E+00  0.00000000000E+00  0.77226274923E+03  0.77226274923E+03  0.00000000000E+00 0.  1.
          2   -1    0    0  501    0  0.00000000000E+00 -0.00000000000E+00 -0.35427305275E+04  0.35427305275E+04  0.00000000000E+00 0. -1.
         23    2    1    2    0    0  0.18984293232E+03  0.16397373307E+04 -0.12781354978E+04  0.20897214983E+04  0.92340333624E+02 0.  0.
         13    1    3    3    0    0  0.77955962856E+02  0.40602297766E+03 -0.35257167927E+03  0.54335861046E+03  0.00000000000E+00 0.  1.
        -13    1    3    3    0    0  0.11188696946E+03  0.12337143530E+04 -0.92556381853E+03  0.15463628878E+04  0.00000000000E+00 0. -1.
         22    1    1    2    0    0 -0.18984293232E+03 -0.16397373307E+04 -0.14923322805E+04  0.22252717784E+04  0.00000000000E+00 0. -1.
<mgrwt>
<rscale>  0 0.33081226E+04</rscale>
<asrwt>0</asrwt>
<pdfrwt beam="1">  1        2 0.54503547E+00 0.33081226E+04</pdfrwt>
<pdfrwt beam="2">  1       -2 0.11880965E+00 0.33081226E+04</pdfrwt>
<totfact> 0.34410663E-01</totfact>
</mgrwt>
</event>
<event>
 6    1  0.9512547E-007  0.3540321E+04  0.7818608E-02  0.8104300E-01
         -1   -1    0    0    0  501 -0.00000000000E+00  0.00000000000E+00  0.13284402211E+04  0.13284402211E+04  0.00000000000E+00 0.  1.
          1   -1    0    0  501    0  0.00000000000E+00 -0.00000000000E+00 -0.23587572089E+04  0.23587572089E+04  0.00000000000E+00 0. -1.
         23    2    1    2    0    0  0.14240859535E+04 -0.46435397786E+03  0.46461575363E+03  0.15709580009E+04  0.91628719070E+02 0.  0.
         11    1    3    3    0    0  0.13269083023E+03 -0.34414442310E+02  0.69449044797E+02  0.15366971104E+03  0.00000000000E+00 0. -1.
        -11    1    3    3    0    0  0.12913951233E+04 -0.42993953555E+03  0.39516670883E+03  0.14172882898E+04  0.00000000000E+00 0.  1.
         22    1    1    2    0    0 -0.14240859535E+04  0.46435397786E+03 -0.14949327415E+04  0.21162394291E+04  0.00000000000E+00 0. -1.
<mgrwt>
<rscale>  0 0.35403209E+04</rscale>
<asrwt>0</asrwt>
<pdfrwt beam="1">  1        1 0.36288572E+00 0.35403209E+04</pdfrwt>
<pdfrwt beam="2">  1       -1 0.20437542E+00 0.35403209E+04</pdfrwt>
<totfact> 0.19365337E-01</totfact>
</mgrwt>
</event>
<event>
 6    1  0.9512547E-007  0.3861916E+03  0.7818608E-02  0.1048669E+00
         -1   -1    0    0    0  501 -0.00000000000E+00  0.00000000000E+00  0.30577972141E+03  0.30577972141E+03  0.00000000000E+00 0.  1.
          1   -1    0    0  501    0  0.00000000000E+00 -0.00000000000E+00 -0.12193742852E+03  0.12193742852E+03  0.00000000000E+00 0. -1.
         23    2    1    2    0    0 -0.85003858405E+01 -0.14637142823E+03 -0.23057172089E+02  0.17413434260E+03  0.91072962655E+02 0.  0.
         13    1    3    3    0    0  0.22494266204E+02 -0.73549740465E+02  0.25800811623E+02  0.81124831062E+02  0.00000000000E+00 0.  1.
        -13    1    3    3    0    0 -0.30994652044E+02 -0.72821687770E+02 -0.48857983712E+02  0.93009511542E+02  0.00000000000E+00 0. -1.
         22    1    1    2    0    0  0.85003858405E+01  0.14637142823E+03  0.20689946498E+03  0.25358280733E+03  0.00000000000E+00 0. -1.
<mgrwt>
<rscale>  0 0.38619163E+03</rscale>
<asrwt>0</asrwt>
<pdfrwt beam="1">  1        1 0.18759605E-01 0.38619163E+03</pdfrwt>
<pdfrwt beam="2">  1       -1 0.47043034E-01 0.38619163E+03</pdfrwt>
<totfact> 0.12825497E+03</totfact>
</mgrwt>
</event>
<event>
 6    1  0.9512547E-007  0.2841467E+04  0.7818608E-02  0.8290509E-01
         -2   -1    0    0    0  501 -0.00000000000E+00  0.00000000000E+00  0.91627332102E+03  0.91627332102E+03  0.00000000000E+00 0.  1.
          2   -1    0    0  501    0  0.00000000000E+00 -0.00000000000E+00 -0.22029269171E+04  0.22029269171E+04  0.00000000000E+00 0. -1.
         23    2    1    2    0    0  0.13293423777E+04 -0.96267545127E+02 -0.10877445047E+03  0.13404878164E+04  0.93043578295E+02 0.  0.
         11    1    3    3    0    0  0.12494923714E+04 -0.72570997466E+02 -0.11555042045E+03  0.12569206958E+04  0.00000000000E+00 0. -1.
        -11    1    3    3    0    0  0.79850006290E+02 -0.23696547661E+02  0.67759699843E+01  0.83567120596E+02  0.00000000000E+00 0.  1.
         22    1    1    2    0    0 -0.13293423777E+04  0.96267545127E+02 -0.11778791456E+04  0.17787124217E+04  0.00000000000E+00 0.  1.
<mgrwt>
<rscale>  0 0.28414666E+04</rscale>
<asrwt>0</asrwt>
<pdfrwt beam="1">  1        2 0.33891183E+00 0.28414666E+04</pdfrwt>
<pdfrwt beam="2">  1       -2 0.14096513E+00 0.28414666E+04</pdfrwt>
<totfact> 0.15737961E+00</totfact>
</mgrwt>
</event>
<event>
 6    1  0.9512547E-007  0.4227955E+04  0.7818608E-02  0.7960076E-01
          2   -1    0    0  501    0  0.00000000000E+00  0.00000000000E+00  0.17202783338E+04  0.17202783338E+04  0.00000000000E+00 0. -1.
         -2   -1    0    0    0  501 -0.00000000000E+00 -0.00000000000E+00 -0.25977779585E+04  0.25977779585E+04  0.00000000000E+00 0.  1.
         23    2    1    2    0    0 -0.20655213608E+04  0.10314386347E+03  0.44311016895E+01  0.20697638393E+04  0.82979318187E+02 0.  0.
         11    1    3    3    0    0 -0.15610855513E+04  0.64886169232E+02  0.36547971788E+02  0.15628608600E+04  0.00000000000E+00 0.  1.
        -11    1    3    3    0    0 -0.50443580943E+03  0.38257694235E+02 -0.32116870098E+02  0.50690297922E+03  0.00000000000E+00 0. -1.
         22    1    1    2    0    0  0.20655213608E+04 -0.10314386347E+03 -0.88193072633E+03  0.22482924530E+04  0.00000000000E+00 0. -1.
<mgrwt>
<rscale>  0 0.42279551E+04</rscale>
<asrwt>0</asrwt>
<pdfrwt beam="1">  1        2 0.26465821E+00 0.42279551E+04</pdfrwt>
<pdfrwt beam="2">  1       -2 0.39965815E+00 0.42279551E+04</pdfrwt>
<totfact> 0.55203116E-02</totfact>
</mgrwt>
</event>
<event>
 6    1  0.9512547E-007  0.3118958E+04  0.7818608E-02  0.8210554E-01
          2   -1    0    0  501    0  0.00000000000E+00  0.00000000000E+00  0.26545097590E+04  0.26545097590E+04  0.00000000000E+00 0. -1.
         -2   -1    0    0    0  501 -0.00000000000E+00 -0.00000000000E+00 -0.91616744695E+03  0.91616744695E+03  0.00000000000E+00 0.  1.
         23    2    1    2    0    0  0.91032770671E+03 -0.20352341865E+03  0.22987930531E+04  0.24824569393E+04  0.89580348607E+02 0.  0.
         13    1    3    3    0    0  0.50021886457E+03 -0.15574357437E+03  0.13170434309E+04  0.14174196176E+04  0.00000000000E+00 0.  1.
        -13    1    3    3    0    0  0.41010884214E+03 -0.47779844279E+02  0.98174962223E+03  0.10650373217E+04  0.00000000000E+00 0. -1.
         22    1    1    2    0    0 -0.91032770671E+03  0.20352341865E+03 -0.56045074109E+03  0.10882202666E+04  0.00000000000E+00 0.  1.
<mgrwt>
<rscale>  0 0.31189584E+04</rscale>
<asrwt>0</asrwt>
<pdfrwt beam="1">  1        2 0.40838612E+00 0.31189584E+04</pdfrwt>
<pdfrwt beam="2">  1       -2 0.14094884E+00 0.31189584E+04</pdfrwt>
<totfact> 0.84512928E-01</totfact>
</mgrwt>
</event>
<event>
 6    1  0.9512547E-007  0.1242877E+04  0.7818608E-02  0.9076132E-01
         -2   -1    0    0    0  501 -0.00000000000E+00  0.00000000000E+00  0.38853456858E+03  0.38853456858E+03  0.00000000000E+00 0.  1.
          2   -1    0    0  501    0  0.00000000000E+00 -0.00000000000E+00 -0.99395517037E+03  0.99395517037E+03  0.00000000000E+00 0. -1.
         23    2    1    2    0    0  0.60013830046E+03  0.14514922431E+03 -0.33744270092E+03  0.70940249917E+03  0.90277640739E+02 0.  0.
         13    1    3    3    0    0  0.10849754586E+03 -0.23861621242E+01 -0.82217028529E+02  0.13615083917E+03  0.00000000000E+00 0. -1.
        -13    1    3    3    0    0  0.49164075460E+03  0.14753538643E+03 -0.25522567239E+03  0.57325165999E+03  0.00000000000E+00 0.  1.
         22    1    1    2    0    0 -0.60013830046E+03 -0.14514922431E+03 -0.26797790087E+03  0.67308723978E+03  0.00000000000E+00 0.  1.
<mgrwt>
<rscale>  0 0.12428772E+04</rscale>
<asrwt>0</asrwt>
<pdfrwt beam="1">  1        2 0.15291618E+00 0.12428772E+04</pdfrwt>
<pdfrwt beam="2">  1       -2 0.59774549E-01 0.12428772E+04</pdfrwt>
<totfact> 0.65295247E+01</totfact>
</mgrwt>
</event>
<event>
 6    1  0.9512547E-007  0.4104624E+04  0.7818608E-02  0.7983767E-01
          2   -1    0    0  501    0  0.00000000000E+00  0.00000000000E+00  0.18334671080E+04  0.18334671080E+04  0.00000000000E+00 0. -1.
         -2   -1    0    0    0  501 -0.00000000000E+00 -0.00000000000E+00 -0.22972779638E+04  0.22972779638E+04  0.00000000000E+00 0.  1.
         23    2    1    2    0    0  0.14223715739E+03  0.11875361620E+04 -0.19091496670E+04  0.22547179333E+04  0.91798489416E+02 0.  0.
         11    1    3    3    0    0  0.80117222954E+02  0.42890807190E+03 -0.63312486815E+03  0.76891352064E+03  0.00000000000E+00 0. -1.
        -11    1    3    3    0    0  0.62119934432E+02  0.75862809013E+03 -0.12760247989E+04  0.14858044127E+04  0.00000000000E+00 0.  1.
         22    1    1    2    0    0 -0.14223715739E+03 -0.11875361620E+04  0.14453388112E+04  0.18760271385E+04  0.00000000000E+00 0. -1.
<mgrwt>
<rscale>  0 0.41046235E+04</rscale>
<asrwt>0</asrwt>
<pdfrwt beam="1">  1        2 0.28207186E+00 0.41046235E+04</pdfrwt>
<pdfrwt beam="2">  1       -2 0.35342738E+00 0.41046235E+04</pdfrwt>
<totfact> 0.95705988E-02</totfact>
</mgrwt>
</event>
<event>
 6    1  0.9512547E-007  0.2713778E+04  0.7818608E-02  0.8330548E-01
         -1   -1    0    0    0  501 -0.00000000000E+00  0.00000000000E+00  0.12639447444E+04  0.12639447444E+04  0.00000000000E+00 0.  1.
          1   -1    0    0  501    0  0.00000000000E+00 -0.00000000000E+00 -0.14566682775E+04  0.14566682775E+04  0.00000000000E+00 0. -1.
         23    2    1    2    0    0  0.68470294530E+02  0.35678535405E+03 -0.14055698782E+04  0.14545244678E+04  0.89614590778E+02 0.  0.
         13    1    3    3    0    0  0.21013100097E+02  0.18623562543E+03 -0.55700841893E+03  0.58769348926E+03  0.00000000000E+00 0. -1.
        -13    1    3    3    0    0  0.47457194433E+02  0.17054972862E+03 -0.84856145925E+03  0.86683097854E+03  0.00000000000E+00 0.  1.
         22    1    1    2    0    0 -0.68470294530E+02 -0.35678535405E+03  0.12128463451E+04  0.12660885541E+04  0.00000000000E+00 0.  1.
<mgrwt>
<rscale>  0 0.27137783E+04</rscale>
<asrwt>0</asrwt>
<pdfrwt beam="1">  1        1 0.22410281E+00 0.27137783E+04</pdfrwt>
<pdfrwt beam="2">  1       -1 0.19445304E+00 0.27137783E+04</pdfrwt>
<totfact> 0.10057475E+00</totfact>
</mgrwt>
</event>
<event>
 6    1  0.9512547E-007  0.2030804E+04  0.7818608E-02  0.8592353E-01
         -1   -1    0    0    0  501 -0.00000000000E+00  0.00000000000E+00  0.65487198408E+03  0.65487198408E+03  0.00000000000E+00 0.  1.
          1   -1    0    0  501    0  0.00000000000E+00 -0.00000000000E+00 -0.15744162456E+04  0.15744162456E+04  0.00000000000E+00 0. -1.
         23    2    1    2    0    0  0.90174451515E+03 -0.45376757367E+03 -0.36315434724E+03  0.10766313344E+04  0.90585698145E+02 0.  0.
         11    1    3    3    0    0  0.35375273899E+03 -0.18096265523E+03 -0.19018675711E+03  0.44052183318E+03  0.00000000000E+00 0. -1.
        -11    1    3    3    0    0  0.54799177617E+03 -0.27280491845E+03 -0.17296759013E+03  0.63610950119E+03  0.00000000000E+00 0.  1.
         22    1    1    2    0    0 -0.90174451515E+03  0.45376757367E+03 -0.55638991424E+03  0.11526568953E+04  0.00000000000E+00 0. -1.
<mgrwt>
<rscale>  0 0.20308039E+04</rscale>
<asrwt>0</asrwt>
<pdfrwt beam="1">  1        1 0.24221788E+00 0.20308039E+04</pdfrwt>
<pdfrwt beam="2">  1       -1 0.10074954E+00 0.20308039E+04</pdfrwt>
<totfact> 0.50367545E+00</totfact>
</mgrwt>
</event>
<event>
 6    1  0.9512547E-007  0.3718892E+04  0.7818608E-02  0.8063788E-01
         -2   -1    0    0    0  501 -0.00000000000E+00  0.00000000000E+00  0.94538841453E+03  0.94538841453E+03  0.00000000000E+00 0.  1.
          2   -1    0    0  501    0  0.00000000000E+00 -0.00000000000E+00 -0.36572679820E+04  0.36572679820E+04  0.00000000000E+00 0. -1.
         23    2    1    2    0    0 -0.29680635032E+03  0.10542883996E+04  0.50162073262E+03  0.12076302968E+04  0.84436575649E+02 0.  0.
         11    1    3    3    0    0 -0.19358074576E+03  0.53577932492E+03  0.24992633668E+03  0.62209015738E+03  0.00000000000E+00 0.  1.
        -11    1    3    3    0    0 -0.10322560456E+03  0.51850907467E+03  0.25169439594E+03  0.58554013944E+03  0.00000000000E+00 0. -1.
         22    1    1    2    0    0  0.29680635032E+03 -0.10542883996E+04 -0.32135003001E+04  0.33950260997E+04  0.00000000000E+00 0. -1.
<mgrwt>
<rscale>  0 0.37188917E+04</rscale>
<asrwt>0</asrwt>
<pdfrwt beam="1">  1        2 0.56265660E+00 0.37188917E+04</pdfrwt>
<pdfrwt beam="2">  1       -2 0.14544437E+00 0.37188917E+04</pdfrwt>
<totfact> 0.16427172E-01</totfact>
</mgrwt>
</event>
<event>
 6    1  0.9512547E-007  0.8217008E+03  0.7818608E-02  0.9529127E-01
         -1   -1    0    0    0  501 -0.00000000000E+00  0.00000000000E+00  0.56617364798E+02  0.56617364798E+02  0.00000000000E+00 0.  1.
          1   -1    0    0  501    0  0.00000000000E+00 -0.00000000000E+00 -0.29813831630E+04  0.29813831630E+04  0.00000000000E+00 0. -1.
         23    2    1    2    0    0 -0.95340023723E+02 -0.37055148331E+03 -0.97219858347E+03  0.10482978239E+04  0.85791141476E+02 0.  0.
         13    1    3    3    0    0 -0.72648428909E+02 -0.17206784640E+03 -0.38224338980E+03  0.42543524423E+03  0.00000000000E+00 0.  1.
        -13    1    3    3    0    0 -0.22691594813E+02 -0.19848363691E+03 -0.58995519367E+03  0.62286257965E+03  0.00000000000E+00 0. -1.
         22    1    1    2    0    0  0.95340023723E+02  0.37055148331E+03 -0.19525672148E+04  0.19897027040E+04  0.00000000000E+00 0. -1.
<mgrwt>
<rscale>  0 0.82170082E+03</rscale>
<asrwt>0</asrwt>
<pdfrwt beam="1">  1        1 0.45867434E+00 0.82170082E+03</pdfrwt>
<pdfrwt beam="2">  1       -1 0.87103637E-02 0.82170082E+03</pdfrwt>
<totfact> 0.50707515E+01</totfact>
</mgrwt>
</event>
<event>
 6    1  0.9512547E-007  0.1943727E+04  0.7818608E-02  0.8633392E-01
         -2   -1    0    0    0  501 -0.00000000000E+00  0.00000000000E+00  0.33448333198E+03  0.33448333198E+03  0.00000000000E+00 0.  1.
          2   -1    0    0  501    0  0.00000000000E+00 -0.00000000000E+00 -0.28238141367E+04  0.28238141367E+04  0.00000000000E+00 0. -1.
         23    2    1    2    0    0 -0.65807080941E+03  0.71135645997E+03 -0.11843341623E+04  0.15328432429E+04  0.88745681806E+02 0.  0.
         11    1    3    3    0    0 -0.30180684748E+03  0.38575036122E+03 -0.56763943325E+03  0.74973678084E+03  0.00000000000E+00 0.  1.
        -11    1    3    3    0    0 -0.35626396193E+03  0.32560609875E+03 -0.61669472901E+03  0.78310646205E+03  0.00000000000E+00 0. -1.
         22    1    1    2    0    0  0.65807080941E+03 -0.71135645997E+03 -0.13049966424E+04  0.16254542258E+04  0.00000000000E+00 0. -1.
<mgrwt>
<rscale>  0 0.19437271E+04</rscale>
<asrwt>0</asrwt>
<pdfrwt beam="1">  1        2 0.43443295E+00 0.19437271E+04</pdfrwt>
<pdfrwt beam="2">  1       -2 0.51458974E-01 0.19437271E+04</pdfrwt>
<totfact> 0.74616494E+00</totfact>
</mgrwt>
</event>
<event>
 6    1  0.9512547E-007  0.3101570E+04  0.7818608E-02  0.8215307E-01
         -2   -1    0    0    0  501 -0.00000000000E+00  0.00000000000E+00  0.16367310900E+04  0.16367310900E+04  0.00000000000E+00 0.  1.
          2   -1    0    0  501    0  0.00000000000E+00 -0.00000000000E+00 -0.14693516943E+04  0.14693516943E+04  0.00000000000E+00 0. -1.
         23    2    1    2    0    0 -0.14027432304E+04 -0.15729118197E+03 -0.55648656390E+03  0.15197628248E+04  0.87021040865E+02 0.  0.
         13    1    3    3    0    0 -0.73253504161E+02  0.42322315663E+01 -0.13486576083E+02  0.74604794688E+02  0.00000000000E+00 0.  1.
        -13    1    3    3    0    0 -0.13294897263E+04 -0.16152341353E+03 -0.54299998782E+03  0.14451580302E+04  0.00000000000E+00 0. -1.
         22    1    1    2    0    0  0.14027432304E+04  0.15729118197E+03  0.72386595957E+03  0.15863199595E+04  0.00000000000E+00 0.  1.
<mgrwt>
<rscale>  0 0.31015697E+04</rscale>
<asrwt>0</asrwt>
<pdfrwt beam="1">  1        2 0.22605411E+00 0.31015697E+04</pdfrwt>
<pdfrwt beam="2">  1       -2 0.25180478E+00 0.31015697E+04</pdfrwt>
<totfact> 0.70253260E-01</totfact>
</mgrwt>
</event>
<event>
 6    1  0.9512547E-007  0.2008265E+04  0.7818608E-02  0.8602766E-01
         -1   -1    0    0    0  501 -0.00000000000E+00  0.00000000000E+00  0.99491603692E+03  0.99491603692E+03  0.00000000000E+00 0.  1.
          1   -1    0    0  501    0  0.00000000000E+00 -0.00000000000E+00 -0.10134344879E+04  0.10134344879E+04  0.00000000000E+00 0. -1.
         23    2    1    2    0    0  0.40043945608E+03 -0.28867890177E+03 -0.88133664957E+03  0.10142969498E+04  0.91415240365E+02 0.  0.
         11    1    3    3    0    0  0.18042288859E+03 -0.75259870172E+02 -0.33792118947E+03  0.39039364375E+03  0.00000000000E+00 0. -1.
        -11    1    3    3    0    0  0.22001656749E+03 -0.21341903160E+03 -0.54341546010E+03  0.62390330605E+03  0.00000000000E+00 0.  1.
         22    1    1    2    0    0 -0.40043945608E+03  0.28867890177E+03  0.86281819856E+03  0.99405357506E+03  0.00000000000E+00 0.  1.
<mgrwt>
<rscale>  0 0.20082651E+04</rscale>
<asrwt>0</asrwt>
<pdfrwt beam="1">  1        1 0.15591300E+00 0.20082651E+04</pdfrwt>
<pdfrwt beam="2">  1       -1 0.15306401E+00 0.20082651E+04</pdfrwt>
<totfact> 0.45223894E+00</totfact>
</mgrwt>
</event>
<event>
 6    1  0.9512547E-007  0.2624719E+04  0.7818608E-02  0.8359853E-01
         -1   -1    0    0    0  501 -0.00000000000E+00  0.00000000000E+00  0.13390046750E+04  0.13390046750E+04  0.00000000000E+00 0.  1.
          1   -1    0    0  501    0  0.00000000000E+00 -0.00000000000E+00 -0.12862444322E+04  0.12862444322E+04  0.00000000000E+00 0. -1.
         23    2    1    2    0    0 -0.18045539036E+03 -0.31341434534E+03 -0.12337673579E+04  0.12888562132E+04  0.90419826562E+02 0.  0.
         13    1    3    3    0    0 -0.14001019893E+03 -0.15640980637E+03 -0.65574602286E+03  0.68852721793E+03  0.00000000000E+00 0. -1.
        -13    1    3    3    0    0 -0.40445191435E+02 -0.15700453897E+03 -0.57802133502E+03  0.60032899523E+03  0.00000000000E+00 0.  1.
         22    1    1    2    0    0  0.18045539036E+03  0.31341434534E+03  0.12865276007E+04  0.13363928940E+04  0.00000000000E+00 0.  1.
<mgrwt>
<rscale>  0 0.26247189E+04</rscale>
<asrwt>0</asrwt>
<pdfrwt beam="1">  1        1 0.19788376E+00 0.26247189E+04</pdfrwt>
<pdfrwt beam="2">  1       -1 0.20600072E+00 0.26247189E+04</pdfrwt>
<totfact> 0.11131819E+00</totfact>
</mgrwt>
</event>
<event>
 6    1  0.9512547E-007  0.1593842E+04  0.7818608E-02  0.8824340E-01
          2   -1    0    0  501    0  0.00000000000E+00  0.00000000000E+00  0.31510543869E+04  0.31510543869E+04  0.00000000000E+00 0. -1.
         -2   -1    0    0    0  501 -0.00000000000E+00 -0.00000000000E+00 -0.20154614521E+03  0.20154614521E+03  0.00000000000E+00 0.  1.
         23    2    1    2    0    0 -0.50936620335E+03 -0.15847210472E+03  0.27175652767E+04  0.27709091397E+04  0.90604027958E+02 0.  0.
         11    1    3    3    0    0 -0.26253837868E+03 -0.36562330107E+02  0.12615370334E+04  0.12890845166E+04  0.00000000000E+00 0. -1.
        -11    1    3    3    0    0 -0.24682782467E+03 -0.12190977461E+03  0.14560282433E+04  0.14818246231E+04  0.00000000000E+00 0.  1.
         22    1    1    2    0    0  0.50936620335E+03  0.15847210472E+03  0.23194296500E+03  0.58169139250E+03  0.00000000000E+00 0.  1.
<mgrwt>
<rscale>  0 0.15938417E+04</rscale>
<asrwt>0</asrwt>
<pdfrwt beam="1">  1        2 0.48477756E+00 0.15938417E+04</pdfrwt>
<pdfrwt beam="2">  1       -2 0.31007102E-01 0.15938417E+04</pdfrwt>
<totfact> 0.13002183E+01</totfact>
</mgrwt>
</event>
<event>
 6    1  0.9512547E-007  0.2599141E+03  0.7818608E-02  0.1107195E+00
          4   -1    0    0  501    0  0.00000000000E+00  0.00000000000E+00  0.81233591339E+02  0.81233591339E+02  0.00000000000E+00 0. -1.
         -4   -1    0    0    0  501 -0.00000000000E+00 -0.00000000000E+00 -0.20790451095E+03  0.20790451095E+03  0.00000000000E+00 0.  1.
         23    2    1    2    0    0 -0.30282301114E+01  0.36355055572E+02 -0.19080003265E+03  0.21535867845E+03  0.92972295227E+02 0.  0.
         11    1    3    3    0    0 -0.40235315174E+02 -0.88665656174E+01 -0.83856998521E+02  0.93431754633E+02  0.00000000000E+00 0. -1.
        -11    1    3    3    0    0  0.37207085062E+02  0.45221621189E+02 -0.10694303413E+03  0.12192692381E+03  0.00000000000E+00 0.  1.
         22    1    1    2    0    0  0.30282301114E+01 -0.36355055572E+02  0.64129113040E+02  0.73779423842E+02  0.00000000000E+00 0. -1.
<mgrwt>
<rscale>  0 0.25991406E+03</rscale>
<asrwt>0</asrwt>
<pdfrwt beam="1">  1        4 0.12497476E-01 0.25991406E+03</pdfrwt>
<pdfrwt beam="2">  1       -4 0.31985309E-01 0.25991406E+03</pdfrwt>
<totfact> 0.90691036E+02</totfact>
</mgrwt>
</event>
<event>
 6    1  0.9512547E-007  0.1000937E+04  0.7818608E-02  0.9307518E-01
          2   -1    0    0  501    0  0.00000000000E+00  0.00000000000E+00  0.79713522110E+03  0.79713522110E+03  0.00000000000E+00 0. -1.
         -2   -1    0    0    0  501 -0.00000000000E+00 -0.00000000000E+00 -0.31421086099E+03  0.31421086099E+03  0.00000000000E+00 0.  1.
         23    2    1    2    0    0  0.17772591357E+03  0.66463151121E+02 -0.26561191379E+03  0.33913470938E+03  0.91971797554E+02 0.  0.
         13    1    3    3    0    0  0.92789723261E+02 -0.11231385839E+02 -0.94565571581E+02  0.13296136318E+03  0.00000000000E+00 0. -1.
        -13    1    3    3    0    0  0.84936190304E+02  0.77694536960E+02 -0.17104634221E+03  0.20617334619E+03  0.00000000000E+00 0.  1.
         22    1    1    2    0    0 -0.17772591357E+03 -0.66463151121E+02  0.74853627390E+03  0.77221137271E+03  0.00000000000E+00 0. -1.
<mgrwt>
<rscale>  0 0.10009366E+04</rscale>
<asrwt>0</asrwt>
<pdfrwt beam="1">  1        2 0.12263619E+00 0.10009366E+04</pdfrwt>
<pdfrwt beam="2">  1       -2 0.48340133E-01 0.10009366E+04</pdfrwt>
<totfact> 0.14005198E+02</totfact>
</mgrwt>
</event>
<event>
 6    1  0.9512547E-007  0.1335102E+04  0.7818608E-02  0.9002183E-01
         -2   -1    0    0    0  501 -0.00000000000E+00  0.00000000000E+00  0.21616814039E+03  0.21616814039E+03  0.00000000000E+00 0.  1.
          2   -1    0    0  501    0  0.00000000000E+00 -0.00000000000E+00 -0.20614721327E+04  0.20614721327E+04  0.00000000000E+00 0. -1.
         23    2    1    2    0    0 -0.50958857395E+03 -0.41690757444E+03 -0.76941872819E+03  0.10162832491E+04  0.85638909628E+02 0.  0.
         11    1    3    3    0    0 -0.22014825965E+03 -0.17024165696E+03 -0.26238788267E+03  0.38248513562E+03  0.00000000000E+00 0. -1.
        -11    1    3    3    0    0 -0.28944031430E+03 -0.24666591749E+03 -0.50703084552E+03  0.63379811352E+03  0.00000000000E+00 0.  1.
         22    1    1    2    0    0  0.50958857395E+03  0.41690757444E+03 -0.10758852641E+04  0.12613570240E+04  0.00000000000E+00 0. -1.
<mgrwt>
<rscale>  0 0.13351024E+04</rscale>
<asrwt>0</asrwt>
<pdfrwt beam="1">  1        2 0.31714954E+00 0.13351024E+04</pdfrwt>
<pdfrwt beam="2">  1       -2 0.33256639E-01 0.13351024E+04</pdfrwt>
<totfact> 0.51040788E+01</totfact>
</mgrwt>
</event>
<event>
 6    1  0.9512547E-007  0.2081202E+04  0.7818608E-02  0.8569570E-01
         -2   -1    0    0    0  501 -0.00000000000E+00  0.00000000000E+00  0.79298480758E+03  0.79298480758E+03  0.00000000000E+00 0.  1.
          2   -1    0    0  501    0  0.00000000000E+00 -0.00000000000E+00 -0.13655369242E+04  0.13655369242E+04  0.00000000000E+00 0. -1.
         23    2    1    2    0    0  0.27896630109E+03  0.97279945771E+03 -0.43643095775E+02  0.10166348134E+04  0.86490704428E+02 0.  0.
         13    1    3    3    0    0  0.16853331734E+03  0.46061481299E+03 -0.46441578937E+02  0.49267261468E+03  0.00000000000E+00 0. -1.
        -13    1    3    3    0    0  0.11043298375E+03  0.51218464472E+03  0.27984831619E+01  0.52396219873E+03  0.00000000000E+00 0.  1.
         22    1    1    2    0    0 -0.27896630109E+03 -0.97279945771E+03 -0.52890902088E+03  0.11418869184E+04  0.00000000000E+00 0. -1.
<mgrwt>
<rscale>  0 0.20812016E+04</rscale>
<asrwt>0</asrwt>
<pdfrwt beam="1">  1        2 0.21008260E+00 0.20812016E+04</pdfrwt>
<pdfrwt beam="2">  1       -2 0.12199766E+00 0.20812016E+04</pdfrwt>
<totfact> 0.71248677E+00</totfact>
</mgrwt>
</event>
<event>
 6    1  0.9512547E-007  0.2874033E+03  0.7818608E-02  0.1091713E+00
         -1   -1    0    0    0  501 -0.00000000000E+00  0.00000000000E+00  0.98730828656E+02  0.98730828656E+02  0.00000000000E+00 0.  1.
          1   -1    0    0  501    0  0.00000000000E+00 -0.00000000000E+00 -0.20915614103E+03  0.20915614103E+03  0.00000000000E+00 0. -1.
         23    2    1    2    0    0  0.64601553287E+02  0.10670882969E+03 -0.94068236343E+02  0.18207882624E+03  0.93507918677E+02 0.  0.
         11    1    3    3    0    0  0.59798168262E+02  0.12948364384E+02 -0.46391832082E+02  0.76783352047E+02  0.00000000000E+00 0.  1.
        -11    1    3    3    0    0  0.48033850246E+01  0.93760465306E+02 -0.47676404261E+02  0.10529547419E+03  0.00000000000E+00 0. -1.
         22    1    1    2    0    0 -0.64601553287E+02 -0.10670882969E+03 -0.16357076030E+02  0.12580814345E+03  0.00000000000E+00 0. -1.
<mgrwt>
<rscale>  0 0.28740326E+03</rscale>
<asrwt>0</asrwt>
<pdfrwt beam="1">  1        1 0.32177868E-01 0.28740326E+03</pdfrwt>
<pdfrwt beam="2">  1       -1 0.15189358E-01 0.28740326E+03</pdfrwt>
<totfact> 0.43448361E+03</totfact>
</mgrwt>
</event>
<event>
 6    1  0.9512547E-007  0.2798488E+04  0.7818608E-02  0.8303738E-01
          2   -1    0    0  501    0  0.00000000000E+00  0.00000000000E+00  0.23934083318E+04  0.23934083318E+04  0.00000000000E+00 0. -1.
         -2   -1    0    0    0  501 -0.00000000000E+00 -0.00000000000E+00 -0.81803185904E+03  0.81803185904E+03  0.00000000000E+00 0.  1.
         23    2    1    2    0    0 -0.14281156222E+03 -0.60084506642E+03  0.22275512880E+04  0.23132520558E+04  0.87979527264E+02 0.  0.
         11    1    3    3    0    0 -0.70504195021E+02 -0.20029010134E+03  0.89971538534E+03  0.92443211802E+03  0.00000000000E+00 0. -1.
        -11    1    3    3    0    0 -0.72307367195E+02 -0.40055496509E+03  0.13278359026E+04  0.13888199378E+04  0.00000000000E+00 0.  1.
         22    1    1    2    0    0  0.14281156222E+03  0.60084506642E+03 -0.65217481523E+03  0.89818813496E+03  0.00000000000E+00 0.  1.
<mgrwt>
<rscale>  0 0.27984884E+04</rscale>
<asrwt>0</asrwt>
<pdfrwt beam="1">  1        2 0.36821666E+00 0.27984884E+04</pdfrwt>
<pdfrwt beam="2">  1       -2 0.12585106E+00 0.27984884E+04</pdfrwt>
<totfact> 0.16447902E+00</totfact>
</mgrwt>
</event>
<event>
 6    1  0.9512547E-007  0.2269163E+04  0.7818608E-02  0.8490180E-01
         -2   -1    0    0    0  501 -0.00000000000E+00  0.00000000000E+00  0.65754690510E+03  0.65754690510E+03  0.00000000000E+00 0.  1.
          2   -1    0    0  501    0  0.00000000000E+00 -0.00000000000E+00 -0.19576938363E+04  0.19576938363E+04  0.00000000000E+00 0. -1.
         23    2    1    2    0    0  0.25467085520E+02  0.82072153121E+03 -0.15505589265E+04  0.17567894779E+04  0.88565687554E+02 0.  0.
         13    1    3    3    0    0  0.53662654742E+02  0.47725307652E+03 -0.94496714871E+03  0.10600061753E+04  0.00000000000E+00 0. -1.
        -13    1    3    3    0    0 -0.28195569222E+02  0.34346845469E+03 -0.60559177780E+03  0.69678330263E+03  0.00000000000E+00 0.  1.
         22    1    1    2    0    0 -0.25467085520E+02 -0.82072153121E+03  0.25041199535E+03  0.85845126341E+03  0.00000000000E+00 0.  1.
<mgrwt>
<rscale>  0 0.22691633E+04</rscale>
<asrwt>0</asrwt>
<pdfrwt beam="1">  1        2 0.30118366E+00 0.22691633E+04</pdfrwt>
<pdfrwt beam="2">  1       -2 0.10116106E+00 0.22691633E+04</pdfrwt>
<totfact> 0.51515086E+00</totfact>
</mgrwt>
</event>
<event>
 6    1  0.9512547E-007  0.1203853E+04  0.7818608E-02  0.9109491E-01
         -1   -1    0    0    0  501 -0.00000000000E+00  0.00000000000E+00  0.16984113196E+03  0.16984113196E+03  0.00000000000E+00 0.  1.
          1   -1    0    0  501    0  0.00000000000E+00 -0.00000000000E+00 -0.21332617381E+04  0.21332617381E+04  0.00000000000E+00 0. -1.
         23    2    1    2    0    0 -0.33299352507E+03 -0.48004820537E+03 -0.74262421096E+03  0.94970905977E+03  0.95528070708E+02 0.  0.
         11    1    3    3    0    0 -0.29857307356E+03 -0.44450153706E+03 -0.71421215402E+03  0.89265138641E+03  0.00000000000E+00 0. -1.
        -11    1    3    3    0    0 -0.34420451512E+02 -0.35546668314E+02 -0.28412056934E+02  0.57057673365E+02  0.00000000000E+00 0.  1.
         22    1    1    2    0    0  0.33299352507E+03  0.48004820537E+03 -0.12207963952E+04  0.13533938103E+04  0.00000000000E+00 0. -1.
<mgrwt>
<rscale>  0 0.12038531E+04</rscale>
<asrwt>0</asrwt>
<pdfrwt beam="1">  1        1 0.32819409E+00 0.12038531E+04</pdfrwt>
<pdfrwt beam="2">  1       -1 0.26129407E-01 0.12038531E+04</pdfrwt>
<totfact> 0.31157384E+01</totfact>
</mgrwt>
</event>
<event>
 6    1  0.9512547E-007  0.2253689E+04  0.7818608E-02  0.8496408E-01
         -2   -1    0    0    0  501 -0.00000000000E+00  0.00000000000E+00  0.33334654281E+03  0.33334654281E+03  0.00000000000E+00 0.  1.
          2   -1    0    0  501    0  0.00000000000E+00 -0.00000000000E+00 -0.38091846222E+04  0.38091846222E+04  0.00000000000E+00 0. -1.
         23    2    1    2    0    0  0.32606303818E+03 -0.72121643182E+03 -0.27135676102E+03  0.84174780855E+03  0.91840269262E+02 0.  0.
         11    1    3    3    0    0  0.14558556994E+03 -0.42689606531E+03 -0.16878357462E+03  0.48158416068E+03  0.00000000000E+00 0.  1.
        -11    1    3    3    0    0  0.18047746823E+03 -0.29432036651E+03 -0.10257318640E+03  0.36016364788E+03  0.00000000000E+00 0. -1.
         22    1    1    2    0    0 -0.32606303818E+03  0.72121643182E+03 -0.32044813184E+04  0.33007833564E+04  0.00000000000E+00 0. -1.
<mgrwt>
<rscale>  0 0.22536890E+04</rscale>
<asrwt>0</asrwt>
<pdfrwt beam="1">  1        2 0.58602839E+00 0.22536890E+04</pdfrwt>
<pdfrwt beam="2">  1       -2 0.51284085E-01 0.22536890E+04</pdfrwt>
<totfact> 0.15879385E+00</totfact>
</mgrwt>
</event>
<event>
 6    1  0.9512547E-007  0.1221832E+04  0.7818608E-02  0.9093959E-01
         -1   -1    0    0    0  501 -0.00000000000E+00  0.00000000000E+00  0.24772393744E+03  0.24772393744E+03  0.00000000000E+00 0.  1.
          1   -1    0    0  501    0  0.00000000000E+00 -0.00000000000E+00 -0.15065900006E+04  0.15065900006E+04  0.00000000000E+00 0. -1.
         23    2    1    2    0    0 -0.26884399775E+03 -0.32951994529E+03 -0.12559022722E+04  0.13290266546E+04  0.90337377184E+02 0.  0.
         11    1    3    3    0    0 -0.14966186066E+03 -0.17238334748E+03 -0.80791884089E+03  0.83955199034E+03  0.00000000000E+00 0. -1.
        -11    1    3    3    0    0 -0.11918213708E+03 -0.15713659781E+03 -0.44798343133E+03  0.48947466422E+03  0.00000000000E+00 0.  1.
         22    1    1    2    0    0  0.26884399775E+03  0.32951994529E+03 -0.29637909821E+01  0.42528728352E+03  0.00000000000E+00 0.  1.
<mgrwt>
<rscale>  0 0.12218321E+04</rscale>
<asrwt>0</asrwt>
<pdfrwt beam="1">  1        1 0.23178307E+00 0.12218321E+04</pdfrwt>
<pdfrwt beam="2">  1       -1 0.38111376E-01 0.12218321E+04</pdfrwt>
<totfact> 0.42549525E+01</totfact>
</mgrwt>
</event>
<event>
 6    1  0.9512547E-007  0.1091515E+04  0.7818608E-02  0.9213502E-01
          1   -1    0    0  501    0  0.00000000000E+00  0.00000000000E+00  0.72950371608E+03  0.72950371608E+03  0.00000000000E+00 0. -1.
         -1   -1    0    0    0  501 -0.00000000000E+00 -0.00000000000E+00 -0.40829297303E+03  0.40829297303E+03  0.00000000000E+00 0.  1.
         23    2    1    2    0    0  0.27433598166E+03  0.39690892510E+03  0.41897426019E+03  0.64550142106E+03  0.91300209402E+02 0.  0.
         11    1    3    3    0    0  0.15372456407E+03  0.14960653527E+03  0.20784963185E+03  0.29868851075E+03  0.00000000000E+00 0. -1.
        -11    1    3    3    0    0  0.12061141759E+03  0.24730238983E+03  0.21112462834E+03  0.34681291031E+03  0.00000000000E+00 0.  1.
         22    1    1    2    0    0 -0.27433598166E+03 -0.39690892510E+03 -0.97763517133E+02  0.49229526805E+03  0.00000000000E+00 0.  1.
<mgrwt>
<rscale>  0 0.10915150E+04</rscale>
<asrwt>0</asrwt>
<pdfrwt beam="1">  1        1 0.11223134E+00 0.10915150E+04</pdfrwt>
<pdfrwt beam="2">  1       -1 0.62814304E-01 0.10915150E+04</pdfrwt>
<totfact> 0.65551190E+01</totfact>
</mgrwt>
</event>
<event>
 6    1  0.9512547E-007  0.7652970E+03  0.7818608E-02  0.9611653E-01
         -2   -1    0    0    0  501 -0.00000000000E+00  0.00000000000E+00  0.16646880002E+03  0.16646880002E+03  0.00000000000E+00 0.  1.
          2   -1    0    0  501    0  0.00000000000E+00 -0.00000000000E+00 -0.87956353941E+03  0.87956353941E+03  0.00000000000E+00 0. -1.
         23    2    1    2    0    0  0.28816016070E+03  0.15293011098E+03 -0.10330171703E+03  0.35446063152E+03  0.92451054618E+02 0.  0.
         11    1    3    3    0    0  0.12161493608E+03  0.84687499453E+02 -0.91330091650E+02  0.17407857675E+03  0.00000000000E+00 0.  1.
        -11    1    3    3    0    0  0.16654522462E+03  0.68242611526E+02 -0.11971625382E+02  0.18038205477E+03  0.00000000000E+00 0. -1.
         22    1    1    2    0    0 -0.28816016070E+03 -0.15293011098E+03 -0.60979302236E+03  0.69157170791E+03  0.00000000000E+00 0. -1.
<mgrwt>
<rscale>  0 0.76529703E+03</rscale>
<asrwt>0</asrwt>
<pdfrwt beam="1">  1        2 0.13531747E+00 0.76529703E+03</pdfrwt>
<pdfrwt beam="2">  1       -2 0.25610584E-01 0.76529703E+03</pdfrwt>
<totfact> 0.41755660E+02</totfact>
</mgrwt>
</event>
<event>
 6    1  0.9512547E-007  0.1236624E+04  0.7818608E-02  0.9081390E-01
         -2   -1    0    0    0  501 -0.00000000000E+00  0.00000000000E+00  0.10260047899E+04  0.10260047899E+04  0.00000000000E+00 0.  1.
          2   -1    0    0  501    0  0.00000000000E+00 -0.00000000000E+00 -0.37261999334E+03  0.37261999334E+03  0.00000000000E+00 0. -1.
         23    2    1    2    0    0 -0.23922181627E+03 -0.44207075745E+03 -0.72072072001E+02  0.51604827092E+03  0.91966311097E+02 0.  0.
         13    1    3    3    0    0 -0.10663923829E+03 -0.13073979650E+03 -0.54133585834E+02  0.17718709503E+03  0.00000000000E+00 0. -1.
        -13    1    3    3    0    0 -0.13258257798E+03 -0.31133096096E+03 -0.17938486166E+02  0.33886117588E+03  0.00000000000E+00 0.  1.
         22    1    1    2    0    0  0.23922181627E+03  0.44207075745E+03  0.72545686858E+03  0.88257651235E+03  0.00000000000E+00 0.  1.
<mgrwt>
<rscale>  0 0.12366243E+04</rscale>
<asrwt>0</asrwt>
<pdfrwt beam="1">  1        2 0.57326154E-01 0.12366243E+04</pdfrwt>
<pdfrwt beam="2">  1       -2 0.15784689E+00 0.12366243E+04</pdfrwt>
<totfact> 0.22133257E+01</totfact>
</mgrwt>
</event>
<event>
 6    1  0.9512547E-007  0.7854864E+03  0.7818608E-02  0.9581266E-01
         -2   -1    0    0    0  501 -0.00000000000E+00  0.00000000000E+00  0.44092278485E+03  0.44092278485E+03  0.00000000000E+00 0.  1.
          2   -1    0    0  501    0  0.00000000000E+00 -0.00000000000E+00 -0.34982815063E+03  0.34982815063E+03  0.00000000000E+00 0. -1.
         23    2    1    2    0    0 -0.14720280740E+03 -0.32783842160E+03 -0.10329352202E+03  0.38217603112E+03  0.79008036844E+02 0.  0.
         13    1    3    3    0    0 -0.18465697955E+02 -0.12677433934E+02 -0.23590428283E+02  0.32530103577E+02  0.00000000000E+00 0. -1.
        -13    1    3    3    0    0 -0.12873710945E+03 -0.31516098767E+03 -0.79703093737E+02  0.34964592755E+03  0.00000000000E+00 0.  1.
         22    1    1    2    0    0  0.14720280740E+03  0.32783842160E+03  0.19438815624E+03  0.40857490436E+03  0.00000000000E+00 0.  1.
<mgrwt>
<rscale>  0 0.78548635E+03</rscale>
<asrwt>0</asrwt>
<pdfrwt beam="1">  1        2 0.53819716E-01 0.78548635E+03</pdfrwt>
<pdfrwt beam="2">  1       -2 0.67834274E-01 0.78548635E+03</pdfrwt>
<totfact> 0.18556285E+02</totfact>
</mgrwt>
</event>
<event>
 6    1  0.9512547E-007  0.1242284E+04  0.7818608E-02  0.9076630E-01
         -2   -1    0    0    0  501 -0.00000000000E+00  0.00000000000E+00  0.29528899412E+03  0.29528899412E+03  0.00000000000E+00 0.  1.
          2   -1    0    0  501    0  0.00000000000E+00 -0.00000000000E+00 -0.13065751013E+04  0.13065751013E+04  0.00000000000E+00 0. -1.
         23    2    1    2    0    0  0.37293782218E+03  0.39640900549E+03 -0.14194913049E+03  0.57620845248E+03  0.12507560200E+03 0.  0.
         11    1    3    3    0    0  0.24996228316E+03  0.24709688326E+03 -0.30104852268E+02  0.35276665779E+03  0.00000000000E+00 0. -1.
        -11    1    3    3    0    0  0.12297553902E+03  0.14931212223E+03 -0.11184427823E+03  0.22344179469E+03  0.00000000000E+00 0.  1.
         22    1    1    2    0    0 -0.37293782218E+03 -0.39640900549E+03 -0.86933697667E+03  0.10256556429E+04  0.00000000000E+00 0. -1.
<mgrwt>
<rscale>  0 0.12422838E+04</rscale>
<asrwt>0</asrwt>
<pdfrwt beam="1">  1        2 0.20101155E+00 0.12422838E+04</pdfrwt>
<pdfrwt beam="2">  1       -2 0.45429076E-01 0.12422838E+04</pdfrwt>
<totfact> 0.74056676E+01</totfact>
</mgrwt>
</event>
<event>
 6    1  0.9512547E-007  0.3156478E+04  0.7818608E-02  0.8200407E-01
          1   -1    0    0  501    0  0.00000000000E+00  0.00000000000E+00  0.18823197301E+04  0.18823197301E+04  0.00000000000E+00 0. -1.
         -1   -1    0    0    0  501 -0.00000000000E+00 -0.00000000000E+00 -0.13232815671E+04  0.13232815671E+04  0.00000000000E+00 0.  1.
         23    2    1    2    0    0  0.20822929369E+03  0.11494033952E+04 -0.79611487159E+03  0.14164877315E+04  0.90282895069E+02 0.  0.
         13    1    3    3    0    0  0.13059306657E+03  0.79727944026E+03 -0.50195978315E+03  0.95114282776E+03  0.00000000000E+00 0. -1.
        -13    1    3    3    0    0  0.77636227121E+02  0.35212395493E+03 -0.29415508844E+03  0.46534490376E+03  0.00000000000E+00 0.  1.
         22    1    1    2    0    0 -0.20822929369E+03 -0.11494033952E+04  0.13551530346E+04  0.17891135657E+04  0.00000000000E+00 0. -1.
<mgrwt>
<rscale>  0 0.31564784E+04</rscale>
<asrwt>0</asrwt>
<pdfrwt beam="1">  1        1 0.28958765E+00 0.31564784E+04</pdfrwt>
<pdfrwt beam="2">  1       -1 0.20358178E+00 0.31564784E+04</pdfrwt>
<totfact> 0.42773452E-01</totfact>
</mgrwt>
</event>
<event>
 6    1  0.9512547E-007  0.1118537E+04  0.7818608E-02  0.9187310E-01
         -1   -1    0    0    0  501 -0.00000000000E+00  0.00000000000E+00  0.16411183126E+03  0.16411183126E+03  0.00000000000E+00 0.  1.
          1   -1    0    0  501    0  0.00000000000E+00 -0.00000000000E+00 -0.19059038732E+04  0.19059038732E+04  0.00000000000E+00 0. -1.
         23    2    1    2    0    0 -0.44322098675E+03  0.30307491059E+03 -0.61273516226E+03  0.81978825232E+03  0.91154566775E+02 0.  0.
         11    1    3    3    0    0 -0.30215271857E+03  0.23602195650E+03 -0.48344548432E+03  0.61702687591E+03  0.00000000000E+00 0.  1.
        -11    1    3    3    0    0 -0.14106826819E+03  0.67052954092E+02 -0.12928967794E+03  0.20276137641E+03  0.00000000000E+00 0. -1.
         22    1    1    2    0    0  0.44322098675E+03 -0.30307491059E+03 -0.11290568797E+04  0.12502274522E+04  0.00000000000E+00 0.  1.
<mgrwt>
<rscale>  0 0.11185372E+04</rscale>
<asrwt>0</asrwt>
<pdfrwt beam="1">  1        1 0.29321599E+00 0.11185372E+04</pdfrwt>
<pdfrwt beam="2">  1       -1 0.25247974E-01 0.11185372E+04</pdfrwt>
<totfact> 0.47407199E+01</totfact>
</mgrwt>
</event>
<event>
 6    1  0.9512547E-007  0.2276261E+04  0.7818608E-02  0.8487340E-01
         -2   -1    0    0    0  501 -0.00000000000E+00  0.00000000000E+00  0.44167965218E+03  0.44167965218E+03  0.00000000000E+00 0.  1.
          2   -1    0    0  501    0  0.00000000000E+00 -0.00000000000E+00 -0.29327607232E+04  0.29327607232E+04  0.00000000000E+00 0. -1.
         23    2    1    2    0    0 -0.71720167261E+03 -0.74834989136E+03 -0.55722863787E+03  0.11803138904E+04  0.90726654404E+02 0.  0.
         11    1    3    3    0    0 -0.27347435384E+03 -0.22522555299E+03 -0.20206100606E+03  0.40785220620E+03  0.00000000000E+00 0. -1.
        -11    1    3    3    0    0 -0.44372731877E+03 -0.52312433836E+03 -0.35516763181E+03  0.77246168416E+03  0.00000000000E+00 0.  1.
         22    1    1    2    0    0  0.71720167261E+03  0.74834989136E+03 -0.19338524332E+04  0.21941264851E+04  0.00000000000E+00 0. -1.
<mgrwt>
<rscale>  0 0.22762607E+04</rscale>
<asrwt>0</asrwt>
<pdfrwt beam="1">  1        2 0.45119393E+00 0.22762607E+04</pdfrwt>
<pdfrwt beam="2">  1       -2 0.67950719E-01 0.22762607E+04</pdfrwt>
<totfact> 0.34571539E+00</totfact>
</mgrwt>
</event>
<event>
 6    1  0.9512547E-007  0.5394659E+04  0.7818608E-02  0.7770353E-01
          1   -1    0    0  501    0  0.00000000000E+00  0.00000000000E+00  0.41634759170E+04  0.41634759170E+04  0.00000000000E+00 0. -1.
         -1   -1    0    0    0  501 -0.00000000000E+00 -0.00000000000E+00 -0.17474792432E+04  0.17474792432E+04  0.00000000000E+00 0.  1.
         23    2    1    2    0    0 -0.38964940689E+03  0.18563503795E+04  0.33084728624E+04  0.38146781893E+04  0.88958502179E+02 0.  0.
         13    1    3    3    0    0 -0.17010107515E+03  0.88158618133E+03  0.14817919407E+04  0.17325807128E+04  0.00000000000E+00 0. -1.
        -13    1    3    3    0    0 -0.21954833174E+03  0.97476419814E+03  0.18266809217E+04  0.20820974765E+04  0.00000000000E+00 0.  1.
         22    1    1    2    0    0  0.38964940689E+03 -0.18563503795E+04 -0.89247618858E+03  0.20962769709E+04  0.00000000000E+00 0.  1.
<mgrwt>
<rscale>  0 0.53946595E+04</rscale>
<asrwt>0</asrwt>
<pdfrwt beam="1">  1        1 0.64053475E+00 0.53946595E+04</pdfrwt>
<pdfrwt beam="2">  1       -1 0.26884296E+00 0.53946595E+04</pdfrwt>
<totfact> 0.25036240E-03</totfact>
</mgrwt>
</event>
<event>
 6    1  0.9512547E-007  0.5370207E+04  0.7818608E-02  0.7773806E-01
          2   -1    0    0  501    0  0.00000000000E+00  0.00000000000E+00  0.26172069192E+04  0.26172069192E+04  0.00000000000E+00 0. -1.
         -2   -1    0    0    0  501 -0.00000000000E+00 -0.00000000000E+00 -0.27547612478E+04  0.27547612478E+04  0.00000000000E+00 0.  1.
         23    2    1    2    0    0 -0.47598648982E+03  0.67509588950E+03  0.24860953433E+04  0.26213581985E+04  0.92364227047E+02 0.  0.
         11    1    3    3    0    0 -0.41724225023E+03  0.61516888133E+03  0.21469732976E+04  0.22720075239E+04  0.00000000000E+00 0.  1.
        -11    1    3    3    0    0 -0.58744239589E+02  0.59927008172E+02  0.33912204568E+03  0.34935067463E+03  0.00000000000E+00 0. -1.
         22    1    1    2    0    0  0.47598648982E+03 -0.67509588950E+03 -0.26236496719E+04  0.27506099686E+04  0.00000000000E+00 0.  1.
<mgrwt>
<rscale>  0 0.53702068E+04</rscale>
<asrwt>0</asrwt>
<pdfrwt beam="1">  1        2 0.40264722E+00 0.53702068E+04</pdfrwt>
<pdfrwt beam="2">  1       -2 0.42380942E+00 0.53702068E+04</pdfrwt>
<totfact> 0.10897150E-02</totfact>
</mgrwt>
</event>
<event>
 6    1  0.9512547E-007  0.1233631E+04  0.7818608E-02  0.9083918E-01
         -1   -1    0    0    0  501 -0.00000000000E+00  0.00000000000E+00  0.12598000113E+04  0.12598000113E+04  0.00000000000E+00 0.  1.
          1   -1    0    0  501    0  0.00000000000E+00 -0.00000000000E+00 -0.30200137581E+03  0.30200137581E+03  0.00000000000E+00 0. -1.
         23    2    1    2    0    0  0.58950655513E+03  0.80253473395E+02  0.29230766264E+03  0.66914421133E+03  0.91387129224E+02 0.  0.
         13    1    3    3    0    0  0.50733430997E+03  0.89211863559E+02  0.27769967068E+03  0.58520420861E+03  0.00000000000E+00 0.  1.
        -13    1    3    3    0    0  0.82172245153E+02 -0.89583901642E+01  0.14607991960E+02  0.83940002722E+02  0.00000000000E+00 0. -1.
         22    1    1    2    0    0 -0.58950655513E+03 -0.80253473395E+02  0.66549097283E+03  0.89265717577E+03  0.00000000000E+00 0.  1.
<mgrwt>
<rscale>  0 0.12336310E+04</rscale>
<asrwt>0</asrwt>
<pdfrwt beam="1">  1        1 0.46461751E-01 0.12336310E+04</pdfrwt>
<pdfrwt beam="2">  1       -1 0.19381538E+00 0.12336310E+04</pdfrwt>
<totfact> 0.14259807E+01</totfact>
</mgrwt>
</event>
<event>
 6    1  0.9512547E-007  0.1854474E+04  0.7818608E-02  0.8677855E-01
          1   -1    0    0  501    0  0.00000000000E+00  0.00000000000E+00  0.14745660924E+04  0.14745660924E+04  0.00000000000E+00 0. -1.
         -1   -1    0    0    0  501 -0.00000000000E+00 -0.00000000000E+00 -0.58306556642E+03  0.58306556642E+03  0.00000000000E+00 0.  1.
         23    2    1    2    0    0 -0.41871763258E+03 -0.14517370027E+03  0.13484443459E+04  0.14210803933E+04  0.69046875850E+02 0.  0.
         13    1    3    3    0    0 -0.34906239724E+03 -0.95438637325E+02  0.11269106552E+04  0.11835880683E+04  0.00000000000E+00 0. -1.
        -13    1    3    3    0    0 -0.69655235338E+02 -0.49735062947E+02  0.22153369074E+03  0.23749232499E+03  0.00000000000E+00 0.  1.
         22    1    1    2    0    0  0.41871763258E+03  0.14517370027E+03 -0.45694381994E+03  0.63655126554E+03  0.00000000000E+00 0.  1.
<mgrwt>
<rscale>  0 0.18544743E+04</rscale>
<asrwt>0</asrwt>
<pdfrwt beam="1">  1        1 0.22685632E+00 0.18544743E+04</pdfrwt>
<pdfrwt beam="2">  1       -1 0.89702395E-01 0.18544743E+04</pdfrwt>
<totfact> 0.77866265E+00</totfact>
</mgrwt>
</event>
<event>
 6    1  0.9512547E-007  0.3534105E+04  0.7818608E-02  0.8105755E-01
         -2   -1    0    0    0  501 -0.00000000000E+00  0.00000000000E+00  0.16871524346E+04  0.16871524346E+04  0.00000000000E+00 0.  1.
          2   -1    0    0  501    0  0.00000000000E+00 -0.00000000000E+00 -0.18507364028E+04  0.18507364028E+04  0.00000000000E+00 0. -1.
         23    2    1    2    0    0 -0.14991146201E+04 -0.55708821224E+03  0.66793062585E+03  0.17353604908E+04  0.87480235965E+02 0.  0.
         11    1    3    3    0    0 -0.81247206444E+03 -0.34831955032E+03  0.36980214479E+03  0.95822282947E+03  0.00000000000E+00 0. -1.
        -11    1    3    3    0    0 -0.68664255563E+03 -0.20876866192E+03  0.29812848106E+03  0.77713766131E+03  0.00000000000E+00 0.  1.
         22    1    1    2    0    0  0.14991146201E+04  0.55708821224E+03 -0.83151459410E+03  0.18025283467E+04  0.00000000000E+00 0. -1.
<mgrwt>
<rscale>  0 0.35341049E+04</rscale>
<asrwt>0</asrwt>
<pdfrwt beam="1">  1        2 0.28472868E+00 0.35341049E+04</pdfrwt>
<pdfrwt beam="2">  1       -2 0.25956191E+00 0.35341049E+04</pdfrwt>
<totfact> 0.37202971E-01</totfact>
</mgrwt>
</event>
<event>
 6    1  0.9512547E-007  0.3170646E+04  0.7818608E-02  0.8196613E-01
         -1   -1    0    0    0  501 -0.00000000000E+00  0.00000000000E+00  0.71453339086E+03  0.71453339086E+03  0.00000000000E+00 0.  1.
          1   -1    0    0  501    0  0.00000000000E+00 -0.00000000000E+00 -0.35173292999E+04  0.35173292999E+04  0.00000000000E+00 0. -1.
         23    2    1    2    0    0 -0.58051179458E+03  0.77219188718E+02 -0.33668098952E+04  0.34188014855E+04  0.99186594402E+02 0.  0.
         11    1    3    3    0    0 -0.24189552138E+03  0.40408154064E+02 -0.11390096057E+04  0.11651133610E+04  0.00000000000E+00 0. -1.
        -11    1    3    3    0    0 -0.33861627320E+03  0.36811034654E+02 -0.22278002895E+04  0.22536881245E+04  0.00000000000E+00 0.  1.
         22    1    1    2    0    0  0.58051179458E+03 -0.77219188718E+02  0.56401398618E+03  0.81306120518E+03  0.00000000000E+00 0.  1.
<mgrwt>
<rscale>  0 0.31706461E+04</rscale>
<asrwt>0</asrwt>
<pdfrwt beam="1">  1        1 0.54112757E+00 0.31706461E+04</pdfrwt>
<pdfrwt beam="2">  1       -1 0.10992822E+00 0.31706461E+04</pdfrwt>
<totfact> 0.15504423E-01</totfact>
</mgrwt>
</event>
<event>
 6    1  0.9512547E-007  0.4816374E+03  0.7818608E-02  0.1018686E+00
          1   -1    0    0  501    0  0.00000000000E+00  0.00000000000E+00  0.13993685344E+03  0.13993685344E+03  0.00000000000E+00 0. -1.
         -1   -1    0    0    0  501 -0.00000000000E+00 -0.00000000000E+00 -0.41442727182E+03  0.41442727182E+03  0.00000000000E+00 0.  1.
         23    2    1    2    0    0  0.45318402978E+02  0.93599266156E+02  0.98128258984E+02  0.16750593549E+03  0.87261119293E+02 0.  0.
         13    1    3    3    0    0  0.26177749480E+02  0.75729815513E+02  0.16536528571E+02  0.81815257151E+02  0.00000000000E+00 0. -1.
        -13    1    3    3    0    0  0.19140653498E+02  0.17869450642E+02  0.81591730413E+02  0.85690678340E+02  0.00000000000E+00 0.  1.
         22    1    1    2    0    0 -0.45318402978E+02 -0.93599266156E+02 -0.37261867736E+03  0.38685818977E+03  0.00000000000E+00 0.  1.
<mgrwt>
<rscale>  0 0.48163741E+03</rscale>
<asrwt>0</asrwt>
<pdfrwt beam="1">  1        1 0.21528747E-01 0.48163741E+03</pdfrwt>
<pdfrwt beam="2">  1       -1 0.63758041E-01 0.48163741E+03</pdfrwt>
<totfact> 0.59944827E+02</totfact>
</mgrwt>
</event>
<event>
 6    1  0.9512547E-007  0.2550721E+04  0.7818608E-02  0.8385136E-01
         -3   -1    0    0    0  501 -0.00000000000E+00  0.00000000000E+00  0.21773590223E+04  0.21773590223E+04  0.00000000000E+00 0.  1.
          3   -1    0    0  501    0  0.00000000000E+00 -0.00000000000E+00 -0.74702605566E+03  0.74702605566E+03  0.00000000000E+00 0. -1.
         23    2    1    2    0    0 -0.12525603747E+04 -0.17320388729E+03  0.89234855936E+03  0.15502183118E+04  0.89352022661E+02 0.  0.
         11    1    3    3    0    0 -0.19577093405E+03 -0.59985276685E+02  0.13960966457E+03  0.24782120668E+03  0.00000000000E+00 0.  1.
        -11    1    3    3    0    0 -0.10567894406E+04 -0.11321861060E+03  0.75273889479E+03  0.13023971051E+04  0.00000000000E+00 0. -1.
         22    1    1    2    0    0  0.12525603747E+04  0.17320388729E+03  0.53798440729E+03  0.13741667662E+04  0.00000000000E+00 0. -1.
<mgrwt>
<rscale>  0 0.25507206E+04</rscale>
<asrwt>0</asrwt>
<pdfrwt beam="1">  1        3 0.11492709E+00 0.25507206E+04</pdfrwt>
<pdfrwt beam="2">  1       -3 0.33497831E+00 0.25507206E+04</pdfrwt>
<totfact> 0.35269403E-02</totfact>
</mgrwt>
</event>
<event>
 6    1  0.9512547E-007  0.2932342E+04  0.7818608E-02  0.8263319E-01
         -1   -1    0    0    0  501 -0.00000000000E+00  0.00000000000E+00  0.19308572569E+04  0.19308572569E+04  0.00000000000E+00 0.  1.
          1   -1    0    0  501    0  0.00000000000E+00 -0.00000000000E+00 -0.11133178029E+04  0.11133178029E+04  0.00000000000E+00 0. -1.
         23    2    1    2    0    0 -0.19036762271E+03  0.12373574356E+04 -0.38022857887E+03  0.13115638755E+04  0.91284018667E+02 0.  0.
         11    1    3    3    0    0 -0.11959321483E+03  0.99982870311E+03 -0.29129669534E+03  0.10482431671E+04  0.00000000000E+00 0. -1.
        -11    1    3    3    0    0 -0.70774407881E+02  0.23752873252E+03 -0.88931883531E+02  0.26332070843E+03  0.00000000000E+00 0.  1.
         22    1    1    2    0    0  0.19036762271E+03 -0.12373574356E+04  0.11977680329E+04  0.17326111843E+04  0.00000000000E+00 0.  1.
<mgrwt>
<rscale>  0 0.29323422E+04</rscale>
<asrwt>0</asrwt>
<pdfrwt beam="1">  1        1 0.17127966E+00 0.29323422E+04</pdfrwt>
<pdfrwt beam="2">  1       -1 0.29705496E+00 0.29323422E+04</pdfrwt>
<totfact> 0.36594563E-01</totfact>
</mgrwt>
</event>
<event>
 6    1  0.1026975E-006  0.3063264E+04  0.7818608E-02  0.8225893E-01
          2   -1    0    0  501    0  0.00000000000E+00  0.00000000000E+00  0.19957859053E+04  0.19957859053E+04  0.00000000000E+00 0. -1.
         -2   -1    0    0    0  501 -0.00000000000E+00 -0.00000000000E+00 -0.11754247697E+04  0.11754247697E+04  0.00000000000E+00 0.  1.
         23    2    1    2    0    0 -0.62172057482E+03  0.12686156948E+04 -0.19741563159E+03  0.14300065508E+04  0.10011767706E+03 0.  0.
         13    1    3    3    0    0 -0.21845055023E+03  0.54921107956E+03 -0.63159446199E+02  0.59442625148E+03  0.00000000000E+00 0. -1.
        -13    1    3    3    0    0 -0.40327002459E+03  0.71940461528E+03 -0.13425618539E+03  0.83558029928E+03  0.00000000000E+00 0.  1.
         22    1    1    2    0    0  0.62172057482E+03 -0.12686156948E+04  0.10177767672E+04  0.17412041242E+04  0.00000000000E+00 0.  1.
<mgrwt>
<rscale>  0 0.30632637E+04</rscale>
<asrwt>0</asrwt>
<pdfrwt beam="1">  1        2 0.30704399E+00 0.30632637E+04</pdfrwt>
<pdfrwt beam="2">  1       -2 0.18083458E+00 0.30632637E+04</pdfrwt>
<totfact> 0.10236806E+00</totfact>
</mgrwt>
</event>
<event>
 6    1  0.9512547E-007  0.2071598E+04  0.7818608E-02  0.8573859E-01
         -1   -1    0    0    0  501 -0.00000000000E+00  0.00000000000E+00  0.19756779704E+04  0.19756779704E+04  0.00000000000E+00 0.  1.
          1   -1    0    0  501    0  0.00000000000E+00 -0.00000000000E+00 -0.54304380118E+03  0.54304380118E+03  0.00000000000E+00 0. -1.
         23    2    1    2    0    0  0.67493049018E+03  0.71670964763E+03  0.33406846598E+03  0.10435775448E+04  0.90821068061E+02 0.  0.
         13    1    3    3    0    0  0.19175222800E+03  0.22110799674E+03  0.57826100114E+02  0.29833122703E+03  0.00000000000E+00 0. -1.
        -13    1    3    3    0    0  0.48317826218E+03  0.49560165090E+03  0.27624236587E+03  0.74524631775E+03  0.00000000000E+00 0.  1.
         22    1    1    2    0    0 -0.67493049018E+03 -0.71670964763E+03  0.10985657033E+04  0.14751442269E+04  0.00000000000E+00 0.  1.
<mgrwt>
<rscale>  0 0.20715981E+04</rscale>
<asrwt>0</asrwt>
<pdfrwt beam="1">  1        1 0.83545201E-01 0.20715981E+04</pdfrwt>
<pdfrwt beam="2">  1       -1 0.30395045E+00 0.20715981E+04</pdfrwt>
<totfact> 0.11342798E+00</totfact>
</mgrwt>
</event>
<event>
 6    1  0.9512547E-007  0.1662218E+04  0.7818608E-02  0.8783211E-01
          1   -1    0    0  501    0  0.00000000000E+00  0.00000000000E+00  0.20388756160E+04  0.20388756160E+04  0.00000000000E+00 0. -1.
         -1   -1    0    0    0  501 -0.00000000000E+00 -0.00000000000E+00 -0.33878585964E+03  0.33878585964E+03  0.00000000000E+00 0.  1.
         23    2    1    2    0    0  0.10923759858E+03 -0.82140436366E+03  0.85485424721E+03  0.11939972295E+04  0.90640049443E+02 0.  0.
         11    1    3    3    0    0  0.59855836093E+02 -0.67857937800E+03  0.67367396324E+03  0.95806539553E+03  0.00000000000E+00 0. -1.
        -11    1    3    3    0    0  0.49381762488E+02 -0.14282498567E+03  0.18118028397E+03  0.23593183400E+03  0.00000000000E+00 0.  1.
         22    1    1    2    0    0 -0.10923759858E+03  0.82140436366E+03  0.84523550917E+03  0.11836642461E+04  0.00000000000E+00 0.  1.
<mgrwt>
<rscale>  0 0.16622181E+04</rscale>
<asrwt>0</asrwt>
<pdfrwt beam="1">  1        1 0.31367316E+00 0.16622181E+04</pdfrwt>
<pdfrwt beam="2">  1       -1 0.52120903E-01 0.16622181E+04</pdfrwt>
<totfact> 0.99275078E+00</totfact>
</mgrwt>
</event>
<event>
 6    1  0.9512547E-007  0.2647973E+04  0.7818608E-02  0.8352086E-01
          2   -1    0    0  501    0  0.00000000000E+00  0.00000000000E+00  0.69571216809E+03  0.69571216809E+03  0.00000000000E+00 0. -1.
         -2   -1    0    0    0  501 -0.00000000000E+00 -0.00000000000E+00 -0.25196339843E+04  0.25196339843E+04  0.00000000000E+00 0.  1.
         23    2    1    2    0    0 -0.21746248344E+03  0.40570651296E+03 -0.24183928559E+04  0.24634927601E+04  0.91021245624E+02 0.  0.
         11    1    3    3    0    0 -0.92942764351E+02  0.24090654089E+03 -0.11726904573E+04  0.12007819234E+04  0.00000000000E+00 0. -1.
        -11    1    3    3    0    0 -0.12451971908E+03  0.16479997207E+03 -0.12457023986E+04  0.12627108367E+04  0.00000000000E+00 0.  1.
         22    1    1    2    0    0  0.21746248344E+03 -0.40570651296E+03  0.59447103974E+03  0.75185339226E+03  0.00000000000E+00 0. -1.
<mgrwt>
<rscale>  0 0.26479728E+04</rscale>
<asrwt>0</asrwt>
<pdfrwt beam="1">  1        2 0.10703264E+00 0.26479728E+04</pdfrwt>
<pdfrwt beam="2">  1       -2 0.38763600E+00 0.26479728E+04</pdfrwt>
<totfact> 0.32508690E-01</totfact>
</mgrwt>
</event>
<event>
 6    1  0.9512547E-007  0.2166860E+04  0.7818608E-02  0.8532350E-01
         -1   -1    0    0    0  501 -0.00000000000E+00  0.00000000000E+00  0.74529646859E+03  0.74529646859E+03  0.00000000000E+00 0.  1.
          1   -1    0    0  501    0  0.00000000000E+00 -0.00000000000E+00 -0.15749710092E+04  0.15749710092E+04  0.00000000000E+00 0. -1.
         23    2    1    2    0    0 -0.72697289928E+03  0.79643113185E+03 -0.32414155865E+03  0.11293200651E+04  0.86625142059E+02 0.  0.
         11    1    3    3    0    0 -0.36975644551E+03  0.46698130041E+03 -0.18971128045E+03  0.62512537451E+03  0.00000000000E+00 0.  1.
        -11    1    3    3    0    0 -0.35721645377E+03  0.32944983144E+03 -0.13443027820E+03  0.50419469055E+03  0.00000000000E+00 0. -1.
         22    1    1    2    0    0  0.72697289928E+03 -0.79643113185E+03 -0.50553298199E+03  0.11909474128E+04  0.00000000000E+00 0. -1.
<mgrwt>
<rscale>  0 0.21668598E+04</rscale>
<asrwt>0</asrwt>
<pdfrwt beam="1">  1        1 0.24230323E+00 0.21668598E+04</pdfrwt>
<pdfrwt beam="2">  1       -1 0.11466100E+00 0.21668598E+04</pdfrwt>
<totfact> 0.36696181E+00</totfact>
</mgrwt>
</event>
<event>
 6    1  0.9512547E-007  0.4721939E+03  0.7818608E-02  0.1021303E+00
          2   -1    0    0  501    0  0.00000000000E+00  0.00000000000E+00  0.15435838884E+04  0.15435838884E+04  0.00000000000E+00 0. -1.
         -2   -1    0    0    0  501 -0.00000000000E+00 -0.00000000000E+00 -0.36111917958E+02  0.36111917958E+02  0.00000000000E+00 0.  1.
         23    2    1    2    0    0 -0.58021205091E+02  0.21672915388E+03  0.90479451438E+03  0.93661097337E+03  0.90824092529E+02 0.  0.
         13    1    3    3    0    0 -0.46246313494E+02  0.18532164437E+03  0.85820312095E+03  0.87920158678E+03  0.00000000000E+00 0. -1.
        -13    1    3    3    0    0 -0.11774891598E+02  0.31407509518E+02  0.46591393435E+02  0.57409386588E+02  0.00000000000E+00 0.  1.
         22    1    1    2    0    0  0.58021205091E+02 -0.21672915388E+03  0.60267745604E+03  0.64308483297E+03  0.00000000000E+00 0. -1.
<mgrwt>
<rscale>  0 0.47219392E+03</rscale>
<asrwt>0</asrwt>
<pdfrwt beam="1">  1        2 0.23747439E+00 0.47219392E+03</pdfrwt>
<pdfrwt beam="2">  1       -2 0.55556809E-02 0.47219392E+03</pdfrwt>
<totfact> 0.21437704E+03</totfact>
</mgrwt>
</event>
<event>
 6    1  0.9512547E-007  0.2576218E+04  0.7818608E-02  0.8376324E-01
         -2   -1    0    0    0  501 -0.00000000000E+00  0.00000000000E+00  0.73097889239E+03  0.73097889239E+03  0.00000000000E+00 0.  1.
          2   -1    0    0  501    0  0.00000000000E+00 -0.00000000000E+00 -0.22698675494E+04  0.22698675494E+04  0.00000000000E+00 0. -1.
         23    2    1    2    0    0  0.76682891162E+03 -0.35472139515E+03  0.35990260248E+03  0.92256299265E+03  0.87970132860E+02 0.  0.
         11    1    3    3    0    0  0.63367470363E+03 -0.32068873920E+03  0.32337839693E+03  0.78035792113E+03  0.00000000000E+00 0. -1.
        -11    1    3    3    0    0  0.13315420799E+03 -0.34032655945E+02  0.36524205545E+02  0.14220507152E+03  0.00000000000E+00 0.  1.
         22    1    1    2    0    0 -0.76682891162E+03  0.35472139515E+03 -0.18987912595E+04  0.20782834492E+04  0.00000000000E+00 0. -1.
<mgrwt>
<rscale>  0 0.25762184E+04</rscale>
<asrwt>0</asrwt>
<pdfrwt beam="1">  1        2 0.34921039E+00 0.25762184E+04</pdfrwt>
<pdfrwt beam="2">  1       -2 0.11245829E+00 0.25762184E+04</pdfrwt>
<totfact> 0.26020222E+00</totfact>
</mgrwt>
</event>
<event>
 6    1  0.9512547E-007  0.4615664E+04  0.7818608E-02  0.7890695E-01
          2   -1    0    0  501    0  0.00000000000E+00  0.00000000000E+00  0.26732344472E+04  0.26732344472E+04  0.00000000000E+00 0. -1.
         -2   -1    0    0    0  501 -0.00000000000E+00 -0.00000000000E+00 -0.19923757539E+04  0.19923757539E+04  0.00000000000E+00 0.  1.
         23    2    1    2    0    0  0.96647713554E+03  0.16881552333E+04 -0.91303992011E+03  0.21507625048E+04  0.90505863374E+02 0.  0.
         13    1    3    3    0    0  0.27672223673E+03  0.45511026450E+03 -0.29216447223E+03  0.60750360326E+03  0.00000000000E+00 0.  1.
        -13    1    3    3    0    0  0.68975489881E+03  0.12330449688E+04 -0.62087544788E+03  0.15432589016E+04  0.00000000000E+00 0. -1.
         22    1    1    2    0    0 -0.96647713554E+03 -0.16881552333E+04  0.15938986135E+04  0.25148476962E+04  0.00000000000E+00 0. -1.
<mgrwt>
<rscale>  0 0.46156635E+04</rscale>
<asrwt>0</asrwt>
<pdfrwt beam="1">  1        2 0.41126684E+00 0.46156635E+04</pdfrwt>
<pdfrwt beam="2">  1       -2 0.30651935E+00 0.46156635E+04</pdfrwt>
<totfact> 0.59938873E-02</totfact>
</mgrwt>
</event>
<event>
 6    1  0.9512547E-007  0.2751153E+04  0.7818608E-02  0.8318596E-01
          1   -1    0    0  501    0  0.00000000000E+00  0.00000000000E+00  0.15808717789E+04  0.15808717789E+04  0.00000000000E+00 0. -1.
         -1   -1    0    0    0  501 -0.00000000000E+00 -0.00000000000E+00 -0.11969409545E+04  0.11969409545E+04  0.00000000000E+00 0.  1.
         23    2    1    2    0    0 -0.54520342959E+03  0.11836799083E+04 -0.24738347122E+03  0.13297441421E+04  0.93145029623E+02 0.  0.
         13    1    3    3    0    0 -0.22256972225E+03  0.50786900570E+03 -0.59652317811E+02  0.55769759479E+03  0.00000000000E+00 0. -1.
        -13    1    3    3    0    0 -0.32263370733E+03  0.67581090265E+03 -0.18773115340E+03  0.77204654731E+03  0.00000000000E+00 0.  1.
         22    1    1    2    0    0  0.54520342959E+03 -0.11836799083E+04  0.63131429563E+03  0.14480685912E+04  0.00000000000E+00 0. -1.
<mgrwt>
<rscale>  0 0.27511526E+04</rscale>
<asrwt>0</asrwt>
<pdfrwt beam="1">  1        1 0.24321105E+00 0.27511526E+04</pdfrwt>
<pdfrwt beam="2">  1       -1 0.18414476E+00 0.27511526E+04</pdfrwt>
<totfact> 0.97198047E-01</totfact>
</mgrwt>
</event>
<event>
 6    1  0.9512547E-007  0.2207281E+04  0.7818608E-02  0.8515404E-01
          2   -1    0    0  501    0  0.00000000000E+00  0.00000000000E+00  0.24834459948E+04  0.24834459948E+04  0.00000000000E+00 0. -1.
         -2   -1    0    0    0  501 -0.00000000000E+00 -0.00000000000E+00 -0.49045660401E+03  0.49045660401E+03  0.00000000000E+00 0.  1.
         23    2    1    2    0    0  0.88022060587E+03 -0.41582133634E+03  0.16932851704E+04  0.19553161673E+04  0.91383516121E+02 0.  0.
         11    1    3    3    0    0  0.54883105313E+03 -0.30575053231E+03  0.10636926536E+04  0.12353707841E+04  0.00000000000E+00 0. -1.
        -11    1    3    3    0    0  0.33138955275E+03 -0.11007080403E+03  0.62959251683E+03  0.71994538322E+03  0.00000000000E+00 0.  1.
         22    1    1    2    0    0 -0.88022060587E+03  0.41582133634E+03  0.29970422040E+03  0.10185864315E+04  0.00000000000E+00 0.  1.
<mgrwt>
<rscale>  0 0.22072811E+04</rscale>
<asrwt>0</asrwt>
<pdfrwt beam="1">  1        2 0.38206861E+00 0.22072811E+04</pdfrwt>
<pdfrwt beam="2">  1       -2 0.75454863E-01 0.22072811E+04</pdfrwt>
<totfact> 0.51223392E+00</totfact>
</mgrwt>
</event>
<event>
 6    1  0.9512547E-007  0.1855372E+04  0.7818608E-02  0.8677395E-01
         -1   -1    0    0    0  501 -0.00000000000E+00  0.00000000000E+00  0.54484014126E+03  0.54484014126E+03  0.00000000000E+00 0.  1.
          1   -1    0    0  501    0  0.00000000000E+00 -0.00000000000E+00 -0.15795490130E+04  0.15795490130E+04  0.00000000000E+00 0. -1.
         23    2    1    2    0    0 -0.13664804892E+03  0.48479564820E+03 -0.14075724498E+04  0.14977100038E+04  0.90418717277E+02 0.  0.
         11    1    3    3    0    0 -0.12221213526E+03  0.37922446080E+03 -0.11995021160E+04  0.12639431649E+04  0.00000000000E+00 0.  1.
        -11    1    3    3    0    0 -0.14435913661E+02  0.10557118741E+03 -0.20807033375E+03  0.23376683897E+03  0.00000000000E+00 0. -1.
         22    1    1    2    0    0  0.13664804892E+03 -0.48479564820E+03  0.37286357801E+03  0.62667915044E+03  0.00000000000E+00 0.  1.
<mgrwt>
<rscale>  0 0.18553724E+04</rscale>
<asrwt>0</asrwt>
<pdfrwt beam="1">  1        1 0.24300754E+00 0.18553724E+04</pdfrwt>
<pdfrwt beam="2">  1       -1 0.83821560E-01 0.18553724E+04</pdfrwt>
<totfact> 0.76382940E+00</totfact>
</mgrwt>
</event>
<event>
 6    1  0.9512547E-007  0.7718337E+03  0.7818608E-02  0.9601706E-01
          2   -1    0    0  501    0  0.00000000000E+00  0.00000000000E+00  0.24580367402E+04  0.24580367402E+04  0.00000000000E+00 0. -1.
         -2   -1    0    0    0  501 -0.00000000000E+00 -0.00000000000E+00 -0.60589746831E+02  0.60589746831E+02  0.00000000000E+00 0.  1.
         23    2    1    2    0    0 -0.35160581940E+03 -0.14507314866E+03  0.12218599916E+04  0.12830385018E+04  0.92590966861E+02 0.  0.
         13    1    3    3    0    0 -0.16819473395E+03 -0.24983262918E+02  0.60193927951E+03  0.62549542618E+03  0.00000000000E+00 0. -1.
        -13    1    3    3    0    0 -0.18341108545E+03 -0.12008988574E+03  0.61992071212E+03  0.65754307557E+03  0.00000000000E+00 0.  1.
         22    1    1    2    0    0  0.35160581940E+03  0.14507314866E+03  0.11755870017E+04  0.12355879853E+04  0.00000000000E+00 0. -1.
<mgrwt>
<rscale>  0 0.77183372E+03</rscale>
<asrwt>0</asrwt>
<pdfrwt beam="1">  1        2 0.37815942E+00 0.77183372E+03</pdfrwt>
<pdfrwt beam="2">  1       -2 0.93215014E-02 0.77183372E+03</pdfrwt>
<totfact> 0.29300164E+02</totfact>
</mgrwt>
</event>
<event>
 6    1  0.9512547E-007  0.2948930E+04  0.7818608E-02  0.8258467E-01
         -1   -1    0    0    0  501 -0.00000000000E+00  0.00000000000E+00  0.21454996515E+04  0.21454996515E+04  0.00000000000E+00 0.  1.
          1   -1    0    0  501    0  0.00000000000E+00 -0.00000000000E+00 -0.10133055270E+04  0.10133055270E+04  0.00000000000E+00 0. -1.
         23    2    1    2    0    0 -0.11635548464E+04 -0.67274346748E+03 -0.77919586902E+02  0.13502646486E+04  0.10343841448E+03 0.  0.
         13    1    3    3    0    0 -0.12523148959E+03 -0.10582427904E+03 -0.26954528570E+02  0.16615730688E+03  0.00000000000E+00 0. -1.
        -13    1    3    3    0    0 -0.10383233568E+04 -0.56691918844E+03 -0.50965058331E+02  0.11841073417E+04  0.00000000000E+00 0.  1.
         22    1    1    2    0    0  0.11635548464E+04  0.67274346748E+03  0.12101137114E+04  0.18085405299E+04  0.00000000000E+00 0.  1.
<mgrwt>
<rscale>  0 0.29489297E+04</rscale>
<asrwt>0</asrwt>
<pdfrwt beam="1">  1        1 0.15589316E+00 0.29489297E+04</pdfrwt>
<pdfrwt beam="2">  1       -1 0.33007687E+00 0.29489297E+04</pdfrwt>
<totfact> 0.26548118E-01</totfact>
</mgrwt>
</event>
<event>
 6    1  0.9512547E-007  0.1438507E+04  0.7818608E-02  0.8926408E-01
          4   -1    0    0  501    0  0.00000000000E+00  0.00000000000E+00  0.37495521260E+03  0.37495521260E+03  0.00000000000E+00 0. -1.
         -4   -1    0    0    0  501 -0.00000000000E+00 -0.00000000000E+00 -0.13796988601E+04  0.13796988601E+04  0.00000000000E+00 0.  1.
         23    2    1    2    0    0 -0.36183109755E+03 -0.81791749597E+02 -0.12519266708E+04  0.13088838624E+04  0.90801667818E+02 0.  0.
         13    1    3    3    0    0 -0.10290592629E+03 -0.51077873313E+02 -0.28154989779E+03  0.30408703318E+03  0.00000000000E+00 0. -1.
        -13    1    3    3    0    0 -0.25892517127E+03 -0.30713876284E+02 -0.97037677296E+03  0.10047968292E+04  0.00000000000E+00 0.  1.
         22    1    1    2    0    0  0.36183109755E+03  0.81791749597E+02  0.24718302322E+03  0.44577021034E+03  0.00000000000E+00 0. -1.
<mgrwt>
<rscale>  0 0.14385066E+04</rscale>
<asrwt>0</asrwt>
<pdfrwt beam="1">  1        4 0.57685416E-01 0.14385066E+04</pdfrwt>
<pdfrwt beam="2">  1       -4 0.21226137E+00 0.14385066E+04</pdfrwt>
<totfact> 0.60608634E-01</totfact>
</mgrwt>
</event>
<event>
 6    1  0.9512547E-007  0.3109420E+04  0.7818608E-02  0.8213157E-01
          2   -1    0    0  501    0  0.00000000000E+00  0.00000000000E+00  0.28827592202E+04  0.28827592202E+04  0.00000000000E+00 0. -1.
         -2   -1    0    0    0  501 -0.00000000000E+00 -0.00000000000E+00 -0.83847552687E+03  0.83847552687E+03  0.00000000000E+00 0.  1.
         23    2    1    2    0    0 -0.10431344620E+03  0.15307927754E+04  0.73305241178E+03  0.17029346480E+04  0.91721103476E+02 0.  0.
         13    1    3    3    0    0 -0.45135204689E+02  0.40839455077E+03  0.23747644877E+03  0.47457176435E+03  0.00000000000E+00 0. -1.
        -13    1    3    3    0    0 -0.59178241510E+02  0.11223982246E+04  0.49557596301E+03  0.12283628837E+04  0.00000000000E+00 0.  1.
         22    1    1    2    0    0  0.10431344620E+03 -0.15307927754E+04  0.13112312816E+04  0.20183000991E+04  0.00000000000E+00 0. -1.
<mgrwt>
<rscale>  0 0.31094199E+04</rscale>
<asrwt>0</asrwt>
<pdfrwt beam="1">  1        2 0.44350141E+00 0.31094199E+04</pdfrwt>
<pdfrwt beam="2">  1       -2 0.12899624E+00 0.31094199E+04</pdfrwt>
<totfact> 0.77312966E-01</totfact>
</mgrwt>
</event>
<event>
 6    1  0.9512547E-007  0.2381789E+04  0.7818608E-02  0.8446353E-01
         -2   -1    0    0    0  501 -0.00000000000E+00  0.00000000000E+00  0.91026844474E+03  0.91026844474E+03  0.00000000000E+00 0.  1.
          2   -1    0    0  501    0  0.00000000000E+00 -0.00000000000E+00 -0.15580344740E+04  0.15580344740E+04  0.00000000000E+00 0. -1.
         23    2    1    2    0    0 -0.50954849468E+03  0.35921624971E+03 -0.13738959080E+04  0.15112550708E+04  0.87326630915E+02 0.  0.
         11    1    3    3    0    0 -0.29610534939E+03  0.26024701347E+03 -0.85251699465E+03  0.93925082493E+03  0.00000000000E+00 0. -1.
        -11    1    3    3    0    0 -0.21344314529E+03  0.98969236232E+02 -0.52137891338E+03  0.57200424588E+03  0.00000000000E+00 0.  1.
         22    1    1    2    0    0  0.50954849468E+03 -0.35921624971E+03  0.72612987875E+03  0.95704784796E+03  0.00000000000E+00 0.  1.
<mgrwt>
<rscale>  0 0.23817889E+04</rscale>
<asrwt>0</asrwt>
<pdfrwt beam="1">  1        2 0.23969761E+00 0.23817889E+04</pdfrwt>
<pdfrwt beam="2">  1       -2 0.14004130E+00 0.23817889E+04</pdfrwt>
<totfact> 0.38057287E+00</totfact>
</mgrwt>
</event>
<event>
 6    1  0.9512547E-007  0.2350044E+04  0.7818608E-02  0.8458447E-01
         -2   -1    0    0    0  501 -0.00000000000E+00  0.00000000000E+00  0.20390225975E+04  0.20390225975E+04  0.00000000000E+00 0.  1.
          2   -1    0    0  501    0  0.00000000000E+00 -0.00000000000E+00 -0.67712667750E+03  0.67712667750E+03  0.00000000000E+00 0. -1.
         23    2    1    2    0    0 -0.35191160692E+03 -0.34163098449E+03  0.19138862282E+04  0.19777409807E+04  0.89136881061E+02 0.  0.
         11    1    3    3    0    0 -0.19552808670E+03 -0.13011237923E+03  0.95062057483E+03  0.97920372815E+03  0.00000000000E+00 0.  1.
        -11    1    3    3    0    0 -0.15638352022E+03 -0.21151860525E+03  0.96326565340E+03  0.99853725258E+03  0.00000000000E+00 0. -1.
         22    1    1    2    0    0  0.35191160692E+03  0.34163098449E+03 -0.55199030824E+03  0.73840829426E+03  0.00000000000E+00 0. -1.
<mgrwt>
<rscale>  0 0.23500439E+04</rscale>
<asrwt>0</asrwt>
<pdfrwt beam="1">  1        2 0.10417334E+00 0.23500439E+04</pdfrwt>
<pdfrwt beam="2">  1       -2 0.31369578E+00 0.23500439E+04</pdfrwt>
<totfact> 0.10107871E+00</totfact>
</mgrwt>
</event>
<event>
 6    1  0.9512547E-007  0.2432347E+04  0.7818608E-02  0.8427492E-01
         -2   -1    0    0    0  501 -0.00000000000E+00  0.00000000000E+00  0.37059292620E+04  0.37059292620E+04  0.00000000000E+00 0.  1.
          2   -1    0    0  501    0  0.00000000000E+00 -0.00000000000E+00 -0.39911128594E+03  0.39911128594E+03  0.00000000000E+00 0. -1.
         23    2    1    2    0    0  0.56375154412E+03 -0.49713055868E+03  0.45951427738E+02  0.75866859584E+03  0.92260006143E+02 0.  0.
         11    1    3    3    0    0  0.97210498667E+02 -0.78354132733E+02  0.41999913625E+02  0.13173171187E+03  0.00000000000E+00 0.  1.
        -11    1    3    3    0    0  0.46654104546E+03 -0.41877642595E+03  0.39515141134E+01  0.62693688397E+03  0.00000000000E+00 0. -1.
         22    1    1    2    0    0 -0.56375154412E+03  0.49713055868E+03  0.32608665483E+04  0.33463719521E+04  0.00000000000E+00 0. -1.
<mgrwt>
<rscale>  0 0.24323472E+04</rscale>
<asrwt>0</asrwt>
<pdfrwt beam="1">  1        2 0.61401739E-01 0.24323472E+04</pdfrwt>
<pdfrwt beam="2">  1       -2 0.57014294E+00 0.24323472E+04</pdfrwt>
<totfact> 0.47950508E-02</totfact>
</mgrwt>
</event>
<event>
 6    1  0.9512547E-007  0.3379975E+04  0.7818608E-02  0.8142839E-01
          1   -1    0    0  501    0  0.00000000000E+00  0.00000000000E+00  0.39426647164E+04  0.39426647164E+04  0.00000000000E+00 0. -1.
         -1   -1    0    0    0  501 -0.00000000000E+00 -0.00000000000E+00 -0.72439794461E+03  0.72439794461E+03  0.00000000000E+00 0.  1.
         23    2    1    2    0    0  0.58379684650E+03  0.88270969364E+03 -0.20720135041E+03  0.10818392346E+04  0.86305090451E+02 0.  0.
         13    1    3    3    0    0  0.45667016367E+03  0.74858824998E+03 -0.16476696473E+03  0.89223324252E+03  0.00000000000E+00 0.  1.
        -13    1    3    3    0    0  0.12712668283E+03  0.13412144366E+03 -0.42434385681E+02  0.18960599206E+03  0.00000000000E+00 0. -1.
         22    1    1    2    0    0 -0.58379684650E+03 -0.88270969364E+03  0.34254681222E+04  0.35852234264E+04  0.00000000000E+00 0. -1.
<mgrwt>
<rscale>  0 0.33799753E+04</rscale>
<asrwt>0</asrwt>
<pdfrwt beam="1">  1        1 0.60656379E+00 0.33799753E+04</pdfrwt>
<pdfrwt beam="2">  1       -1 0.11144584E+00 0.33799753E+04</pdfrwt>
<totfact> 0.65522888E-02</totfact>
</mgrwt>
</event>
<event>
 6    1  0.9512547E-007  0.2017535E+04  0.7818608E-02  0.8598466E-01
          2   -1    0    0  501    0  0.00000000000E+00  0.00000000000E+00  0.18519445357E+04  0.18519445357E+04  0.00000000000E+00 0. -1.
         -2   -1    0    0    0  501 -0.00000000000E+00 -0.00000000000E+00 -0.54948266407E+03  0.54948266407E+03  0.00000000000E+00 0.  1.
         23    2    1    2    0    0  0.26808990230E+03  0.40815255434E+03 -0.39567837410E+03  0.63446907986E+03  0.86769431503E+02 0.  0.
         11    1    3    3    0    0  0.39963863069E+02  0.75146866164E+02 -0.11393341048E+03  0.14221456982E+03  0.00000000000E+00 0.  1.
        -11    1    3    3    0    0  0.22812603923E+03  0.33300568818E+03 -0.28174496362E+03  0.49225451004E+03  0.00000000000E+00 0. -1.
         22    1    1    2    0    0 -0.26808990230E+03 -0.40815255434E+03  0.16981402458E+04  0.17669581199E+04  0.00000000000E+00 0. -1.
<mgrwt>
<rscale>  0 0.20175346E+04</rscale>
<asrwt>0</asrwt>
<pdfrwt beam="1">  1        2 0.28491454E+00 0.20175346E+04</pdfrwt>
<pdfrwt beam="2">  1       -2 0.84535795E-01 0.20175346E+04</pdfrwt>
<totfact> 0.91387371E+00</totfact>
</mgrwt>
</event>
<event>
 6    1  0.9512547E-007  0.4598912E+04  0.7818608E-02  0.7893545E-01
          2   -1    0    0  501    0  0.00000000000E+00  0.00000000000E+00  0.31497385993E+04  0.31497385993E+04  0.00000000000E+00 0. -1.
         -2   -1    0    0    0  501 -0.00000000000E+00 -0.00000000000E+00 -0.16787104148E+04  0.16787104148E+04  0.00000000000E+00 0.  1.
         23    2    1    2    0    0 -0.88718869362E+03  0.15175551749E+04 -0.81907157323E+03  0.19414723279E+04  0.91427954627E+02 0.  0.
         13    1    3    3    0    0 -0.61656632608E+03  0.10219966605E+04 -0.59913851537E+03  0.13355141965E+04  0.00000000000E+00 0.  1.
        -13    1    3    3    0    0 -0.27062236754E+03  0.49555851442E+03 -0.21993305786E+03  0.60595813136E+03  0.00000000000E+00 0. -1.
         22    1    1    2    0    0  0.88718869362E+03 -0.15175551749E+04  0.22900997577E+04  0.28869766863E+04  0.00000000000E+00 0. -1.
<mgrwt>
<rscale>  0 0.45989125E+04</rscale>
<asrwt>0</asrwt>
<pdfrwt beam="1">  1        2 0.48457517E+00 0.45989125E+04</pdfrwt>
<pdfrwt beam="2">  1       -2 0.25826314E+00 0.45989125E+04</pdfrwt>
<totfact> 0.60033540E-02</totfact>
</mgrwt>
</event>
<event>
 6    1  0.9512547E-007  0.1130740E+04  0.7818608E-02  0.9175738E-01
          1   -1    0    0  501    0  0.00000000000E+00  0.00000000000E+00  0.52564582034E+03  0.52564582034E+03  0.00000000000E+00 0. -1.
         -1   -1    0    0    0  501 -0.00000000000E+00 -0.00000000000E+00 -0.60809597356E+03  0.60809597356E+03  0.00000000000E+00 0.  1.
         23    2    1    2    0    0 -0.27154658737E+01  0.34709532307E+03 -0.48424554210E+03  0.60277845094E+03  0.91463538201E+02 0.  0.
         11    1    3    3    0    0  0.10053069823E+02  0.22692475714E+03 -0.38222729207E+03  0.44462749849E+03  0.00000000000E+00 0.  1.
        -11    1    3    3    0    0 -0.12768535697E+02  0.12017056592E+03 -0.10201825003E+03  0.15815095244E+03  0.00000000000E+00 0. -1.
         22    1    1    2    0    0  0.27154658737E+01 -0.34709532307E+03  0.40179538888E+03  0.53096334297E+03  0.00000000000E+00 0. -1.
<mgrwt>
<rscale>  0 0.11307398E+04</rscale>
<asrwt>0</asrwt>
<pdfrwt beam="1">  1        1 0.80868587E-01 0.11307398E+04</pdfrwt>
<pdfrwt beam="2">  1       -1 0.93553227E-01 0.11307398E+04</pdfrwt>
<totfact> 0.45592343E+01</totfact>
</mgrwt>
</event>
<event>
 6    1  0.9512547E-007  0.1612276E+04  0.7818608E-02  0.8813042E-01
         -1   -1    0    0    0  501 -0.00000000000E+00  0.00000000000E+00  0.72281451461E+03  0.72281451461E+03  0.00000000000E+00 0.  1.
          1   -1    0    0  501    0  0.00000000000E+00 -0.00000000000E+00 -0.89906655501E+03  0.89906655501E+03  0.00000000000E+00 0. -1.
         23    2    1    2    0    0 -0.76052928191E+02 -0.79803408085E+03 -0.14205527952E+03  0.81950219369E+03  0.93603957977E+02 0.  0.
         11    1    3    3    0    0 -0.21081936217E+02 -0.33762009260E+03 -0.14476678619E+02  0.33858728444E+03  0.00000000000E+00 0. -1.
        -11    1    3    3    0    0 -0.54970991975E+02 -0.46041398825E+03 -0.12757860091E+03  0.48091490925E+03  0.00000000000E+00 0.  1.
         22    1    1    2    0    0  0.76052928191E+02  0.79803408085E+03 -0.34196760882E+02  0.80237887593E+03  0.00000000000E+00 0.  1.
<mgrwt>
<rscale>  0 0.16122759E+04</rscale>
<asrwt>0</asrwt>
<pdfrwt beam="1">  1        1 0.13831793E+00 0.16122759E+04</pdfrwt>
<pdfrwt beam="2">  1       -1 0.11120223E+00 0.16122759E+04</pdfrwt>
<totfact> 0.12999411E+01</totfact>
</mgrwt>
</event>
<event>
 6    1  0.9512547E-007  0.6250464E+03  0.7818608E-02  0.9854763E-01
          1   -1    0    0  501    0  0.00000000000E+00  0.00000000000E+00  0.28025828925E+03  0.28025828925E+03  0.00000000000E+00 0. -1.
         -1   -1    0    0    0  501 -0.00000000000E+00 -0.00000000000E+00 -0.34850260682E+03  0.34850260682E+03  0.00000000000E+00 0.  1.
         23    2    1    2    0    0  0.13033423113E+01 -0.17894308433E+03  0.21492287528E+03  0.29378927752E+03  0.89988727844E+02 0.  0.
         13    1    3    3    0    0  0.20025485351E+01 -0.91414854286E+01  0.69787422073E+02  0.70412081606E+02  0.00000000000E+00 0. -1.
        -13    1    3    3    0    0 -0.69920622387E+00 -0.16980159890E+03  0.14513545321E+03  0.22337719592E+03  0.00000000000E+00 0.  1.
         22    1    1    2    0    0 -0.13033423113E+01  0.17894308433E+03 -0.28316719285E+03  0.33497161855E+03  0.00000000000E+00 0.  1.
<mgrwt>
<rscale>  0 0.62504638E+03</rscale>
<asrwt>0</asrwt>
<pdfrwt beam="1">  1        1 0.43116660E-01 0.62504638E+03</pdfrwt>
<pdfrwt beam="2">  1       -1 0.53615786E-01 0.62504638E+03</pdfrwt>
<totfact> 0.34100272E+02</totfact>
</mgrwt>
</event>
<event>
 6    1  0.9512547E-007  0.1335255E+04  0.7818608E-02  0.9002065E-01
          3   -1    0    0  501    0  0.00000000000E+00  0.00000000000E+00  0.12649088600E+04  0.12649088600E+04  0.00000000000E+00 0. -1.
         -3   -1    0    0    0  501 -0.00000000000E+00 -0.00000000000E+00 -0.35237846011E+03  0.35237846011E+03  0.00000000000E+00 0.  1.
         23    2    1    2    0    0 -0.17350503737E+03 -0.34102665381E+03  0.11165685747E+04  0.11836575779E+04  0.88975857437E+02 0.  0.
         11    1    3    3    0    0 -0.22280711426E+02 -0.11684277631E+03  0.27252759040E+03  0.29735492599E+03  0.00000000000E+00 0. -1.
        -11    1    3    3    0    0 -0.15122432594E+03 -0.22418387750E+03  0.84404098426E+03  0.88630265192E+03  0.00000000000E+00 0.  1.
         22    1    1    2    0    0  0.17350503737E+03  0.34102665381E+03 -0.20403817473E+03  0.43362974224E+03  0.00000000000E+00 0.  1.
<mgrwt>
<rscale>  0 0.13352552E+04</rscale>
<asrwt>0</asrwt>
<pdfrwt beam="1">  1        3 0.19460136E+00 0.13352552E+04</pdfrwt>
<pdfrwt beam="2">  1       -3 0.54212071E-01 0.13352552E+04</pdfrwt>
<totfact> 0.13727093E+00</totfact>
</mgrwt>
</event>
<event>
 6    1  0.9512547E-007  0.2379870E+04  0.7818608E-02  0.8447079E-01
         -2   -1    0    0    0  501 -0.00000000000E+00  0.00000000000E+00  0.22351949410E+04  0.22351949410E+04  0.00000000000E+00 0.  1.
          2   -1    0    0  501    0  0.00000000000E+00 -0.00000000000E+00 -0.63347710722E+03  0.63347710722E+03  0.00000000000E+00 0. -1.
         23    2    1    2    0    0 -0.99854322308E+03 -0.53694518195E+03  0.12305644066E+04  0.16757120475E+04  0.91232727374E+02 0.  0.
         11    1    3    3    0    0 -0.62051667473E+03 -0.33612723892E+03  0.83008719984E+03  0.10895261464E+04  0.00000000000E+00 0. -1.
        -11    1    3    3    0    0 -0.37802654835E+03 -0.20081794303E+03  0.40047720677E+03  0.58618590109E+03  0.00000000000E+00 0.  1.
         22    1    1    2    0    0  0.99854322308E+03  0.53694518195E+03  0.37115342714E+03  0.11929600007E+04  0.00000000000E+00 0. -1.
<mgrwt>
<rscale>  0 0.23798696E+04</rscale>
<asrwt>0</asrwt>
<pdfrwt beam="1">  1        2 0.97458018E-01 0.23798696E+04</pdfrwt>
<pdfrwt beam="2">  1       -2 0.34387614E+00 0.23798696E+04</pdfrwt>
<totfact> 0.71134442E-01</totfact>
</mgrwt>
</event>
<event>
 6    1  0.9512547E-007  0.1265267E+04  0.7818608E-02  0.9057571E-01
          1   -1    0    0  501    0  0.00000000000E+00  0.00000000000E+00  0.82266424251E+03  0.82266424251E+03  0.00000000000E+00 0. -1.
         -1   -1    0    0    0  501 -0.00000000000E+00 -0.00000000000E+00 -0.48649898308E+03  0.48649898308E+03  0.00000000000E+00 0.  1.
         23    2    1    2    0    0  0.86434225310E+02  0.62235999684E+02  0.81078842101E+03  0.82273610827E+03  0.90402683877E+02 0.  0.
         13    1    3    3    0    0  0.87279379383E+02  0.31742165763E+02  0.73789988009E+03  0.74372137807E+03  0.00000000000E+00 0.  1.
        -13    1    3    3    0    0 -0.84515407318E+00  0.30493833921E+02  0.72888540915E+02  0.79014730205E+02  0.00000000000E+00 0. -1.
         22    1    1    2    0    0 -0.86434225310E+02 -0.62235999684E+02 -0.47462316157E+03  0.48642711732E+03  0.00000000000E+00 0.  1.
<mgrwt>
<rscale>  0 0.12652673E+04</rscale>
<asrwt>0</asrwt>
<pdfrwt beam="1">  1        1 0.12656373E+00 0.12652673E+04</pdfrwt>
<pdfrwt beam="2">  1       -1 0.74845997E-01 0.12652673E+04</pdfrwt>
<totfact> 0.37390512E+01</totfact>
</mgrwt>
</event>
<event>
 6    1  0.9512547E-007  0.2786268E+04  0.7818608E-02  0.8307544E-01
         -2   -1    0    0    0  501 -0.00000000000E+00  0.00000000000E+00  0.11314269691E+04  0.11314269691E+04  0.00000000000E+00 0.  1.
          2   -1    0    0  501    0  0.00000000000E+00 -0.00000000000E+00 -0.17153760453E+04  0.17153760453E+04  0.00000000000E+00 0. -1.
         23    2    1    2    0    0 -0.12711529828E+04  0.44061351953E+03 -0.65631991740E+03  0.14995065667E+04  0.88283239465E+02 0.  0.
         11    1    3    3    0    0 -0.57325689669E+03  0.18075812197E+03 -0.24824204936E+03  0.65032382959E+03  0.00000000000E+00 0. -1.
        -11    1    3    3    0    0 -0.69789608612E+03  0.25985539756E+03 -0.40807786804E+03  0.84918273714E+03  0.00000000000E+00 0.  1.
         22    1    1    2    0    0  0.12711529828E+04 -0.44061351953E+03  0.72370841109E+02  0.13472964477E+04  0.00000000000E+00 0.  1.
<mgrwt>
<rscale>  0 0.27862683E+04</rscale>
<asrwt>0</asrwt>
<pdfrwt beam="1">  1        2 0.26390401E+00 0.27862683E+04</pdfrwt>
<pdfrwt beam="2">  1       -2 0.17406569E+00 0.27862683E+04</pdfrwt>
<totfact> 0.16711538E+00</totfact>
</mgrwt>
</event>
<event>
 6    1  0.9512547E-007  0.9444688E+03  0.7818608E-02  0.9371639E-01
         -1   -1    0    0    0  501 -0.00000000000E+00  0.00000000000E+00  0.93303065990E+03  0.93303065990E+03  0.00000000000E+00 0.  1.
          1   -1    0    0  501    0  0.00000000000E+00 -0.00000000000E+00 -0.23901177708E+03  0.23901177708E+03  0.00000000000E+00 0. -1.
         23    2    1    2    0    0  0.15488930756E+02  0.15979406543E+03  0.89606129180E+03  0.91398200733E+03  0.81628553425E+02 0.  0.
         13    1    3    3    0    0 -0.23214456013E+02  0.11535437220E+03  0.67612151195E+03  0.68628408190E+03  0.00000000000E+00 0. -1.
        -13    1    3    3    0    0  0.38703386769E+02  0.44439693231E+02  0.21993977985E+03  0.22769792542E+03  0.00000000000E+00 0.  1.
         22    1    1    2    0    0 -0.15488930756E+02 -0.15979406543E+03 -0.20204240898E+03  0.25806042965E+03  0.00000000000E+00 0. -1.
<mgrwt>
<rscale>  0 0.94446877E+03</rscale>
<asrwt>0</asrwt>
<pdfrwt beam="1">  1        1 0.36771043E-01 0.94446877E+03</pdfrwt>
<pdfrwt beam="2">  1       -1 0.14354318E+00 0.94446877E+03</pdfrwt>
<totfact> 0.46565058E+01</totfact>
</mgrwt>
</event>
<event>
 6    1  0.9512547E-007  0.1422099E+04  0.7818608E-02  0.8937976E-01
          1   -1    0    0  501    0  0.00000000000E+00  0.00000000000E+00  0.68500639825E+03  0.68500639825E+03  0.00000000000E+00 0. -1.
         -1   -1    0    0    0  501 -0.00000000000E+00 -0.00000000000E+00 -0.73808266440E+03  0.73808266440E+03  0.00000000000E+00 0.  1.
         23    2    1    2    0    0 -0.79262644293E+01 -0.50983229831E+03 -0.51874440174E+03  0.73255404502E+03  0.86878515537E+02 0.  0.
         11    1    3    3    0    0  0.32893933749E+02 -0.10925454675E+03 -0.10156916186E+03  0.15275752520E+03  0.00000000000E+00 0. -1.
        -11    1    3    3    0    0 -0.40820198178E+02 -0.40057775156E+03 -0.41717523988E+03  0.57979651982E+03  0.00000000000E+00 0.  1.
         22    1    1    2    0    0  0.79262644293E+01  0.50983229831E+03  0.46566813560E+03  0.69053501764E+03  0.00000000000E+00 0. -1.
<mgrwt>
<rscale>  0 0.14220989E+04</rscale>
<asrwt>0</asrwt>
<pdfrwt beam="1">  1        1 0.10538560E+00 0.14220989E+04</pdfrwt>
<pdfrwt beam="2">  1       -1 0.11355118E+00 0.14220989E+04</pdfrwt>
<totfact> 0.19398839E+01</totfact>
</mgrwt>
</event>
<event>
 6    1  0.1232017E-006  0.2070877E+04  0.7818608E-02  0.8574182E-01
          1   -1    0    0  501    0  0.00000000000E+00  0.00000000000E+00  0.15006596985E+04  0.15006596985E+04  0.00000000000E+00 0. -1.
         -1   -1    0    0    0  501 -0.00000000000E+00 -0.00000000000E+00 -0.71444138997E+03  0.71444138997E+03  0.00000000000E+00 0.  1.
         23    2    1    2    0    0  0.21149070093E+03  0.16062418137E+03 -0.67362985282E+03  0.73129345322E+03  0.10239380784E+03 0.  0.
         11    1    3    3    0    0  0.75776000725E+02  0.51482579347E+02 -0.37087163217E+03  0.38201861971E+03  0.00000000000E+00 0. -1.
        -11    1    3    3    0    0  0.13571470020E+03  0.10914160203E+03 -0.30275822065E+03  0.34927483350E+03  0.00000000000E+00 0.  1.
         22    1    1    2    0    0 -0.21149070093E+03 -0.16062418137E+03  0.14598481614E+04  0.14838076353E+04  0.00000000000E+00 0. -1.
<mgrwt>
<rscale>  0 0.20708775E+04</rscale>
<asrwt>0</asrwt>
<pdfrwt beam="1">  1        1 0.23087072E+00 0.20708775E+04</pdfrwt>
<pdfrwt beam="2">  1       -1 0.10991406E+00 0.20708775E+04</pdfrwt>
<totfact> 0.46066060E+00</totfact>
</mgrwt>
</event>
<event>
 6    1  0.9512547E-007  0.1457346E+04  0.7818608E-02  0.8913323E-01
          2   -1    0    0  501    0  0.00000000000E+00  0.00000000000E+00  0.14768972710E+04  0.14768972710E+04  0.00000000000E+00 0. -1.
         -2   -1    0    0    0  501 -0.00000000000E+00 -0.00000000000E+00 -0.35951341271E+03  0.35951341271E+03  0.00000000000E+00 0.  1.
         23    2    1    2    0    0  0.22343798024E+03  0.84028734779E+02 -0.30305899326E+03  0.39604848835E+03  0.89578415089E+02 0.  0.
         13    1    3    3    0    0  0.16319529755E+03  0.93144475860E+02 -0.26262169647E+03  0.32292221042E+03  0.00000000000E+00 0. -1.
        -13    1    3    3    0    0  0.60242682685E+02 -0.91157410806E+01 -0.40437296791E+02  0.73126277933E+02  0.00000000000E+00 0.  1.
         22    1    1    2    0    0 -0.22343798024E+03 -0.84028734779E+02  0.14204428515E+04  0.14403621953E+04  0.00000000000E+00 0. -1.
<mgrwt>
<rscale>  0 0.14573461E+04</rscale>
<asrwt>0</asrwt>
<pdfrwt beam="1">  1        2 0.22721496E+00 0.14573461E+04</pdfrwt>
<pdfrwt beam="2">  1       -2 0.55309757E-01 0.14573461E+04</pdfrwt>
<totfact> 0.38955766E+01</totfact>
</mgrwt>
</event>
<event>
 6    1  0.9512547E-007  0.3906643E+04  0.7818608E-02  0.8023649E-01
          2   -1    0    0  501    0  0.00000000000E+00  0.00000000000E+00  0.31658358687E+04  0.31658358687E+04  0.00000000000E+00 0. -1.
         -2   -1    0    0    0  501 -0.00000000000E+00 -0.00000000000E+00 -0.12051996286E+04  0.12051996286E+04  0.00000000000E+00 0.  1.
         23    2    1    2    0    0 -0.26736927880E+03 -0.19319379634E+04  0.88507987957E+03  0.21437743743E+04  0.92366384938E+02 0.  0.
         11    1    3    3    0    0 -0.11672203650E+03 -0.92836199442E+03  0.47364420251E+03  0.10487224881E+04  0.00000000000E+00 0.  1.
        -11    1    3    3    0    0 -0.15064724231E+03 -0.10035759690E+04  0.41143567706E+03  0.10950518862E+04  0.00000000000E+00 0. -1.
         22    1    1    2    0    0  0.26736927880E+03  0.19319379634E+04  0.10755563605E+04  0.22272611230E+04  0.00000000000E+00 0. -1.
<mgrwt>
<rscale>  0 0.39066427E+04</rscale>
<asrwt>0</asrwt>
<pdfrwt beam="1">  1        2 0.48705167E+00 0.39066427E+04</pdfrwt>
<pdfrwt beam="2">  1       -2 0.18541533E+00 0.39066427E+04</pdfrwt>
<totfact> 0.18041906E-01</totfact>
</mgrwt>
</event>
<event>
 6    1  0.9512547E-007  0.2406070E+04  0.7818608E-02  0.8437235E-01
          2   -1    0    0  501    0  0.00000000000E+00  0.00000000000E+00  0.19339212658E+04  0.19339212658E+04  0.00000000000E+00 0. -1.
         -2   -1    0    0    0  501 -0.00000000000E+00 -0.00000000000E+00 -0.74837232255E+03  0.74837232255E+03  0.00000000000E+00 0.  1.
         23    2    1    2    0    0  0.11590113542E+04  0.13367263532E+03  0.91192356732E+03  0.14839419960E+04  0.96454974397E+02 0.  0.
         13    1    3    3    0    0  0.71165804351E+03  0.12363907870E+03  0.53480517250E+03  0.89875489718E+03  0.00000000000E+00 0. -1.
        -13    1    3    3    0    0  0.44735331072E+03  0.10033556617E+02  0.37711839482E+03  0.58518709878E+03  0.00000000000E+00 0.  1.
         22    1    1    2    0    0 -0.11590113542E+04 -0.13367263532E+03  0.27362537596E+03  0.11983515924E+04  0.00000000000E+00 0. -1.
<mgrwt>
<rscale>  0 0.24060699E+04</rscale>
<asrwt>0</asrwt>
<pdfrwt beam="1">  1        2 0.29752635E+00 0.24060699E+04</pdfrwt>
<pdfrwt beam="2">  1       -2 0.11513420E+00 0.24060699E+04</pdfrwt>
<totfact> 0.38425109E+00</totfact>
</mgrwt>
</event>
<event>
 6    1  0.9512547E-007  0.3582331E+04  0.7818608E-02  0.8094551E-01
          2   -1    0    0  501    0  0.00000000000E+00  0.00000000000E+00  0.15566915544E+04  0.15566915544E+04  0.00000000000E+00 0. -1.
         -2   -1    0    0    0  501 -0.00000000000E+00 -0.00000000000E+00 -0.20609569189E+04  0.20609569189E+04  0.00000000000E+00 0.  1.
         23    2    1    2    0    0 -0.10334162610E+04 -0.44231438314E+03 -0.16591718427E+04  0.20060033029E+04  0.87217348637E+02 0.  0.
         11    1    3    3    0    0 -0.78485363752E+03 -0.32336549737E+03 -0.11867066505E+04  0.14590521415E+04  0.00000000000E+00 0.  1.
        -11    1    3    3    0    0 -0.24856262343E+03 -0.11894888577E+03 -0.47246519216E+03  0.54695116144E+03  0.00000000000E+00 0. -1.
         22    1    1    2    0    0  0.10334162610E+04  0.44231438314E+03  0.11549064781E+04  0.16116451703E+04  0.00000000000E+00 0. -1.
<mgrwt>
<rscale>  0 0.35823312E+04</rscale>
<asrwt>0</asrwt>
<pdfrwt beam="1">  1        2 0.23949101E+00 0.35823312E+04</pdfrwt>
<pdfrwt beam="2">  1       -2 0.31707029E+00 0.35823312E+04</pdfrwt>
<totfact> 0.24024582E-01</totfact>
</mgrwt>
</event>
<event>
 6    1  0.9512547E-007  0.1675517E+04  0.7818608E-02  0.8775452E-01
         -2   -1    0    0    0  501 -0.00000000000E+00  0.00000000000E+00  0.23839383531E+03  0.23839383531E+03  0.00000000000E+00 0.  1.
          2   -1    0    0  501    0  0.00000000000E+00 -0.00000000000E+00 -0.29440337613E+04  0.29440337613E+04  0.00000000000E+00 0. -1.
         23    2    1    2    0    0  0.74438163276E+02 -0.82895479877E+03 -0.14928050682E+04  0.17114838551E+04  0.89459018109E+02 0.  0.
         11    1    3    3    0    0  0.62851208281E+02 -0.67915249698E+03 -0.11473664040E+04  0.13347838977E+04  0.00000000000E+00 0. -1.
        -11    1    3    3    0    0  0.11586954995E+02 -0.14980230178E+03 -0.34543866418E+03  0.37669995733E+03  0.00000000000E+00 0.  1.
         22    1    1    2    0    0 -0.74438163276E+02  0.82895479877E+03 -0.12128348578E+04  0.14709437415E+04  0.00000000000E+00 0.  1.
<mgrwt>
<rscale>  0 0.16755172E+04</rscale>
<asrwt>0</asrwt>
<pdfrwt beam="1">  1        2 0.45292829E+00 0.16755172E+04</pdfrwt>
<pdfrwt beam="2">  1       -2 0.36675973E-01 0.16755172E+04</pdfrwt>
<totfact> 0.12654516E+01</totfact>
</mgrwt>
</event>
<event>
 6    1  0.9512547E-007  0.1675835E+04  0.7818608E-02  0.8775268E-01
          1   -1    0    0  501    0  0.00000000000E+00  0.00000000000E+00  0.11052935714E+04  0.11052935714E+04  0.00000000000E+00 0. -1.
         -1   -1    0    0    0  501 -0.00000000000E+00 -0.00000000000E+00 -0.63522069748E+03  0.63522069748E+03  0.00000000000E+00 0.  1.
         23    2    1    2    0    0 -0.74530002474E+03 -0.26682998604E+03 -0.41149600346E+02  0.79816678171E+03  0.93308914290E+02 0.  0.
         11    1    3    3    0    0 -0.20798345341E+03 -0.47532758465E+02 -0.43897546550E+02  0.21781523044E+03  0.00000000000E+00 0.  1.
        -11    1    3    3    0    0 -0.53731657134E+03 -0.21929722758E+03  0.27479462032E+01  0.58035155127E+03  0.00000000000E+00 0. -1.
         22    1    1    2    0    0  0.74530002474E+03  0.26682998604E+03  0.51122247424E+03  0.94234748713E+03  0.00000000000E+00 0. -1.
<mgrwt>
<rscale>  0 0.16758345E+04</rscale>
<asrwt>0</asrwt>
<pdfrwt beam="1">  1        1 0.17004516E+00 0.16758345E+04</pdfrwt>
<pdfrwt beam="2">  1       -1 0.97726262E-01 0.16758345E+04</pdfrwt>
<totfact> 0.12034229E+01</totfact>
</mgrwt>
</event>
<event>
 6    1  0.2955294E-006  0.3794588E+04  0.7818608E-02  0.8047317E-01
         -2   -1    0    0    0  501 -0.00000000000E+00  0.00000000000E+00  0.14286668905E+04  0.14286668905E+04  0.00000000000E+00 0.  1.
          2   -1    0    0  501    0  0.00000000000E+00 -0.00000000000E+00 -0.25196392619E+04  0.25196392619E+04  0.00000000000E+00 0. -1.
         23    2    1    2    0    0  0.45993131648E+01  0.18669540446E+04 -0.20076208680E+03  0.18799703699E+04  0.91894601703E+02 0.  0.
         11    1    3    3    0    0  0.39892975762E+02  0.43395182407E+03 -0.45791392786E+02  0.43818088363E+03  0.00000000000E+00 0. -1.
        -11    1    3    3    0    0 -0.35293662597E+02  0.14330022205E+04 -0.15497069401E+03  0.14417894862E+04  0.00000000000E+00 0.  1.
         22    1    1    2    0    0 -0.45993131648E+01 -0.18669540446E+04 -0.89021028463E+03  0.20683357825E+04  0.00000000000E+00 0.  1.
<mgrwt>
<rscale>  0 0.37945884E+04</rscale>
<asrwt>0</asrwt>
<pdfrwt beam="1">  1        2 0.38763681E+00 0.37945884E+04</pdfrwt>
<pdfrwt beam="2">  1       -2 0.21979491E+00 0.37945884E+04</pdfrwt>
<totfact> 0.26962966E-01</totfact>
</mgrwt>
</event>
<event>
 6    1  0.9512547E-007  0.2543061E+04  0.7818608E-02  0.8387803E-01
         -2   -1    0    0    0  501 -0.00000000000E+00  0.00000000000E+00  0.76869900518E+03  0.76869900518E+03  0.00000000000E+00 0.  1.
          2   -1    0    0  501    0  0.00000000000E+00 -0.00000000000E+00 -0.21032807582E+04  0.21032807582E+04  0.00000000000E+00 0. -1.
         23    2    1    2    0    0 -0.42735045394E+03  0.12282808535E+03 -0.20115216120E+04  0.20620645075E+04  0.90419513357E+02 0.  0.
         13    1    3    3    0    0 -0.93166535640E+02  0.67297547244E+02 -0.52370777954E+03  0.53617049674E+03  0.00000000000E+00 0. -1.
        -13    1    3    3    0    0 -0.33418391830E+03  0.55530538102E+02 -0.14878138325E+04  0.15258940108E+04  0.00000000000E+00 0.  1.
         22    1    1    2    0    0  0.42735045394E+03 -0.12282808535E+03  0.67693985899E+03  0.80991525589E+03  0.00000000000E+00 0.  1.
<mgrwt>
<rscale>  0 0.25430610E+04</rscale>
<asrwt>0</asrwt>
<pdfrwt beam="1">  1        2 0.32358165E+00 0.25430610E+04</pdfrwt>
<pdfrwt beam="2">  1       -2 0.11826139E+00 0.25430610E+04</pdfrwt>
<totfact> 0.28629380E+00</totfact>
</mgrwt>
</event>
<event>
 6    1  0.9512547E-007  0.4821328E+04  0.7818608E-02  0.7856676E-01
         -2   -1    0    0    0  501 -0.00000000000E+00  0.00000000000E+00  0.20294238179E+04  0.20294238179E+04  0.00000000000E+00 0.  1.
          2   -1    0    0  501    0  0.00000000000E+00 -0.00000000000E+00 -0.28635222753E+04  0.28635222753E+04  0.00000000000E+00 0. -1.
         23    2    1    2    0    0 -0.51229257563E+03 -0.22953021789E+04 -0.95038864235E+03  0.25382955496E+04  0.94074172800E+02 0.  0.
         11    1    3    3    0    0 -0.25609382711E+03 -0.11419026069E+04 -0.42221617755E+03  0.12441029348E+04  0.00000000000E+00 0. -1.
        -11    1    3    3    0    0 -0.25619874852E+03 -0.11533995721E+04 -0.52817246480E+03  0.12941926148E+04  0.00000000000E+00 0.  1.
         22    1    1    2    0    0  0.51229257563E+03  0.22953021789E+04  0.11629018500E+03  0.23546505436E+04  0.00000000000E+00 0.  1.
<mgrwt>
<rscale>  0 0.48213277E+04</rscale>
<asrwt>0</asrwt>
<pdfrwt beam="1">  1        2 0.44054189E+00 0.48213277E+04</pdfrwt>
<pdfrwt beam="2">  1       -2 0.31221905E+00 0.48213277E+04</pdfrwt>
<totfact> 0.41759258E-02</totfact>
</mgrwt>
</event>
<event>
 6    1  0.9859502E-007  0.3305302E+04  0.7818608E-02  0.8161548E-01
         -1   -1    0    0    0  501 -0.00000000000E+00  0.00000000000E+00  0.15122432719E+04  0.15122432719E+04  0.00000000000E+00 0.  1.
          1   -1    0    0  501    0  0.00000000000E+00 -0.00000000000E+00 -0.18060948035E+04  0.18060948035E+04  0.00000000000E+00 0. -1.
         23    2    1    2    0    0  0.90902326198E+03  0.42689600288E+03  0.11692282416E+04  0.15437491339E+04  0.86621125722E+02 0.  0.
         13    1    3    3    0    0  0.43881198466E+03  0.19262607498E+03  0.49437933271E+03  0.68852863939E+03  0.00000000000E+00 0.  1.
        -13    1    3    3    0    0  0.47021127733E+03  0.23426992790E+03  0.67484890892E+03  0.85522049455E+03  0.00000000000E+00 0. -1.
         22    1    1    2    0    0 -0.90902326198E+03 -0.42689600288E+03 -0.14630797733E+04  0.17745889415E+04  0.00000000000E+00 0. -1.
<mgrwt>
<rscale>  0 0.33053016E+04</rscale>
<asrwt>0</asrwt>
<pdfrwt beam="1">  1        1 0.27786074E+00 0.33053016E+04</pdfrwt>
<pdfrwt beam="2">  1       -1 0.23265281E+00 0.33053016E+04</pdfrwt>
<totfact> 0.30335038E-01</totfact>
</mgrwt>
</event>
<event>
 6    1  0.9512547E-007  0.1943554E+04  0.7818608E-02  0.8633476E-01
          2   -1    0    0  501    0  0.00000000000E+00  0.00000000000E+00  0.12773784714E+04  0.12773784714E+04  0.00000000000E+00 0. -1.
         -2   -1    0    0    0  501 -0.00000000000E+00 -0.00000000000E+00 -0.73928766935E+03  0.73928766935E+03  0.00000000000E+00 0.  1.
         23    2    1    2    0    0  0.60534152738E+03  0.58156319636E+02  0.10532324139E+04  0.12196771807E+04  0.92159563900E+02 0.  0.
         13    1    3    3    0    0  0.25377361687E+03 -0.13893658523E+02  0.48620055040E+03  0.54862105098E+03  0.00000000000E+00 0. -1.
        -13    1    3    3    0    0  0.35156791050E+03  0.72049978159E+02  0.56703186347E+03  0.67105612973E+03  0.00000000000E+00 0.  1.
         22    1    1    2    0    0 -0.60534152738E+03 -0.58156319636E+02 -0.51514161179E+03  0.79698896007E+03  0.00000000000E+00 0.  1.
<mgrwt>
<rscale>  0 0.19435536E+04</rscale>
<asrwt>0</asrwt>
<pdfrwt beam="1">  1        2 0.19651976E+00 0.19435536E+04</pdfrwt>
<pdfrwt beam="2">  1       -2 0.11373656E+00 0.19435536E+04</pdfrwt>
<totfact> 0.96373183E+00</totfact>
</mgrwt>
</event>
<event>
 6    1  0.9512547E-007  0.3224068E+04  0.7818608E-02  0.8182490E-01
          1   -1    0    0  501    0  0.00000000000E+00  0.00000000000E+00  0.33083696373E+04  0.33083696373E+04  0.00000000000E+00 0. -1.
         -1   -1    0    0    0  501 -0.00000000000E+00 -0.00000000000E+00 -0.78547854646E+03  0.78547854646E+03  0.00000000000E+00 0.  1.
         23    2    1    2    0    0 -0.13199567954E+04  0.70161749346E+03  0.49988314764E+03  0.15784726279E+04  0.84496312760E+02 0.  0.
         13    1    3    3    0    0 -0.61772639645E+03  0.32551906511E+03  0.27791457477E+03  0.75152183833E+03  0.00000000000E+00 0.  1.
        -13    1    3    3    0    0 -0.70223039895E+03  0.37609842836E+03  0.22196857287E+03  0.82695078956E+03  0.00000000000E+00 0. -1.
         22    1    1    2    0    0  0.13199567954E+04 -0.70161749346E+03  0.20230079432E+04  0.25153755559E+04  0.00000000000E+00 0. -1.
<mgrwt>
<rscale>  0 0.32240678E+04</rscale>
<asrwt>0</asrwt>
<pdfrwt beam="1">  1        1 0.50897994E+00 0.32240678E+04</pdfrwt>
<pdfrwt beam="2">  1       -1 0.12084286E+00 0.32240678E+04</pdfrwt>
<totfact> 0.17859676E-01</totfact>
</mgrwt>
</event>
<event>
 6    1  0.9512547E-007  0.2048134E+04  0.7818608E-02  0.8584441E-01
          2   -1    0    0  501    0  0.00000000000E+00  0.00000000000E+00  0.12628219106E+04  0.12628219106E+04  0.00000000000E+00 0. -1.
         -2   -1    0    0    0  501 -0.00000000000E+00 -0.00000000000E+00 -0.83045221589E+03  0.83045221589E+03  0.00000000000E+00 0.  1.
         23    2    1    2    0    0 -0.88052658293E+03 -0.23733794426E+03  0.68824109882E+03  0.11461064864E+04  0.90707800197E+02 0.  0.
         13    1    3    3    0    0 -0.42812927901E+03 -0.70323643975E+02  0.34163640183E+03  0.55222778408E+03  0.00000000000E+00 0.  1.
        -13    1    3    3    0    0 -0.45239730392E+03 -0.16701430028E+03  0.34660469699E+03  0.59387870232E+03  0.00000000000E+00 0. -1.
         22    1    1    2    0    0  0.88052658293E+03  0.23733794426E+03 -0.25587140410E+03  0.94716764011E+03  0.00000000000E+00 0.  1.
<mgrwt>
<rscale>  0 0.20481340E+04</rscale>
<asrwt>0</asrwt>
<pdfrwt beam="1">  1        2 0.19428029E+00 0.20481340E+04</pdfrwt>
<pdfrwt beam="2">  1       -2 0.12776188E+00 0.20481340E+04</pdfrwt>
<totfact> 0.73013125E+00</totfact>
</mgrwt>
</event>
<event>
 6    1  0.9512547E-007  0.1618217E+04  0.7818608E-02  0.8809434E-01
          2   -1    0    0  501    0  0.00000000000E+00  0.00000000000E+00  0.15667769575E+04  0.15667769575E+04  0.00000000000E+00 0. -1.
         -2   -1    0    0    0  501 -0.00000000000E+00 -0.00000000000E+00 -0.41783622956E+03  0.41783622956E+03  0.00000000000E+00 0.  1.
         23    2    1    2    0    0 -0.54698184321E+03  0.59151125077E+03  0.62298251920E+03  0.10224766406E+04  0.90975627790E+02 0.  0.
         11    1    3    3    0    0 -0.40371297908E+03  0.38397290923E+03  0.40030428306E+03  0.68604874720E+03  0.00000000000E+00 0. -1.
        -11    1    3    3    0    0 -0.14326886413E+03  0.20753834154E+03  0.22267823614E+03  0.33642789344E+03  0.00000000000E+00 0.  1.
         22    1    1    2    0    0  0.54698184321E+03 -0.59151125077E+03  0.52595820872E+03  0.96213654639E+03  0.00000000000E+00 0. -1.
<mgrwt>
<rscale>  0 0.16182165E+04</rscale>
<asrwt>0</asrwt>
<pdfrwt beam="1">  1        2 0.24104261E+00 0.16182165E+04</pdfrwt>
<pdfrwt beam="2">  1       -2 0.64282498E-01 0.16182165E+04</pdfrwt>
<totfact> 0.24920671E+01</totfact>
</mgrwt>
</event>
<event>
 6    1  0.9512547E-007  0.2586529E+04  0.7818608E-02  0.8372792E-01
         -2   -1    0    0    0  501 -0.00000000000E+00  0.00000000000E+00  0.81213772639E+03  0.81213772639E+03  0.00000000000E+00 0.  1.
          2   -1    0    0  501    0  0.00000000000E+00 -0.00000000000E+00 -0.20594196878E+04  0.20594196878E+04  0.00000000000E+00 0. -1.
         23    2    1    2    0    0 -0.77599026486E+03  0.69587669477E+03 -0.14717076046E+04  0.18053622469E+04  0.83691718880E+02 0.  0.
         13    1    3    3    0    0 -0.53135815764E+03  0.52520933755E+03 -0.10333991162E+04  0.12751862896E+04  0.00000000000E+00 0.  1.
        -13    1    3    3    0    0 -0.24463210722E+03  0.17066735721E+03 -0.43830848836E+03  0.53017595728E+03  0.00000000000E+00 0. -1.
         22    1    1    2    0    0  0.77599026486E+03 -0.69587669477E+03  0.22442564312E+03  0.10661951673E+04  0.00000000000E+00 0.  1.
<mgrwt>
<rscale>  0 0.25865285E+04</rscale>
<asrwt>0</asrwt>
<pdfrwt beam="1">  1        2 0.31683380E+00 0.25865285E+04</pdfrwt>
<pdfrwt beam="2">  1       -2 0.12494427E+00 0.25865285E+04</pdfrwt>
<totfact> 0.26315078E+00</totfact>
</mgrwt>
</event>
<event>
 6    1  0.9920692E-007  0.4362240E+04  0.7818608E-02  0.7935209E-01
          1   -1    0    0  501    0  0.00000000000E+00  0.00000000000E+00  0.35022169065E+04  0.35022169065E+04  0.00000000000E+00 0. -1.
         -1   -1    0    0    0  501 -0.00000000000E+00 -0.00000000000E+00 -0.13583635423E+04  0.13583635423E+04  0.00000000000E+00 0.  1.
         23    2    1    2    0    0  0.97863995187E+03  0.10538170414E+04 -0.75330934365E+03  0.16261070345E+04  0.92101076109E+02 0.  0.
         13    1    3    3    0    0  0.41859998937E+03  0.51818794529E+03 -0.34628284968E+03  0.75077061059E+03  0.00000000000E+00 0. -1.
        -13    1    3    3    0    0  0.56003996250E+03  0.53562909610E+03 -0.40702649396E+03  0.87533642388E+03  0.00000000000E+00 0.  1.
         22    1    1    2    0    0 -0.97863995187E+03 -0.10538170414E+04  0.28971627078E+04  0.32344734143E+04  0.00000000000E+00 0. -1.
<mgrwt>
<rscale>  0 0.43622397E+04</rscale>
<asrwt>0</asrwt>
<pdfrwt beam="1">  1        1 0.53880260E+00 0.43622397E+04</pdfrwt>
<pdfrwt beam="2">  1       -1 0.20897901E+00 0.43622397E+04</pdfrwt>
<totfact> 0.24670588E-02</totfact>
</mgrwt>
</event>
<event>
 6    1  0.9512547E-007  0.9922877E+03  0.7818608E-02  0.9317044E-01
         -1   -1    0    0    0  501 -0.00000000000E+00  0.00000000000E+00  0.14338805747E+03  0.14338805747E+03  0.00000000000E+00 0.  1.
          1   -1    0    0  501    0  0.00000000000E+00 -0.00000000000E+00 -0.17167309529E+04  0.17167309529E+04  0.00000000000E+00 0. -1.
         23    2    1    2    0    0 -0.12679787176E+03  0.47037790158E+03 -0.91956591495E+03  0.10447924434E+04  0.93041427854E+02 0.  0.
         13    1    3    3    0    0 -0.82582690396E+02  0.19879363756E+03 -0.32752414557E+03  0.39193223524E+03  0.00000000000E+00 0.  1.
        -13    1    3    3    0    0 -0.44215181361E+02  0.27158426401E+03 -0.59204176938E+03  0.65286020817E+03  0.00000000000E+00 0. -1.
         22    1    1    2    0    0  0.12679787176E+03 -0.47037790158E+03 -0.65377698045E+03  0.81532656693E+03  0.00000000000E+00 0.  1.
<mgrwt>
<rscale>  0 0.99228769E+03</rscale>
<asrwt>0</asrwt>
<pdfrwt beam="1">  1        1 0.26411244E+00 0.99228769E+03</pdfrwt>
<pdfrwt beam="2">  1       -1 0.22059702E-01 0.99228769E+03</pdfrwt>
<totfact> 0.80885001E+01</totfact>
</mgrwt>
</event>
<event>
 6    1  0.9512547E-007  0.5836027E+04  0.7818608E-02  0.7711072E-01
         -1   -1    0    0    0  501 -0.00000000000E+00  0.00000000000E+00  0.49122094059E+04  0.49122094059E+04  0.00000000000E+00 0.  1.
          1   -1    0    0  501    0  0.00000000000E+00 -0.00000000000E+00 -0.17333955834E+04  0.17333955834E+04  0.00000000000E+00 0. -1.
         23    2    1    2    0    0  0.14616778815E+04  0.80140034023E+03  0.43160523951E+04  0.46276713170E+04  0.91042880843E+02 0.  0.
         13    1    3    3    0    0  0.11119690034E+04  0.60230830504E+03  0.31643914898E+04  0.34077300157E+04  0.00000000000E+00 0.  1.
        -13    1    3    3    0    0  0.34970887816E+03  0.19909203519E+03  0.11516609052E+04  0.12199413013E+04  0.00000000000E+00 0. -1.
         22    1    1    2    0    0 -0.14616778815E+04 -0.80140034023E+03 -0.11372385726E+04  0.20179336723E+04  0.00000000000E+00 0. -1.
<mgrwt>
<rscale>  0 0.58360268E+04</rscale>
<asrwt>0</asrwt>
<pdfrwt beam="1">  1        1 0.26667625E+00 0.58360268E+04</pdfrwt>
<pdfrwt beam="2">  1       -1 0.75572452E+00 0.58360268E+04</pdfrwt>
<totfact> 0.37096169E-04</totfact>
</mgrwt>
</event>
<event>
 6    1  0.9512547E-007  0.2154297E+04  0.7818608E-02  0.8537695E-01
          2   -1    0    0  501    0  0.00000000000E+00  0.00000000000E+00  0.16727374379E+04  0.16727374379E+04  0.00000000000E+00 0. -1.
         -2   -1    0    0    0  501 -0.00000000000E+00 -0.00000000000E+00 -0.69362267429E+03  0.69362267429E+03  0.00000000000E+00 0.  1.
         23    2    1    2    0    0 -0.57593719683E+03 -0.88232832807E+03  0.25519160740E+03  0.10879737585E+04  0.91417774552E+02 0.  0.
         11    1    3    3    0    0 -0.53224759669E+03 -0.76164700088E+03  0.21967711373E+03  0.95480453101E+03  0.00000000000E+00 0.  1.
        -11    1    3    3    0    0 -0.43689600140E+02 -0.12068132719E+03  0.35514493667E+02  0.13316922750E+03  0.00000000000E+00 0. -1.
         22    1    1    2    0    0  0.57593719683E+03  0.88232832807E+03  0.72392315623E+03  0.12783863537E+04  0.00000000000E+00 0. -1.
<mgrwt>
<rscale>  0 0.21542967E+04</rscale>
<asrwt>0</asrwt>
<pdfrwt beam="1">  1        2 0.25734422E+00 0.21542967E+04</pdfrwt>
<pdfrwt beam="2">  1       -2 0.10671118E+00 0.21542967E+04</pdfrwt>
<totfact> 0.65885074E+00</totfact>
</mgrwt>
</event>
<event>
 6    1  0.9512547E-007  0.3105878E+04  0.7818608E-02  0.8214127E-01
          2   -1    0    0  501    0  0.00000000000E+00  0.00000000000E+00  0.27782948326E+04  0.27782948326E+04  0.00000000000E+00 0. -1.
         -2   -1    0    0    0  501 -0.00000000000E+00 -0.00000000000E+00 -0.86802138742E+03  0.86802138742E+03  0.00000000000E+00 0.  1.
         23    2    1    2    0    0 -0.85682109762E+03 -0.89533606921E+03 -0.14008219806E+03  0.12505434149E+04  0.92014890633E+02 0.  0.
         11    1    3    3    0    0 -0.35474559546E+03 -0.43005357400E+03 -0.42508770363E+02  0.55910420278E+03  0.00000000000E+00 0.  1.
        -11    1    3    3    0    0 -0.50207550216E+03 -0.46528249520E+03 -0.97573427696E+02  0.69143921208E+03  0.00000000000E+00 0. -1.
         22    1    1    2    0    0  0.85682109762E+03  0.89533606921E+03  0.20503556432E+04  0.23957728051E+04  0.00000000000E+00 0. -1.
<mgrwt>
<rscale>  0 0.31058779E+04</rscale>
<asrwt>0</asrwt>
<pdfrwt beam="1">  1        2 0.42742997E+00 0.31058779E+04</pdfrwt>
<pdfrwt beam="2">  1       -2 0.13354175E+00 0.31058779E+04</pdfrwt>
<totfact> 0.81998887E-01</totfact>
</mgrwt>
</event>
<event>
 6    1  0.9512547E-007  0.1184568E+04  0.7818608E-02  0.9126472E-01
         -2   -1    0    0    0  501 -0.00000000000E+00  0.00000000000E+00  0.18796386665E+03  0.18796386665E+03  0.00000000000E+00 0.  1.
          2   -1    0    0  501    0  0.00000000000E+00 -0.00000000000E+00 -0.18663194733E+04  0.18663194733E+04  0.00000000000E+00 0. -1.
         23    2    1    2    0    0  0.27954189327E+02 -0.57566597305E+03 -0.10525763766E+04  0.12035352021E+04  0.91690811880E+02 0.  0.
         13    1    3    3    0    0  0.47200686029E+02 -0.28856367936E+03 -0.46515176939E+03  0.54942066795E+03  0.00000000000E+00 0.  1.
        -13    1    3    3    0    0 -0.19246496703E+02 -0.28710229369E+03 -0.58742460722E+03  0.65411453420E+03  0.00000000000E+00 0. -1.
         22    1    1    2    0    0 -0.27954189327E+02  0.57566597305E+03 -0.62577923006E+03  0.85074813782E+03  0.00000000000E+00 0.  1.
<mgrwt>
<rscale>  0 0.11845685E+04</rscale>
<asrwt>0</asrwt>
<pdfrwt beam="1">  1        2 0.28712608E+00 0.11845685E+04</pdfrwt>
<pdfrwt beam="2">  1       -2 0.28917517E-01 0.11845685E+04</pdfrwt>
<totfact> 0.86035712E+01</totfact>
</mgrwt>
</event>
<event>
 6    1  0.9512547E-007  0.4210912E+04  0.7818608E-02  0.7963300E-01
         -1   -1    0    0    0  501 -0.00000000000E+00  0.00000000000E+00  0.28122049415E+04  0.28122049415E+04  0.00000000000E+00 0.  1.
          1   -1    0    0  501    0  0.00000000000E+00 -0.00000000000E+00 -0.15763236663E+04  0.15763236663E+04  0.00000000000E+00 0. -1.
         23    2    1    2    0    0  0.12107855803E+04 -0.15408575746E+04  0.14174973903E+04  0.24204767283E+04  0.95733767538E+02 0.  0.
         11    1    3    3    0    0  0.10557565550E+04 -0.13703571033E+04  0.12178219801E+04  0.21155592332E+04  0.00000000000E+00 0. -1.
        -11    1    3    3    0    0  0.15502902528E+03 -0.17050047131E+03  0.19967541018E+03  0.30491749511E+03  0.00000000000E+00 0.  1.
         22    1    1    2    0    0 -0.12107855803E+04  0.15408575746E+04 -0.18161611510E+03  0.19680518794E+04  0.00000000000E+00 0. -1.
<mgrwt>
<rscale>  0 0.42109121E+04</rscale>
<asrwt>0</asrwt>
<pdfrwt beam="1">  1        1 0.24251133E+00 0.42109121E+04</pdfrwt>
<pdfrwt beam="2">  1       -1 0.43264691E+00 0.42109121E+04</pdfrwt>
<totfact> 0.19002860E-02</totfact>
</mgrwt>
</event>
<event>
 6    1  0.9512547E-007  0.2148316E+04  0.7818608E-02  0.8540254E-01
          2   -1    0    0  501    0  0.00000000000E+00  0.00000000000E+00  0.15168955204E+04  0.15168955204E+04  0.00000000000E+00 0. -1.
         -2   -1    0    0    0  501 -0.00000000000E+00 -0.00000000000E+00 -0.76064248331E+03  0.76064248331E+03  0.00000000000E+00 0.  1.
         23    2    1    2    0    0  0.22916237779E+03  0.67611753553E+03 -0.46908074711E+03  0.85940782635E+03  0.94311968608E+02 0.  0.
         11    1    3    3    0    0  0.10726913308E+03  0.38157351994E+03 -0.20955322876E+03  0.44834983407E+03  0.00000000000E+00 0. -1.
        -11    1    3    3    0    0  0.12189324471E+03  0.29454401560E+03 -0.25952751835E+03  0.41105799227E+03  0.00000000000E+00 0.  1.
         22    1    1    2    0    0 -0.22916237779E+03 -0.67611753553E+03  0.12253337842E+04  0.14181301774E+04  0.00000000000E+00 0. -1.
<mgrwt>
<rscale>  0 0.21483158E+04</rscale>
<asrwt>0</asrwt>
<pdfrwt beam="1">  1        2 0.23336854E+00 0.21483158E+04</pdfrwt>
<pdfrwt beam="2">  1       -2 0.11702192E+00 0.21483158E+04</pdfrwt>
<totfact> 0.64415046E+00</totfact>
</mgrwt>
</event>
<event>
 6    1  0.9512547E-007  0.2805884E+04  0.7818608E-02  0.8301444E-01
          1   -1    0    0  501    0  0.00000000000E+00  0.00000000000E+00  0.31599776922E+04  0.31599776922E+04  0.00000000000E+00 0. -1.
         -1   -1    0    0    0  501 -0.00000000000E+00 -0.00000000000E+00 -0.62286727040E+03  0.62286727040E+03  0.00000000000E+00 0.  1.
         23    2    1    2    0    0  0.28645198166E+03  0.68366411453E+03 -0.33397947995E+03  0.81761165251E+03  0.86574603665E+02 0.  0.
         13    1    3    3    0    0  0.16037533121E+03  0.37669133136E+03 -0.13712928231E+03  0.43176503569E+03  0.00000000000E+00 0. -1.
        -13    1    3    3    0    0  0.12607665046E+03  0.30697278317E+03 -0.19685019765E+03  0.38584661682E+03  0.00000000000E+00 0.  1.
         22    1    1    2    0    0 -0.28645198166E+03 -0.68366411453E+03  0.28710899017E+04  0.29652333101E+04  0.00000000000E+00 0. -1.
<mgrwt>
<rscale>  0 0.28058843E+04</rscale>
<asrwt>0</asrwt>
<pdfrwt beam="1">  1        1 0.48615041E+00 0.28058843E+04</pdfrwt>
<pdfrwt beam="2">  1       -1 0.95825735E-01 0.28058843E+04</pdfrwt>
<totfact> 0.41359021E-01</totfact>
</mgrwt>
</event>
<event>
 6    1  0.9512547E-007  0.1099281E+04  0.7818608E-02  0.9205893E-01
         -2   -1    0    0    0  501 -0.00000000000E+00  0.00000000000E+00  0.15894164142E+03  0.15894164142E+03  0.00000000000E+00 0.  1.
          2   -1    0    0  501    0  0.00000000000E+00 -0.00000000000E+00 -0.19007285830E+04  0.19007285830E+04  0.00000000000E+00 0. -1.
         23    2    1    2    0    0 -0.12221648384E+03  0.52040160585E+03 -0.10853218771E+04  0.12130882253E+04  0.88908746739E+02 0.  0.
         11    1    3    3    0    0 -0.84556892327E+02  0.45841688796E+03 -0.97990166324E+03  0.10851281864E+04  0.00000000000E+00 0. -1.
        -11    1    3    3    0    0 -0.37659591512E+02  0.61984717892E+02 -0.10542021383E+03  0.12796003895E+03  0.00000000000E+00 0.  1.
         22    1    1    2    0    0  0.12221648384E+03 -0.52040160585E+03 -0.65646506452E+03  0.84658199912E+03  0.00000000000E+00 0. -1.
<mgrwt>
<rscale>  0 0.10992814E+04</rscale>
<asrwt>0</asrwt>
<pdfrwt beam="1">  1        2 0.29241976E+00 0.10992814E+04</pdfrwt>
<pdfrwt beam="2">  1       -2 0.24452562E-01 0.10992814E+04</pdfrwt>
<totfact> 0.11263599E+02</totfact>
</mgrwt>
</event>
<event>
 6    1  0.9512547E-007  0.2019727E+04  0.7818608E-02  0.8597453E-01
          1   -1    0    0  501    0  0.00000000000E+00  0.00000000000E+00  0.56003589632E+03  0.56003589632E+03  0.00000000000E+00 0. -1.
         -1   -1    0    0    0  501 -0.00000000000E+00 -0.00000000000E+00 -0.18209983026E+04  0.18209983026E+04  0.00000000000E+00 0.  1.
         23    2    1    2    0    0  0.53368106899E+03  0.77429817609E+03 -0.10590192592E+04  0.14191952397E+04  0.90775481201E+02 0.  0.
         13    1    3    3    0    0  0.26726918381E+03  0.31235230153E+03 -0.44017558065E+03  0.60228840159E+03  0.00000000000E+00 0. -1.
        -13    1    3    3    0    0  0.26641188518E+03  0.46194587456E+03 -0.61884367856E+03  0.81690683807E+03  0.00000000000E+00 0.  1.
         22    1    1    2    0    0 -0.53368106899E+03 -0.77429817609E+03 -0.20194314707E+03  0.96183895926E+03  0.00000000000E+00 0. -1.
<mgrwt>
<rscale>  0 0.20197271E+04</rscale>
<asrwt>0</asrwt>
<pdfrwt beam="1">  1        1 0.86159370E-01 0.20197271E+04</pdfrwt>
<pdfrwt beam="2">  1       -1 0.28015358E+00 0.20197271E+04</pdfrwt>
<totfact> 0.15553062E+00</totfact>
</mgrwt>
</event>
<event>
 6    1  0.9512547E-007  0.1935914E+04  0.7818608E-02  0.8637183E-01
          1   -1    0    0  501    0  0.00000000000E+00  0.00000000000E+00  0.12259590661E+04  0.12259590661E+04  0.00000000000E+00 0. -1.
         -1   -1    0    0    0  501 -0.00000000000E+00 -0.00000000000E+00 -0.76425102473E+03  0.76425102473E+03  0.00000000000E+00 0.  1.
         23    2    1    2    0    0  0.62506630011E+03  0.75911428261E+02  0.98423258546E+03  0.11719788744E+04  0.91379840135E+02 0.  0.
         13    1    3    3    0    0  0.34482236390E+03  0.80574131296E+02  0.59354100954E+03  0.69114801837E+03  0.00000000000E+00 0. -1.
        -13    1    3    3    0    0  0.28024393621E+03 -0.46627030351E+01  0.39069157592E+03  0.48083085599E+03  0.00000000000E+00 0.  1.
         22    1    1    2    0    0 -0.62506630011E+03 -0.75911428261E+02 -0.52252454407E+03  0.81823121649E+03  0.00000000000E+00 0.  1.
<mgrwt>
<rscale>  0 0.19359137E+04</rscale>
<asrwt>0</asrwt>
<pdfrwt beam="1">  1        1 0.18860909E+00 0.19359137E+04</pdfrwt>
<pdfrwt beam="2">  1       -1 0.11757708E+00 0.19359137E+04</pdfrwt>
<totfact> 0.62090564E+00</totfact>
</mgrwt>
</event>
<event>
 6    1  0.9512547E-007  0.4727197E+04  0.7818608E-02  0.7872025E-01
          2   -1    0    0  501    0  0.00000000000E+00  0.00000000000E+00  0.41202494485E+04  0.41202494485E+04  0.00000000000E+00 0. -1.
         -2   -1    0    0    0  501 -0.00000000000E+00 -0.00000000000E+00 -0.13558884890E+04  0.13558884890E+04  0.00000000000E+00 0.  1.
         23    2    1    2    0    0  0.83907820558E+02 -0.20836558159E+04  0.95934619254E+02  0.20895229291E+04  0.90777410630E+02 0.  0.
         13    1    3    3    0    0  0.63917694865E+02 -0.15855811202E+04  0.11172600039E+03  0.15907971774E+04  0.00000000000E+00 0. -1.
        -13    1    3    3    0    0  0.19990125693E+02 -0.49807469571E+03 -0.15791381140E+02  0.49872575164E+03  0.00000000000E+00 0.  1.
         22    1    1    2    0    0 -0.83907820558E+02  0.20836558159E+04  0.26684263403E+04  0.33866150084E+04  0.00000000000E+00 0. -1.
<mgrwt>
<rscale>  0 0.47271974E+04</rscale>
<asrwt>0</asrwt>
<pdfrwt beam="1">  1        2 0.63388452E+00 0.47271974E+04</pdfrwt>
<pdfrwt beam="2">  1       -2 0.20859823E+00 0.47271974E+04</pdfrwt>
<totfact> 0.23542554E-02</totfact>
</mgrwt>
</event>
<event>
 6    1  0.9512547E-007  0.7351801E+04  0.7818608E-02  0.7542204E-01
          2   -1    0    0  501    0  0.00000000000E+00  0.00000000000E+00  0.38346448202E+04  0.38346448202E+04  0.00000000000E+00 0. -1.
         -2   -1    0    0    0  501 -0.00000000000E+00 -0.00000000000E+00 -0.35237275271E+04  0.35237275271E+04  0.00000000000E+00 0.  1.
         23    2    1    2    0    0  0.26625624118E+04 -0.23255580728E+04 -0.85081413204E+03  0.36372060180E+04  0.89016760159E+02 0.  0.
         13    1    3    3    0    0  0.10368349648E+04 -0.92693861766E+03 -0.29319330275E+03  0.14213388963E+04  0.00000000000E+00 0. -1.
        -13    1    3    3    0    0  0.16257274469E+04 -0.13986194551E+04 -0.55762082929E+03  0.22158671217E+04  0.00000000000E+00 0.  1.
         22    1    1    2    0    0 -0.26625624118E+04  0.23255580728E+04  0.11617314252E+04  0.37211663294E+04  0.00000000000E+00 0. -1.
<mgrwt>
<rscale>  0 0.73518007E+04</rscale>
<asrwt>0</asrwt>
<pdfrwt beam="1">  1        2 0.58994536E+00 0.73518007E+04</pdfrwt>
<pdfrwt beam="2">  1       -2 0.54211193E+00 0.73518007E+04</pdfrwt>
<totfact> 0.26900260E-04</totfact>
</mgrwt>
</event>
<event>
 6    1  0.9512547E-007  0.2411533E+04  0.7818608E-02  0.8435198E-01
          2   -1    0    0  501    0  0.00000000000E+00  0.00000000000E+00  0.78330886887E+03  0.78330886887E+03  0.00000000000E+00 0. -1.
         -2   -1    0    0    0  501 -0.00000000000E+00 -0.00000000000E+00 -0.18560659837E+04  0.18560659837E+04  0.00000000000E+00 0.  1.
         23    2    1    2    0    0 -0.75966106355E+03  0.93136458665E+03 -0.45503057770E+03  0.12880381072E+04  0.86396841161E+02 0.  0.
         13    1    3    3    0    0 -0.60076893794E+03  0.74316221891E+03 -0.39816226479E+03  0.10352519449E+04  0.00000000000E+00 0. -1.
        -13    1    3    3    0    0 -0.15889212561E+03  0.18820236774E+03 -0.56868312908E+02  0.25278616223E+03  0.00000000000E+00 0.  1.
         22    1    1    2    0    0  0.75966106355E+03 -0.93136458665E+03 -0.61772653713E+03  0.13513367454E+04  0.00000000000E+00 0. -1.
<mgrwt>
<rscale>  0 0.24115331E+04</rscale>
<asrwt>0</asrwt>
<pdfrwt beam="1">  1        2 0.12050906E+00 0.24115331E+04</pdfrwt>
<pdfrwt beam="2">  1       -2 0.28554861E+00 0.24115331E+04</pdfrwt>
<totfact> 0.12398247E+00</totfact>
</mgrwt>
</event>
<event>
 6    1  0.9512547E-007  0.2408398E+04  0.7818608E-02  0.8436366E-01
          1   -1    0    0  501    0  0.00000000000E+00  0.00000000000E+00  0.16310982012E+04  0.16310982012E+04  0.00000000000E+00 0. -1.
         -1   -1    0    0    0  501 -0.00000000000E+00 -0.00000000000E+00 -0.88903008712E+03  0.88903008712E+03  0.00000000000E+00 0.  1.
         23    2    1    2    0    0  0.97502845390E+03  0.57683176470E+03  0.79361726518E+03  0.13860768408E+04  0.89248385606E+02 0.  0.
         11    1    3    3    0    0  0.61267651019E+03  0.39256360990E+03  0.46716998495E+03  0.86471179522E+03  0.00000000000E+00 0.  1.
        -11    1    3    3    0    0  0.36235194371E+03  0.18426815481E+03  0.32644728023E+03  0.52136504558E+03  0.00000000000E+00 0. -1.
         22    1    1    2    0    0 -0.97502845390E+03 -0.57683176470E+03 -0.51549151085E+02  0.11340514475E+04  0.00000000000E+00 0.  1.
<mgrwt>
<rscale>  0 0.24083981E+04</rscale>
<asrwt>0</asrwt>
<pdfrwt beam="1">  1        1 0.25093819E+00 0.24083981E+04</pdfrwt>
<pdfrwt beam="2">  1       -1 0.13677386E+00 0.24083981E+04</pdfrwt>
<totfact> 0.21188862E+00</totfact>
</mgrwt>
</event>
<event>
 6    1  0.9512547E-007  0.1555282E+04  0.7818608E-02  0.8848501E-01
         -2   -1    0    0    0  501 -0.00000000000E+00  0.00000000000E+00  0.65363371611E+03  0.65363371611E+03  0.00000000000E+00 0.  1.
          2   -1    0    0  501    0  0.00000000000E+00 -0.00000000000E+00 -0.92517473096E+03  0.92517473096E+03  0.00000000000E+00 0. -1.
         23    2    1    2    0    0  0.40947629069E+03 -0.86241411814E+02 -0.79844427001E+03  0.90595225586E+03  0.90154444394E+02 0.  0.
         13    1    3    3    0    0  0.42885799147E+02 -0.32297821518E+02 -0.65684831447E+02  0.84834180173E+02  0.00000000000E+00 0. -1.
        -13    1    3    3    0    0  0.36659049154E+03 -0.53943590295E+02 -0.73275943856E+03  0.82111807569E+03  0.00000000000E+00 0.  1.
         22    1    1    2    0    0 -0.40947629069E+03  0.86241411814E+02  0.52690325516E+03  0.67285619121E+03  0.00000000000E+00 0.  1.
<mgrwt>
<rscale>  0 0.15552818E+04</rscale>
<asrwt>0</asrwt>
<pdfrwt beam="1">  1        2 0.14233457E+00 0.15552818E+04</pdfrwt>
<pdfrwt beam="2">  1       -2 0.10055903E+00 0.15552818E+04</pdfrwt>
<totfact> 0.22121959E+01</totfact>
</mgrwt>
</event>
<event>
 6    1  0.9512547E-007  0.1843454E+04  0.7818608E-02  0.8683526E-01
         -2   -1    0    0    0  501 -0.00000000000E+00  0.00000000000E+00  0.12878238901E+04  0.12878238901E+04  0.00000000000E+00 0.  1.
          2   -1    0    0  501    0  0.00000000000E+00 -0.00000000000E+00 -0.65970259637E+03  0.65970259637E+03  0.00000000000E+00 0. -1.
         23    2    1    2    0    0 -0.38109831895E+03  0.24719262669E+03  0.11594009932E+04  0.12485284589E+04  0.90953428310E+02 0.  0.
         11    1    3    3    0    0 -0.41398063233E+02  0.66863893867E+02  0.19208284918E+03  0.20755818676E+03  0.00000000000E+00 0.  1.
        -11    1    3    3    0    0 -0.33970025572E+03  0.18032873282E+03  0.96731814404E+03  0.10409702721E+04  0.00000000000E+00 0. -1.
         22    1    1    2    0    0  0.38109831895E+03 -0.24719262669E+03 -0.53127969953E+03  0.69899802756E+03  0.00000000000E+00 0. -1.
<mgrwt>
<rscale>  0 0.18434541E+04</rscale>
<asrwt>0</asrwt>
<pdfrwt beam="1">  1        2 0.10149271E+00 0.18434541E+04</pdfrwt>
<pdfrwt beam="2">  1       -2 0.19812675E+00 0.18434541E+04</pdfrwt>
<totfact> 0.56782025E+00</totfact>
</mgrwt>
</event>
<event>
 6    1  0.9512547E-007  0.7386854E+03  0.7818608E-02  0.9653270E-01
          2   -1    0    0  501    0  0.00000000000E+00  0.00000000000E+00  0.23176332645E+04  0.23176332645E+04  0.00000000000E+00 0. -1.
         -2   -1    0    0    0  501 -0.00000000000E+00 -0.00000000000E+00 -0.58859200617E+02  0.58859200617E+02  0.00000000000E+00 0.  1.
         23    2    1    2    0    0 -0.15583375460E+03  0.26056331178E+03  0.17915480051E+04  0.18192873067E+04  0.89356876361E+02 0.  0.
         11    1    3    3    0    0 -0.55826015780E+02  0.17370303944E+03  0.94726418318E+03  0.96467544940E+03  0.00000000000E+00 0. -1.
        -11    1    3    3    0    0 -0.10000773882E+03  0.86860272343E+02  0.84428382192E+03  0.85461185733E+03  0.00000000000E+00 0.  1.
         22    1    1    2    0    0  0.15583375460E+03 -0.26056331178E+03  0.46722605877E+03  0.55720515837E+03  0.00000000000E+00 0.  1.
<mgrwt>
<rscale>  0 0.73868543E+03</rscale>
<asrwt>0</asrwt>
<pdfrwt beam="1">  1        2 0.35655889E+00 0.73868543E+03</pdfrwt>
<pdfrwt beam="2">  1       -2 0.90552634E-02 0.73868543E+03</pdfrwt>
<totfact> 0.36908554E+02</totfact>
</mgrwt>
</event>
<event>
 6    1  0.9512547E-007  0.1934855E+04  0.7818608E-02  0.8637699E-01
          2   -1    0    0  501    0  0.00000000000E+00  0.00000000000E+00  0.11257983280E+04  0.11257983280E+04  0.00000000000E+00 0. -1.
         -2   -1    0    0    0  501 -0.00000000000E+00 -0.00000000000E+00 -0.83133573059E+03  0.83133573059E+03  0.00000000000E+00 0.  1.
         23    2    1    2    0    0  0.72239432234E+03 -0.64051636456E+03  0.12050111685E+03  0.97612571665E+03  0.78651925216E+02 0.  0.
         11    1    3    3    0    0  0.45997063417E+03 -0.44997589134E+03  0.60346100199E+02  0.64629168252E+03  0.00000000000E+00 0.  1.
        -11    1    3    3    0    0  0.26242368816E+03 -0.19054047322E+03  0.60155016649E+02  0.32983403413E+03  0.00000000000E+00 0. -1.
         22    1    1    2    0    0 -0.72239432234E+03  0.64051636456E+03  0.17396148056E+03  0.98100834193E+03  0.00000000000E+00 0.  1.
<mgrwt>
<rscale>  0 0.19348554E+04</rscale>
<asrwt>0</asrwt>
<pdfrwt beam="1">  1        2 0.17319974E+00 0.19348554E+04</pdfrwt>
<pdfrwt beam="2">  1       -2 0.12789780E+00 0.19348554E+04</pdfrwt>
<totfact> 0.88794042E+00</totfact>
</mgrwt>
</event>
<event>
 6    1  0.9512547E-007  0.2309644E+04  0.7818608E-02  0.8474128E-01
          2   -1    0    0  501    0  0.00000000000E+00  0.00000000000E+00  0.22874453248E+04  0.22874453248E+04  0.00000000000E+00 0. -1.
         -2   -1    0    0    0  501 -0.00000000000E+00 -0.00000000000E+00 -0.58301446334E+03  0.58301446334E+03  0.00000000000E+00 0.  1.
         23    2    1    2    0    0 -0.10195745580E+04 -0.53844643406E+03  0.86287034876E+03  0.14429861673E+04  0.90592486740E+02 0.  0.
         13    1    3    3    0    0 -0.71959184779E+03 -0.33475278449E+03  0.57626593341E+03  0.98079267949E+03  0.00000000000E+00 0. -1.
        -13    1    3    3    0    0 -0.29998271018E+03 -0.20369364957E+03  0.28660441535E+03  0.46219348782E+03  0.00000000000E+00 0.  1.
         22    1    1    2    0    0  0.10195745580E+04  0.53844643406E+03  0.84156051267E+03  0.14274736208E+04  0.00000000000E+00 0.  1.
<mgrwt>
<rscale>  0 0.23096439E+04</rscale>
<asrwt>0</asrwt>
<pdfrwt beam="1">  1        2 0.35191466E+00 0.23096439E+04</pdfrwt>
<pdfrwt beam="2">  1       -2 0.89694534E-01 0.23096439E+04</pdfrwt>
<totfact> 0.44462801E+00</totfact>
</mgrwt>
</event>
<event>
 6    1  0.9512547E-007  0.1227096E+04  0.7818608E-02  0.9089464E-01
         -2   -1    0    0    0  501 -0.00000000000E+00  0.00000000000E+00  0.51766040156E+03  0.51766040156E+03  0.00000000000E+00 0.  1.
          2   -1    0    0  501    0  0.00000000000E+00 -0.00000000000E+00 -0.72719761363E+03  0.72719761363E+03  0.00000000000E+00 0. -1.
         23    2    1    2    0    0  0.54052967475E+03 -0.96150085902E+02 -0.37523480672E+03  0.67138363810E+03  0.92399464384E+02 0.  0.
         13    1    3    3    0    0  0.43276299134E+02 -0.15255437923E+02 -0.65571606812E+02  0.80032506352E+02  0.00000000000E+00 0. -1.
        -13    1    3    3    0    0  0.49725337562E+03 -0.80894647979E+02 -0.30966319991E+03  0.59135113174E+03  0.00000000000E+00 0.  1.
         22    1    1    2    0    0 -0.54052967475E+03  0.96150085902E+02  0.16569759465E+03  0.57347437709E+03  0.00000000000E+00 0.  1.
<mgrwt>
<rscale>  0 0.12270964E+04</rscale>
<asrwt>0</asrwt>
<pdfrwt beam="1">  1        2 0.11187656E+00 0.12270964E+04</pdfrwt>
<pdfrwt beam="2">  1       -2 0.79640062E-01 0.12270964E+04</pdfrwt>
<totfact> 0.53705188E+01</totfact>
</mgrwt>
</event>
<event>
 6    1  0.9512547E-007  0.3574268E+04  0.7818608E-02  0.8096411E-01
         -1   -1    0    0    0  501 -0.00000000000E+00  0.00000000000E+00  0.18089856295E+04  0.18089856295E+04  0.00000000000E+00 0.  1.
          1   -1    0    0  501    0  0.00000000000E+00 -0.00000000000E+00 -0.17655466037E+04  0.17655466037E+04  0.00000000000E+00 0. -1.
         23    2    1    2    0    0 -0.16731539233E+04  0.21727008571E+03 -0.56505285871E+03  0.17809568334E+04  0.76630072070E+02 0.  0.
         13    1    3    3    0    0 -0.31015483866E+03  0.36378334177E+02 -0.13607973943E+03  0.34064219150E+03  0.00000000000E+00 0.  1.
        -13    1    3    3    0    0 -0.13629990847E+04  0.18089175154E+03 -0.42897311928E+03  0.14403146419E+04  0.00000000000E+00 0. -1.
         22    1    1    2    0    0  0.16731539233E+04 -0.21727008571E+03  0.60849188454E+03  0.17935753998E+04  0.00000000000E+00 0.  1.
<mgrwt>
<rscale>  0 0.35742683E+04</rscale>
<asrwt>0</asrwt>
<pdfrwt beam="1">  1        1 0.27162256E+00 0.35742683E+04</pdfrwt>
<pdfrwt beam="2">  1       -1 0.27830548E+00 0.35742683E+04</pdfrwt>
<totfact> 0.15913653E-01</totfact>
</mgrwt>
</event>
<event>
 6    1  0.9512547E-007  0.4985310E+04  0.7818608E-02  0.7830777E-01
         -2   -1    0    0    0  501 -0.00000000000E+00  0.00000000000E+00  0.20478236798E+04  0.20478236798E+04  0.00000000000E+00 0.  1.
          2   -1    0    0  501    0  0.00000000000E+00 -0.00000000000E+00 -0.30341132942E+04  0.30341132942E+04  0.00000000000E+00 0. -1.
         23    2    1    2    0    0  0.68362649021E+03 -0.13051598940E+04 -0.25418134807E+04  0.29394052880E+04  0.92196254410E+02 0.  0.
         11    1    3    3    0    0  0.55402375872E+03 -0.10019794214E+04 -0.20285504199E+04  0.23293608334E+04  0.00000000000E+00 0. -1.
        -11    1    3    3    0    0  0.12960273149E+03 -0.30318047263E+03 -0.51326306085E+03  0.61004445463E+03  0.00000000000E+00 0.  1.
         22    1    1    2    0    0 -0.68362649021E+03  0.13051598940E+04  0.15555238663E+04  0.21425316860E+04  0.00000000000E+00 0.  1.
<mgrwt>
<rscale>  0 0.49853100E+04</rscale>
<asrwt>0</asrwt>
<pdfrwt beam="1">  1        2 0.46678666E+00 0.49853100E+04</pdfrwt>
<pdfrwt beam="2">  1       -2 0.31504980E+00 0.49853100E+04</pdfrwt>
<totfact> 0.31011398E-02</totfact>
</mgrwt>
</event>
<event>
 6    1  0.9512547E-007  0.2260627E+04  0.7818608E-02  0.8493609E-01
         -2   -1    0    0    0  501 -0.00000000000E+00  0.00000000000E+00  0.10607405428E+04  0.10607405428E+04  0.00000000000E+00 0.  1.
          2   -1    0    0  501    0  0.00000000000E+00 -0.00000000000E+00 -0.12044500107E+04  0.12044500107E+04  0.00000000000E+00 0. -1.
         23    2    1    2    0    0  0.83538838510E+03  0.61131922220E+03  0.37892964282E+03  0.11055627746E+04  0.84240304771E+02 0.  0.
         11    1    3    3    0    0  0.56891493990E+03  0.37165615324E+03  0.22944283136E+03  0.71724230072E+03  0.00000000000E+00 0.  1.
        -11    1    3    3    0    0  0.26647344520E+03  0.23966306896E+03  0.14948681146E+03  0.38832047386E+03  0.00000000000E+00 0. -1.
         22    1    1    2    0    0 -0.83538838510E+03 -0.61131922220E+03 -0.52263911071E+03  0.11596277788E+04  0.00000000000E+00 0. -1.
<mgrwt>
<rscale>  0 0.22606273E+04</rscale>
<asrwt>0</asrwt>
<pdfrwt beam="1">  1        2 0.18530000E+00 0.22606273E+04</pdfrwt>
<pdfrwt beam="2">  1       -2 0.16319085E+00 0.22606273E+04</pdfrwt>
<totfact> 0.40862919E+00</totfact>
</mgrwt>
</event>
<event>
 6    1  0.9512547E-007  0.4211755E+04  0.7818608E-02  0.7963140E-01
          2   -1    0    0  501    0  0.00000000000E+00  0.00000000000E+00  0.31259704956E+04  0.31259704956E+04  0.00000000000E+00 0. -1.
         -2   -1    0    0    0  501 -0.00000000000E+00 -0.00000000000E+00 -0.14186699879E+04  0.14186699879E+04  0.00000000000E+00 0.  1.
         23    2    1    2    0    0 -0.34713744317E+03 -0.20585316500E+04  0.56254915952E+03  0.21637766470E+04  0.86086369157E+02 0.  0.
         13    1    3    3    0    0 -0.23883236863E+02 -0.18472275208E+03  0.26202825190E+02  0.18809437043E+03  0.00000000000E+00 0. -1.
        -13    1    3    3    0    0 -0.32325420631E+03 -0.18738088979E+04  0.53634633433E+03  0.19756822766E+04  0.00000000000E+00 0.  1.
         22    1    1    2    0    0  0.34713744317E+03  0.20585316500E+04  0.11447513482E+04  0.23808638364E+04  0.00000000000E+00 0. -1.
<mgrwt>
<rscale>  0 0.42117552E+04</rscale>
<asrwt>0</asrwt>
<pdfrwt beam="1">  1        2 0.48091854E+00 0.42117552E+04</pdfrwt>
<pdfrwt beam="2">  1       -2 0.21825692E+00 0.42117552E+04</pdfrwt>
<totfact> 0.11377746E-01</totfact>
</mgrwt>
</event>
<event>
 6    1  0.9512547E-007  0.2602131E+04  0.7818608E-02  0.8367478E-01
         -1   -1    0    0    0  501 -0.00000000000E+00  0.00000000000E+00  0.14123541901E+04  0.14123541901E+04  0.00000000000E+00 0.  1.
          1   -1    0    0  501    0  0.00000000000E+00 -0.00000000000E+00 -0.11985458012E+04  0.11985458012E+04  0.00000000000E+00 0. -1.
         23    2    1    2    0    0 -0.38595171634E+03  0.29683594069E+03 -0.11021306904E+04  0.12077727827E+04  0.83383049697E+02 0.  0.
         13    1    3    3    0    0 -0.30204517289E+03  0.23577535023E+03 -0.77451740590E+03  0.86411718782E+03  0.00000000000E+00 0.  1.
        -13    1    3    3    0    0 -0.83906543451E+02  0.61060590456E+02 -0.32761328447E+03  0.34365559489E+03  0.00000000000E+00 0. -1.
         22    1    1    2    0    0  0.38595171634E+03 -0.29683594069E+03  0.13159390793E+04  0.14031272085E+04  0.00000000000E+00 0.  1.
<mgrwt>
<rscale>  0 0.26021308E+04</rscale>
<asrwt>0</asrwt>
<pdfrwt beam="1">  1        1 0.18439166E+00 0.26021308E+04</pdfrwt>
<pdfrwt beam="2">  1       -1 0.21728526E+00 0.26021308E+04</pdfrwt>
<totfact> 0.10825885E+00</totfact>
</mgrwt>
</event>
<event>
 6    1  0.9512547E-007  0.2826205E+04  0.7818608E-02  0.8295179E-01
          2   -1    0    0  501    0  0.00000000000E+00  0.00000000000E+00  0.12919974114E+04  0.12919974114E+04  0.00000000000E+00 0. -1.
         -2   -1    0    0    0  501 -0.00000000000E+00 -0.00000000000E+00 -0.15455594265E+04  0.15455594265E+04  0.00000000000E+00 0.  1.
         23    2    1    2    0    0 -0.91865411243E+03  0.49131830709E+03 -0.10832179819E+04  0.15057730415E+04  0.93124643094E+02 0.  0.
         11    1    3    3    0    0 -0.23051760998E+03  0.16549485693E+03 -0.32054750528E+03  0.42810935439E+03  0.00000000000E+00 0.  1.
        -11    1    3    3    0    0 -0.68813650246E+03  0.32582345016E+03 -0.76267047661E+03  0.10776636871E+04  0.00000000000E+00 0. -1.
         22    1    1    2    0    0  0.91865411243E+03 -0.49131830709E+03  0.82965596675E+03  0.13317837964E+04  0.00000000000E+00 0. -1.
<mgrwt>
<rscale>  0 0.28262051E+04</rscale>
<asrwt>0</asrwt>
<pdfrwt beam="1">  1        2 0.19876883E+00 0.28262051E+04</pdfrwt>
<pdfrwt beam="2">  1       -2 0.23777837E+00 0.28262051E+04</pdfrwt>
<totfact> 0.11094599E+00</totfact>
</mgrwt>
</event>
<event>
 6    1  0.9512547E-007  0.3615187E+04  0.7818608E-02  0.8087022E-01
         -2   -1    0    0    0  501 -0.00000000000E+00  0.00000000000E+00  0.37331088858E+04  0.37331088858E+04  0.00000000000E+00 0.  1.
          2   -1    0    0  501    0  0.00000000000E+00 -0.00000000000E+00 -0.87524741432E+03  0.87524741432E+03  0.00000000000E+00 0. -1.
         23    2    1    2    0    0  0.18518345035E+03  0.17510271292E+04  0.91542787010E+03  0.19866322084E+04  0.91161552142E+02 0.  0.
         13    1    3    3    0    0  0.19247496279E+03  0.15696682155E+04  0.81154840378E+03  0.17775026666E+04  0.00000000000E+00 0. -1.
        -13    1    3    3    0    0 -0.72915124374E+01  0.18135891367E+03  0.10387946632E+03  0.20912954178E+03  0.00000000000E+00 0.  1.
         22    1    1    2    0    0 -0.18518345035E+03 -0.17510271292E+04  0.19424336014E+04  0.26217240918E+04  0.00000000000E+00 0.  1.
<mgrwt>
<rscale>  0 0.36151868E+04</rscale>
<asrwt>0</asrwt>
<pdfrwt beam="1">  1        2 0.13465345E+00 0.36151868E+04</pdfrwt>
<pdfrwt beam="2">  1       -2 0.57432444E+00 0.36151868E+04</pdfrwt>
<totfact> 0.16094341E-02</totfact>
</mgrwt>
</event>
<event>
 6    1  0.9512547E-007  0.2884167E+04  0.7818608E-02  0.8277604E-01
          1   -1    0    0  501    0  0.00000000000E+00  0.00000000000E+00  0.17246149688E+04  0.17246149688E+04  0.00000000000E+00 0. -1.
         -1   -1    0    0    0  501 -0.00000000000E+00 -0.00000000000E+00 -0.12058368344E+04  0.12058368344E+04  0.00000000000E+00 0.  1.
         23    2    1    2    0    0 -0.14500254511E+03 -0.97826273743E+03  0.13240591055E+04  0.16551082557E+04  0.90703371616E+02 0.  0.
         11    1    3    3    0    0 -0.28096746846E+02 -0.30535607459E+03  0.34806928715E+03  0.46387928185E+03  0.00000000000E+00 0. -1.
        -11    1    3    3    0    0 -0.11690579827E+03 -0.67290666283E+03  0.97598981837E+03  0.11912289738E+04  0.00000000000E+00 0.  1.
         22    1    1    2    0    0  0.14500254511E+03  0.97826273743E+03 -0.80528097114E+03  0.12753435474E+04  0.00000000000E+00 0.  1.
<mgrwt>
<rscale>  0 0.28841666E+04</rscale>
<asrwt>0</asrwt>
<pdfrwt beam="1">  1        1 0.26532538E+00 0.28841666E+04</pdfrwt>
<pdfrwt beam="2">  1       -1 0.18551336E+00 0.28841666E+04</pdfrwt>
<totfact> 0.74911026E-01</totfact>
</mgrwt>
</event>
<event>
 6    1  0.9512547E-007  0.1837552E+04  0.7818608E-02  0.8686581E-01
          1   -1    0    0  501    0  0.00000000000E+00  0.00000000000E+00  0.15187159949E+04  0.15187159949E+04  0.00000000000E+00 0. -1.
         -1   -1    0    0    0  501 -0.00000000000E+00 -0.00000000000E+00 -0.55583116137E+03  0.55583116137E+03  0.00000000000E+00 0.  1.
         23    2    1    2    0    0 -0.14727898598E+03  0.88366828765E+03  0.26445089238E+03  0.93860230177E+03  0.92082919671E+02 0.  0.
         11    1    3    3    0    0 -0.39211183483E+02  0.25777604184E+03  0.34068341251E+02  0.26295751849E+03  0.00000000000E+00 0.  1.
        -11    1    3    3    0    0 -0.10806780250E+03  0.62589224581E+03  0.23038255113E+03  0.67564478328E+03  0.00000000000E+00 0. -1.
         22    1    1    2    0    0  0.14727898598E+03 -0.88366828765E+03  0.69843394111E+03  0.11359448545E+04  0.00000000000E+00 0. -1.
<mgrwt>
<rscale>  0 0.18375524E+04</rscale>
<asrwt>0</asrwt>
<pdfrwt beam="1">  1        1 0.23364861E+00 0.18375524E+04</pdfrwt>
<pdfrwt beam="2">  1       -1 0.85512487E-01 0.18375524E+04</pdfrwt>
<totfact> 0.80695108E+00</totfact>
</mgrwt>
</event>
<event>
 6    1  0.9512547E-007  0.2308956E+04  0.7818608E-02  0.8474398E-01
          1   -1    0    0  501    0  0.00000000000E+00  0.00000000000E+00  0.10040044469E+04  0.10040044469E+04  0.00000000000E+00 0. -1.
         -1   -1    0    0    0  501 -0.00000000000E+00 -0.00000000000E+00 -0.13275036222E+04  0.13275036222E+04  0.00000000000E+00 0.  1.
         23    2    1    2    0    0  0.65191786845E+03 -0.47316311531E+03  0.67060757963E+03  0.10520048526E+04  0.90107952981E+02 0.  0.
         13    1    3    3    0    0  0.42740830368E+03 -0.27347963997E+03  0.46193835062E+03  0.68618948645E+03  0.00000000000E+00 0. -1.
        -13    1    3    3    0    0  0.22450956477E+03 -0.19968347534E+03  0.20866922901E+03  0.36581536618E+03  0.00000000000E+00 0.  1.
         22    1    1    2    0    0 -0.65191786845E+03  0.47316311531E+03 -0.99410675491E+03  0.12795032165E+04  0.00000000000E+00 0.  1.
<mgrwt>
<rscale>  0 0.23089561E+04</rscale>
<asrwt>0</asrwt>
<pdfrwt beam="1">  1        1 0.15446222E+00 0.23089561E+04</pdfrwt>
<pdfrwt beam="2">  1       -1 0.20423133E+00 0.23089561E+04</pdfrwt>
<totfact> 0.19096142E+00</totfact>
</mgrwt>
</event>
<event>
 6    1  0.9512547E-007  0.3774620E+04  0.7818608E-02  0.8051623E-01
         -2   -1    0    0    0  501 -0.00000000000E+00  0.00000000000E+00  0.14069005339E+04  0.14069005339E+04  0.00000000000E+00 0.  1.
          2   -1    0    0  501    0  0.00000000000E+00 -0.00000000000E+00 -0.25317635627E+04  0.25317635627E+04  0.00000000000E+00 0. -1.
         23    2    1    2    0    0  0.12268689857E+04  0.10769018755E+04  0.42241852864E+03  0.16894408139E+04  0.10415225811E+03 0.  0.
         11    1    3    3    0    0  0.68693991557E+03  0.61109326873E+03  0.18481464337E+03  0.93780482142E+03  0.00000000000E+00 0.  1.
        -11    1    3    3    0    0  0.53992907016E+03  0.46580860674E+03  0.23760388526E+03  0.75163599249E+03  0.00000000000E+00 0. -1.
         22    1    1    2    0    0 -0.12268689857E+04 -0.10769018755E+04 -0.15472815574E+04  0.22492232827E+04  0.00000000000E+00 0.  1.
<mgrwt>
<rscale>  0 0.37746203E+04</rscale>
<asrwt>0</asrwt>
<pdfrwt beam="1">  1        2 0.38950208E+00 0.37746203E+04</pdfrwt>
<pdfrwt beam="2">  1       -2 0.21644624E+00 0.37746203E+04</pdfrwt>
<totfact> 0.27906790E-01</totfact>
</mgrwt>
</event>
<event>
 6    1  0.9512547E-007  0.1781789E+04  0.7818608E-02  0.8716044E-01
         -1   -1    0    0    0  501 -0.00000000000E+00  0.00000000000E+00  0.34282989831E+03  0.34282989831E+03  0.00000000000E+00 0.  1.
          1   -1    0    0  501    0  0.00000000000E+00 -0.00000000000E+00 -0.23151228777E+04  0.23151228777E+04  0.00000000000E+00 0. -1.
         23    2    1    2    0    0  0.33801768320E+03 -0.19404483502E+03 -0.21798332886E+04  0.22163847382E+04  0.93695193387E+02 0.  0.
         13    1    3    3    0    0  0.10043407482E+03 -0.49711968671E+02 -0.88359350192E+03  0.89067152185E+03  0.00000000000E+00 0. -1.
        -13    1    3    3    0    0  0.23758360838E+03 -0.14433286635E+03 -0.12962397867E+04  0.13257132163E+04  0.00000000000E+00 0.  1.
         22    1    1    2    0    0 -0.33801768320E+03  0.19404483502E+03  0.20754030917E+03  0.44156803789E+03  0.00000000000E+00 0.  1.
<mgrwt>
<rscale>  0 0.17817894E+04</rscale>
<asrwt>0</asrwt>
<pdfrwt beam="1">  1        1 0.35617274E+00 0.17817894E+04</pdfrwt>
<pdfrwt beam="2">  1       -1 0.52743063E-01 0.17817894E+04</pdfrwt>
<totfact> 0.62269381E+00</totfact>
</mgrwt>
</event>
<event>
 6    1  0.9512547E-007  0.1490535E+04  0.7818608E-02  0.8890772E-01
          2   -1    0    0  501    0  0.00000000000E+00  0.00000000000E+00  0.26616967555E+04  0.26616967555E+04  0.00000000000E+00 0. -1.
         -2   -1    0    0    0  501 -0.00000000000E+00 -0.00000000000E+00 -0.20867276101E+03  0.20867276101E+03  0.00000000000E+00 0.  1.
         23    2    1    2    0    0 -0.51016181700E+03 -0.48857490524E+03  0.16688798661E+04  0.18149773943E+04  0.10006206468E+03 0.  0.
         13    1    3    3    0    0 -0.22073699426E+03 -0.14655223372E+03  0.59011885917E+03  0.64687142910E+03  0.00000000000E+00 0.  1.
        -13    1    3    3    0    0 -0.28942482275E+03 -0.34202267152E+03  0.10787610069E+04  0.11681059652E+04  0.00000000000E+00 0. -1.
         22    1    1    2    0    0  0.51016181700E+03  0.48857490524E+03  0.78414412843E+03  0.10553921222E+04  0.00000000000E+00 0. -1.
<mgrwt>
<rscale>  0 0.14905350E+04</rscale>
<asrwt>0</asrwt>
<pdfrwt beam="1">  1        2 0.40949178E+00 0.14905350E+04</pdfrwt>
<pdfrwt beam="2">  1       -2 0.32103504E-01 0.14905350E+04</pdfrwt>
<totfact> 0.24530958E+01</totfact>
</mgrwt>
</event>
<event>
 6    1  0.9512547E-007  0.2141003E+04  0.7818608E-02  0.8543393E-01
          2   -1    0    0  501    0  0.00000000000E+00  0.00000000000E+00  0.75516212412E+03  0.75516212412E+03  0.00000000000E+00 0. -1.
         -2   -1    0    0    0  501 -0.00000000000E+00 -0.00000000000E+00 -0.15175204652E+04  0.15175204652E+04  0.00000000000E+00 0.  1.
         23    2    1    2    0    0  0.60768036036E+03  0.12111168330E+02 -0.13145028544E+04  0.14515335989E+04  0.98030270174E+02 0.  0.
         13    1    3    3    0    0  0.31692671863E+03 -0.35631553915E+02 -0.62344613627E+03  0.70028368355E+03  0.00000000000E+00 0.  1.
        -13    1    3    3    0    0  0.29075364173E+03  0.47742722245E+02 -0.69105671812E+03  0.75124991539E+03  0.00000000000E+00 0. -1.
         22    1    1    2    0    0 -0.60768036036E+03 -0.12111168330E+02  0.55214451334E+03  0.82114899036E+03  0.00000000000E+00 0. -1.
<mgrwt>
<rscale>  0 0.21410035E+04</rscale>
<asrwt>0</asrwt>
<pdfrwt beam="1">  1        2 0.11617879E+00 0.21410035E+04</pdfrwt>
<pdfrwt beam="2">  1       -2 0.23346469E+00 0.21410035E+04</pdfrwt>
<totfact> 0.27756661E+00</totfact>
</mgrwt>
</event>
<event>
 6    1  0.9512547E-007  0.2639907E+04  0.7818608E-02  0.8354771E-01
          1   -1    0    0  501    0  0.00000000000E+00  0.00000000000E+00  0.13229173417E+04  0.13229173417E+04  0.00000000000E+00 0. -1.
         -1   -1    0    0    0  501 -0.00000000000E+00 -0.00000000000E+00 -0.13169967302E+04  0.13169967302E+04  0.00000000000E+00 0.  1.
         23    2    1    2    0    0 -0.87908779839E+03  0.12980769535E+03  0.97681668091E+03  0.13237512504E+04  0.92201679756E+02 0.  0.
         13    1    3    3    0    0 -0.29564043888E+03  0.35604051967E+02  0.39236561624E+03  0.49256643656E+03  0.00000000000E+00 0. -1.
        -13    1    3    3    0    0 -0.58344735951E+03  0.94203643382E+02  0.58445106468E+03  0.83118481383E+03  0.00000000000E+00 0.  1.
         22    1    1    2    0    0  0.87908779839E+03 -0.12980769535E+03 -0.97089606948E+03  0.13161628215E+04  0.00000000000E+00 0.  1.
<mgrwt>
<rscale>  0 0.26399074E+04</rscale>
<asrwt>0</asrwt>
<pdfrwt beam="1">  1        1 0.20352575E+00 0.26399074E+04</pdfrwt>
<pdfrwt beam="2">  1       -1 0.20261488E+00 0.26399074E+04</pdfrwt>
<totfact> 0.11040064E+00</totfact>
</mgrwt>
</event>
<event>
 6    1  0.9512547E-007  0.1131357E+04  0.7818608E-02  0.9175157E-01
          2   -1    0    0  501    0  0.00000000000E+00  0.00000000000E+00  0.88878901284E+03  0.88878901284E+03  0.00000000000E+00 0. -1.
         -2   -1    0    0    0  501 -0.00000000000E+00 -0.00000000000E+00 -0.36003152527E+03  0.36003152527E+03  0.00000000000E+00 0.  1.
         23    2    1    2    0    0  0.51721279587E+03  0.18414300464E+03  0.39904311996E+03  0.68468975582E+03  0.90260333279E+02 0.  0.
         13    1    3    3    0    0  0.16746392484E+03  0.10512835206E+03  0.13580917053E+03  0.23987552466E+03  0.00000000000E+00 0.  1.
        -13    1    3    3    0    0  0.34974887103E+03  0.79014652578E+02  0.26323394942E+03  0.44481423115E+03  0.00000000000E+00 0. -1.
         22    1    1    2    0    0 -0.51721279587E+03 -0.18414300464E+03  0.12971436761E+03  0.56413078230E+03  0.00000000000E+00 0.  1.
<mgrwt>
<rscale>  0 0.11313568E+04</rscale>
<asrwt>0</asrwt>
<pdfrwt beam="1">  1        2 0.13673677E+00 0.11313568E+04</pdfrwt>
<pdfrwt beam="2">  1       -2 0.55389465E-01 0.11313568E+04</pdfrwt>
<totfact> 0.90608070E+01</totfact>
</mgrwt>
</event>
<event>
 6    1  0.9512547E-007  0.4526977E+04  0.7818608E-02  0.7905931E-01
         -2   -1    0    0    0  501 -0.00000000000E+00  0.00000000000E+00  0.14499223142E+04  0.14499223142E+04  0.00000000000E+00 0.  1.
          2   -1    0    0  501    0  0.00000000000E+00 -0.00000000000E+00 -0.35335556545E+04  0.35335556545E+04  0.00000000000E+00 0. -1.
         23    2    1    2    0    0  0.20538920838E+04  0.89733889129E+03 -0.13826175754E+04  0.26350502222E+04  0.90379953233E+02 0.  0.
         11    1    3    3    0    0  0.10371032905E+04  0.50028485099E+03 -0.69437563168E+03  0.13446284562E+04  0.00000000000E+00 0. -1.
        -11    1    3    3    0    0  0.10167887934E+04  0.39705404030E+03 -0.68824194376E+03  0.12904217661E+04  0.00000000000E+00 0.  1.
         22    1    1    2    0    0 -0.20538920838E+04 -0.89733889129E+03 -0.70101576491E+03  0.23484277465E+04  0.00000000000E+00 0. -1.
<mgrwt>
<rscale>  0 0.45269774E+04</rscale>
<asrwt>0</asrwt>
<pdfrwt beam="1">  1        2 0.54362394E+00 0.45269774E+04</pdfrwt>
<pdfrwt beam="2">  1       -2 0.22306497E+00 0.45269774E+04</pdfrwt>
<totfact> 0.54911682E-02</totfact>
</mgrwt>
</event>
<event>
 6    1  0.9512547E-007  0.1020820E+04  0.7818608E-02  0.9286000E-01
         -2   -1    0    0    0  501 -0.00000000000E+00  0.00000000000E+00  0.83721841357E+02  0.83721841357E+02  0.00000000000E+00 0.  1.
          2   -1    0    0  501    0  0.00000000000E+00 -0.00000000000E+00 -0.31117105938E+04  0.31117105938E+04  0.00000000000E+00 0. -1.
         23    2    1    2    0    0 -0.22773451419E+03  0.44673196464E+03 -0.17464760832E+04  0.18193120994E+04  0.91023889617E+02 0.  0.
         11    1    3    3    0    0 -0.14381587982E+03  0.22331325036E+03 -0.10502206238E+04  0.10832890536E+04  0.00000000000E+00 0. -1.
        -11    1    3    3    0    0 -0.83918634374E+02  0.22341871428E+03 -0.69625545949E+03  0.73602304580E+03  0.00000000000E+00 0.  1.
         22    1    1    2    0    0  0.22773451419E+03 -0.44673196464E+03 -0.12815126692E+04  0.13761203358E+04  0.00000000000E+00 0. -1.
<mgrwt>
<rscale>  0 0.10208196E+04</rscale>
<asrwt>0</asrwt>
<pdfrwt beam="1">  1        2 0.47872472E+00 0.10208196E+04</pdfrwt>
<pdfrwt beam="2">  1       -2 0.12880283E-01 0.10208196E+04</pdfrwt>
<totfact> 0.68673449E+01</totfact>
</mgrwt>
</event>
<event>
 6    1  0.9512547E-007  0.1194517E+04  0.7818608E-02  0.9117669E-01
         -1   -1    0    0    0  501 -0.00000000000E+00  0.00000000000E+00  0.13804519682E+04  0.13804519682E+04  0.00000000000E+00 0.  1.
          1   -1    0    0  501    0  0.00000000000E+00 -0.00000000000E+00 -0.25840650638E+03  0.25840650638E+03  0.00000000000E+00 0. -1.
         23    2    1    2    0    0 -0.43928092147E+03 -0.29508095014E+03  0.19479035597E+03  0.57122439568E+03  0.91178573870E+02 0.  0.
         11    1    3    3    0    0 -0.12663794343E+03 -0.12877692529E+03  0.41329918619E+02  0.18528040203E+03  0.00000000000E+00 0. -1.
        -11    1    3    3    0    0 -0.31264297804E+03 -0.16630402485E+03  0.15346043735E+03  0.38594399364E+03  0.00000000000E+00 0.  1.
         22    1    1    2    0    0  0.43928092147E+03  0.29508095014E+03  0.92725510591E+03  0.10676340789E+04  0.00000000000E+00 0.  1.
<mgrwt>
<rscale>  0 0.11945171E+04</rscale>
<asrwt>0</asrwt>
<pdfrwt beam="1">  1        1 0.39754848E-01 0.11945171E+04</pdfrwt>
<pdfrwt beam="2">  1       -1 0.21237722E+00 0.11945171E+04</pdfrwt>
<totfact> 0.13072952E+01</totfact>
</mgrwt>
</event>
<event>
 6    1  0.9512547E-007  0.2504176E+04  0.7818608E-02  0.8401499E-01
          2   -1    0    0  501    0  0.00000000000E+00  0.00000000000E+00  0.26863862716E+04  0.26863862716E+04  0.00000000000E+00 0. -1.
         -2   -1    0    0    0  501 -0.00000000000E+00 -0.00000000000E+00 -0.58358103026E+03  0.58358103026E+03  0.00000000000E+00 0.  1.
         23    2    1    2    0    0  0.51348989548E+03  0.87815540888E+03  0.20016846515E+04  0.22476883925E+04  0.10262977359E+03 0.  0.
         13    1    3    3    0    0  0.28312335449E+03  0.58111654630E+03  0.12816611505E+04  0.14354478670E+04  0.00000000000E+00 0.  1.
        -13    1    3    3    0    0  0.23036654099E+03  0.29703886258E+03  0.72002350106E+03  0.81224052544E+03  0.00000000000E+00 0. -1.
         22    1    1    2    0    0 -0.51348989548E+03 -0.87815540888E+03  0.10112058979E+03  0.10222789094E+04  0.00000000000E+00 0.  1.
<mgrwt>
<rscale>  0 0.25041758E+04</rscale>
<asrwt>0</asrwt>
<pdfrwt beam="1">  1        2 0.41329019E+00 0.25041758E+04</pdfrwt>
<pdfrwt beam="2">  1       -2 0.89781699E-01 0.25041758E+04</pdfrwt>
<totfact> 0.25632446E+00</totfact>
</mgrwt>
</event>
<event>
 6    1  0.9512547E-007  0.2012701E+04  0.7818608E-02  0.8600706E-01
          1   -1    0    0  501    0  0.00000000000E+00  0.00000000000E+00  0.70446771077E+03  0.70446771077E+03  0.00000000000E+00 0. -1.
         -1   -1    0    0    0  501 -0.00000000000E+00 -0.00000000000E+00 -0.14375972565E+04  0.14375972565E+04  0.00000000000E+00 0.  1.
         23    2    1    2    0    0 -0.80042776366E+02  0.96810198515E+03 -0.63849657139E+03  0.11660610229E+04  0.91608611364E+02 0.  0.
         11    1    3    3    0    0  0.14687491067E+02  0.27382992584E+03 -0.20087319632E+03  0.33992439112E+03  0.00000000000E+00 0. -1.
        -11    1    3    3    0    0 -0.94730267433E+02  0.69427205931E+03 -0.43762337507E+03  0.82613663174E+03  0.00000000000E+00 0.  1.
         22    1    1    2    0    0  0.80042776366E+02 -0.96810198515E+03 -0.94632974361E+02  0.97600394442E+03  0.00000000000E+00 0.  1.
<mgrwt>
<rscale>  0 0.20127005E+04</rscale>
<asrwt>0</asrwt>
<pdfrwt beam="1">  1        1 0.10837965E+00 0.20127005E+04</pdfrwt>
<pdfrwt beam="2">  1       -1 0.22116881E+00 0.20127005E+04</pdfrwt>
<totfact> 0.27019022E+00</totfact>
</mgrwt>
</event>
<event>
 6    1  0.9512547E-007  0.1154498E+04  0.7818608E-02  0.9153644E-01
         -2   -1    0    0    0  501 -0.00000000000E+00  0.00000000000E+00  0.96570936827E+02  0.96570936827E+02  0.00000000000E+00 0.  1.
          2   -1    0    0  501    0  0.00000000000E+00 -0.00000000000E+00 -0.34504831600E+04  0.34504831600E+04  0.00000000000E+00 0. -1.
         23    2    1    2    0    0  0.82340301704E+02 -0.53602556922E+03 -0.22629458782E+04  0.23287311093E+04  0.89225531585E+02 0.  0.
         13    1    3    3    0    0  0.56808125323E+02 -0.22706803060E+03 -0.11398301573E+04  0.11636149883E+04  0.00000000000E+00 0. -1.
        -13    1    3    3    0    0  0.25532176381E+02 -0.30895753861E+03 -0.11231157210E+04  0.11651161210E+04  0.00000000000E+00 0.  1.
         22    1    1    2    0    0 -0.82340301704E+02  0.53602556922E+03 -0.10909663449E+04  0.12183229875E+04  0.00000000000E+00 0.  1.
<mgrwt>
<rscale>  0 0.11544980E+04</rscale>
<asrwt>0</asrwt>
<pdfrwt beam="1">  1        2 0.53084358E+00 0.11544980E+04</pdfrwt>
<pdfrwt beam="2">  1       -2 0.14857067E-01 0.11544980E+04</pdfrwt>
<totfact> 0.31937045E+01</totfact>
</mgrwt>
</event>
<event>
 6    1  0.9512547E-007  0.4549462E+04  0.7818608E-02  0.7902034E-01
         -2   -1    0    0    0  501 -0.00000000000E+00  0.00000000000E+00  0.28977914806E+04  0.28977914806E+04  0.00000000000E+00 0.  1.
          2   -1    0    0  501    0  0.00000000000E+00 -0.00000000000E+00 -0.17856362233E+04  0.17856362233E+04  0.00000000000E+00 0. -1.
         23    2    1    2    0    0  0.20037746719E+04  0.10740782409E+04  0.51803511469E+03  0.23335903166E+04  0.92338412064E+02 0.  0.
         11    1    3    3    0    0  0.63835122484E+03  0.32146677254E+03  0.12317655403E+03  0.72526245978E+03  0.00000000000E+00 0. -1.
        -11    1    3    3    0    0  0.13654234470E+04  0.75261146841E+03  0.39485856066E+03  0.16083278568E+04  0.00000000000E+00 0.  1.
         22    1    1    2    0    0 -0.20037746719E+04 -0.10740782409E+04  0.59412014261E+03  0.23498373874E+04  0.00000000000E+00 0.  1.
<mgrwt>
<rscale>  0 0.45494621E+04</rscale>
<asrwt>0</asrwt>
<pdfrwt beam="1">  1        2 0.27471326E+00 0.45494621E+04</pdfrwt>
<pdfrwt beam="2">  1       -2 0.44581407E+00 0.45494621E+04</pdfrwt>
<totfact> 0.24568923E-02</totfact>
</mgrwt>
</event>
<event>
 6    1  0.9512547E-007  0.1674101E+04  0.7818608E-02  0.8776275E-01
          1   -1    0    0  501    0  0.00000000000E+00  0.00000000000E+00  0.36974977494E+03  0.36974977494E+03  0.00000000000E+00 0. -1.
         -1   -1    0    0    0  501 -0.00000000000E+00 -0.00000000000E+00 -0.18949398835E+04  0.18949398835E+04  0.00000000000E+00 0.  1.
         23    2    1    2    0    0  0.10878810527E+03  0.82744474381E+03 -0.75605735612E+03  0.11297602127E+04  0.90751069000E+02 0.  0.
         11    1    3    3    0    0  0.11758063362E+03  0.61422447209E+03 -0.58357504500E+03  0.85536935920E+03  0.00000000000E+00 0. -1.
        -11    1    3    3    0    0 -0.87925283534E+01  0.21322027172E+03 -0.17248231112E+03  0.27439085349E+03  0.00000000000E+00 0.  1.
         22    1    1    2    0    0 -0.10878810527E+03 -0.82744474381E+03 -0.76913275239E+03  0.11349294457E+04  0.00000000000E+00 0. -1.
<mgrwt>
<rscale>  0 0.16741011E+04</rscale>
<asrwt>0</asrwt>
<pdfrwt beam="1">  1        1 0.56884581E-01 0.16741011E+04</pdfrwt>
<pdfrwt beam="2">  1       -1 0.29152921E+00 0.16741011E+04</pdfrwt>
<totfact> 0.23837644E+00</totfact>
</mgrwt>
</event>
<event>
 6    1  0.9512547E-007  0.1832869E+04  0.7818608E-02  0.8689013E-01
         -3   -1    0    0    0  501 -0.00000000000E+00  0.00000000000E+00  0.11915584402E+04  0.11915584402E+04  0.00000000000E+00 0.  1.
          3   -1    0    0  501    0  0.00000000000E+00 -0.00000000000E+00 -0.70483520314E+03  0.70483520314E+03  0.00000000000E+00 0. -1.
         23    2    1    2    0    0  0.20719765743E+03  0.60840447626E+03 -0.42866201192E+03  0.77790491741E+03  0.91093710466E+02 0.  0.
         13    1    3    3    0    0  0.14205143204E+03  0.50208828215E+03 -0.31709853516E+03  0.61059211706E+03  0.00000000000E+00 0. -1.
        -13    1    3    3    0    0  0.65146225393E+02  0.10631619411E+03 -0.11156347676E+03  0.16731280035E+03  0.00000000000E+00 0.  1.
         22    1    1    2    0    0 -0.20719765743E+03 -0.60840447626E+03  0.91538524895E+03  0.11184887259E+04  0.00000000000E+00 0.  1.
<mgrwt>
<rscale>  0 0.18328692E+04</rscale>
<asrwt>0</asrwt>
<pdfrwt beam="1">  1        3 0.10843619E+00 0.18328692E+04</pdfrwt>
<pdfrwt beam="2">  1       -3 0.18331668E+00 0.18328692E+04</pdfrwt>
<totfact> 0.33421755E-01</totfact>
</mgrwt>
</event>
<event>
 6    1  0.9512547E-007  0.5984566E+03  0.7818608E-02  0.9908613E-01
         -2   -1    0    0    0  501 -0.00000000000E+00  0.00000000000E+00  0.12240386172E+03  0.12240386172E+03  0.00000000000E+00 0.  1.
          2   -1    0    0  501    0  0.00000000000E+00 -0.00000000000E+00 -0.73149305530E+03  0.73149305530E+03  0.00000000000E+00 0. -1.
         23    2    1    2    0    0 -0.91700323916E+02  0.26638223746E+03 -0.20083233938E+03  0.35787060235E+03  0.91483843621E+02 0.  0.
         13    1    3    3    0    0 -0.23513737261E+02  0.13950632648E+02  0.13022127201E+01  0.27371732667E+02  0.00000000000E+00 0.  1.
        -13    1    3    3    0    0 -0.68186586655E+02  0.25243160481E+03 -0.20213455210E+03  0.33049886968E+03  0.00000000000E+00 0. -1.
         22    1    1    2    0    0  0.91700323916E+02 -0.26638223746E+03 -0.40825685420E+03  0.49602631467E+03  0.00000000000E+00 0. -1.
<mgrwt>
<rscale>  0 0.59845660E+03</rscale>
<asrwt>0</asrwt>
<pdfrwt beam="1">  1        2 0.11253739E+00 0.59845660E+03</pdfrwt>
<pdfrwt beam="2">  1       -2 0.18831363E-01 0.59845660E+03</pdfrwt>
<totfact> 0.92282345E+02</totfact>
</mgrwt>
</event>
<event>
 6    1  0.9512547E-007  0.1016124E+04  0.7818608E-02  0.9291035E-01
         -2   -1    0    0    0  501 -0.00000000000E+00  0.00000000000E+00  0.11355065469E+03  0.11355065469E+03  0.00000000000E+00 0.  1.
          2   -1    0    0  501    0  0.00000000000E+00 -0.00000000000E+00 -0.22732310691E+04  0.22732310691E+04  0.00000000000E+00 0. -1.
         23    2    1    2    0    0 -0.11019104061E+03 -0.49162330849E+03 -0.11106195098E+04  0.12230101292E+04  0.91883282542E+02 0.  0.
         13    1    3    3    0    0 -0.26427489709E+02 -0.27755564328E+03 -0.67852874981E+03  0.73357808831E+03  0.00000000000E+00 0. -1.
        -13    1    3    3    0    0 -0.83763550900E+02 -0.21406766520E+03 -0.43209076000E+03  0.48943204086E+03  0.00000000000E+00 0.  1.
         22    1    1    2    0    0  0.11019104061E+03  0.49162330849E+03 -0.10490609046E+04  0.11637715946E+04  0.00000000000E+00 0.  1.
<mgrwt>
<rscale>  0 0.10161238E+04</rscale>
<asrwt>0</asrwt>
<pdfrwt beam="1">  1        2 0.34972783E+00 0.10161238E+04</pdfrwt>
<pdfrwt beam="2">  1       -2 0.17469333E-01 0.10161238E+04</pdfrwt>
<totfact> 0.12766823E+02</totfact>
</mgrwt>
</event>
<event>
 6    1  0.9512547E-007  0.2769765E+04  0.7818608E-02  0.8312717E-01
          1   -1    0    0  501    0  0.00000000000E+00  0.00000000000E+00  0.19140724587E+04  0.19140724587E+04  0.00000000000E+00 0. -1.
         -1   -1    0    0    0  501 -0.00000000000E+00 -0.00000000000E+00 -0.10019994193E+04  0.10019994193E+04  0.00000000000E+00 0.  1.
         23    2    1    2    0    0  0.63859438552E+03  0.79357710718E+02  0.17458390860E+04  0.18628547798E+04  0.90406752849E+02 0.  0.
         11    1    3    3    0    0  0.27611399468E+03  0.72674665465E+02  0.83787140081E+03  0.88518304850E+03  0.00000000000E+00 0. -1.
        -11    1    3    3    0    0  0.36248039084E+03  0.66830452528E+01  0.90796768523E+03  0.97767173134E+03  0.00000000000E+00 0.  1.
         22    1    1    2    0    0 -0.63859438552E+03 -0.79357710718E+02 -0.83376604660E+03  0.10532170982E+04  0.00000000000E+00 0.  1.
<mgrwt>
<rscale>  0 0.27697650E+04</rscale>
<asrwt>0</asrwt>
<pdfrwt beam="1">  1        1 0.29447269E+00 0.27697650E+04</pdfrwt>
<pdfrwt beam="2">  1       -1 0.15415376E+00 0.27697650E+04</pdfrwt>
<totfact> 0.95827260E-01</totfact>
</mgrwt>
</event>
<event>
 6    1  0.9512547E-007  0.2062169E+04  0.7818608E-02  0.8578094E-01
         -2   -1    0    0    0  501 -0.00000000000E+00  0.00000000000E+00  0.53983516865E+03  0.53983516865E+03  0.00000000000E+00 0.  1.
          2   -1    0    0  501    0  0.00000000000E+00 -0.00000000000E+00 -0.19693694035E+04  0.19693694035E+04  0.00000000000E+00 0. -1.
         23    2    1    2    0    0  0.69817365366E+03 -0.66125250179E+03 -0.11618377478E+04  0.15110248634E+04  0.92886295418E+02 0.  0.
         11    1    3    3    0    0  0.57841412933E+02 -0.89611038275E+02 -0.10715551194E+03  0.15118885861E+03  0.00000000000E+00 0. -1.
        -11    1    3    3    0    0  0.64033224072E+03 -0.57164146352E+03 -0.10546822358E+04  0.13598360048E+04  0.00000000000E+00 0.  1.
         22    1    1    2    0    0 -0.69817365366E+03  0.66125250179E+03 -0.26769648710E+03  0.99817970876E+03  0.00000000000E+00 0.  1.
<mgrwt>
<rscale>  0 0.20621686E+04</rscale>
<asrwt>0</asrwt>
<pdfrwt beam="1">  1        2 0.30297991E+00 0.20621686E+04</pdfrwt>
<pdfrwt beam="2">  1       -2 0.83051564E-01 0.20621686E+04</pdfrwt>
<totfact> 0.81576714E+00</totfact>
</mgrwt>
</event>
<event>
 6    1  0.9512547E-007  0.2109828E+04  0.7818608E-02  0.8556926E-01
          1   -1    0    0  501    0  0.00000000000E+00  0.00000000000E+00  0.48282845328E+03  0.48282845328E+03  0.00000000000E+00 0. -1.
         -1   -1    0    0    0  501 -0.00000000000E+00 -0.00000000000E+00 -0.23048422916E+04  0.23048422916E+04  0.00000000000E+00 0.  1.
         23    2    1    2    0    0  0.22177581491E+03  0.99952879857E+03 -0.58212200614E+03  0.11796987032E+04  0.67680640805E+02 0.  0.
         13    1    3    3    0    0  0.81889423552E+02  0.38936762634E+03 -0.18889879162E+03  0.44044951993E+03  0.00000000000E+00 0.  1.
        -13    1    3    3    0    0  0.13988639136E+03  0.61016117223E+03 -0.39322321452E+03  0.73924918331E+03  0.00000000000E+00 0. -1.
         22    1    1    2    0    0 -0.22177581491E+03 -0.99952879857E+03 -0.12398918322E+04  0.16079720417E+04  0.00000000000E+00 0.  1.
<mgrwt>
<rscale>  0 0.21098279E+04</rscale>
<asrwt>0</asrwt>
<pdfrwt beam="1">  1        1 0.74281300E-01 0.21098279E+04</pdfrwt>
<pdfrwt beam="2">  1       -1 0.35459113E+00 0.21098279E+04</pdfrwt>
<totfact> 0.61979305E-01</totfact>
</mgrwt>
</event>
<event>
 6    1  0.9512547E-007  0.2956345E+04  0.7818608E-02  0.8256308E-01
          1   -1    0    0  501    0  0.00000000000E+00  0.00000000000E+00  0.15787113822E+04  0.15787113822E+04  0.00000000000E+00 0. -1.
         -1   -1    0    0    0  501 -0.00000000000E+00 -0.00000000000E+00 -0.13840359710E+04  0.13840359710E+04  0.00000000000E+00 0.  1.
         23    2    1    2    0    0 -0.42898421409E+03 -0.88978973079E+03 -0.10027397863E+04  0.14104727718E+04  0.90515965457E+02 0.  0.
         13    1    3    3    0    0 -0.35861457500E+03 -0.80821888930E+03 -0.89506586718E+03  0.12581594068E+04  0.00000000000E+00 0.  1.
        -13    1    3    3    0    0 -0.70369639096E+02 -0.81570841488E+02 -0.10767391909E+03  0.15231336494E+03  0.00000000000E+00 0. -1.
         22    1    1    2    0    0  0.42898421409E+03  0.88978973079E+03  0.11974151975E+04  0.15522745814E+04  0.00000000000E+00 0. -1.
<mgrwt>
<rscale>  0 0.29563446E+04</rscale>
<asrwt>0</asrwt>
<pdfrwt beam="1">  1        1 0.24287868E+00 0.29563446E+04</pdfrwt>
<pdfrwt beam="2">  1       -1 0.21292861E+00 0.29563446E+04</pdfrwt>
<totfact> 0.60551511E-01</totfact>
</mgrwt>
</event>
<event>
 6    1  0.1090841E-006  0.2997293E+04  0.7818608E-02  0.8244504E-01
         -1   -1    0    0    0  501 -0.00000000000E+00  0.00000000000E+00  0.89141908414E+03  0.89141908414E+03  0.00000000000E+00 0.  1.
          1   -1    0    0  501    0  0.00000000000E+00 -0.00000000000E+00 -0.25195119690E+04  0.25195119690E+04  0.00000000000E+00 0. -1.
         23    2    1    2    0    0  0.14680108274E+04 -0.12332003455E+03 -0.11196422305E+04  0.18524748657E+04  0.88322043884E+02 0.  0.
         11    1    3    3    0    0  0.32756051480E+03 -0.15382316825E+02 -0.29374482688E+03  0.44024825934E+03  0.00000000000E+00 0.  1.
        -11    1    3    3    0    0  0.11404503126E+04 -0.10793771772E+03 -0.82589740361E+03  0.14122266064E+04  0.00000000000E+00 0. -1.
         22    1    1    2    0    0 -0.14680108274E+04  0.12332003455E+03 -0.50845065438E+03  0.15584561875E+04  0.00000000000E+00 0. -1.
<mgrwt>
<rscale>  0 0.29972928E+04</rscale>
<asrwt>0</asrwt>
<pdfrwt beam="1">  1        1 0.38761722E+00 0.29972928E+04</pdfrwt>
<pdfrwt beam="2">  1       -1 0.13714140E+00 0.29972928E+04</pdfrwt>
<totfact> 0.49422349E-01</totfact>
</mgrwt>
</event>
<event>
 6    1  0.9512547E-007  0.1853457E+04  0.7818608E-02  0.8678377E-01
         -2   -1    0    0    0  501 -0.00000000000E+00  0.00000000000E+00  0.69384080584E+03  0.69384080584E+03  0.00000000000E+00 0.  1.
          2   -1    0    0  501    0  0.00000000000E+00 -0.00000000000E+00 -0.12377844517E+04  0.12377844517E+04  0.00000000000E+00 0. -1.
         23    2    1    2    0    0 -0.26459101745E+03 -0.30227813456E+03 -0.11400940436E+04  0.12127540772E+04  0.97864939862E+02 0.  0.
         13    1    3    3    0    0 -0.26275783247E+02 -0.84165329401E+02 -0.29983658769E+03  0.31253191641E+03  0.00000000000E+00 0. -1.
        -13    1    3    3    0    0 -0.23831523421E+03 -0.21811280516E+03 -0.84025745587E+03  0.90022216079E+03  0.00000000000E+00 0.  1.
         22    1    1    2    0    0  0.26459101745E+03  0.30227813456E+03  0.59615039774E+03  0.71887118031E+03  0.00000000000E+00 0.  1.
<mgrwt>
<rscale>  0 0.18534566E+04</rscale>
<asrwt>0</asrwt>
<pdfrwt beam="1">  1        2 0.19042838E+00 0.18534566E+04</pdfrwt>
<pdfrwt beam="2">  1       -2 0.10674474E+00 0.18534566E+04</pdfrwt>
<totfact> 0.11946428E+01</totfact>
</mgrwt>
</event>
<event>
 6    1  0.9512547E-007  0.2412902E+04  0.7818608E-02  0.8434689E-01
         -2   -1    0    0    0  501 -0.00000000000E+00  0.00000000000E+00  0.58166988412E+03  0.58166988412E+03  0.00000000000E+00 0.  1.
          2   -1    0    0  501    0  0.00000000000E+00 -0.00000000000E+00 -0.25023194344E+04  0.25023194344E+04  0.00000000000E+00 0. -1.
         23    2    1    2    0    0  0.95867535991E+03  0.52342572690E+03 -0.31209778137E+03  0.11396457968E+04  0.91403389883E+02 0.  0.
         13    1    3    3    0    0  0.23824260541E+02  0.70568941726E+01  0.54848446846E+01  0.25445602113E+02  0.00000000000E+00 0.  1.
        -13    1    3    3    0    0  0.93485109937E+03  0.51636883273E+03 -0.31758262605E+03  0.11142001947E+04  0.00000000000E+00 0. -1.
         22    1    1    2    0    0 -0.95867535991E+03 -0.52342572690E+03 -0.16085517689E+04  0.19443435218E+04  0.00000000000E+00 0.  1.
<mgrwt>
<rscale>  0 0.24129019E+04</rscale>
<asrwt>0</asrwt>
<pdfrwt beam="1">  1        2 0.38497222E+00 0.24129019E+04</pdfrwt>
<pdfrwt beam="2">  1       -2 0.89487674E-01 0.24129019E+04</pdfrwt>
<totfact> 0.33377402E+00</totfact>
</mgrwt>
</event>
<event>
 6    1  0.9512547E-007  0.2512579E+04  0.7818608E-02  0.8398518E-01
          2   -1    0    0  501    0  0.00000000000E+00  0.00000000000E+00  0.19065135261E+04  0.19065135261E+04  0.00000000000E+00 0. -1.
         -2   -1    0    0    0  501 -0.00000000000E+00 -0.00000000000E+00 -0.82782720569E+03  0.82782720569E+03  0.00000000000E+00 0.  1.
         23    2    1    2    0    0 -0.84775841360E+03  0.69410115665E+03 -0.12493406089E+03  0.11067127750E+04  0.93455354305E+02 0.  0.
         13    1    3    3    0    0 -0.31462494142E+03  0.20356791118E+03 -0.57311551820E+02  0.37909545262E+03  0.00000000000E+00 0.  1.
        -13    1    3    3    0    0 -0.53313347219E+03  0.49053324547E+03 -0.67622509069E+02  0.72761732236E+03  0.00000000000E+00 0. -1.
         22    1    1    2    0    0  0.84775841360E+03 -0.69410115665E+03  0.12036203813E+04  0.16276279568E+04  0.00000000000E+00 0. -1.
<mgrwt>
<rscale>  0 0.25125794E+04</rscale>
<asrwt>0</asrwt>
<pdfrwt beam="1">  1        2 0.29330977E+00 0.25125794E+04</pdfrwt>
<pdfrwt beam="2">  1       -2 0.12735803E+00 0.25125794E+04</pdfrwt>
<totfact> 0.30693388E+00</totfact>
</mgrwt>
</event>
<event>
 6    1  0.1228640E-006  0.4108049E+04  0.7818608E-02  0.7983097E-01
         -2   -1    0    0    0  501 -0.00000000000E+00  0.00000000000E+00  0.19137611625E+04  0.19137611625E+04  0.00000000000E+00 0.  1.
          2   -1    0    0  501    0  0.00000000000E+00 -0.00000000000E+00 -0.22045682247E+04  0.22045682247E+04  0.00000000000E+00 0. -1.
         23    2    1    2    0    0 -0.42600226192E+03  0.19620525644E+04 -0.57543844589E+03  0.20904873773E+04  0.88768670614E+02 0.  0.
         11    1    3    3    0    0 -0.14080796990E+03  0.48951553831E+03 -0.16547192281E+03  0.53556820656E+03  0.00000000000E+00 0.  1.
        -11    1    3    3    0    0 -0.28519429202E+03  0.14725370261E+04 -0.40996652308E+03  0.15549191707E+04  0.00000000000E+00 0. -1.
         22    1    1    2    0    0  0.42600226192E+03 -0.19620525644E+04  0.28463138365E+03  0.20278420099E+04  0.00000000000E+00 0.  1.
<mgrwt>
<rscale>  0 0.41080492E+04</rscale>
<asrwt>0</asrwt>
<pdfrwt beam="1">  1        2 0.33916434E+00 0.41080492E+04</pdfrwt>
<pdfrwt beam="2">  1       -2 0.29442479E+00 0.41080492E+04</pdfrwt>
<totfact> 0.13802630E-01</totfact>
</mgrwt>
</event>
<event>
 6    1  0.9512547E-007  0.1297031E+04  0.7818608E-02  0.9031923E-01
          2   -1    0    0  501    0  0.00000000000E+00  0.00000000000E+00  0.30960561377E+04  0.30960561377E+04  0.00000000000E+00 0. -1.
         -2   -1    0    0    0  501 -0.00000000000E+00 -0.00000000000E+00 -0.13584126449E+03  0.13584126449E+03  0.00000000000E+00 0.  1.
         23    2    1    2    0    0  0.55929009555E+03 -0.32055041557E+03  0.15518197483E+04  0.16829833284E+04  0.93436463800E+02 0.  0.
         11    1    3    3    0    0  0.30360055898E+03 -0.19813598925E+03  0.76239553481E+03  0.84420265407E+03  0.00000000000E+00 0. -1.
        -11    1    3    3    0    0  0.25568953657E+03 -0.12241442632E+03  0.78942421346E+03  0.83878067437E+03  0.00000000000E+00 0.  1.
         22    1    1    2    0    0 -0.55929009555E+03  0.32055041557E+03  0.14083951250E+04  0.15489140738E+04  0.00000000000E+00 0.  1.
<mgrwt>
<rscale>  0 0.12970307E+04</rscale>
<asrwt>0</asrwt>
<pdfrwt beam="1">  1        2 0.47631628E+00 0.12970307E+04</pdfrwt>
<pdfrwt beam="2">  1       -2 0.20898658E-01 0.12970307E+04</pdfrwt>
<totfact> 0.29738899E+01</totfact>
</mgrwt>
</event>
<event>
 6    1  0.9512547E-007  0.3526774E+04  0.7818608E-02  0.8107474E-01
          2   -1    0    0  501    0  0.00000000000E+00  0.00000000000E+00  0.39219200729E+04  0.39219200729E+04  0.00000000000E+00 0. -1.
         -2   -1    0    0    0  501 -0.00000000000E+00 -0.00000000000E+00 -0.79285987706E+03  0.79285987706E+03  0.00000000000E+00 0.  1.
         23    2    1    2    0    0  0.16021718465E+04 -0.28314878531E+03  0.24708209708E+04  0.29596711962E+04  0.87002641350E+02 0.  0.
         11    1    3    3    0    0  0.50473686535E+03 -0.52260924822E+02  0.73850956948E+03  0.89603955924E+03  0.00000000000E+00 0.  1.
        -11    1    3    3    0    0  0.10974349811E+04 -0.23088786049E+03  0.17323114014E+04  0.20636316370E+04  0.00000000000E+00 0. -1.
         22    1    1    2    0    0 -0.16021718465E+04  0.28314878531E+03  0.65823922503E+03  0.17551087538E+04  0.00000000000E+00 0.  1.
<mgrwt>
<rscale>  0 0.35267736E+04</rscale>
<asrwt>0</asrwt>
<pdfrwt beam="1">  1        2 0.60337231E+00 0.35267736E+04</pdfrwt>
<pdfrwt beam="2">  1       -2 0.12197844E+00 0.35267736E+04</pdfrwt>
<totfact> 0.16470710E-01</totfact>
</mgrwt>
</event>
<event>
 6    1  0.9512547E-007  0.1989132E+04  0.7818608E-02  0.8611719E-01
          1   -1    0    0  501    0  0.00000000000E+00  0.00000000000E+00  0.83103305349E+03  0.83103305349E+03  0.00000000000E+00 0. -1.
         -1   -1    0    0    0  501 -0.00000000000E+00 -0.00000000000E+00 -0.11902789353E+04  0.11902789353E+04  0.00000000000E+00 0.  1.
         23    2    1    2    0    0 -0.78854896219E+03 -0.50898325260E+01 -0.79241624531E+03  0.11216054055E+04  0.90773386126E+02 0.  0.
         11    1    3    3    0    0 -0.30497143116E+03 -0.26646685218E+02 -0.25593850521E+03  0.39902648797E+03  0.00000000000E+00 0.  1.
        -11    1    3    3    0    0 -0.48357753103E+03  0.21556852692E+02 -0.53647774010E+03  0.72257891752E+03  0.00000000000E+00 0. -1.
         22    1    1    2    0    0  0.78854896219E+03  0.50898325260E+01  0.43317036352E+03  0.89970658328E+03  0.00000000000E+00 0. -1.
<mgrwt>
<rscale>  0 0.19891316E+04</rscale>
<asrwt>0</asrwt>
<pdfrwt beam="1">  1        1 0.12785124E+00 0.19891316E+04</pdfrwt>
<pdfrwt beam="2">  1       -1 0.18311984E+00 0.19891316E+04</pdfrwt>
<totfact> 0.38147768E+00</totfact>
</mgrwt>
</event>
<event>
 6    1  0.9512547E-007  0.2364259E+04  0.7818608E-02  0.8453007E-01
         -2   -1    0    0    0  501 -0.00000000000E+00  0.00000000000E+00  0.86647730593E+03  0.86647730593E+03  0.00000000000E+00 0.  1.
          2   -1    0    0  501    0  0.00000000000E+00 -0.00000000000E+00 -0.16127711591E+04  0.16127711591E+04  0.00000000000E+00 0. -1.
         23    2    1    2    0    0 -0.25183118228E+03 -0.26417723422E+03 -0.15509308427E+04  0.15957048949E+04  0.87630346064E+02 0.  0.
         13    1    3    3    0    0 -0.12354591925E+03 -0.14276270606E+03 -0.98206274040E+03  0.10000460042E+04  0.00000000000E+00 0. -1.
        -13    1    3    3    0    0 -0.12828526303E+03 -0.12141452815E+03 -0.56886810226E+03  0.59565889074E+03  0.00000000000E+00 0.  1.
         22    1    1    2    0    0  0.25183118228E+03  0.26417723422E+03  0.80463698948E+03  0.88354357011E+03  0.00000000000E+00 0.  1.
<mgrwt>
<rscale>  0 0.23642585E+04</rscale>
<asrwt>0</asrwt>
<pdfrwt beam="1">  1        2 0.24811864E+00 0.23642585E+04</pdfrwt>
<pdfrwt beam="2">  1       -2 0.13330420E+00 0.23642585E+04</pdfrwt>
<totfact> 0.40317634E+00</totfact>
</mgrwt>
</event>
<event>
 6    1  0.9512547E-007  0.2371357E+04  0.7818608E-02  0.8450306E-01
         -1   -1    0    0    0  501 -0.00000000000E+00  0.00000000000E+00  0.11551523500E+04  0.11551523500E+04  0.00000000000E+00 0.  1.
          1   -1    0    0  501    0  0.00000000000E+00 -0.00000000000E+00 -0.12170110793E+04  0.12170110793E+04  0.00000000000E+00 0. -1.
         23    2    1    2    0    0 -0.46203566613E+03  0.81425772433E+03 -0.75581916262E+03  0.12067992453E+04  0.92785847115E+02 0.  0.
         11    1    3    3    0    0 -0.71840963907E+02  0.19702076010E+03 -0.19050200760E+03  0.28331840551E+03  0.00000000000E+00 0. -1.
        -11    1    3    3    0    0 -0.39019470222E+03  0.61723696424E+03 -0.56531715502E+03  0.92348083977E+03  0.00000000000E+00 0.  1.
         22    1    1    2    0    0  0.46203566613E+03 -0.81425772433E+03  0.69396043327E+03  0.11653641840E+04  0.00000000000E+00 0.  1.
<mgrwt>
<rscale>  0 0.23713567E+04</rscale>
<asrwt>0</asrwt>
<pdfrwt beam="1">  1        1 0.18723247E+00 0.23713567E+04</pdfrwt>
<pdfrwt beam="2">  1       -1 0.17771575E+00 0.23713567E+04</pdfrwt>
<totfact> 0.20165112E+00</totfact>
</mgrwt>
</event>
<event>
 6    1  0.9512547E-007  0.3234842E+04  0.7818608E-02  0.8179676E-01
          1   -1    0    0  501    0  0.00000000000E+00  0.00000000000E+00  0.12914506325E+04  0.12914506325E+04  0.00000000000E+00 0. -1.
         -1   -1    0    0    0  501 -0.00000000000E+00 -0.00000000000E+00 -0.20256680346E+04  0.20256680346E+04  0.00000000000E+00 0.  1.
         23    2    1    2    0    0  0.88455052427E+03  0.13382995211E+04 -0.16590021549E+03  0.16152198267E+04  0.89089667740E+02 0.  0.
         11    1    3    3    0    0  0.42818813330E+03  0.72538405956E+03 -0.99346168980E+02  0.84817260782E+03  0.00000000000E+00 0.  1.
        -11    1    3    3    0    0  0.45636239097E+03  0.61291546158E+03 -0.66554046509E+02  0.76704721891E+03  0.00000000000E+00 0. -1.
         22    1    1    2    0    0 -0.88455052427E+03 -0.13382995211E+04 -0.56831718655E+03  0.17018988404E+04  0.00000000000E+00 0.  1.
<mgrwt>
<rscale>  0 0.32348417E+04</rscale>
<asrwt>0</asrwt>
<pdfrwt beam="1">  1        1 0.19868471E+00 0.32348417E+04</pdfrwt>
<pdfrwt beam="2">  1       -1 0.31164123E+00 0.32348417E+04</pdfrwt>
<totfact> 0.21228992E-01</totfact>
</mgrwt>
</event>
<event>
 6    1  0.9512547E-007  0.3404631E+04  0.7818608E-02  0.8136771E-01
         -2   -1    0    0    0  501 -0.00000000000E+00  0.00000000000E+00  0.14844274199E+04  0.14844274199E+04  0.00000000000E+00 0.  1.
          2   -1    0    0  501    0  0.00000000000E+00 -0.00000000000E+00 -0.19521855183E+04  0.19521855183E+04  0.00000000000E+00 0. -1.
         23    2    1    2    0    0 -0.17141349031E+03  0.16285149031E+04 -0.69901421162E+03  0.17828527488E+04  0.92193717730E+02 0.  0.
         11    1    3    3    0    0 -0.13785874655E+03  0.90086802164E+03 -0.40623330017E+03  0.99779442802E+03  0.00000000000E+00 0. -1.
        -11    1    3    3    0    0 -0.33554743760E+02  0.72764688143E+03 -0.29278091145E+03  0.78505832076E+03  0.00000000000E+00 0.  1.
         22    1    1    2    0    0  0.17141349031E+03 -0.16285149031E+04  0.23125611321E+03  0.16537601894E+04  0.00000000000E+00 0.  1.
<mgrwt>
<rscale>  0 0.34046308E+04</rscale>
<asrwt>0</asrwt>
<pdfrwt beam="1">  1        2 0.30033623E+00 0.34046308E+04</pdfrwt>
<pdfrwt beam="2">  1       -2 0.22837345E+00 0.34046308E+04</pdfrwt>
<totfact> 0.51491073E-01</totfact>
</mgrwt>
</event>
<event>
 6    1  0.9512547E-007  0.3322266E+04  0.7818608E-02  0.8157253E-01
          2   -1    0    0  501    0  0.00000000000E+00  0.00000000000E+00  0.30860526793E+04  0.30860526793E+04  0.00000000000E+00 0. -1.
         -2   -1    0    0    0  501 -0.00000000000E+00 -0.00000000000E+00 -0.89413972990E+03  0.89413972990E+03  0.00000000000E+00 0.  1.
         23    2    1    2    0    0 -0.57740989782E+03  0.12884582602E+04  0.21424105263E+04  0.25674017778E+04  0.90011925900E+02 0.  0.
         11    1    3    3    0    0 -0.92858223740E+02  0.29776940910E+03  0.48014437094E+03  0.57256256222E+03  0.00000000000E+00 0.  1.
        -11    1    3    3    0    0 -0.48455167408E+03  0.99068885107E+03  0.16622661554E+04  0.19948392155E+04  0.00000000000E+00 0. -1.
         22    1    1    2    0    0  0.57740989782E+03 -0.12884582602E+04  0.49502423026E+02  0.14127906314E+04  0.00000000000E+00 0.  1.
<mgrwt>
<rscale>  0 0.33222657E+04</rscale>
<asrwt>0</asrwt>
<pdfrwt beam="1">  1        2 0.47477733E+00 0.33222657E+04</pdfrwt>
<pdfrwt beam="2">  1       -2 0.13755996E+00 0.33222657E+04</pdfrwt>
<totfact> 0.48100036E-01</totfact>
</mgrwt>
</event>
<event>
 6    1  0.9512547E-007  0.3623098E+04  0.7818608E-02  0.8085221E-01
          1   -1    0    0  501    0  0.00000000000E+00  0.00000000000E+00  0.16170519493E+04  0.16170519493E+04  0.00000000000E+00 0. -1.
         -1   -1    0    0    0  501 -0.00000000000E+00 -0.00000000000E+00 -0.20294403963E+04  0.20294403963E+04  0.00000000000E+00 0.  1.
         23    2    1    2    0    0 -0.95034683429E+03  0.11203798855E+04 -0.12710160186E+04  0.19448309516E+04  0.92062573122E+02 0.  0.
         11    1    3    3    0    0 -0.17689045938E+03  0.21458847091E+03 -0.19468943467E+03  0.33947374337E+03  0.00000000000E+00 0. -1.
        -11    1    3    3    0    0 -0.77345637490E+03  0.90579141457E+03 -0.10763265840E+04  0.16053572082E+04  0.00000000000E+00 0.  1.
         22    1    1    2    0    0  0.95034683429E+03 -0.11203798855E+04  0.85862757157E+03  0.17016613940E+04  0.00000000000E+00 0. -1.
<mgrwt>
<rscale>  0 0.36230984E+04</rscale>
<asrwt>0</asrwt>
<pdfrwt beam="1">  1        1 0.24877722E+00 0.36230984E+04</pdfrwt>
<pdfrwt beam="2">  1       -1 0.31222160E+00 0.36230984E+04</pdfrwt>
<totfact> 0.12061862E-01</totfact>
</mgrwt>
</event>
<event>
 6    1  0.9512547E-007  0.2425467E+04  0.7818608E-02  0.8430030E-01
          2   -1    0    0  501    0  0.00000000000E+00  0.00000000000E+00  0.15379644839E+04  0.15379644839E+04  0.00000000000E+00 0. -1.
         -2   -1    0    0    0  501 -0.00000000000E+00 -0.00000000000E+00 -0.95627841668E+03  0.95627841668E+03  0.00000000000E+00 0.  1.
         23    2    1    2    0    0 -0.33956465251E+03  0.95706117770E+03 -0.38722138568E+03  0.10906575261E+04  0.91231500210E+02 0.  0.
         13    1    3    3    0    0 -0.18074315086E+03  0.50685003612E+03 -0.15639303412E+03  0.56037828903E+03  0.00000000000E+00 0.  1.
        -13    1    3    3    0    0 -0.15882150165E+03  0.45021114159E+03 -0.23082835156E+03  0.53027923708E+03  0.00000000000E+00 0. -1.
         22    1    1    2    0    0  0.33956465251E+03 -0.95706117770E+03  0.96890745285E+03  0.14035853744E+04  0.00000000000E+00 0. -1.
<mgrwt>
<rscale>  0 0.24254668E+04</rscale>
<asrwt>0</asrwt>
<pdfrwt beam="1">  1        2 0.23660992E+00 0.24254668E+04</pdfrwt>
<pdfrwt beam="2">  1       -2 0.14711976E+00 0.24254668E+04</pdfrwt>
<totfact> 0.34203103E+00</totfact>
</mgrwt>
</event>
<event>
 6    1  0.9512547E-007  0.7805159E+03  0.7818608E-02  0.9588656E-01
          4   -1    0    0  501    0  0.00000000000E+00  0.00000000000E+00  0.16517898864E+04  0.16517898864E+04  0.00000000000E+00 0. -1.
         -4   -1    0    0    0  501 -0.00000000000E+00 -0.00000000000E+00 -0.92203767094E+02  0.92203767094E+02  0.00000000000E+00 0.  1.
         23    2    1    2    0    0  0.26529502773E+03  0.21456375271E+03  0.11889658326E+04  0.12402293707E+04  0.90056011101E+02 0.  0.
         13    1    3    3    0    0  0.10415816065E+03  0.13849224652E+03  0.53093895853E+03  0.55850264320E+03  0.00000000000E+00 0.  1.
        -13    1    3    3    0    0  0.16113686708E+03  0.76071506188E+02  0.65802687404E+03  0.68172672747E+03  0.00000000000E+00 0. -1.
         22    1    1    2    0    0 -0.26529502773E+03 -0.21456375271E+03  0.37062028677E+03  0.50376428286E+03  0.00000000000E+00 0.  1.
<mgrwt>
<rscale>  0 0.78051586E+03</rscale>
<asrwt>0</asrwt>
<pdfrwt beam="1">  1        4 0.25412150E+00 0.78051586E+03</pdfrwt>
<pdfrwt beam="2">  1       -4 0.14185196E-01 0.78051586E+03</pdfrwt>
<totfact> 0.52018906E+00</totfact>
</mgrwt>
</event>
<event>
 6    1  0.9512547E-007  0.2101077E+04  0.7818608E-02  0.8560769E-01
         -2   -1    0    0    0  501 -0.00000000000E+00  0.00000000000E+00  0.86411156599E+03  0.86411156599E+03  0.00000000000E+00 0.  1.
          2   -1    0    0  501    0  0.00000000000E+00 -0.00000000000E+00 -0.12771855030E+04  0.12771855030E+04  0.00000000000E+00 0. -1.
         23    2    1    2    0    0  0.72929248946E+03 -0.21701262522E+03  0.52861471291E+03  0.93061976762E+03  0.87507842429E+02 0.  0.
         13    1    3    3    0    0  0.39120118526E+03 -0.84724876352E+02  0.31529398570E+03  0.50953603350E+03  0.00000000000E+00 0.  1.
        -13    1    3    3    0    0  0.33809130420E+03 -0.13228774887E+03  0.21332072722E+03  0.42108373411E+03  0.00000000000E+00 0. -1.
         22    1    1    2    0    0 -0.72929248946E+03  0.21701262522E+03 -0.94168864992E+03  0.12106773014E+04  0.00000000000E+00 0. -1.
<mgrwt>
<rscale>  0 0.21010766E+04</rscale>
<asrwt>0</asrwt>
<pdfrwt beam="1">  1        2 0.19649008E+00 0.21010766E+04</pdfrwt>
<pdfrwt beam="2">  1       -2 0.13294024E+00 0.21010766E+04</pdfrwt>
<totfact> 0.64464931E+00</totfact>
</mgrwt>
</event>
<event>
 6    1  0.9512547E-007  0.1211422E+04  0.7818608E-02  0.9102917E-01
          1   -1    0    0  501    0  0.00000000000E+00  0.00000000000E+00  0.44680961424E+03  0.44680961424E+03  0.00000000000E+00 0. -1.
         -1   -1    0    0    0  501 -0.00000000000E+00 -0.00000000000E+00 -0.82112376255E+03  0.82112376255E+03  0.00000000000E+00 0.  1.
         23    2    1    2    0    0 -0.18610006956E+03  0.53051240456E+02 -0.78518259056E+03  0.81377421214E+03  0.90934579962E+02 0.  0.
         11    1    3    3    0    0 -0.84505727866E+02  0.48674017089E+01 -0.18911766628E+03  0.20719652830E+03  0.00000000000E+00 0.  1.
        -11    1    3    3    0    0 -0.10159434169E+03  0.48183838747E+02 -0.59606492428E+03  0.60657768384E+03  0.00000000000E+00 0. -1.
         22    1    1    2    0    0  0.18610006956E+03 -0.53051240456E+02  0.41086844225E+03  0.45415916465E+03  0.00000000000E+00 0. -1.
<mgrwt>
<rscale>  0 0.12114223E+04</rscale>
<asrwt>0</asrwt>
<pdfrwt beam="1">  1        1 0.68739941E-01 0.12114223E+04</pdfrwt>
<pdfrwt beam="2">  1       -1 0.12632673E+00 0.12114223E+04</pdfrwt>
<totfact> 0.27876891E+01</totfact>
</mgrwt>
</event>
<event>
 6    1  0.9512547E-007  0.4804741E+03  0.7818608E-02  0.1019005E+00
          1   -1    0    0  501    0  0.00000000000E+00  0.00000000000E+00  0.11179836442E+03  0.11179836442E+03  0.00000000000E+00 0. -1.
         -1   -1    0    0    0  501 -0.00000000000E+00 -0.00000000000E+00 -0.51623150414E+03  0.51623150414E+03  0.00000000000E+00 0.  1.
         23    2    1    2    0    0  0.14078633714E+03 -0.40546439788E+02 -0.44405394116E+03  0.47625828225E+03  0.90405985695E+02 0.  0.
         11    1    3    3    0    0  0.12410567352E+03 -0.83973611646E+01 -0.25446199711E+03  0.28323778323E+03  0.00000000000E+00 0. -1.
        -11    1    3    3    0    0  0.16680663618E+02 -0.32149078623E+02 -0.18959194404E+03  0.19302049902E+03  0.00000000000E+00 0.  1.
         22    1    1    2    0    0 -0.14078633714E+03  0.40546439788E+02  0.39620801441E+02  0.15177158631E+03  0.00000000000E+00 0. -1.
<mgrwt>
<rscale>  0 0.48047409E+03</rscale>
<asrwt>0</asrwt>
<pdfrwt beam="1">  1        1 0.17199748E-01 0.48047409E+03</pdfrwt>
<pdfrwt beam="2">  1       -1 0.79420232E-01 0.48047409E+03</pdfrwt>
<totfact> 0.51478165E+02</totfact>
</mgrwt>
</event>
<event>
 6    1  0.9512547E-007  0.1003969E+04  0.7818608E-02  0.9304203E-01
         -2   -1    0    0    0  501 -0.00000000000E+00  0.00000000000E+00  0.30468385398E+03  0.30468385398E+03  0.00000000000E+00 0.  1.
          2   -1    0    0  501    0  0.00000000000E+00 -0.00000000000E+00 -0.82704835654E+03  0.82704835654E+03  0.00000000000E+00 0. -1.
         23    2    1    2    0    0  0.10014525921E+03 -0.39384073097E+03 -0.58777421710E+03  0.72012800128E+03  0.89253647677E+02 0.  0.
         11    1    3    3    0    0  0.90396370665E+02 -0.17473735351E+03 -0.27965020410E+03  0.34191941038E+03  0.00000000000E+00 0. -1.
        -11    1    3    3    0    0  0.97488885440E+01 -0.21910337746E+03 -0.30812401301E+03  0.37820859090E+03  0.00000000000E+00 0.  1.
         22    1    1    2    0    0 -0.10014525921E+03  0.39384073097E+03  0.65409714543E+02  0.41160420925E+03  0.00000000000E+00 0. -1.
<mgrwt>
<rscale>  0 0.10039687E+04</rscale>
<asrwt>0</asrwt>
<pdfrwt beam="1">  1        2 0.12723821E+00 0.10039687E+04</pdfrwt>
<pdfrwt beam="2">  1       -2 0.46874439E-01 0.10039687E+04</pdfrwt>
<totfact> 0.14183096E+02</totfact>
</mgrwt>
</event>
<event>
 6    1  0.9512547E-007  0.4055040E+04  0.7818608E-02  0.7993534E-01
          2   -1    0    0  501    0  0.00000000000E+00  0.00000000000E+00  0.42440521479E+04  0.42440521479E+04  0.00000000000E+00 0. -1.
         -2   -1    0    0    0  501 -0.00000000000E+00 -0.00000000000E+00 -0.96861139915E+03  0.96861139915E+03  0.00000000000E+00 0.  1.
         23    2    1    2    0    0 -0.11938729330E+04  0.38144829360E+03 -0.40860985630E+03  0.13212545167E+04  0.88972480782E+02 0.  0.
         11    1    3    3    0    0 -0.79778571713E+03  0.21952395124E+03 -0.29587381198E+03  0.87874576997E+03  0.00000000000E+00 0.  1.
        -11    1    3    3    0    0 -0.39608721589E+03  0.16192434236E+03 -0.11273604432E+03  0.44250874673E+03  0.00000000000E+00 0. -1.
         22    1    1    2    0    0  0.11938729330E+04 -0.38144829360E+03  0.36840506051E+04  0.38914090304E+04  0.00000000000E+00 0. -1.
<mgrwt>
<rscale>  0 0.40550400E+04</rscale>
<asrwt>0</asrwt>
<pdfrwt beam="1">  1        2 0.65293109E+00 0.40550400E+04</pdfrwt>
<pdfrwt beam="2">  1       -2 0.14901714E+00 0.40550400E+04</pdfrwt>
<totfact> 0.50683285E-02</totfact>
</mgrwt>
</event>
<event>
 6    1  0.9512547E-007  0.2420808E+04  0.7818608E-02  0.8431754E-01
         -1   -1    0    0    0  501 -0.00000000000E+00  0.00000000000E+00  0.10676332103E+04  0.10676332103E+04  0.00000000000E+00 0.  1.
          1   -1    0    0  501    0  0.00000000000E+00 -0.00000000000E+00 -0.13722674463E+04  0.13722674463E+04  0.00000000000E+00 0. -1.
         23    2    1    2    0    0  0.16898280300E+03  0.53951248756E+03 -0.12293444973E+04  0.13560565815E+04  0.89289682335E+02 0.  0.
         13    1    3    3    0    0  0.13442162223E+03  0.28105832221E+03 -0.67906483844E+03  0.74712248514E+03  0.00000000000E+00 0. -1.
        -13    1    3    3    0    0  0.34561180768E+02  0.25845416535E+03 -0.55027965884E+03  0.60893409638E+03  0.00000000000E+00 0.  1.
         22    1    1    2    0    0 -0.16898280300E+03 -0.53951248756E+03  0.92471026124E+03  0.10838440751E+04  0.00000000000E+00 0.  1.
<mgrwt>
<rscale>  0 0.24208084E+04</rscale>
<asrwt>0</asrwt>
<pdfrwt beam="1">  1        1 0.21111807E+00 0.24208084E+04</pdfrwt>
<pdfrwt beam="2">  1       -1 0.16425126E+00 0.24208084E+04</pdfrwt>
<totfact> 0.19515992E+00</totfact>
</mgrwt>
</event>
<event>
 6    1  0.9512547E-007  0.3337157E+04  0.7818608E-02  0.8153505E-01
         -2   -1    0    0    0  501 -0.00000000000E+00  0.00000000000E+00  0.72083639679E+03  0.72083639679E+03  0.00000000000E+00 0.  1.
          2   -1    0    0  501    0  0.00000000000E+00 -0.00000000000E+00 -0.38623937245E+04  0.38623937245E+04  0.00000000000E+00 0. -1.
         23    2    1    2    0    0 -0.73871848824E+03 -0.13411962386E+04 -0.66579074272E+03  0.16722281394E+04  0.92505577732E+02 0.  0.
         13    1    3    3    0    0 -0.36151577002E+03 -0.66675013423E+03 -0.27967348580E+03  0.80837284228E+03  0.00000000000E+00 0. -1.
        -13    1    3    3    0    0 -0.37720271822E+03 -0.67444610434E+03 -0.38611725691E+03  0.86385529713E+03  0.00000000000E+00 0.  1.
         22    1    1    2    0    0  0.73871848824E+03  0.13411962386E+04 -0.24757665850E+04  0.29110019819E+04  0.00000000000E+00 0. -1.
<mgrwt>
<rscale>  0 0.33371569E+04</rscale>
<asrwt>0</asrwt>
<pdfrwt beam="1">  1        2 0.59421443E+00 0.33371569E+04</pdfrwt>
<pdfrwt beam="2">  1       -2 0.11089791E+00 0.33371569E+04</pdfrwt>
<totfact> 0.23544120E-01</totfact>
</mgrwt>
</event>
<event>
 6    1  0.9512547E-007  0.8393426E+03  0.7818608E-02  0.9504754E-01
          1   -1    0    0  501    0  0.00000000000E+00  0.00000000000E+00  0.34477321673E+03  0.34477321673E+03  0.00000000000E+00 0. -1.
         -1   -1    0    0    0  501 -0.00000000000E+00 -0.00000000000E+00 -0.51084017173E+03  0.51084017173E+03  0.00000000000E+00 0.  1.
         23    2    1    2    0    0  0.65843453520E+02  0.82481535045E+02  0.32503203551E+03  0.35330194874E+03  0.89654218424E+02 0.  0.
         11    1    3    3    0    0  0.38708157112E+02  0.28370757363E+02  0.26025622070E+03  0.26464414166E+03  0.00000000000E+00 0.  1.
        -11    1    3    3    0    0  0.27135296408E+02  0.54110777682E+02  0.64775814808E+02  0.88657807082E+02  0.00000000000E+00 0. -1.
         22    1    1    2    0    0 -0.65843453520E+02 -0.82481535045E+02 -0.49109899051E+03  0.50231143972E+03  0.00000000000E+00 0.  1.
<mgrwt>
<rscale>  0 0.83934262E+03</rscale>
<asrwt>0</asrwt>
<pdfrwt beam="1">  1        1 0.53042034E-01 0.83934262E+03</pdfrwt>
<pdfrwt beam="2">  1       -1 0.78590795E-01 0.83934262E+03</pdfrwt>
<totfact> 0.11966384E+02</totfact>
</mgrwt>
</event>
<event>
 6    1  0.9512547E-007  0.4192649E+04  0.7818608E-02  0.7966772E-01
          1   -1    0    0  501    0  0.00000000000E+00  0.00000000000E+00  0.17197879215E+04  0.17197879215E+04  0.00000000000E+00 0. -1.
         -1   -1    0    0    0  501 -0.00000000000E+00 -0.00000000000E+00 -0.25553012632E+04  0.25553012632E+04  0.00000000000E+00 0.  1.
         23    2    1    2    0    0 -0.20199222513E+04 -0.49443307427E+03 -0.15705415098E+03  0.20876576224E+04  0.95385408355E+02 0.  0.
         13    1    3    3    0    0 -0.72063570137E+03 -0.20614758674E+03 -0.92236352860E+02  0.75519546238E+03  0.00000000000E+00 0.  1.
        -13    1    3    3    0    0 -0.12992865499E+04 -0.28828548753E+03 -0.64817798117E+02  0.13324621601E+04  0.00000000000E+00 0. -1.
         22    1    1    2    0    0  0.20199222513E+04  0.49443307427E+03 -0.67845919069E+03  0.21874315622E+04  0.00000000000E+00 0.  1.
<mgrwt>
<rscale>  0 0.41926489E+04</rscale>
<asrwt>0</asrwt>
<pdfrwt beam="1">  1        1 0.26458276E+00 0.41926489E+04</pdfrwt>
<pdfrwt beam="2">  1       -1 0.39312327E+00 0.41926489E+04</pdfrwt>
<totfact> 0.28356131E-02</totfact>
</mgrwt>
</event>
<event>
 6    1  0.9512547E-007  0.3063018E+04  0.7818608E-02  0.8225961E-01
          2   -1    0    0  501    0  0.00000000000E+00  0.00000000000E+00  0.21263631536E+04  0.21263631536E+04  0.00000000000E+00 0. -1.
         -2   -1    0    0    0  501 -0.00000000000E+00 -0.00000000000E+00 -0.11030665063E+04  0.11030665063E+04  0.00000000000E+00 0.  1.
         23    2    1    2    0    0 -0.73657964832E+03 -0.29610006479E+03 -0.86570372633E+03  0.11803939749E+04  0.11688527517E+03 0.  0.
         11    1    3    3    0    0 -0.31905432575E+02 -0.18975418523E+02 -0.85235554095E+02  0.92968396877E+02  0.00000000000E+00 0.  1.
        -11    1    3    3    0    0 -0.70467421575E+03 -0.27712464627E+03 -0.78046817224E+03  0.10874255780E+04  0.00000000000E+00 0. -1.
         22    1    1    2    0    0  0.73657964832E+03  0.29610006479E+03  0.18890003736E+04  0.20490356849E+04  0.00000000000E+00 0. -1.
<mgrwt>
<rscale>  0 0.30630181E+04</rscale>
<asrwt>0</asrwt>
<pdfrwt beam="1">  1        2 0.32713279E+00 0.30630181E+04</pdfrwt>
<pdfrwt beam="2">  1       -2 0.16970254E+00 0.30630181E+04</pdfrwt>
<totfact> 0.10359453E+00</totfact>
</mgrwt>
</event>
<event>
 6    1  0.9512547E-007  0.2635168E+04  0.7818608E-02  0.8356352E-01
         -2   -1    0    0    0  501 -0.00000000000E+00  0.00000000000E+00  0.12716845036E+04  0.12716845036E+04  0.00000000000E+00 0.  1.
          2   -1    0    0  501    0  0.00000000000E+00 -0.00000000000E+00 -0.13651406559E+04  0.13651406559E+04  0.00000000000E+00 0. -1.
         23    2    1    2    0    0  0.79915910945E+03  0.33475864783E+03 -0.10379536171E+04  0.13551098653E+04  0.90864741283E+02 0.  0.
         13    1    3    3    0    0  0.37553999644E+03  0.19832002285E+03 -0.46775998304E+03  0.63179151792E+03  0.00000000000E+00 0.  1.
        -13    1    3    3    0    0  0.42361911301E+03  0.13643862498E+03 -0.57019363404E+03  0.72331834733E+03  0.00000000000E+00 0. -1.
         22    1    1    2    0    0 -0.79915910945E+03 -0.33475864783E+03  0.94449746483E+03  0.12817152943E+04  0.00000000000E+00 0.  1.
<mgrwt>
<rscale>  0 0.26351685E+04</rscale>
<asrwt>0</asrwt>
<pdfrwt beam="1">  1        2 0.21002164E+00 0.26351685E+04</pdfrwt>
<pdfrwt beam="2">  1       -2 0.19564377E+00 0.26351685E+04</pdfrwt>
<totfact> 0.18995515E+00</totfact>
</mgrwt>
</event>
<event>
 6    1  0.9512547E-007  0.2058805E+04  0.7818608E-02  0.8579611E-01
         -2   -1    0    0    0  501 -0.00000000000E+00  0.00000000000E+00  0.52560142444E+03  0.52560142444E+03  0.00000000000E+00 0.  1.
          2   -1    0    0  501    0  0.00000000000E+00 -0.00000000000E+00 -0.20161079389E+04  0.20161079389E+04  0.00000000000E+00 0. -1.
         23    2    1    2    0    0 -0.72353798668E+03 -0.11469071122E+03  0.14253484316E+03  0.75188108860E+03  0.91366364013E+02 0.  0.
         11    1    3    3    0    0 -0.32377033978E+03 -0.93530644413E+01  0.43922891505E+02  0.32686990246E+03  0.00000000000E+00 0.  1.
        -11    1    3    3    0    0 -0.39976764689E+03 -0.10533764678E+03  0.98611951651E+02  0.42501118614E+03  0.00000000000E+00 0. -1.
         22    1    1    2    0    0  0.72353798668E+03  0.11469071122E+03 -0.16330413576E+04  0.17898282747E+04  0.00000000000E+00 0. -1.
<mgrwt>
<rscale>  0 0.20588047E+04</rscale>
<asrwt>0</asrwt>
<pdfrwt beam="1">  1        2 0.31017045E+00 0.20588047E+04</pdfrwt>
<pdfrwt beam="2">  1       -2 0.80861757E-01 0.20588047E+04</pdfrwt>
<totfact> 0.81646376E+00</totfact>
</mgrwt>
</event>
<event>
 6    1  0.9512547E-007  0.9188250E+03  0.7818608E-02  0.9402350E-01
          2   -1    0    0  501    0  0.00000000000E+00  0.00000000000E+00  0.46418176998E+03  0.46418176998E+03  0.00000000000E+00 0. -1.
         -2   -1    0    0    0  501 -0.00000000000E+00 -0.00000000000E+00 -0.45469224152E+03  0.45469224152E+03  0.00000000000E+00 0.  1.
         23    2    1    2    0    0  0.32807987993E+03 -0.27167096631E+03  0.16432669637E+03  0.46564551492E+03  0.91547588072E+02 0.  0.
         13    1    3    3    0    0  0.20033972502E+03 -0.14665922754E+03  0.14063985181E+03  0.28534978949E+03  0.00000000000E+00 0. -1.
        -13    1    3    3    0    0  0.12774015490E+03 -0.12501173878E+03  0.23686844562E+02  0.18029572544E+03  0.00000000000E+00 0.  1.
         22    1    1    2    0    0 -0.32807987993E+03  0.27167096631E+03 -0.15483716790E+03  0.45322849658E+03  0.00000000000E+00 0.  1.
<mgrwt>
<rscale>  0 0.91882501E+03</rscale>
<asrwt>0</asrwt>
<pdfrwt beam="1">  1        2 0.71412580E-01 0.91882501E+03</pdfrwt>
<pdfrwt beam="2">  1       -2 0.69952653E-01 0.91882501E+03</pdfrwt>
<totfact> 0.12534394E+02</totfact>
</mgrwt>
</event>
<event>
 6    1  0.9512547E-007  0.1460497E+04  0.7818608E-02  0.8911155E-01
         -2   -1    0    0    0  501 -0.00000000000E+00  0.00000000000E+00  0.25188953138E+03  0.25188953138E+03  0.00000000000E+00 0.  1.
          2   -1    0    0  501    0  0.00000000000E+00 -0.00000000000E+00 -0.21170503116E+04  0.21170503116E+04  0.00000000000E+00 0. -1.
         23    2    1    2    0    0 -0.53421139081E+03 -0.74674613728E+02 -0.17277402673E+04  0.18123048590E+04  0.91675311271E+02 0.  0.
         11    1    3    3    0    0 -0.25153050648E+03  0.10503997934E+02 -0.81674683210E+03  0.85466561730E+03  0.00000000000E+00 0. -1.
        -11    1    3    3    0    0 -0.28268088433E+03 -0.85178611662E+02 -0.91099343520E+03  0.95763924169E+03  0.00000000000E+00 0.  1.
         22    1    1    2    0    0  0.53421139081E+03  0.74674613728E+02 -0.13742051289E+03  0.55663498396E+03  0.00000000000E+00 0.  1.
<mgrwt>
<rscale>  0 0.14604969E+04</rscale>
<asrwt>0</asrwt>
<pdfrwt beam="1">  1        2 0.32570005E+00 0.14604969E+04</pdfrwt>
<pdfrwt beam="2">  1       -2 0.38752236E-01 0.14604969E+04</pdfrwt>
<totfact> 0.35080185E+01</totfact>
</mgrwt>
</event>
<event>
 6    1  0.9512547E-007  0.5260404E+04  0.7818608E-02  0.7789547E-01
          2   -1    0    0  501    0  0.00000000000E+00  0.00000000000E+00  0.23049561942E+04  0.23049561942E+04  0.00000000000E+00 0. -1.
         -2   -1    0    0    0  501 -0.00000000000E+00 -0.00000000000E+00 -0.30013417796E+04  0.30013417796E+04  0.00000000000E+00 0.  1.
         23    2    1    2    0    0  0.19646148328E+02  0.48169147772E+03 -0.29557041269E+04  0.29961176945E+04  0.90120488539E+02 0.  0.
         11    1    3    3    0    0 -0.31309435638E+02  0.28371806318E+03 -0.17933170109E+04  0.18158915501E+04  0.00000000000E+00 0.  1.
        -11    1    3    3    0    0  0.50955583965E+02  0.19797341454E+03 -0.11623871160E+04  0.11802261444E+04  0.00000000000E+00 0. -1.
         22    1    1    2    0    0 -0.19646148328E+02 -0.48169147772E+03  0.22593185415E+04  0.23101802793E+04  0.00000000000E+00 0. -1.
<mgrwt>
<rscale>  0 0.52604035E+04</rscale>
<asrwt>0</asrwt>
<pdfrwt beam="1">  1        2 0.35460865E+00 0.52604035E+04</pdfrwt>
<pdfrwt beam="2">  1       -2 0.46174489E+00 0.52604035E+04</pdfrwt>
<totfact> 0.93690238E-03</totfact>
</mgrwt>
</event>
<event>
 6    1  0.9512547E-007  0.2939651E+04  0.7818608E-02  0.8261177E-01
         -1   -1    0    0    0  501 -0.00000000000E+00  0.00000000000E+00  0.99936507810E+03  0.99936507810E+03  0.00000000000E+00 0.  1.
          1   -1    0    0  501    0  0.00000000000E+00 -0.00000000000E+00 -0.21617601050E+04  0.21617601050E+04  0.00000000000E+00 0. -1.
         23    2    1    2    0    0  0.82443000057E+03  0.92083163428E+03 -0.14343266981E+04  0.18955966144E+04  0.91529902780E+02 0.  0.
         11    1    3    3    0    0  0.28505580044E+03  0.34915302937E+03 -0.58322438278E+03  0.73709926601E+03  0.00000000000E+00 0. -1.
        -11    1    3    3    0    0  0.53937420013E+03  0.57167860491E+03 -0.85110231529E+03  0.11584973484E+04  0.00000000000E+00 0.  1.
         22    1    1    2    0    0 -0.82443000057E+03 -0.92083163428E+03  0.27193167114E+03  0.12655285687E+04  0.00000000000E+00 0.  1.
<mgrwt>
<rscale>  0 0.29396514E+04</rscale>
<asrwt>0</asrwt>
<pdfrwt beam="1">  1        1 0.33257848E+00 0.29396514E+04</pdfrwt>
<pdfrwt beam="2">  1       -1 0.15374847E+00 0.29396514E+04</pdfrwt>
<totfact> 0.64560731E-01</totfact>
</mgrwt>
</event>
<event>
 6    1  0.9512547E-007  0.2678676E+04  0.7818608E-02  0.8341957E-01
          1   -1    0    0  501    0  0.00000000000E+00  0.00000000000E+00  0.95929783587E+03  0.95929783587E+03  0.00000000000E+00 0. -1.
         -1   -1    0    0    0  501 -0.00000000000E+00 -0.00000000000E+00 -0.18699368487E+04  0.18699368487E+04  0.00000000000E+00 0.  1.
         23    2    1    2    0    0 -0.74879401299E+03  0.60697702336E+03  0.52386237681E+03  0.11009673969E+04  0.92649006647E+02 0.  0.
         11    1    3    3    0    0 -0.49722531307E+03  0.35264138468E+03  0.35452759913E+03  0.70517996050E+03  0.00000000000E+00 0. -1.
        -11    1    3    3    0    0 -0.25156869992E+03  0.25433563869E+03  0.16933477768E+03  0.39578743640E+03  0.00000000000E+00 0.  1.
         22    1    1    2    0    0  0.74879401299E+03 -0.60697702336E+03 -0.14345013897E+04  0.17282672877E+04  0.00000000000E+00 0.  1.
<mgrwt>
<rscale>  0 0.26786761E+04</rscale>
<asrwt>0</asrwt>
<pdfrwt beam="1">  1        1 0.14758428E+00 0.26786761E+04</pdfrwt>
<pdfrwt beam="2">  1       -1 0.28768259E+00 0.26786761E+04</pdfrwt>
<totfact> 0.56566329E-01</totfact>
</mgrwt>
</event>
<event>
 6    1  0.9512547E-007  0.5896274E+03  0.7818608E-02  0.9927163E-01
         -2   -1    0    0    0  501 -0.00000000000E+00  0.00000000000E+00  0.13825230278E+03  0.13825230278E+03  0.00000000000E+00 0.  1.
          2   -1    0    0  501    0  0.00000000000E+00 -0.00000000000E+00 -0.62867041397E+03  0.62867041397E+03  0.00000000000E+00 0. -1.
         23    2    1    2    0    0  0.22359054626E+03  0.46815351526E+02 -0.23401170669E+02  0.24702923510E+03  0.91057227554E+02 0.  0.
         11    1    3    3    0    0  0.11186372522E+03 -0.12555118301E+02 -0.39917210486E+02  0.11943411451E+03  0.00000000000E+00 0.  1.
        -11    1    3    3    0    0  0.11172682104E+03  0.59370469827E+02  0.16516039817E+02  0.12759512059E+03  0.00000000000E+00 0. -1.
         22    1    1    2    0    0 -0.22359054626E+03 -0.46815351526E+02 -0.46701694053E+03  0.51989348165E+03  0.00000000000E+00 0. -1.
<mgrwt>
<rscale>  0 0.58962745E+03</rscale>
<asrwt>0</asrwt>
<pdfrwt beam="1">  1        2 0.96718527E-01 0.58962745E+03</pdfrwt>
<pdfrwt beam="2">  1       -2 0.21269585E-01 0.58962745E+03</pdfrwt>
<totfact> 0.90086591E+02</totfact>
</mgrwt>
</event>
<event>
 6    1  0.9512547E-007  0.6584464E+03  0.7818608E-02  0.9791058E-01
          1   -1    0    0  501    0  0.00000000000E+00  0.00000000000E+00  0.96926286196E+02  0.96926286196E+02  0.00000000000E+00 0. -1.
         -1   -1    0    0    0  501 -0.00000000000E+00 -0.00000000000E+00 -0.11182509824E+04  0.11182509824E+04  0.00000000000E+00 0.  1.
         23    2    1    2    0    0  0.25569920298E+03 -0.18400692370E+03 -0.36766162985E+03  0.48956302212E+03  0.72499987503E+02 0.  0.
         13    1    3    3    0    0  0.65200989583E+02 -0.77685526880E+02 -0.15253814006E+03  0.18317776695E+03  0.00000000000E+00 0.  1.
        -13    1    3    3    0    0  0.19049821340E+03 -0.10632139682E+03 -0.21512348979E+03  0.30638525518E+03  0.00000000000E+00 0. -1.
         22    1    1    2    0    0 -0.25569920298E+03  0.18400692370E+03 -0.65366306637E+03  0.72561424650E+03  0.00000000000E+00 0. -1.
<mgrwt>
<rscale>  0 0.65844640E+03</rscale>
<asrwt>0</asrwt>
<pdfrwt beam="1">  1        1 0.14911736E-01 0.65844640E+03</pdfrwt>
<pdfrwt beam="2">  1       -1 0.17203862E+00 0.65844640E+03</pdfrwt>
<totfact> 0.94684346E+01</totfact>
</mgrwt>
</event>
<event>
 6    1  0.9512547E-007  0.1817081E+04  0.7818608E-02  0.8697268E-01
         -1   -1    0    0    0  501 -0.00000000000E+00  0.00000000000E+00  0.55640063293E+03  0.55640063293E+03  0.00000000000E+00 0.  1.
          1   -1    0    0  501    0  0.00000000000E+00 -0.00000000000E+00 -0.14835456256E+04  0.14835456256E+04  0.00000000000E+00 0. -1.
         23    2    1    2    0    0  0.57537020607E+03 -0.34098492624E+03 -0.11512349877E+04  0.13345825794E+04  0.91907944938E+02 0.  0.
         11    1    3    3    0    0  0.46443841423E+03 -0.25252391409E+03 -0.96669388459E+03  0.11018023572E+04  0.00000000000E+00 0. -1.
        -11    1    3    3    0    0  0.11093179183E+03 -0.88461012150E+02 -0.18454110314E+03  0.23278022223E+03  0.00000000000E+00 0.  1.
         22    1    1    2    0    0 -0.57537020607E+03  0.34098492624E+03  0.22408999505E+03  0.70536367913E+03  0.00000000000E+00 0.  1.
<mgrwt>
<rscale>  0 0.18170809E+04</rscale>
<asrwt>0</asrwt>
<pdfrwt beam="1">  1        1 0.22823779E+00 0.18170809E+04</pdfrwt>
<pdfrwt beam="2">  1       -1 0.85600097E-01 0.18170809E+04</pdfrwt>
<totfact> 0.85319772E+00</totfact>
</mgrwt>
</event>
<event>
 6    1  0.9512547E-007  0.9557772E+03  0.7818608E-02  0.9358423E-01
         -2   -1    0    0    0  501 -0.00000000000E+00  0.00000000000E+00  0.52090007956E+03  0.52090007956E+03  0.00000000000E+00 0.  1.
          2   -1    0    0  501    0  0.00000000000E+00 -0.00000000000E+00 -0.43842861907E+03  0.43842861907E+03  0.00000000000E+00 0. -1.
         23    2    1    2    0    0 -0.18860634036E+03 -0.12491703949E+03  0.45898663703E+03  0.52007900137E+03  0.92934473218E+02 0.  0.
         13    1    3    3    0    0 -0.46057701275E+02 -0.35762316716E+02  0.22185324935E+03  0.22938857729E+03  0.00000000000E+00 0. -1.
        -13    1    3    3    0    0 -0.14254863909E+03 -0.89154722769E+02  0.23713338768E+03  0.29069042408E+03  0.00000000000E+00 0.  1.
         22    1    1    2    0    0  0.18860634036E+03  0.12491703949E+03 -0.37651517654E+03  0.43924969726E+03  0.00000000000E+00 0. -1.
<mgrwt>
<rscale>  0 0.95577718E+03</rscale>
<asrwt>0</asrwt>
<pdfrwt beam="1">  1        2 0.67450557E-01 0.95577718E+03</pdfrwt>
<pdfrwt beam="2">  1       -2 0.80138474E-01 0.95577718E+03</pdfrwt>
<totfact> 0.98794054E+01</totfact>
</mgrwt>
</event>
<event>
 6    1  0.9512547E-007  0.1980716E+04  0.7818608E-02  0.8615690E-01
          2   -1    0    0  501    0  0.00000000000E+00  0.00000000000E+00  0.99415036382E+03  0.99415036382E+03  0.00000000000E+00 0. -1.
         -2   -1    0    0    0  501 -0.00000000000E+00 -0.00000000000E+00 -0.98658051045E+03  0.98658051045E+03  0.00000000000E+00 0.  1.
         23    2    1    2    0    0  0.68440119474E+03  0.58770511484E+03  0.40730585601E+03  0.99402363846E+03  0.91556737080E+02 0.  0.
         13    1    3    3    0    0  0.33311221406E+03  0.33193719171E+03  0.24418620628E+03  0.52988012771E+03  0.00000000000E+00 0. -1.
        -13    1    3    3    0    0  0.35128898068E+03  0.25576792313E+03  0.16311964973E+03  0.46414351076E+03  0.00000000000E+00 0.  1.
         22    1    1    2    0    0 -0.68440119474E+03 -0.58770511484E+03 -0.39973600265E+03  0.98670723581E+03  0.00000000000E+00 0. -1.
<mgrwt>
<rscale>  0 0.19807164E+04</rscale>
<asrwt>0</asrwt>
<pdfrwt beam="1">  1        2 0.15294621E+00 0.19807164E+04</pdfrwt>
<pdfrwt beam="2">  1       -2 0.15178162E+00 0.19807164E+04</pdfrwt>
<totfact> 0.68639323E+00</totfact>
</mgrwt>
</event>
<event>
 6    1  0.9512547E-007  0.2391941E+04  0.7818608E-02  0.8442527E-01
          1   -1    0    0  501    0  0.00000000000E+00  0.00000000000E+00  0.14658587288E+04  0.14658587288E+04  0.00000000000E+00 0. -1.
         -1   -1    0    0    0  501 -0.00000000000E+00 -0.00000000000E+00 -0.97577344759E+03  0.97577344759E+03  0.00000000000E+00 0.  1.
         23    2    1    2    0    0 -0.57669114757E+03  0.10457367708E+04  0.22877177612E+03  0.12191662990E+04  0.88836173371E+02 0.  0.
         13    1    3    3    0    0 -0.27882903901E+03  0.44933614111E+03  0.13663174290E+03  0.54618388284E+03  0.00000000000E+00 0.  1.
        -13    1    3    3    0    0 -0.29786210856E+03  0.59640062965E+03  0.92140033217E+02  0.67298241618E+03  0.00000000000E+00 0. -1.
         22    1    1    2    0    0  0.57669114757E+03 -0.10457367708E+04  0.26131350511E+03  0.12224658774E+04  0.00000000000E+00 0.  1.
<mgrwt>
<rscale>  0 0.23919415E+04</rscale>
<asrwt>0</asrwt>
<pdfrwt beam="1">  1        1 0.22551673E+00 0.23919415E+04</pdfrwt>
<pdfrwt beam="2">  1       -1 0.15011899E+00 0.23919415E+04</pdfrwt>
<totfact> 0.21571930E+00</totfact>
</mgrwt>
</event>
<event>
 6    1  0.9512547E-007  0.1226838E+04  0.7818608E-02  0.9089684E-01
          2   -1    0    0  501    0  0.00000000000E+00  0.00000000000E+00  0.67213798682E+03  0.67213798682E+03  0.00000000000E+00 0. -1.
         -2   -1    0    0    0  501 -0.00000000000E+00 -0.00000000000E+00 -0.55982990408E+03  0.55982990408E+03  0.00000000000E+00 0.  1.
         23    2    1    2    0    0 -0.37807361114E+03 -0.41747714544E+03  0.29169882872E+03  0.64086057227E+03  0.91581897837E+02 0.  0.
         13    1    3    3    0    0 -0.12422374669E+03 -0.20415771900E+03  0.12697827245E+03  0.27062038937E+03  0.00000000000E+00 0. -1.
        -13    1    3    3    0    0 -0.25384986444E+03 -0.21331942644E+03  0.16472055627E+03  0.37024018290E+03  0.00000000000E+00 0.  1.
         22    1    1    2    0    0  0.37807361114E+03  0.41747714544E+03 -0.17939074598E+03  0.59110731864E+03  0.00000000000E+00 0. -1.
<mgrwt>
<rscale>  0 0.12268381E+04</rscale>
<asrwt>0</asrwt>
<pdfrwt beam="1">  1        2 0.10340584E+00 0.12268381E+04</pdfrwt>
<pdfrwt beam="2">  1       -2 0.86127677E-01 0.12268381E+04</pdfrwt>
<totfact> 0.49689018E+01</totfact>
</mgrwt>
</event>
<event>
 6    1  0.9512547E-007  0.2649766E+04  0.7818608E-02  0.8351491E-01
          1   -1    0    0  501    0  0.00000000000E+00  0.00000000000E+00  0.19379647766E+04  0.19379647766E+04  0.00000000000E+00 0. -1.
         -1   -1    0    0    0  501 -0.00000000000E+00 -0.00000000000E+00 -0.90575182645E+03  0.90575182645E+03  0.00000000000E+00 0.  1.
         23    2    1    2    0    0  0.22121534482E+03 -0.65825995006E+03 -0.69210881402E+03  0.98481156594E+03  0.92719034305E+02 0.  0.
         11    1    3    3    0    0  0.12307520386E+03 -0.49134696834E+03 -0.48480303350E+03  0.70114430069E+03  0.00000000000E+00 0. -1.
        -11    1    3    3    0    0  0.98140140963E+02 -0.16691298172E+03 -0.20730578052E+03  0.28366726525E+03  0.00000000000E+00 0.  1.
         22    1    1    2    0    0 -0.22121534482E+03  0.65825995006E+03  0.17243217642E+04  0.18589050371E+04  0.00000000000E+00 0. -1.
<mgrwt>
<rscale>  0 0.26497661E+04</rscale>
<asrwt>0</asrwt>
<pdfrwt beam="1">  1        1 0.29814843E+00 0.26497661E+04</pdfrwt>
<pdfrwt beam="2">  1       -1 0.13934644E+00 0.26497661E+04</pdfrwt>
<totfact> 0.12216519E+00</totfact>
</mgrwt>
</event>
<event>
 6    1  0.9512547E-007  0.1571175E+04  0.7818608E-02  0.8838454E-01
          1   -1    0    0  501    0  0.00000000000E+00  0.00000000000E+00  0.56043168401E+03  0.56043168401E+03  0.00000000000E+00 0. -1.
         -1   -1    0    0    0  501 -0.00000000000E+00 -0.00000000000E+00 -0.11012013126E+04  0.11012013126E+04  0.00000000000E+00 0.  1.
         23    2    1    2    0    0  0.50578312343E+02 -0.45548671329E+03  0.40022859158E+03  0.61496974512E+03  0.89322730767E+02 0.  0.
         11    1    3    3    0    0 -0.49871379867E+01 -0.31410562113E+03  0.28697535785E+03  0.42549038624E+03  0.00000000000E+00 0.  1.
        -11    1    3    3    0    0  0.55565450330E+02 -0.14138109217E+03  0.11325323373E+03  0.18947935889E+03  0.00000000000E+00 0. -1.
         22    1    1    2    0    0 -0.50578312343E+02  0.45548671329E+03 -0.94099822018E+03  0.10466632515E+04  0.00000000000E+00 0.  1.
<mgrwt>
<rscale>  0 0.15711755E+04</rscale>
<asrwt>0</asrwt>
<pdfrwt beam="1">  1        1 0.86220260E-01 0.15711755E+04</pdfrwt>
<pdfrwt beam="2">  1       -1 0.16941558E+00 0.15711755E+04</pdfrwt>
<totfact> 0.90271838E+00</totfact>
</mgrwt>
</event>
<event>
 6    1  0.9512547E-007  0.1842486E+04  0.7818608E-02  0.8684027E-01
         -1   -1    0    0    0  501 -0.00000000000E+00  0.00000000000E+00  0.41842422222E+03  0.41842422222E+03  0.00000000000E+00 0.  1.
          1   -1    0    0  501    0  0.00000000000E+00 -0.00000000000E+00 -0.20282963561E+04  0.20282963561E+04  0.00000000000E+00 0. -1.
         23    2    1    2    0    0  0.14854280028E+03  0.51212405842E+03 -0.18007973069E+04  0.18803386962E+04  0.92014441394E+02 0.  0.
         13    1    3    3    0    0  0.14027592809E+03  0.46583885196E+03 -0.17129942761E+04  0.17807393302E+04  0.00000000000E+00 0. -1.
        -13    1    3    3    0    0  0.82668721928E+01  0.46285206453E+02 -0.87803030734E+02  0.99599366054E+02  0.00000000000E+00 0.  1.
         22    1    1    2    0    0 -0.14854280028E+03 -0.51212405842E+03  0.19092517294E+03  0.56638188211E+03  0.00000000000E+00 0.  1.
<mgrwt>
<rscale>  0 0.18424856E+04</rscale>
<asrwt>0</asrwt>
<pdfrwt beam="1">  1        1 0.31204559E+00 0.18424856E+04</pdfrwt>
<pdfrwt beam="2">  1       -1 0.64372958E-01 0.18424856E+04</pdfrwt>
<totfact> 0.65599830E+00</totfact>
</mgrwt>
</event>
<event>
 6    1  0.9512547E-007  0.2018059E+04  0.7818608E-02  0.8598224E-01
          1   -1    0    0  501    0  0.00000000000E+00  0.00000000000E+00  0.11789756246E+04  0.11789756246E+04  0.00000000000E+00 0. -1.
         -1   -1    0    0    0  501 -0.00000000000E+00 -0.00000000000E+00 -0.86358040035E+03  0.86358040035E+03  0.00000000000E+00 0.  1.
         23    2    1    2    0    0 -0.79290245569E+03  0.59999906632E+03 -0.33806222466E+01  0.99837633539E+03  0.89725663126E+02 0.  0.
         11    1    3    3    0    0 -0.19383119851E+02  0.33364642080E+02  0.82064188374E+01  0.39449334423E+02  0.00000000000E+00 0. -1.
        -11    1    3    3    0    0 -0.77351933584E+03  0.56663442424E+03 -0.11587041084E+02  0.95892700097E+03  0.00000000000E+00 0.  1.
         22    1    1    2    0    0  0.79290245569E+03 -0.59999906632E+03  0.31877584654E+03  0.10441796896E+04  0.00000000000E+00 0. -1.
<mgrwt>
<rscale>  0 0.20180587E+04</rscale>
<asrwt>0</asrwt>
<pdfrwt beam="1">  1        1 0.18138087E+00 0.20180587E+04</pdfrwt>
<pdfrwt beam="2">  1       -1 0.13285852E+00 0.20180587E+04</pdfrwt>
<totfact> 0.49218331E+00</totfact>
</mgrwt>
</event>
<event>
 6    1  0.9512547E-007  0.3220495E+04  0.7818608E-02  0.8183425E-01
          2   -1    0    0  501    0  0.00000000000E+00  0.00000000000E+00  0.24723725361E+04  0.24723725361E+04  0.00000000000E+00 0. -1.
         -2   -1    0    0    0  501 -0.00000000000E+00 -0.00000000000E+00 -0.10487485584E+04  0.10487485584E+04  0.00000000000E+00 0.  1.
         23    2    1    2    0    0 -0.96045850264E+03  0.12879671463E+04  0.80613054334E+03  0.17998895450E+04  0.91738847028E+02 0.  0.
         11    1    3    3    0    0 -0.64493842285E+03  0.83625825419E+03  0.48459481569E+03  0.11619404341E+04  0.00000000000E+00 0. -1.
        -11    1    3    3    0    0 -0.31552007979E+03  0.45170889213E+03  0.32153572765E+03  0.63794911093E+03  0.00000000000E+00 0.  1.
         22    1    1    2    0    0  0.96045850264E+03 -0.12879671463E+04  0.61749343438E+03  0.17212315494E+04  0.00000000000E+00 0. -1.
<mgrwt>
<rscale>  0 0.32204951E+04</rscale>
<asrwt>0</asrwt>
<pdfrwt beam="1">  1        2 0.38036500E+00 0.32204951E+04</pdfrwt>
<pdfrwt beam="2">  1       -2 0.16134593E+00 0.32204951E+04</pdfrwt>
<totfact> 0.74737787E-01</totfact>
</mgrwt>
</event>
<event>
 6    1  0.9512547E-007  0.9685432E+03  0.7818608E-02  0.9343735E-01
         -1   -1    0    0    0  501 -0.00000000000E+00  0.00000000000E+00  0.67610067141E+03  0.67610067141E+03  0.00000000000E+00 0.  1.
          1   -1    0    0  501    0  0.00000000000E+00 -0.00000000000E+00 -0.34686988289E+03  0.34686988289E+03  0.00000000000E+00 0. -1.
         23    2    1    2    0    0 -0.43602799731E+02  0.18870242552E+03  0.62998506060E+03  0.66525147217E+03  0.90379948598E+02 0.  0.
         11    1    3    3    0    0 -0.36500325020E+02  0.74021689574E+02  0.39683427392E+03  0.40532570263E+03  0.00000000000E+00 0.  1.
        -11    1    3    3    0    0 -0.71024747108E+01  0.11468073594E+03  0.23315078668E+03  0.25992576954E+03  0.00000000000E+00 0. -1.
         22    1    1    2    0    0  0.43602799731E+02 -0.18870242552E+03 -0.30075427208E+03  0.35771908212E+03  0.00000000000E+00 0. -1.
<mgrwt>
<rscale>  0 0.96854315E+03</rscale>
<asrwt>0</asrwt>
<pdfrwt beam="1">  1        1 0.53364598E-01 0.96854315E+03</pdfrwt>
<pdfrwt beam="2">  1       -1 0.10401549E+00 0.96854315E+03</pdfrwt>
<totfact> 0.63381228E+01</totfact>
</mgrwt>
</event>
<event>
 6    1  0.9512547E-007  0.4321280E+03  0.7818608E-02  0.1033190E+00
          2   -1    0    0  501    0  0.00000000000E+00  0.00000000000E+00  0.57985265035E+03  0.57985265035E+03  0.00000000000E+00 0. -1.
         -2   -1    0    0    0  501 -0.00000000000E+00 -0.00000000000E+00 -0.80509526167E+02  0.80509526167E+02  0.00000000000E+00 0.  1.
         23    2    1    2    0    0 -0.59129200184E+02  0.96550359864E+02 -0.55148704498E+01  0.14296500891E+03  0.87122589907E+02 0.  0.
         11    1    3    3    0    0 -0.79221365429E+02  0.68171092899E+02  0.97935843172E+01  0.10497255328E+03  0.00000000000E+00 0. -1.
        -11    1    3    3    0    0  0.20092165245E+02  0.28379266964E+02 -0.15308454767E+02  0.37992455633E+02  0.00000000000E+00 0.  1.
         22    1    1    2    0    0  0.59129200184E+02 -0.96550359864E+02  0.50485799463E+03  0.51739716761E+03  0.00000000000E+00 0. -1.
<mgrwt>
<rscale>  0 0.43212805E+03</rscale>
<asrwt>0</asrwt>
<pdfrwt beam="1">  1        2 0.89208097E-01 0.43212805E+03</pdfrwt>
<pdfrwt beam="2">  1       -2 0.12386081E-01 0.43212805E+03</pdfrwt>
<totfact> 0.24800007E+03</totfact>
</mgrwt>
</event>
<event>
 6    1  0.9512547E-007  0.2452415E+04  0.7818608E-02  0.8420137E-01
         -1   -1    0    0    0  501 -0.00000000000E+00  0.00000000000E+00  0.67359944364E+03  0.67359944364E+03  0.00000000000E+00 0.  1.
          1   -1    0    0  501    0  0.00000000000E+00 -0.00000000000E+00 -0.22321641891E+04  0.22321641891E+04  0.00000000000E+00 0. -1.
         23    2    1    2    0    0 -0.84298147550E+03 -0.72109548319E+03 -0.16591712133E+03  0.11252963152E+04  0.90370580752E+02 0.  0.
         13    1    3    3    0    0 -0.46562970236E+03 -0.42286132113E+03 -0.13512081000E+03  0.64333533241E+03  0.00000000000E+00 0. -1.
        -13    1    3    3    0    0 -0.37735177314E+03 -0.29823416206E+03 -0.30796311326E+02  0.48196098276E+03  0.00000000000E+00 0.  1.
         22    1    1    2    0    0  0.84298147550E+03  0.72109548319E+03 -0.13926476241E+04  0.17804673175E+04  0.00000000000E+00 0.  1.
<mgrwt>
<rscale>  0 0.24524148E+04</rscale>
<asrwt>0</asrwt>
<pdfrwt beam="1">  1        1 0.34340987E+00 0.24524148E+04</pdfrwt>
<pdfrwt beam="2">  1       -1 0.10363068E+00 0.24524148E+04</pdfrwt>
<totfact> 0.16213280E+00</totfact>
</mgrwt>
</event>
<event>
 6    1  0.9512547E-007  0.4317738E+04  0.7818608E-02  0.7943346E-01
         -2   -1    0    0    0  501 -0.00000000000E+00  0.00000000000E+00  0.11237228068E+04  0.11237228068E+04  0.00000000000E+00 0.  1.
          2   -1    0    0  501    0  0.00000000000E+00 -0.00000000000E+00 -0.41475667817E+04  0.41475667817E+04  0.00000000000E+00 0. -1.
         23    2    1    2    0    0 -0.78129739083E+03 -0.29324169128E+03  0.91697226579E+03  0.12430829223E+04  0.89446705482E+02 0.  0.
         11    1    3    3    0    0 -0.37840666950E+03 -0.10143158286E+03  0.46343349906E+03  0.60683653612E+03  0.00000000000E+00 0.  1.
        -11    1    3    3    0    0 -0.40289072133E+03 -0.19181010841E+03  0.45353876673E+03  0.63624638620E+03  0.00000000000E+00 0. -1.
         22    1    1    2    0    0  0.78129739083E+03  0.29324169128E+03 -0.39408162407E+04  0.40282066662E+04  0.00000000000E+00 0. -1.
<mgrwt>
<rscale>  0 0.43177380E+04</rscale>
<asrwt>0</asrwt>
<pdfrwt beam="1">  1        2 0.63808718E+00 0.43177380E+04</pdfrwt>
<pdfrwt beam="2">  1       -2 0.17288044E+00 0.43177380E+04</pdfrwt>
<totfact> 0.40137431E-02</totfact>
</mgrwt>
</event>
<event>
 6    1  0.9512547E-007  0.1442898E+04  0.7818608E-02  0.8923339E-01
         -1   -1    0    0    0  501 -0.00000000000E+00  0.00000000000E+00  0.78937642046E+03  0.78937642046E+03  0.00000000000E+00 0.  1.
          1   -1    0    0  501    0  0.00000000000E+00 -0.00000000000E+00 -0.65936644955E+03  0.65936644955E+03  0.00000000000E+00 0. -1.
         23    2    1    2    0    0 -0.33482863377E+03  0.89693654832E+02 -0.56681887621E+03  0.67045911206E+03  0.89869999476E+02 0.  0.
         13    1    3    3    0    0 -0.16117614586E+03  0.31839065562E+02 -0.35049526591E+03  0.38708966341E+03  0.00000000000E+00 0. -1.
        -13    1    3    3    0    0 -0.17365248791E+03  0.57854589270E+02 -0.21632361030E+03  0.28336944865E+03  0.00000000000E+00 0.  1.
         22    1    1    2    0    0  0.33482863377E+03 -0.89693654832E+02  0.69682884712E+03  0.77828375795E+03  0.00000000000E+00 0.  1.
<mgrwt>
<rscale>  0 0.14428975E+04</rscale>
<asrwt>0</asrwt>
<pdfrwt beam="1">  1        1 0.10144099E+00 0.14428975E+04</pdfrwt>
<pdfrwt beam="2">  1       -1 0.12144253E+00 0.14428975E+04</pdfrwt>
<totfact> 0.17423021E+01</totfact>
</mgrwt>
</event>
<event>
 6    1  0.9512547E-007  0.3744403E+04  0.7818608E-02  0.8058192E-01
          1   -1    0    0  501    0  0.00000000000E+00  0.00000000000E+00  0.22214655772E+04  0.22214655772E+04  0.00000000000E+00 0. -1.
         -1   -1    0    0    0  501 -0.00000000000E+00 -0.00000000000E+00 -0.15778499330E+04  0.15778499330E+04  0.00000000000E+00 0.  1.
         23    2    1    2    0    0 -0.12019835017E+04 -0.29035688887E+03 -0.11027461406E+04  0.16594905304E+04  0.93745979259E+02 0.  0.
         13    1    3    3    0    0 -0.60968355404E+03 -0.13043830279E+03 -0.61456908838E+03  0.87545608188E+03  0.00000000000E+00 0.  1.
        -13    1    3    3    0    0 -0.59229994761E+03 -0.15991858608E+03 -0.48817705223E+03  0.78403444850E+03  0.00000000000E+00 0. -1.
         22    1    1    2    0    0  0.12019835017E+04  0.29035688887E+03  0.17463617847E+04  0.21398249798E+04  0.00000000000E+00 0. -1.
<mgrwt>
<rscale>  0 0.37444035E+04</rscale>
<asrwt>0</asrwt>
<pdfrwt beam="1">  1        1 0.34176393E+00 0.37444035E+04</pdfrwt>
<pdfrwt beam="2">  1       -1 0.24274614E+00 0.37444035E+04</pdfrwt>
<totfact> 0.13095839E-01</totfact>
</mgrwt>
</event>
<event>
 6    1  0.9512547E-007  0.2946644E+04  0.7818608E-02  0.8259133E-01
          2   -1    0    0  501    0  0.00000000000E+00  0.00000000000E+00  0.10498269332E+04  0.10498269332E+04  0.00000000000E+00 0. -1.
         -2   -1    0    0    0  501 -0.00000000000E+00 -0.00000000000E+00 -0.20676526308E+04  0.20676526308E+04  0.00000000000E+00 0.  1.
         23    2    1    2    0    0  0.46671428760E+03  0.24846967087E+03 -0.19627250076E+04  0.20347080694E+04  0.90487948445E+02 0.  0.
         13    1    3    3    0    0  0.24866575027E+03  0.83966052885E+02 -0.10180499302E+04  0.10513375356E+04  0.00000000000E+00 0. -1.
        -13    1    3    3    0    0  0.21804853733E+03  0.16450361798E+03 -0.94467507743E+03  0.98337053386E+03  0.00000000000E+00 0.  1.
         22    1    1    2    0    0 -0.46671428760E+03 -0.24846967087E+03  0.94489930999E+03  0.10827714946E+04  0.00000000000E+00 0. -1.
<mgrwt>
<rscale>  0 0.29466438E+04</rscale>
<asrwt>0</asrwt>
<pdfrwt beam="1">  1        2 0.16151184E+00 0.29466438E+04</pdfrwt>
<pdfrwt beam="2">  1       -2 0.31810040E+00 0.29466438E+04</pdfrwt>
<totfact> 0.49516875E-01</totfact>
</mgrwt>
</event>
<event>
 6    1  0.9512547E-007  0.2211888E+04  0.7818608E-02  0.8513496E-01
          1   -1    0    0  501    0  0.00000000000E+00  0.00000000000E+00  0.10184856679E+04  0.10184856679E+04  0.00000000000E+00 0. -1.
         -1   -1    0    0    0  501 -0.00000000000E+00 -0.00000000000E+00 -0.12009125723E+04  0.12009125723E+04  0.00000000000E+00 0.  1.
         23    2    1    2    0    0  0.86258221255E+03 -0.56479306946E+03 -0.48793796518E+03  0.11440488584E+04  0.87892251562E+02 0.  0.
         13    1    3    3    0    0  0.23027828031E+03 -0.13696418916E+03 -0.86836019714E+02  0.28165185924E+03  0.00000000000E+00 0. -1.
        -13    1    3    3    0    0  0.63230393224E+03 -0.42782888030E+03 -0.40110194546E+03  0.86239699918E+03  0.00000000000E+00 0.  1.
         22    1    1    2    0    0 -0.86258221255E+03  0.56479306946E+03  0.30551106080E+03  0.10753493818E+04  0.00000000000E+00 0. -1.
<mgrwt>
<rscale>  0 0.22118881E+04</rscale>
<asrwt>0</asrwt>
<pdfrwt beam="1">  1        1 0.15669010E+00 0.22118881E+04</pdfrwt>
<pdfrwt beam="2">  1       -1 0.18475578E+00 0.22118881E+04</pdfrwt>
<totfact> 0.25654282E+00</totfact>
</mgrwt>
</event>
<event>
 6    1  0.9512547E-007  0.2606822E+04  0.7818608E-02  0.8365888E-01
         -1   -1    0    0    0  501 -0.00000000000E+00  0.00000000000E+00  0.93666058840E+03  0.93666058840E+03  0.00000000000E+00 0.  1.
          1   -1    0    0  501    0  0.00000000000E+00 -0.00000000000E+00 -0.18137631525E+04  0.18137631525E+04  0.00000000000E+00 0. -1.
         23    2    1    2    0    0  0.42748042654E+02  0.10518707013E+04  0.36876247128E+03  0.11193385028E+04  0.93131928978E+02 0.  0.
         13    1    3    3    0    0  0.26914710311E+02  0.30559528558E+03  0.65799968759E+02  0.31375550368E+03  0.00000000000E+00 0. -1.
        -13    1    3    3    0    0  0.15833332343E+02  0.74627541575E+03  0.30296250252E+03  0.80558299914E+03  0.00000000000E+00 0.  1.
         22    1    1    2    0    0 -0.42748042654E+02 -0.10518707013E+04 -0.12458650353E+04  0.16310852380E+04  0.00000000000E+00 0. -1.
<mgrwt>
<rscale>  0 0.26068222E+04</rscale>
<asrwt>0</asrwt>
<pdfrwt beam="1">  1        1 0.27904049E+00 0.26068222E+04</pdfrwt>
<pdfrwt beam="2">  1       -1 0.14410163E+00 0.26068222E+04</pdfrwt>
<totfact> 0.13631952E+00</totfact>
</mgrwt>
</event>
<event>
 6    1  0.9512547E-007  0.1919069E+04  0.7818608E-02  0.8645423E-01
         -1   -1    0    0    0  501 -0.00000000000E+00  0.00000000000E+00  0.32526939815E+03  0.32526939815E+03  0.00000000000E+00 0.  1.
          1   -1    0    0  501    0  0.00000000000E+00 -0.00000000000E+00 -0.28305953556E+04  0.28305953556E+04  0.00000000000E+00 0. -1.
         23    2    1    2    0    0  0.80009411814E+03  0.44875660981E+03 -0.80554179671E+03  0.12243370460E+04  0.92577120408E+02 0.  0.
         11    1    3    3    0    0  0.59269203905E+03  0.37743701650E+03 -0.61043098981E+03  0.93078920701E+03  0.00000000000E+00 0. -1.
        -11    1    3    3    0    0  0.20740207909E+03  0.71319593308E+02 -0.19511080690E+03  0.29354783898E+03  0.00000000000E+00 0.  1.
         22    1    1    2    0    0 -0.80009411814E+03 -0.44875660981E+03 -0.16997841607E+04  0.19315277078E+04  0.00000000000E+00 0. -1.
<mgrwt>
<rscale>  0 0.19190686E+04</rscale>
<asrwt>0</asrwt>
<pdfrwt beam="1">  1        1 0.43547622E+00 0.19190686E+04</pdfrwt>
<pdfrwt beam="2">  1       -1 0.50041444E-01 0.19190686E+04</pdfrwt>
<totfact> 0.29715298E+00</totfact>
</mgrwt>
</event>
<event>
 6    1  0.9512547E-007  0.1487399E+04  0.7818608E-02  0.8892876E-01
          1   -1    0    0  501    0  0.00000000000E+00  0.00000000000E+00  0.12998108728E+04  0.12998108728E+04  0.00000000000E+00 0. -1.
         -1   -1    0    0    0  501 -0.00000000000E+00 -0.00000000000E+00 -0.42551481176E+03  0.42551481176E+03  0.00000000000E+00 0.  1.
         23    2    1    2    0    0  0.45766132813E+03 -0.10408117521E+03  0.11038321820E+04  0.12028569170E+04  0.90180343476E+02 0.  0.
         11    1    3    3    0    0  0.17168892734E+03 -0.69482058300E+01  0.32736414994E+03  0.36971969383E+03  0.00000000000E+00 0.  1.
        -11    1    3    3    0    0  0.28597240079E+03 -0.97132969383E+02  0.77646803210E+03  0.83313722317E+03  0.00000000000E+00 0. -1.
         22    1    1    2    0    0 -0.45766132813E+03  0.10408117521E+03 -0.22953612096E+03  0.52246876761E+03  0.00000000000E+00 0.  1.
<mgrwt>
<rscale>  0 0.14873988E+04</rscale>
<asrwt>0</asrwt>
<pdfrwt beam="1">  1        1 0.19997090E+00 0.14873988E+04</pdfrwt>
<pdfrwt beam="2">  1       -1 0.65463818E-01 0.14873988E+04</pdfrwt>
<totfact> 0.20725425E+01</totfact>
</mgrwt>
</event>
<event>
 6    1  0.9512547E-007  0.5851825E+03  0.7818608E-02  0.9936634E-01
         -4   -1    0    0    0  501 -0.00000000000E+00  0.00000000000E+00  0.31884938066E+03  0.31884938066E+03  0.00000000000E+00 0.  1.
          4   -1    0    0  501    0  0.00000000000E+00 -0.00000000000E+00 -0.26849555853E+03  0.26849555853E+03  0.00000000000E+00 0. -1.
         23    2    1    2    0    0 -0.56447372190E+02  0.88166075989E+02 -0.24081868091E+03  0.27792453050E+03  0.91043093084E+02 0.  0.
         11    1    3    3    0    0 -0.42677338699E+02  0.20381098293E+01 -0.13034610376E+03  0.13717002550E+03  0.00000000000E+00 0.  1.
        -11    1    3    3    0    0 -0.13770033492E+02  0.86127966160E+02 -0.11047257715E+03  0.14075450501E+03  0.00000000000E+00 0. -1.
         22    1    1    2    0    0  0.56447372190E+02 -0.88166075989E+02  0.29117250304E+03  0.30942040868E+03  0.00000000000E+00 0.  1.
<mgrwt>
<rscale>  0 0.58518251E+03</rscale>
<asrwt>0</asrwt>
<pdfrwt beam="1">  1        4 0.41307009E-01 0.58518251E+03</pdfrwt>
<pdfrwt beam="2">  1       -4 0.49053751E-01 0.58518251E+03</pdfrwt>
<totfact> 0.45149421E+01</totfact>
</mgrwt>
</event>
<event>
 6    1  0.9512547E-007  0.5590041E+03  0.7818608E-02  0.9994311E-01
          1   -1    0    0  501    0  0.00000000000E+00  0.00000000000E+00  0.13473156166E+03  0.13473156166E+03  0.00000000000E+00 0. -1.
         -1   -1    0    0    0  501 -0.00000000000E+00 -0.00000000000E+00 -0.57982995464E+03  0.57982995464E+03  0.00000000000E+00 0.  1.
         23    2    1    2    0    0 -0.73618725567E+02 -0.21479120388E+03 -0.42052706187E+03  0.48617866158E+03  0.89284395003E+02 0.  0.
         13    1    3    3    0    0 -0.59088879445E+02 -0.64793563725E+02 -0.20719015013E+03  0.22498324357E+03  0.00000000000E+00 0.  1.
        -13    1    3    3    0    0 -0.14529846122E+02 -0.14999764015E+03 -0.21333691174E+03  0.26119541801E+03  0.00000000000E+00 0. -1.
         22    1    1    2    0    0  0.73618725567E+02  0.21479120388E+03 -0.24571331101E+02  0.22838285472E+03  0.00000000000E+00 0.  1.
<mgrwt>
<rscale>  0 0.55900410E+03</rscale>
<asrwt>0</asrwt>
<pdfrwt beam="1">  1        1 0.20727933E-01 0.55900410E+03</pdfrwt>
<pdfrwt beam="2">  1       -1 0.89204608E-01 0.55900410E+03</pdfrwt>
<totfact> 0.31317092E+02</totfact>
</mgrwt>
</event>
<event>
 6    1  0.9512547E-007  0.5077933E+04  0.7818608E-02  0.7816597E-01
          2   -1    0    0  501    0  0.00000000000E+00  0.00000000000E+00  0.35151852176E+04  0.35151852176E+04  0.00000000000E+00 0. -1.
         -2   -1    0    0    0  501 -0.00000000000E+00 -0.00000000000E+00 -0.18338578354E+04  0.18338578354E+04  0.00000000000E+00 0.  1.
         23    2    1    2    0    0 -0.24555930801E+04  0.56950339784E+03  0.11530335794E+04  0.27735109065E+04  0.92762159870E+02 0.  0.
         11    1    3    3    0    0 -0.23634417978E+04  0.53078540497E+03  0.11002906171E+04  0.26604942623E+04  0.00000000000E+00 0. -1.
        -11    1    3    3    0    0 -0.92151282318E+02  0.38717992876E+02  0.52742962281E+02  0.11301664424E+03  0.00000000000E+00 0.  1.
         22    1    1    2    0    0  0.24555930801E+04 -0.56950339784E+03  0.52829380285E+03  0.25755321464E+04  0.00000000000E+00 0. -1.
<mgrwt>
<rscale>  0 0.50779326E+04</rscale>
<asrwt>0</asrwt>
<pdfrwt beam="1">  1        2 0.54079773E+00 0.50779326E+04</pdfrwt>
<pdfrwt beam="2">  1       -2 0.28213197E+00 0.50779326E+04</pdfrwt>
<totfact> 0.23409569E-02</totfact>
</mgrwt>
</event>
<event>
 6    1  0.9512547E-007  0.9117769E+03  0.7818608E-02  0.9410978E-01
         -2   -1    0    0    0  501 -0.00000000000E+00  0.00000000000E+00  0.77667819282E+02  0.77667819282E+02  0.00000000000E+00 0.  1.
          2   -1    0    0  501    0  0.00000000000E+00 -0.00000000000E+00 -0.26759383093E+04  0.26759383093E+04  0.00000000000E+00 0. -1.
         23    2    1    2    0    0  0.26991446441E+03 -0.25172515987E+03 -0.52746985959E+03  0.65017212077E+03  0.90994283589E+02 0.  0.
         13    1    3    3    0    0  0.11272377950E+03 -0.16560344417E+03 -0.29605491291E+03  0.35746281296E+03  0.00000000000E+00 0.  1.
        -13    1    3    3    0    0  0.15719068491E+03 -0.86121715701E+02 -0.23141494667E+03  0.29270930782E+03  0.00000000000E+00 0. -1.
         22    1    1    2    0    0 -0.26991446441E+03  0.25172515987E+03 -0.20708006304E+04  0.21034340078E+04  0.00000000000E+00 0. -1.
<mgrwt>
<rscale>  0 0.91177693E+03</rscale>
<asrwt>0</asrwt>
<pdfrwt beam="1">  1        2 0.41168285E+00 0.91177693E+03</pdfrwt>
<pdfrwt beam="2">  1       -2 0.11948894E-01 0.91177693E+03</pdfrwt>
<totfact> 0.14439150E+02</totfact>
</mgrwt>
</event>
<event>
 6    1  0.9512547E-007  0.8682992E+03  0.7818608E-02  0.9466100E-01
          1   -1    0    0  501    0  0.00000000000E+00  0.00000000000E+00  0.11107196748E+04  0.11107196748E+04  0.00000000000E+00 0. -1.
         -1   -1    0    0    0  501 -0.00000000000E+00 -0.00000000000E+00 -0.16969705792E+03  0.16969705792E+03  0.00000000000E+00 0.  1.
         23    2    1    2    0    0  0.15528491430E+03 -0.67493495928E+02  0.10580015440E+04  0.10746186617E+04  0.82275296697E+02 0.  0.
         11    1    3    3    0    0  0.44856715958E+02 -0.27399336690E+02  0.58059463845E+03  0.58296910966E+03  0.00000000000E+00 0.  1.
        -11    1    3    3    0    0  0.11042819834E+03 -0.40094159239E+02  0.47740690555E+03  0.49164955208E+03  0.00000000000E+00 0. -1.
         22    1    1    2    0    0 -0.15528491430E+03  0.67493495928E+02 -0.11697892717E+03  0.20579807094E+03  0.00000000000E+00 0.  1.
<mgrwt>
<rscale>  0 0.86829917E+03</rscale>
<asrwt>0</asrwt>
<pdfrwt beam="1">  1        1 0.17087995E+00 0.86829917E+03</pdfrwt>
<pdfrwt beam="2">  1       -1 0.26107240E-01 0.86829917E+03</pdfrwt>
<totfact> 0.16302806E+02</totfact>
</mgrwt>
</event>
<event>
 6    1  0.9512547E-007  0.3452434E+04  0.7818608E-02  0.8125156E-01
          1   -1    0    0  501    0  0.00000000000E+00  0.00000000000E+00  0.27640794864E+04  0.27640794864E+04  0.00000000000E+00 0. -1.
         -1   -1    0    0    0  501 -0.00000000000E+00 -0.00000000000E+00 -0.10780530486E+04  0.10780530486E+04  0.00000000000E+00 0.  1.
         23    2    1    2    0    0 -0.14579996767E+04  0.79577173282E+03  0.32538566954E+03  0.16949578778E+04  0.89390523519E+02 0.  0.
         13    1    3    3    0    0 -0.13530447903E+04  0.75524587916E+03  0.32043584565E+03  0.15823418322E+04  0.00000000000E+00 0.  1.
        -13    1    3    3    0    0 -0.10495488637E+03  0.40525853654E+02  0.49498238923E+01  0.11261604567E+03  0.00000000000E+00 0. -1.
         22    1    1    2    0    0  0.14579996767E+04 -0.79577173282E+03  0.13606407683E+04  0.21471746572E+04  0.00000000000E+00 0. -1.
<mgrwt>
<rscale>  0 0.34524335E+04</rscale>
<asrwt>0</asrwt>
<pdfrwt beam="1">  1        1 0.42524299E+00 0.34524335E+04</pdfrwt>
<pdfrwt beam="2">  1       -1 0.16585432E+00 0.34524335E+04</pdfrwt>
<totfact> 0.19111719E-01</totfact>
</mgrwt>
</event>
<event>
 6    1  0.9512547E-007  0.3255655E+04  0.7818608E-02  0.8174271E-01
          2   -1    0    0  501    0  0.00000000000E+00  0.00000000000E+00  0.17924276373E+04  0.17924276373E+04  0.00000000000E+00 0. -1.
         -2   -1    0    0    0  501 -0.00000000000E+00 -0.00000000000E+00 -0.14783429242E+04  0.14783429242E+04  0.00000000000E+00 0.  1.
         23    2    1    2    0    0  0.15499773079E+04 -0.46101976374E+03  0.33328033407E+03  0.16535700949E+04  0.90826208245E+02 0.  0.
         11    1    3    3    0    0  0.10323744955E+04 -0.26382666715E+03  0.20727237681E+03  0.10855245034E+04  0.00000000000E+00 0. -1.
        -11    1    3    3    0    0  0.51760281239E+03 -0.19719309659E+03  0.12600795726E+03  0.56804559151E+03  0.00000000000E+00 0.  1.
         22    1    1    2    0    0 -0.15499773079E+04  0.46101976374E+03 -0.19195620935E+02  0.16172004667E+04  0.00000000000E+00 0.  1.
<mgrwt>
<rscale>  0 0.32556552E+04</rscale>
<asrwt>0</asrwt>
<pdfrwt beam="1">  1        2 0.27575810E+00 0.32556552E+04</pdfrwt>
<pdfrwt beam="2">  1       -2 0.22743737E+00 0.32556552E+04</pdfrwt>
<totfact> 0.64799584E-01</totfact>
</mgrwt>
</event>
<event>
 6    1  0.9512547E-007  0.2179100E+04  0.7818608E-02  0.8527178E-01
         -3   -1    0    0    0  501 -0.00000000000E+00  0.00000000000E+00  0.89702523906E+03  0.89702523906E+03  0.00000000000E+00 0.  1.
          3   -1    0    0  501    0  0.00000000000E+00 -0.00000000000E+00 -0.13233957217E+04  0.13233957217E+04  0.00000000000E+00 0. -1.
         23    2    1    2    0    0  0.98340199491E+02  0.10684937826E+04 -0.32409851394E+02  0.10773747075E+04  0.91302264811E+02 0.  0.
         11    1    3    3    0    0 -0.58828241764E+01  0.17570460558E+03 -0.31036420177E+02  0.17852163852E+03  0.00000000000E+00 0. -1.
        -11    1    3    3    0    0  0.10422302367E+03  0.89278917700E+03 -0.13734312171E+01  0.89885306894E+03  0.00000000000E+00 0.  1.
         22    1    1    2    0    0 -0.98340199491E+02 -0.10684937826E+04 -0.39396063126E+03  0.11430462533E+04  0.00000000000E+00 0.  1.
<mgrwt>
<rscale>  0 0.21791001E+04</rscale>
<asrwt>0</asrwt>
<pdfrwt beam="1">  1        3 0.20359934E+00 0.21791001E+04</pdfrwt>
<pdfrwt beam="2">  1       -3 0.13800388E+00 0.21791001E+04</pdfrwt>
<totfact> 0.13349736E-01</totfact>
</mgrwt>
</event>
<event>
 6    1  0.9512547E-007  0.2781400E+04  0.7818608E-02  0.8309066E-01
         -2   -1    0    0    0  501 -0.00000000000E+00  0.00000000000E+00  0.64118072779E+03  0.64118072779E+03  0.00000000000E+00 0.  1.
          2   -1    0    0  501    0  0.00000000000E+00 -0.00000000000E+00 -0.30163823484E+04  0.30163823484E+04  0.00000000000E+00 0. -1.
         23    2    1    2    0    0  0.98015092071E+03  0.96996614521E+03 -0.96820701440E+03  0.16874960793E+04  0.93209681436E+02 0.  0.
         13    1    3    3    0    0  0.76415566844E+03  0.72204172969E+03 -0.77517816312E+03  0.13062079963E+04  0.00000000000E+00 0. -1.
        -13    1    3    3    0    0  0.21599525228E+03  0.24792441552E+03 -0.19302885128E+03  0.38128808301E+03  0.00000000000E+00 0.  1.
         22    1    1    2    0    0 -0.98015092071E+03 -0.96996614521E+03 -0.14069946062E+04  0.19700669968E+04  0.00000000000E+00 0.  1.
<mgrwt>
<rscale>  0 0.27813998E+04</rscale>
<asrwt>0</asrwt>
<pdfrwt beam="1">  1        2 0.46405882E+00 0.27813998E+04</pdfrwt>
<pdfrwt beam="2">  1       -2 0.98643189E-01 0.27813998E+04</pdfrwt>
<totfact> 0.12637178E+00</totfact>
</mgrwt>
</event>
<event>
 6    1  0.9512547E-007  0.1410276E+04  0.7818608E-02  0.8946414E-01
          2   -1    0    0  501    0  0.00000000000E+00  0.00000000000E+00  0.15698276856E+04  0.15698276856E+04  0.00000000000E+00 0. -1.
         -2   -1    0    0    0  501 -0.00000000000E+00 -0.00000000000E+00 -0.31673507332E+03  0.31673507332E+03  0.00000000000E+00 0.  1.
         23    2    1    2    0    0  0.56207813253E+03 -0.39180129056E+03  0.83486641071E+03  0.10838465986E+04  0.91002457345E+02 0.  0.
         11    1    3    3    0    0  0.44359772782E+03 -0.30423127169E+03  0.59277324621E+03  0.80044720764E+03  0.00000000000E+00 0. -1.
        -11    1    3    3    0    0  0.11848040470E+03 -0.87570018873E+02  0.24209316450E+03  0.28339939097E+03  0.00000000000E+00 0.  1.
         22    1    1    2    0    0 -0.56207813253E+03  0.39180129056E+03  0.41822620157E+03  0.80271616031E+03  0.00000000000E+00 0.  1.
<mgrwt>
<rscale>  0 0.14102758E+04</rscale>
<asrwt>0</asrwt>
<pdfrwt beam="1">  1        2 0.24151195E+00 0.14102758E+04</pdfrwt>
<pdfrwt beam="2">  1       -2 0.48728474E-01 0.14102758E+04</pdfrwt>
<totfact> 0.44965700E+01</totfact>
</mgrwt>
</event>
<event>
 6    1  0.9512547E-007  0.2072573E+04  0.7818608E-02  0.8573422E-01
          1   -1    0    0  501    0  0.00000000000E+00  0.00000000000E+00  0.25019889172E+04  0.25019889172E+04  0.00000000000E+00 0. -1.
         -1   -1    0    0    0  501 -0.00000000000E+00 -0.00000000000E+00 -0.42921443237E+03  0.42921443237E+03  0.00000000000E+00 0.  1.
         23    2    1    2    0    0  0.30014036906E+03  0.89863567363E+03  0.44919304625E+03  0.10514036255E+04  0.77748799445E+02 0.  0.
         11    1    3    3    0    0  0.43304355522E+02  0.22625197237E+03  0.94523396156E+02  0.24899778037E+03  0.00000000000E+00 0.  1.
        -11    1    3    3    0    0  0.25683601353E+03  0.67238370126E+03  0.35466965010E+03  0.80240584511E+03  0.00000000000E+00 0. -1.
         22    1    1    2    0    0 -0.30014036906E+03 -0.89863567363E+03  0.16235814386E+04  0.18797997241E+04  0.00000000000E+00 0. -1.
<mgrwt>
<rscale>  0 0.20725730E+04</rscale>
<asrwt>0</asrwt>
<pdfrwt beam="1">  1        1 0.38492136E+00 0.20725730E+04</pdfrwt>
<pdfrwt beam="2">  1       -1 0.66032991E-01 0.20725730E+04</pdfrwt>
<totfact> 0.28944886E+00</totfact>
</mgrwt>
</event>
<event>
 6    1  0.9512547E-007  0.1291039E+04  0.7818608E-02  0.9036702E-01
         -1   -1    0    0    0  501 -0.00000000000E+00  0.00000000000E+00  0.19306206050E+03  0.19306206050E+03  0.00000000000E+00 0.  1.
          1   -1    0    0  501    0  0.00000000000E+00 -0.00000000000E+00 -0.21583490886E+04  0.21583490886E+04  0.00000000000E+00 0. -1.
         23    2    1    2    0    0  0.28529435856E+03 -0.36054807574E+02 -0.20335350683E+04  0.20558597742E+04  0.92745443327E+02 0.  0.
         11    1    3    3    0    0  0.44642234350E+02  0.20019168020E+02 -0.20795715861E+03  0.21363491286E+03  0.00000000000E+00 0. -1.
        -11    1    3    3    0    0  0.24065212421E+03 -0.56073975594E+02 -0.18255779097E+04  0.18422248614E+04  0.00000000000E+00 0.  1.
         22    1    1    2    0    0 -0.28529435856E+03  0.36054807574E+02  0.68248040203E+02  0.29555137483E+03  0.00000000000E+00 0.  1.
<mgrwt>
<rscale>  0 0.12910388E+04</rscale>
<asrwt>0</asrwt>
<pdfrwt beam="1">  1        1 0.33205371E+00 0.12910388E+04</pdfrwt>
<pdfrwt beam="2">  1       -1 0.29701855E-01 0.12910388E+04</pdfrwt>
<totfact> 0.23797854E+01</totfact>
</mgrwt>
</event>
<event>
 6    1  0.9512547E-007  0.2185690E+04  0.7818608E-02  0.8524408E-01
          2   -1    0    0  501    0  0.00000000000E+00  0.00000000000E+00  0.14338098259E+04  0.14338098259E+04  0.00000000000E+00 0. -1.
         -2   -1    0    0    0  501 -0.00000000000E+00 -0.00000000000E+00 -0.83296252897E+03  0.83296252897E+03  0.00000000000E+00 0.  1.
         23    2    1    2    0    0  0.65826949885E+03 -0.11331832003E+03  0.11955265160E+04  0.13724552141E+04  0.90498008313E+02 0.  0.
         11    1    3    3    0    0  0.41012119551E+03 -0.11370042535E+03  0.73478999983E+03  0.84914281813E+03  0.00000000000E+00 0.  1.
        -11    1    3    3    0    0  0.24814830334E+03  0.38210531620E+00  0.46073651614E+03  0.52331239596E+03  0.00000000000E+00 0. -1.
         22    1    1    2    0    0 -0.65826949885E+03  0.11331832003E+03 -0.59467921903E+03  0.89431714080E+03  0.00000000000E+00 0.  1.
<mgrwt>
<rscale>  0 0.21856897E+04</rscale>
<asrwt>0</asrwt>
<pdfrwt beam="1">  1        2 0.22058613E+00 0.21856897E+04</pdfrwt>
<pdfrwt beam="2">  1       -2 0.12814808E+00 0.21856897E+04</pdfrwt>
<totfact> 0.57052714E+00</totfact>
</mgrwt>
</event>
<event>
 6    1  0.9512547E-007  0.2963772E+04  0.7818608E-02  0.8254152E-01
         -2   -1    0    0    0  501 -0.00000000000E+00  0.00000000000E+00  0.14024697951E+04  0.14024697951E+04  0.00000000000E+00 0.  1.
          2   -1    0    0  501    0  0.00000000000E+00 -0.00000000000E+00 -0.15657995610E+04  0.15657995610E+04  0.00000000000E+00 0. -1.
         23    2    1    2    0    0 -0.64210113396E+03 -0.10294803900E+04  0.76803320242E+03  0.14387070925E+04  0.88765749397E+02 0.  0.
         11    1    3    3    0    0 -0.25613061735E+03 -0.35073045573E+03  0.24123407623E+03  0.49679837485E+03  0.00000000000E+00 0. -1.
        -11    1    3    3    0    0 -0.38597051661E+03 -0.67874993426E+03  0.52679912619E+03  0.94190871761E+03  0.00000000000E+00 0.  1.
         22    1    1    2    0    0  0.64210113396E+03  0.10294803900E+04 -0.93136296836E+03  0.15295622637E+04  0.00000000000E+00 0. -1.
<mgrwt>
<rscale>  0 0.29637723E+04</rscale>
<asrwt>0</asrwt>
<pdfrwt beam="1">  1        2 0.24089224E+00 0.29637723E+04</pdfrwt>
<pdfrwt beam="2">  1       -2 0.21576458E+00 0.29637723E+04</pdfrwt>
<totfact> 0.10524292E+00</totfact>
</mgrwt>
</event>
<event>
 6    1  0.9512547E-007  0.1736523E+04  0.7818608E-02  0.8740804E-01
          2   -1    0    0  501    0  0.00000000000E+00  0.00000000000E+00  0.23209278967E+04  0.23209278967E+04  0.00000000000E+00 0. -1.
         -2   -1    0    0    0  501 -0.00000000000E+00 -0.00000000000E+00 -0.32481748914E+03  0.32481748914E+03  0.00000000000E+00 0.  1.
         23    2    1    2    0    0  0.42541867813E+03  0.31137610879E+03  0.20473462338E+04  0.21160650646E+04  0.90380438971E+02 0.  0.
         11    1    3    3    0    0  0.31170647216E+03  0.26160725064E+03  0.14538883452E+04  0.15097650807E+04  0.00000000000E+00 0. -1.
        -11    1    3    3    0    0  0.11371220597E+03  0.49768858158E+02  0.59345788853E+03  0.60629998391E+03  0.00000000000E+00 0.  1.
         22    1    1    2    0    0 -0.42541867813E+03 -0.31137610879E+03 -0.51235826217E+02  0.52968032125E+03  0.00000000000E+00 0.  1.
<mgrwt>
<rscale>  0 0.17365229E+04</rscale>
<asrwt>0</asrwt>
<pdfrwt beam="1">  1        2 0.35706582E+00 0.17365229E+04</pdfrwt>
<pdfrwt beam="2">  1       -2 0.49971923E-01 0.17365229E+04</pdfrwt>
<totfact> 0.15869132E+01</totfact>
</mgrwt>
</event>
<event>
 6    1  0.9512547E-007  0.2828526E+04  0.7818608E-02  0.8294466E-01
         -2   -1    0    0    0  501 -0.00000000000E+00  0.00000000000E+00  0.65786361004E+03  0.65786361004E+03  0.00000000000E+00 0.  1.
          2   -1    0    0  501    0  0.00000000000E+00 -0.00000000000E+00 -0.30403566997E+04  0.30403566997E+04  0.00000000000E+00 0. -1.
         23    2    1    2    0    0 -0.10603654726E+03 -0.13370663641E+04 -0.61104987838E+03  0.14762839330E+04  0.83917135886E+02 0.  0.
         13    1    3    3    0    0 -0.29117693010E+01 -0.44170395969E+03 -0.22638023360E+03  0.49634552136E+03  0.00000000000E+00 0. -1.
        -13    1    3    3    0    0 -0.10312477796E+03 -0.89536240440E+03 -0.38466964478E+03  0.97993841167E+03  0.00000000000E+00 0.  1.
         22    1    1    2    0    0  0.10603654726E+03  0.13370663641E+04 -0.17714432112E+04  0.22219363767E+04  0.00000000000E+00 0. -1.
<mgrwt>
<rscale>  0 0.28285261E+04</rscale>
<asrwt>0</asrwt>
<pdfrwt beam="1">  1        2 0.46774720E+00 0.28285261E+04</pdfrwt>
<pdfrwt beam="2">  1       -2 0.10120978E+00 0.28285261E+04</pdfrwt>
<totfact> 0.11438425E+00</totfact>
</mgrwt>
</event>
<event>
 6    1  0.9512547E-007  0.2527133E+04  0.7818608E-02  0.8393383E-01
          1   -1    0    0  501    0  0.00000000000E+00  0.00000000000E+00  0.11796368587E+04  0.11796368587E+04  0.00000000000E+00 0. -1.
         -1   -1    0    0    0  501 -0.00000000000E+00 -0.00000000000E+00 -0.13534675307E+04  0.13534675307E+04  0.00000000000E+00 0.  1.
         23    2    1    2    0    0  0.10060660970E+04 -0.24448617627E+03 -0.80879632481E+03  0.13185576171E+04  0.11180434996E+03 0.  0.
         11    1    3    3    0    0  0.31063047226E+03 -0.11038983492E+03 -0.30787449435E+03  0.45106973987E+03  0.00000000000E+00 0.  1.
        -11    1    3    3    0    0  0.69543562474E+03 -0.13409634135E+03 -0.50092183046E+03  0.86748787724E+03  0.00000000000E+00 0. -1.
         22    1    1    2    0    0 -0.10060660970E+04  0.24448617627E+03  0.63496565280E+03  0.12145467723E+04  0.00000000000E+00 0. -1.
<mgrwt>
<rscale>  0 0.25271329E+04</rscale>
<asrwt>0</asrwt>
<pdfrwt beam="1">  1        1 0.18148259E+00 0.25271329E+04</pdfrwt>
<pdfrwt beam="2">  1       -1 0.20822577E+00 0.25271329E+04</pdfrwt>
<totfact> 0.12957278E+00</totfact>
</mgrwt>
</event>
<event>
 6    1  0.9512547E-007  0.7013990E+03  0.7818608E-02  0.9714843E-01
          2   -1    0    0  501    0  0.00000000000E+00  0.00000000000E+00  0.52463894307E+03  0.52463894307E+03  0.00000000000E+00 0. -1.
         -2   -1    0    0    0  501 -0.00000000000E+00 -0.00000000000E+00 -0.23442814598E+03  0.23442814598E+03  0.00000000000E+00 0.  1.
         23    2    1    2    0    0  0.24938013113E+03 -0.83164926575E+02 -0.94058595387E+02  0.29348162879E+03  0.90430040671E+02 0.  0.
         13    1    3    3    0    0  0.65870828552E+02 -0.66064631913E+02 -0.24183612531E+02  0.96376079807E+02  0.00000000000E+00 0. -1.
        -13    1    3    3    0    0  0.18350930258E+03 -0.17100294662E+02 -0.69874982856E+02  0.19710554898E+03  0.00000000000E+00 0.  1.
         22    1    1    2    0    0 -0.24938013113E+03  0.83164926575E+02  0.38426939247E+03  0.46558546026E+03  0.00000000000E+00 0. -1.
<mgrwt>
<rscale>  0 0.70139899E+03</rscale>
<asrwt>0</asrwt>
<pdfrwt beam="1">  1        2 0.80713683E-01 0.70139899E+03</pdfrwt>
<pdfrwt beam="2">  1       -2 0.36065869E-01 0.70139899E+03</pdfrwt>
<totfact> 0.42401253E+02</totfact>
</mgrwt>
</event>
<event>
 6    1  0.9512547E-007  0.3201870E+04  0.7818608E-02  0.8188324E-01
          2   -1    0    0  501    0  0.00000000000E+00  0.00000000000E+00  0.41904528241E+04  0.41904528241E+04  0.00000000000E+00 0. -1.
         -2   -1    0    0    0  501 -0.00000000000E+00 -0.00000000000E+00 -0.61162662347E+03  0.61162662347E+03  0.00000000000E+00 0.  1.
         23    2    1    2    0    0  0.15237006983E+04 -0.35911163203E+03  0.22840127961E+04  0.27705365032E+04  0.92374675292E+02 0.  0.
         13    1    3    3    0    0  0.10466204191E+04 -0.21168145088E+03  0.16022128591E+04  0.19254374527E+04  0.00000000000E+00 0.  1.
        -13    1    3    3    0    0  0.47708027922E+03 -0.14743018115E+03  0.68179993695E+03  0.84509905050E+03  0.00000000000E+00 0. -1.
         22    1    1    2    0    0 -0.15237006983E+04  0.35911163203E+03  0.12948134046E+04  0.20315429444E+04  0.00000000000E+00 0.  1.
<mgrwt>
<rscale>  0 0.32018698E+04</rscale>
<asrwt>0</asrwt>
<pdfrwt beam="1">  1        2 0.64468503E+00 0.32018698E+04</pdfrwt>
<pdfrwt beam="2">  1       -2 0.94096406E-01 0.32018698E+04</pdfrwt>
<totfact> 0.18979821E-01</totfact>
</mgrwt>
</event>
<event>
 6    1  0.9512547E-007  0.1234400E+04  0.7818608E-02  0.9083268E-01
          1   -1    0    0  501    0  0.00000000000E+00  0.00000000000E+00  0.29338864998E+03  0.29338864998E+03  0.00000000000E+00 0. -1.
         -1   -1    0    0    0  501 -0.00000000000E+00 -0.00000000000E+00 -0.12983994301E+04  0.12983994301E+04  0.00000000000E+00 0.  1.
         23    2    1    2    0    0 -0.44506449658E+03  0.40784478508E+03 -0.36204060617E+03  0.70984113189E+03  0.91549206320E+02 0.  0.
         11    1    3    3    0    0 -0.71034485348E+02  0.40692048416E+02 -0.20933245133E+02  0.84498175511E+02  0.00000000000E+00 0. -1.
        -11    1    3    3    0    0 -0.37403001123E+03  0.36715273666E+03 -0.34110736103E+03  0.62534295638E+03  0.00000000000E+00 0.  1.
         22    1    1    2    0    0  0.44506449658E+03 -0.40784478508E+03 -0.64297017399E+03  0.88194694822E+03  0.00000000000E+00 0. -1.
<mgrwt>
<rscale>  0 0.12343997E+04</rscale>
<asrwt>0</asrwt>
<pdfrwt beam="1">  1        1 0.45136717E-01 0.12343997E+04</pdfrwt>
<pdfrwt beam="2">  1       -1 0.19975375E+00 0.12343997E+04</pdfrwt>
<totfact> 0.13467816E+01</totfact>
</mgrwt>
</event>
<event>
 6    1  0.9512547E-007  0.8600123E+03  0.7818608E-02  0.9476996E-01
         -2   -1    0    0    0  501 -0.00000000000E+00  0.00000000000E+00  0.64057568281E+03  0.64057568281E+03  0.00000000000E+00 0.  1.
          2   -1    0    0  501    0  0.00000000000E+00 -0.00000000000E+00 -0.28865486288E+03  0.28865486288E+03  0.00000000000E+00 0. -1.
         23    2    1    2    0    0  0.32243308661E+03 -0.26256467030E+03  0.82763599821E+02  0.43390347136E+03  0.92299011744E+02 0.  0.
         13    1    3    3    0    0  0.27769894758E+03 -0.25729477208E+03  0.59542094934E+02  0.38322652086E+03  0.00000000000E+00 0. -1.
        -13    1    3    3    0    0  0.44734139034E+02 -0.52698982278E+01  0.23221504887E+02  0.50676950497E+02  0.00000000000E+00 0.  1.
         22    1    1    2    0    0 -0.32243308661E+03  0.26256467030E+03  0.26915722010E+03  0.49532707433E+03  0.00000000000E+00 0.  1.
<mgrwt>
<rscale>  0 0.86001229E+03</rscale>
<asrwt>0</asrwt>
<pdfrwt beam="1">  1        2 0.44408441E-01 0.86001229E+03</pdfrwt>
<pdfrwt beam="2">  1       -2 0.98550105E-01 0.86001229E+03</pdfrwt>
<totfact> 0.98497231E+01</totfact>
</mgrwt>
</event>
<event>
 6    1  0.9512547E-007  0.2274602E+04  0.7818608E-02  0.8488003E-01
          1   -1    0    0  501    0  0.00000000000E+00  0.00000000000E+00  0.83966497971E+03  0.83966497971E+03  0.00000000000E+00 0. -1.
         -1   -1    0    0    0  501 -0.00000000000E+00 -0.00000000000E+00 -0.15404397847E+04  0.15404397847E+04  0.00000000000E+00 0.  1.
         23    2    1    2    0    0 -0.30831894109E+03  0.83026021795E+03  0.39267620222E+03  0.97297019228E+03  0.89909934538E+02 0.  0.
         13    1    3    3    0    0 -0.17610346262E+03  0.37763320742E+03  0.15179408830E+03  0.44346444518E+03  0.00000000000E+00 0.  1.
        -13    1    3    3    0    0 -0.13221547847E+03  0.45262701053E+03  0.24088211392E+03  0.52950574710E+03  0.00000000000E+00 0. -1.
         22    1    1    2    0    0  0.30831894109E+03 -0.83026021795E+03 -0.10934510072E+04  0.14071345722E+04  0.00000000000E+00 0.  1.
<mgrwt>
<rscale>  0 0.22746018E+04</rscale>
<asrwt>0</asrwt>
<pdfrwt beam="1">  1        1 0.12917923E+00 0.22746018E+04</pdfrwt>
<pdfrwt beam="2">  1       -1 0.23699073E+00 0.22746018E+04</pdfrwt>
<totfact> 0.15708047E+00</totfact>
</mgrwt>
</event>
<event>
 6    1  0.9512547E-007  0.2522110E+04  0.7818608E-02  0.8395151E-01
         -2   -1    0    0    0  501 -0.00000000000E+00  0.00000000000E+00  0.14223534425E+04  0.14223534425E+04  0.00000000000E+00 0.  1.
          2   -1    0    0  501    0  0.00000000000E+00 -0.00000000000E+00 -0.11180484405E+04  0.11180484405E+04  0.00000000000E+00 0. -1.
         23    2    1    2    0    0 -0.92941349914E+03 -0.84867693211E+03  0.10662142209E+03  0.12663764573E+04  0.90990200537E+02 0.  0.
         11    1    3    3    0    0 -0.63034751432E+03 -0.51673382320E+03  0.66972284630E+02  0.81782462653E+03  0.00000000000E+00 0. -1.
        -11    1    3    3    0    0 -0.29906598482E+03 -0.33194310890E+03  0.39649137459E+02  0.44855183081E+03  0.00000000000E+00 0.  1.
         22    1    1    2    0    0  0.92941349914E+03  0.84867693211E+03  0.19768357995E+03  0.12740254257E+04  0.00000000000E+00 0.  1.
<mgrwt>
<rscale>  0 0.25221103E+04</rscale>
<asrwt>0</asrwt>
<pdfrwt beam="1">  1        2 0.17200745E+00 0.25221103E+04</pdfrwt>
<pdfrwt beam="2">  1       -2 0.21882361E+00 0.25221103E+04</pdfrwt>
<totfact> 0.19007023E+00</totfact>
</mgrwt>
</event>
<event>
 6    1  0.9512547E-007  0.4304684E+04  0.7818608E-02  0.7945753E-01
          2   -1    0    0  501    0  0.00000000000E+00  0.00000000000E+00  0.23820450644E+04  0.23820450644E+04  0.00000000000E+00 0. -1.
         -2   -1    0    0    0  501 -0.00000000000E+00 -0.00000000000E+00 -0.19447895636E+04  0.19447895636E+04  0.00000000000E+00 0.  1.
         23    2    1    2    0    0 -0.79813089124E+03 -0.96143467018E+03 -0.15417063920E+04  0.19863945587E+04  0.86805524997E+02 0.  0.
         13    1    3    3    0    0 -0.36031120153E+03 -0.46080222613E+03 -0.65853165282E+03  0.88081030382E+03  0.00000000000E+00 0. -1.
        -13    1    3    3    0    0 -0.43781968972E+03 -0.50063244405E+03 -0.88317473917E+03  0.11055842549E+04  0.00000000000E+00 0.  1.
         22    1    1    2    0    0  0.79813089124E+03  0.96143467018E+03  0.19789618928E+04  0.23404400693E+04  0.00000000000E+00 0. -1.
<mgrwt>
<rscale>  0 0.43046841E+04</rscale>
<asrwt>0</asrwt>
<pdfrwt beam="1">  1        2 0.36646847E+00 0.43046841E+04</pdfrwt>
<pdfrwt beam="2">  1       -2 0.29919840E+00 0.43046841E+04</pdfrwt>
<totfact> 0.10072744E-01</totfact>
</mgrwt>
</event>
<event>
 6    1  0.9512547E-007  0.2960081E+04  0.7818608E-02  0.8255223E-01
         -2   -1    0    0    0  501 -0.00000000000E+00  0.00000000000E+00  0.67469634429E+03  0.67469634429E+03  0.00000000000E+00 0.  1.
          2   -1    0    0  501    0  0.00000000000E+00 -0.00000000000E+00 -0.32466759957E+04  0.32466759957E+04  0.00000000000E+00 0. -1.
         23    2    1    2    0    0 -0.13603391919E+04  0.35671328014E+03 -0.18914686494E+04  0.23590464120E+04  0.98383135245E+02 0.  0.
         13    1    3    3    0    0 -0.91930236851E+03  0.19956755589E+03 -0.12237906926E+04  0.15435697954E+04  0.00000000000E+00 0. -1.
        -13    1    3    3    0    0 -0.44103682338E+03  0.15714572425E+03 -0.66767795681E+03  0.81547661661E+03  0.00000000000E+00 0.  1.
         22    1    1    2    0    0  0.13603391919E+04 -0.35671328014E+03 -0.68051100200E+03  0.15623259279E+04  0.00000000000E+00 0. -1.
<mgrwt>
<rscale>  0 0.29600814E+04</rscale>
<asrwt>0</asrwt>
<pdfrwt beam="1">  1        2 0.49948860E+00 0.29600814E+04</pdfrwt>
<pdfrwt beam="2">  1       -2 0.10379944E+00 0.29600814E+04</pdfrwt>
<totfact> 0.78370906E-01</totfact>
</mgrwt>
</event>
<event>
 6    1  0.9512547E-007  0.3190055E+04  0.7818608E-02  0.8191449E-01
          1   -1    0    0  501    0  0.00000000000E+00  0.00000000000E+00  0.26933822464E+04  0.26933822464E+04  0.00000000000E+00 0. -1.
         -1   -1    0    0    0  501 -0.00000000000E+00 -0.00000000000E+00 -0.94457919107E+03  0.94457919107E+03  0.00000000000E+00 0.  1.
         23    2    1    2    0    0  0.87923027574E+03  0.11986292395E+02  0.23908434085E+04  0.25491982106E+04  0.95340252318E+02 0.  0.
         13    1    3    3    0    0  0.35382701801E+03  0.36599724622E+02  0.10649499087E+04  0.11227873381E+04  0.00000000000E+00 0. -1.
        -13    1    3    3    0    0  0.52540325774E+03 -0.24613432227E+02  0.13258934998E+04  0.14264108725E+04  0.00000000000E+00 0.  1.
         22    1    1    2    0    0 -0.87923027574E+03 -0.11986292395E+02 -0.64204035323E+03  0.10887632269E+04  0.00000000000E+00 0.  1.
<mgrwt>
<rscale>  0 0.31900551E+04</rscale>
<asrwt>0</asrwt>
<pdfrwt beam="1">  1        1 0.41436650E+00 0.31900551E+04</pdfrwt>
<pdfrwt beam="2">  1       -1 0.14531988E+00 0.31900551E+04</pdfrwt>
<totfact> 0.31535993E-01</totfact>
</mgrwt>
</event>
<event>
 6    1  0.9512547E-007  0.2272406E+04  0.7818608E-02  0.8488881E-01
         -1   -1    0    0    0  501 -0.00000000000E+00  0.00000000000E+00  0.54421225262E+03  0.54421225262E+03  0.00000000000E+00 0.  1.
          1   -1    0    0  501    0  0.00000000000E+00 -0.00000000000E+00 -0.23721570321E+04  0.23721570321E+04  0.00000000000E+00 0. -1.
         23    2    1    2    0    0 -0.63013440713E+02 -0.72266810142E+03 -0.20346208116E+04  0.21620915767E+04  0.93478663525E+02 0.  0.
         13    1    3    3    0    0  0.20268948680E+02 -0.17970521904E+03 -0.45109741105E+03  0.48599760317E+03  0.00000000000E+00 0. -1.
        -13    1    3    3    0    0 -0.83282389393E+02 -0.54296288238E+03 -0.15835234005E+04  0.16760939735E+04  0.00000000000E+00 0.  1.
         22    1    1    2    0    0  0.63013440713E+02  0.72266810142E+03  0.20667603214E+03  0.75427770800E+03  0.00000000000E+00 0.  1.
<mgrwt>
<rscale>  0 0.22724057E+04</rscale>
<asrwt>0</asrwt>
<pdfrwt beam="1">  1        1 0.36494724E+00 0.22724057E+04</pdfrwt>
<pdfrwt beam="2">  1       -1 0.83724960E-01 0.22724057E+04</pdfrwt>
<totfact> 0.21279279E+00</totfact>
</mgrwt>
</event>
<event>
 6    1  0.9512547E-007  0.4708165E+04  0.7818608E-02  0.7875173E-01
          2   -1    0    0  501    0  0.00000000000E+00  0.00000000000E+00  0.45538212857E+04  0.45538212857E+04  0.00000000000E+00 0. -1.
         -2   -1    0    0    0  501 -0.00000000000E+00 -0.00000000000E+00 -0.12169351252E+04  0.12169351252E+04  0.00000000000E+00 0.  1.
         23    2    1    2    0    0 -0.70570370655E+03 -0.22061743003E+04  0.11605267061E+04  0.25924292976E+04  0.92976678138E+02 0.  0.
         13    1    3    3    0    0 -0.45473896973E+03 -0.15610346929E+04  0.81660322351E+03  0.18194663140E+04  0.00000000000E+00 0. -1.
        -13    1    3    3    0    0 -0.25096473682E+03 -0.64513960735E+03  0.34392348256E+03  0.77296298356E+03  0.00000000000E+00 0.  1.
         22    1    1    2    0    0  0.70570370655E+03  0.22061743003E+04  0.21763594544E+04  0.31783271134E+04  0.00000000000E+00 0. -1.
<mgrwt>
<rscale>  0 0.47081653E+04</rscale>
<asrwt>0</asrwt>
<pdfrwt beam="1">  1        2 0.70058788E+00 0.47081653E+04</pdfrwt>
<pdfrwt beam="2">  1       -2 0.18722079E+00 0.47081653E+04</pdfrwt>
<totfact> 0.12996816E-02</totfact>
</mgrwt>
</event>
<event>
 6    1  0.9512547E-007  0.2340582E+04  0.7818608E-02  0.8462090E-01
         -2   -1    0    0    0  501 -0.00000000000E+00  0.00000000000E+00  0.13514438645E+04  0.13514438645E+04  0.00000000000E+00 0.  1.
          2   -1    0    0  501    0  0.00000000000E+00 -0.00000000000E+00 -0.10134205882E+04  0.10134205882E+04  0.00000000000E+00 0. -1.
         23    2    1    2    0    0 -0.65533602611E+03  0.27040183572E+03  0.11078384039E+04  0.13183474722E+04  0.90286590908E+02 0.  0.
         11    1    3    3    0    0 -0.23210979586E+03  0.14030161625E+03  0.44870935916E+03  0.52430867803E+03  0.00000000000E+00 0. -1.
        -11    1    3    3    0    0 -0.42322623025E+03  0.13010021947E+03  0.65912904473E+03  0.79403879420E+03  0.00000000000E+00 0.  1.
         22    1    1    2    0    0  0.65533602611E+03 -0.27040183572E+03 -0.76981512757E+03  0.10465169805E+04  0.00000000000E+00 0. -1.
<mgrwt>
<rscale>  0 0.23405820E+04</rscale>
<asrwt>0</asrwt>
<pdfrwt beam="1">  1        2 0.15591086E+00 0.23405820E+04</pdfrwt>
<pdfrwt beam="2">  1       -2 0.20791444E+00 0.23405820E+04</pdfrwt>
<totfact> 0.26349415E+00</totfact>
</mgrwt>
</event>
<event>
 6    1  0.9512547E-007  0.2022092E+04  0.7818608E-02  0.8596361E-01
         -2   -1    0    0    0  501 -0.00000000000E+00  0.00000000000E+00  0.44338127360E+03  0.44338127360E+03  0.00000000000E+00 0.  1.
          2   -1    0    0  501    0  0.00000000000E+00 -0.00000000000E+00 -0.23054958491E+04  0.23054958491E+04  0.00000000000E+00 0. -1.
         23    2    1    2    0    0 -0.41902168437E+03 -0.30705698521E+03  0.24269789900E+03  0.58090601658E+03  0.93200674766E+02 0.  0.
         11    1    3    3    0    0 -0.18693578923E+03 -0.18841879943E+03  0.99085855131E+02  0.28331014800E+03  0.00000000000E+00 0. -1.
        -11    1    3    3    0    0 -0.23208589515E+03 -0.11863818578E+03  0.14361204387E+03  0.29759586858E+03  0.00000000000E+00 0.  1.
         22    1    1    2    0    0  0.41902168437E+03  0.30705698521E+03 -0.21048124745E+04  0.21679711061E+04  0.00000000000E+00 0. -1.
<mgrwt>
<rscale>  0 0.20220917E+04</rscale>
<asrwt>0</asrwt>
<pdfrwt beam="1">  1        2 0.35469167E+00 0.20220917E+04</pdfrwt>
<pdfrwt beam="2">  1       -2 0.68212504E-01 0.20220917E+04</pdfrwt>
<totfact> 0.82111443E+00</totfact>
</mgrwt>
</event>
<event>
 6    1  0.1054106E-006  0.2570477E+04  0.7818608E-02  0.8378299E-01
         -1   -1    0    0    0  501 -0.00000000000E+00  0.00000000000E+00  0.95654454603E+03  0.95654454603E+03  0.00000000000E+00 0.  1.
          1   -1    0    0  501    0  0.00000000000E+00 -0.00000000000E+00 -0.17268799417E+04  0.17268799417E+04  0.00000000000E+00 0. -1.
         23    2    1    2    0    0  0.21318885714E+03  0.11967143878E+04  0.45426689043E+02  0.12195110362E+04  0.86998669982E+02 0.  0.
         13    1    3    3    0    0  0.16365784085E+03  0.69590022000E+03  0.90850343428E+01  0.71494303474E+03  0.00000000000E+00 0. -1.
        -13    1    3    3    0    0  0.49531016293E+02  0.50081416779E+03  0.36341654700E+02  0.50456800146E+03  0.00000000000E+00 0.  1.
         22    1    1    2    0    0 -0.21318885714E+03 -0.11967143878E+04 -0.81576208472E+03  0.14639134515E+04  0.00000000000E+00 0. -1.
<mgrwt>
<rscale>  0 0.25704767E+04</rscale>
<asrwt>0</asrwt>
<pdfrwt beam="1">  1        1 0.26567383E+00 0.25704767E+04</pdfrwt>
<pdfrwt beam="2">  1       -1 0.14716070E+00 0.25704767E+04</pdfrwt>
<totfact> 0.14817557E+00</totfact>
</mgrwt>
</event>
<event>
 6    1  0.9512547E-007  0.2298018E+04  0.7818608E-02  0.8478703E-01
          1   -1    0    0  501    0  0.00000000000E+00  0.00000000000E+00  0.96912821330E+03  0.96912821330E+03  0.00000000000E+00 0. -1.
         -1   -1    0    0    0  501 -0.00000000000E+00 -0.00000000000E+00 -0.13622781594E+04  0.13622781594E+04  0.00000000000E+00 0.  1.
         23    2    1    2    0    0 -0.71661961325E+03 -0.74020986936E+03 -0.70896060431E+03  0.12538207879E+04  0.89370626895E+02 0.  0.
         13    1    3    3    0    0 -0.20389051410E+03 -0.15709441003E+03 -0.16417423762E+03  0.30529195158E+03  0.00000000000E+00 0.  1.
        -13    1    3    3    0    0 -0.51272909915E+03 -0.58311545933E+03 -0.54478636669E+03  0.94852883633E+03  0.00000000000E+00 0. -1.
         22    1    1    2    0    0  0.71661961325E+03  0.74020986936E+03  0.31581065817E+03  0.10775855848E+04  0.00000000000E+00 0.  1.
<mgrwt>
<rscale>  0 0.22980184E+04</rscale>
<asrwt>0</asrwt>
<pdfrwt beam="1">  1        1 0.14909665E+00 0.22980184E+04</pdfrwt>
<pdfrwt beam="2">  1       -1 0.20958126E+00 0.22980184E+04</pdfrwt>
<totfact> 0.18720445E+00</totfact>
</mgrwt>
</event>
<event>
 6    1  0.9512547E-007  0.1642562E+04  0.7818608E-02  0.8794819E-01
          3   -1    0    0  501    0  0.00000000000E+00  0.00000000000E+00  0.81426261374E+03  0.81426261374E+03  0.00000000000E+00 0. -1.
         -3   -1    0    0    0  501 -0.00000000000E+00 -0.00000000000E+00 -0.82836011102E+03  0.82836011102E+03  0.00000000000E+00 0.  1.
         23    2    1    2    0    0  0.52809164421E+03 -0.43283114498E+03  0.44461994343E+03  0.82003821533E+03  0.92478082505E+02 0.  0.
         13    1    3    3    0    0  0.43495650768E+03 -0.32370318889E+03  0.38340728129E+03  0.66405727269E+03  0.00000000000E+00 0. -1.
        -13    1    3    3    0    0  0.93135136533E+02 -0.10912795609E+03  0.61212662141E+02  0.15598094263E+03  0.00000000000E+00 0.  1.
         22    1    1    2    0    0 -0.52809164421E+03  0.43283114498E+03 -0.45871744072E+03  0.82258450944E+03  0.00000000000E+00 0.  1.
<mgrwt>
<rscale>  0 0.16425622E+04</rscale>
<asrwt>0</asrwt>
<pdfrwt beam="1">  1        3 0.12527117E+00 0.16425622E+04</pdfrwt>
<pdfrwt beam="2">  1       -3 0.12744002E+00 0.16425622E+04</pdfrwt>
<totfact> 0.62187972E-01</totfact>
</mgrwt>
</event>
<event>
 6    1  0.9512547E-007  0.2747040E+04  0.7818608E-02  0.8319902E-01
          1   -1    0    0  501    0  0.00000000000E+00  0.00000000000E+00  0.21640968926E+04  0.21640968926E+04  0.00000000000E+00 0. -1.
         -1   -1    0    0    0  501 -0.00000000000E+00 -0.00000000000E+00 -0.87175245040E+03  0.87175245040E+03  0.00000000000E+00 0.  1.
         23    2    1    2    0    0  0.56990269570E+03 -0.81482349119E+03  0.16916404584E+04  0.19643253288E+04  0.90554693199E+02 0.  0.
         13    1    3    3    0    0  0.13508238575E+03 -0.16849420067E+03  0.43864704130E+03  0.48892614314E+03  0.00000000000E+00 0. -1.
        -13    1    3    3    0    0  0.43482030995E+03 -0.64632929052E+03  0.12529934171E+04  0.14753991856E+04  0.00000000000E+00 0.  1.
         22    1    1    2    0    0 -0.56990269570E+03  0.81482349119E+03 -0.39929601625E+03  0.10715240142E+04  0.00000000000E+00 0.  1.
<mgrwt>
<rscale>  0 0.27470397E+04</rscale>
<asrwt>0</asrwt>
<pdfrwt beam="1">  1        1 0.33293798E+00 0.27470397E+04</pdfrwt>
<pdfrwt beam="2">  1       -1 0.13411576E+00 0.27470397E+04</pdfrwt>
<totfact> 0.93880534E-01</totfact>
</mgrwt>
</event>
<event>
 6    1  0.9512547E-007  0.1035037E+04  0.7818608E-02  0.9270931E-01
          2   -1    0    0  501    0  0.00000000000E+00  0.00000000000E+00  0.29810312981E+03  0.29810312981E+03  0.00000000000E+00 0. -1.
         -2   -1    0    0    0  501 -0.00000000000E+00 -0.00000000000E+00 -0.89843133451E+03  0.89843133451E+03  0.00000000000E+00 0.  1.
         23    2    1    2    0    0 -0.18344897932E+02 -0.44165705547E+03 -0.60460644158E+03  0.75447587857E+03  0.91035225169E+02 0.  0.
         13    1    3    3    0    0 -0.18448534869E+02 -0.36238025628E+03 -0.42946470652E+03  0.56222747419E+03  0.00000000000E+00 0.  1.
        -13    1    3    3    0    0  0.10363693730E+00 -0.79276799188E+02 -0.17514173506E+03  0.19224840439E+03  0.00000000000E+00 0. -1.
         22    1    1    2    0    0  0.18344897932E+02  0.44165705547E+03  0.42782368799E+01  0.44205858575E+03  0.00000000000E+00 0. -1.
<mgrwt>
<rscale>  0 0.10350366E+04</rscale>
<asrwt>0</asrwt>
<pdfrwt beam="1">  1        2 0.45862020E-01 0.10350366E+04</pdfrwt>
<pdfrwt beam="2">  1       -2 0.13822020E+00 0.10350366E+04</pdfrwt>
<totfact> 0.40875623E+01</totfact>
</mgrwt>
</event>
<event>
 6    1  0.9512547E-007  0.4195476E+04  0.7818608E-02  0.7966233E-01
         -1   -1    0    0    0  501 -0.00000000000E+00  0.00000000000E+00  0.14312147484E+04  0.14312147484E+04  0.00000000000E+00 0.  1.
          1   -1    0    0  501    0  0.00000000000E+00 -0.00000000000E+00 -0.30746648779E+04  0.30746648779E+04  0.00000000000E+00 0. -1.
         23    2    1    2    0    0  0.16097584511E+04  0.83991553925E+03  0.30415413682E+03  0.18431849833E+04  0.89670282769E+02 0.  0.
         13    1    3    3    0    0  0.58422907024E+03  0.34472186458E+03  0.13902405026E+03  0.69244816195E+03  0.00000000000E+00 0.  1.
        -13    1    3    3    0    0  0.10255293809E+04  0.49519367467E+03  0.16513008656E+03  0.11507368213E+04  0.00000000000E+00 0. -1.
         22    1    1    2    0    0 -0.16097584511E+04 -0.83991553925E+03 -0.19476042663E+04  0.26626946431E+04  0.00000000000E+00 0. -1.
<mgrwt>
<rscale>  0 0.41954765E+04</rscale>
<asrwt>0</asrwt>
<pdfrwt beam="1">  1        1 0.47302537E+00 0.41954765E+04</pdfrwt>
<pdfrwt beam="2">  1       -1 0.22018688E+00 0.41954765E+04</pdfrwt>
<totfact> 0.44511086E-02</totfact>
</mgrwt>
</event>
<event>
 6    1  0.9512547E-007  0.2334777E+04  0.7818608E-02  0.8464334E-01
         -2   -1    0    0    0  501 -0.00000000000E+00  0.00000000000E+00  0.68144892333E+03  0.68144892333E+03  0.00000000000E+00 0.  1.
          2   -1    0    0  501    0  0.00000000000E+00 -0.00000000000E+00 -0.19998511324E+04  0.19998511324E+04  0.00000000000E+00 0. -1.
         23    2    1    2    0    0 -0.28178402703E+03  0.95167684463E+03  0.41854369862E+02  0.99743871494E+03  0.89672444428E+02 0.  0.
         13    1    3    3    0    0 -0.98692137587E+02  0.48460124139E+03  0.33648590169E+02  0.49569217142E+03  0.00000000000E+00 0.  1.
        -13    1    3    3    0    0 -0.18309188944E+03  0.46707560324E+03  0.82057796929E+01  0.50174654352E+03  0.00000000000E+00 0. -1.
         22    1    1    2    0    0  0.28178402703E+03 -0.95167684463E+03 -0.13602565789E+04  0.16838613408E+04  0.00000000000E+00 0. -1.
<mgrwt>
<rscale>  0 0.23347774E+04</rscale>
<asrwt>0</asrwt>
<pdfrwt beam="1">  1        2 0.30766940E+00 0.23347774E+04</pdfrwt>
<pdfrwt beam="2">  1       -2 0.10483830E+00 0.23347774E+04</pdfrwt>
<totfact> 0.44570730E+00</totfact>
</mgrwt>
</event>
<event>
 6    1  0.9512547E-007  0.2413571E+04  0.7818608E-02  0.8434440E-01
          2   -1    0    0  501    0  0.00000000000E+00  0.00000000000E+00  0.19849502908E+04  0.19849502908E+04  0.00000000000E+00 0. -1.
         -2   -1    0    0    0  501 -0.00000000000E+00 -0.00000000000E+00 -0.73368642733E+03  0.73368642733E+03  0.00000000000E+00 0.  1.
         23    2    1    2    0    0  0.11448922390E+04  0.73787701730E+01  0.10511535379E+04  0.15563644490E+04  0.80708441102E+02 0.  0.
         13    1    3    3    0    0  0.31148186197E+03 -0.85764536554E+01  0.33367223096E+03  0.45654316730E+03  0.00000000000E+00 0.  1.
        -13    1    3    3    0    0  0.83341037706E+03  0.15955223828E+02  0.71748130698E+03  0.10998212817E+04  0.00000000000E+00 0. -1.
         22    1    1    2    0    0 -0.11448922390E+04 -0.73787701730E+01  0.20011032550E+03  0.11622722691E+04  0.00000000000E+00 0.  1.
<mgrwt>
<rscale>  0 0.24135709E+04</rscale>
<asrwt>0</asrwt>
<pdfrwt beam="1">  1        2 0.30537697E+00 0.24135709E+04</pdfrwt>
<pdfrwt beam="2">  1       -2 0.11287484E+00 0.24135709E+04</pdfrwt>
<totfact> 0.37754292E+00</totfact>
</mgrwt>
</event>
<event>
 6    1  0.9512547E-007  0.1220160E+04  0.7818608E-02  0.9095391E-01
         -2   -1    0    0    0  501 -0.00000000000E+00  0.00000000000E+00  0.17445465381E+03  0.17445465381E+03  0.00000000000E+00 0.  1.
          2   -1    0    0  501    0  0.00000000000E+00 -0.00000000000E+00 -0.21334929580E+04  0.21334929580E+04  0.00000000000E+00 0. -1.
         23    2    1    2    0    0  0.46565649390E+02 -0.45254991258E+03 -0.22596867170E+03  0.51616075670E+03  0.91598597602E+02 0.  0.
         13    1    3    3    0    0 -0.15394247364E+02 -0.27685304155E+03 -0.14669490870E+03  0.31369409575E+03  0.00000000000E+00 0.  1.
        -13    1    3    3    0    0  0.61959896754E+02 -0.17569687103E+03 -0.79273762999E+02  0.20246666095E+03  0.00000000000E+00 0. -1.
         22    1    1    2    0    0 -0.46565649390E+02  0.45254991258E+03 -0.17330696325E+04  0.17917868551E+04  0.00000000000E+00 0. -1.
<mgrwt>
<rscale>  0 0.12201603E+04</rscale>
<asrwt>0</asrwt>
<pdfrwt beam="1">  1        2 0.32822966E+00 0.12201603E+04</pdfrwt>
<pdfrwt beam="2">  1       -2 0.26839180E-01 0.12201603E+04</pdfrwt>
<totfact> 0.70044710E+01</totfact>
</mgrwt>
</event>
<event>
 6    1  0.9512547E-007  0.1720856E+04  0.7818608E-02  0.8749558E-01
          2   -1    0    0  501    0  0.00000000000E+00  0.00000000000E+00  0.26705055563E+04  0.26705055563E+04  0.00000000000E+00 0. -1.
         -2   -1    0    0    0  501 -0.00000000000E+00 -0.00000000000E+00 -0.27722702020E+03  0.27722702020E+03  0.00000000000E+00 0.  1.
         23    2    1    2    0    0  0.22011907322E+03 -0.68144662875E+02  0.26157324181E+04  0.26274485914E+04  0.91290282104E+02 0.  0.
         11    1    3    3    0    0  0.12426027706E+03 -0.76008848939E+02  0.18443219658E+04  0.18500652624E+04  0.00000000000E+00 0.  1.
        -11    1    3    3    0    0  0.95858796162E+02  0.78641860639E+01  0.77141045229E+03  0.77738332895E+03  0.00000000000E+00 0. -1.
         22    1    1    2    0    0 -0.22011907322E+03  0.68144662875E+02 -0.22245388205E+03  0.32028398510E+03  0.00000000000E+00 0.  1.
<mgrwt>
<rscale>  0 0.17208559E+04</rscale>
<asrwt>0</asrwt>
<pdfrwt beam="1">  1        2 0.41084699E+00 0.17208559E+04</pdfrwt>
<pdfrwt beam="2">  1       -2 0.42650313E-01 0.17208559E+04</pdfrwt>
<totfact> 0.13722018E+01</totfact>
</mgrwt>
</event>
<event>
 6    1  0.9512547E-007  0.5485712E+04  0.7818608E-02  0.7757658E-01
         -2   -1    0    0    0  501 -0.00000000000E+00  0.00000000000E+00  0.25944289032E+04  0.25944289032E+04  0.00000000000E+00 0.  1.
          2   -1    0    0  501    0  0.00000000000E+00 -0.00000000000E+00 -0.28997747782E+04  0.28997747782E+04  0.00000000000E+00 0. -1.
         23    2    1    2    0    0 -0.44911572295E+03 -0.25168260906E+04 -0.11446650576E+04  0.28033719897E+04  0.11188349308E+03 0.  0.
         13    1    3    3    0    0 -0.28800022430E+03 -0.18691518276E+04 -0.86797521826E+03  0.20808780991E+04  0.00000000000E+00 0.  1.
        -13    1    3    3    0    0 -0.16111549864E+03 -0.64767426301E+03 -0.27668983929E+03  0.72249389065E+03  0.00000000000E+00 0. -1.
         22    1    1    2    0    0  0.44911572295E+03  0.25168260906E+04  0.83931918248E+03  0.26908316917E+04  0.00000000000E+00 0.  1.
<mgrwt>
<rscale>  0 0.54857122E+04</rscale>
<asrwt>0</asrwt>
<pdfrwt beam="1">  1        2 0.44611919E+00 0.54857122E+04</pdfrwt>
<pdfrwt beam="2">  1       -2 0.39914291E+00 0.54857122E+04</pdfrwt>
<totfact> 0.10594045E-02</totfact>
</mgrwt>
</event>
<event>
 6    1  0.9512547E-007  0.3692208E+04  0.7818608E-02  0.8069691E-01
         -1   -1    0    0    0  501 -0.00000000000E+00  0.00000000000E+00  0.22348756291E+04  0.22348756291E+04  0.00000000000E+00 0.  1.
          1   -1    0    0  501    0  0.00000000000E+00 -0.00000000000E+00 -0.15249617078E+04  0.15249617078E+04  0.00000000000E+00 0. -1.
         23    2    1    2    0    0 -0.14671622551E+04  0.46630006695E+02 -0.78301690351E+03  0.16661368120E+04  0.90315917721E+02 0.  0.
         11    1    3    3    0    0 -0.50647593541E+03 -0.20959437960E+02 -0.24555576499E+03  0.56325376600E+03  0.00000000000E+00 0.  1.
        -11    1    3    3    0    0 -0.96068631967E+03  0.67589444655E+02 -0.53746113852E+03  0.11028830460E+04  0.00000000000E+00 0. -1.
         22    1    1    2    0    0  0.14671622551E+04 -0.46630006695E+02  0.14929308248E+04  0.20937005249E+04  0.00000000000E+00 0.  1.
<mgrwt>
<rscale>  0 0.36922079E+04</rscale>
<asrwt>0</asrwt>
<pdfrwt beam="1">  1        1 0.23460950E+00 0.36922079E+04</pdfrwt>
<pdfrwt beam="2">  1       -1 0.34382702E+00 0.36922079E+04</pdfrwt>
<totfact> 0.86121664E-02</totfact>
</mgrwt>
</event>
<event>
 6    1  0.9512547E-007  0.5758710E+03  0.7818608E-02  0.9956771E-01
         -1   -1    0    0    0  501 -0.00000000000E+00  0.00000000000E+00  0.90979520393E+02  0.90979520393E+02  0.00000000000E+00 0.  1.
          1   -1    0    0  501    0  0.00000000000E+00 -0.00000000000E+00 -0.91126923801E+03  0.91126923801E+03  0.00000000000E+00 0. -1.
         23    2    1    2    0    0  0.18811560863E+03  0.13262459183E+03 -0.14040801376E+03  0.28446334771E+03  0.90709543549E+02 0.  0.
         13    1    3    3    0    0  0.81945250699E+02  0.11016178624E+03 -0.62387181199E+02  0.15080717369E+03  0.00000000000E+00 0. -1.
        -13    1    3    3    0    0  0.10617035793E+03  0.22462805596E+02 -0.78020832563E+02  0.13365617402E+03  0.00000000000E+00 0.  1.
         22    1    1    2    0    0 -0.18811560863E+03 -0.13262459183E+03 -0.67988170386E+03  0.71778541070E+03  0.00000000000E+00 0. -1.
<mgrwt>
<rscale>  0 0.57587095E+03</rscale>
<asrwt>0</asrwt>
<pdfrwt beam="1">  1        1 0.14019527E+00 0.57587095E+03</pdfrwt>
<pdfrwt beam="2">  1       -1 0.13996849E-01 0.57587095E+03</pdfrwt>
<totfact> 0.66430118E+02</totfact>
</mgrwt>
</event>
<event>
 6    1  0.9512547E-007  0.2772548E+04  0.7818608E-02  0.8311842E-01
         -1   -1    0    0    0  501 -0.00000000000E+00  0.00000000000E+00  0.11497493249E+04  0.11497493249E+04  0.00000000000E+00 0.  1.
          1   -1    0    0  501    0  0.00000000000E+00 -0.00000000000E+00 -0.16714558469E+04  0.16714558469E+04  0.00000000000E+00 0. -1.
         23    2    1    2    0    0  0.80142365637E+03 -0.10078485763E+04  0.25735222981E+03  0.13162230561E+04  0.90412020959E+02 0.  0.
         13    1    3    3    0    0  0.27278832822E+03 -0.30881759968E+03  0.45355896333E+02  0.41453460557E+03  0.00000000000E+00 0. -1.
        -13    1    3    3    0    0  0.52863532815E+03 -0.69903097660E+03  0.21199633348E+03  0.90168845053E+03  0.00000000000E+00 0.  1.
         22    1    1    2    0    0 -0.80142365637E+03  0.10078485763E+04 -0.77905875182E+03  0.15049821157E+04  0.00000000000E+00 0. -1.
<mgrwt>
<rscale>  0 0.27725477E+04</rscale>
<asrwt>0</asrwt>
<pdfrwt beam="1">  1        1 0.25714705E+00 0.27725477E+04</pdfrwt>
<pdfrwt beam="2">  1       -1 0.17688451E+00 0.27725477E+04</pdfrwt>
<totfact> 0.94810645E-01</totfact>
</mgrwt>
</event>
<event>
 6    1  0.9512547E-007  0.2152727E+04  0.7818608E-02  0.8538366E-01
          2   -1    0    0  501    0  0.00000000000E+00  0.00000000000E+00  0.18362158365E+04  0.18362158365E+04  0.00000000000E+00 0. -1.
         -2   -1    0    0    0  501 -0.00000000000E+00 -0.00000000000E+00 -0.63094899981E+03  0.63094899981E+03  0.00000000000E+00 0.  1.
         23    2    1    2    0    0 -0.40779619308E+03 -0.64398721415E+03  0.14713080201E+04  0.16598265068E+04  0.96226169647E+02 0.  0.
         11    1    3    3    0    0 -0.24905928104E+03 -0.42273246361E+03  0.10369316019E+04  0.11471531756E+04  0.00000000000E+00 0. -1.
        -11    1    3    3    0    0 -0.15873691204E+03 -0.22125475054E+03  0.43437641816E+03  0.51267333121E+03  0.00000000000E+00 0.  1.
         22    1    1    2    0    0  0.40779619308E+03  0.64398721415E+03 -0.26604118335E+03  0.80733832953E+03  0.00000000000E+00 0.  1.
<mgrwt>
<rscale>  0 0.21527271E+04</rscale>
<asrwt>0</asrwt>
<pdfrwt beam="1">  1        2 0.28249474E+00 0.21527271E+04</pdfrwt>
<pdfrwt beam="2">  1       -2 0.97069078E-01 0.21527271E+04</pdfrwt>
<totfact> 0.66982450E+00</totfact>
</mgrwt>
</event>
<event>
 6    1  0.9512547E-007  0.2721769E+04  0.7818608E-02  0.8327976E-01
         -1   -1    0    0    0  501 -0.00000000000E+00  0.00000000000E+00  0.27088999967E+04  0.27088999967E+04  0.00000000000E+00 0.  1.
          1   -1    0    0  501    0  0.00000000000E+00 -0.00000000000E+00 -0.68367466357E+03  0.68367466357E+03  0.00000000000E+00 0. -1.
         23    2    1    2    0    0  0.29417292742E+03 -0.11219187857E+04  0.18970129132E+04  0.22256651104E+04  0.98426206026E+02 0.  0.
         11    1    3    3    0    0  0.54893057418E+01 -0.14721992076E+03  0.22881032129E+03  0.27213599665E+03  0.00000000000E+00 0.  1.
        -11    1    3    3    0    0  0.28868362167E+03 -0.97469886495E+03  0.16682025919E+04  0.19535291138E+04  0.00000000000E+00 0. -1.
         22    1    1    2    0    0 -0.29417292742E+03  0.11219187857E+04  0.12821241999E+03  0.11669095499E+04  0.00000000000E+00 0. -1.
<mgrwt>
<rscale>  0 0.27217688E+04</rscale>
<asrwt>0</asrwt>
<pdfrwt beam="1">  1        1 0.10518072E+00 0.27217688E+04</pdfrwt>
<pdfrwt beam="2">  1       -1 0.41675384E+00 0.27217688E+04</pdfrwt>
<totfact> 0.13501537E-01</totfact>
</mgrwt>
</event>
<event>
 6    1  0.9512547E-007  0.4486681E+04  0.7818608E-02  0.7912973E-01
         -3   -1    0    0    0  501 -0.00000000000E+00  0.00000000000E+00  0.30927782841E+04  0.30927782841E+04  0.00000000000E+00 0.  1.
          3   -1    0    0  501    0  0.00000000000E+00 -0.00000000000E+00 -0.16272026053E+04  0.16272026053E+04  0.00000000000E+00 0. -1.
         23    2    1    2    0    0  0.73120650219E+03 -0.19282141296E+03 -0.14877677982E+04  0.16713614084E+04  0.90293355100E+02 0.  0.
         11    1    3    3    0    0  0.28113481615E+03 -0.11887213492E+03 -0.61690699587E+03  0.68828890073E+03  0.00000000000E+00 0.  1.
        -11    1    3    3    0    0  0.45007168604E+03 -0.73949278030E+02 -0.87086080237E+03  0.98307250771E+03  0.00000000000E+00 0. -1.
         22    1    1    2    0    0 -0.73120650219E+03  0.19282141296E+03  0.29533434771E+04  0.30486194810E+04  0.00000000000E+00 0.  1.
<mgrwt>
<rscale>  0 0.44866811E+04</rscale>
<asrwt>0</asrwt>
<pdfrwt beam="1">  1        3 0.25033886E+00 0.44866811E+04</pdfrwt>
<pdfrwt beam="2">  1       -3 0.47581204E+00 0.44866811E+04</pdfrwt>
<totfact> 0.58549708E-04</totfact>
</mgrwt>
</event>
<event>
 6    1  0.9512547E-007  0.2157399E+04  0.7818608E-02  0.8536372E-01
         -1   -1    0    0    0  501 -0.00000000000E+00  0.00000000000E+00  0.90759846038E+03  0.90759846038E+03  0.00000000000E+00 0.  1.
          1   -1    0    0  501    0  0.00000000000E+00 -0.00000000000E+00 -0.12820566712E+04  0.12820566712E+04  0.00000000000E+00 0. -1.
         23    2    1    2    0    0  0.98704143324E+03  0.41574082465E+03 -0.74735235641E+02  0.10774837932E+04  0.91075489888E+02 0.  0.
         13    1    3    3    0    0  0.33907051523E+02 -0.25514353860E+01 -0.29256123319E+01  0.34128538982E+02  0.00000000000E+00 0.  1.
        -13    1    3    3    0    0  0.95313438172E+03  0.41829226003E+03 -0.71809623309E+02  0.10433552542E+04  0.00000000000E+00 0. -1.
         22    1    1    2    0    0 -0.98704143324E+03 -0.41574082465E+03 -0.29972297522E+03  0.11121713385E+04  0.00000000000E+00 0. -1.
<mgrwt>
<rscale>  0 0.21573990E+04</rscale>
<asrwt>0</asrwt>
<pdfrwt beam="1">  1        1 0.19723949E+00 0.21573990E+04</pdfrwt>
<pdfrwt beam="2">  1       -1 0.13963053E+00 0.21573990E+04</pdfrwt>
<totfact> 0.35991086E+00</totfact>
</mgrwt>
</event>
<event>
 6    1  0.9512547E-007  0.4351352E+04  0.7818608E-02  0.7937190E-01
         -2   -1    0    0    0  501 -0.00000000000E+00  0.00000000000E+00  0.19201211453E+04  0.19201211453E+04  0.00000000000E+00 0.  1.
          2   -1    0    0  501    0  0.00000000000E+00 -0.00000000000E+00 -0.24652439819E+04  0.24652439819E+04  0.00000000000E+00 0. -1.
         23    2    1    2    0    0 -0.18822916110E+04 -0.10843916312E+04 -0.37672591852E+03  0.22065387365E+04  0.89240457829E+02 0.  0.
         11    1    3    3    0    0 -0.12541129309E+04 -0.67354967252E+03 -0.24772859130E+03  0.14449352442E+04  0.00000000000E+00 0.  1.
        -11    1    3    3    0    0 -0.62817868009E+03 -0.41084195865E+03 -0.12899732723E+03  0.76160349233E+03  0.00000000000E+00 0. -1.
         22    1    1    2    0    0  0.18822916110E+04  0.10843916312E+04 -0.16839691812E+03  0.21788263907E+04  0.00000000000E+00 0. -1.
<mgrwt>
<rscale>  0 0.43513525E+04</rscale>
<asrwt>0</asrwt>
<pdfrwt beam="1">  1        2 0.37926830E+00 0.43513525E+04</pdfrwt>
<pdfrwt beam="2">  1       -2 0.29540325E+00 0.43513525E+04</pdfrwt>
<totfact> 0.94817492E-02</totfact>
</mgrwt>
</event>
<event>
 6    1  0.9512547E-007  0.2041350E+04  0.7818608E-02  0.8587529E-01
          2   -1    0    0  501    0  0.00000000000E+00  0.00000000000E+00  0.21890950246E+04  0.21890950246E+04  0.00000000000E+00 0. -1.
         -2   -1    0    0    0  501 -0.00000000000E+00 -0.00000000000E+00 -0.47589416213E+03  0.47589416213E+03  0.00000000000E+00 0.  1.
         23    2    1    2    0    0  0.75002950575E+03  0.30671146597E+03  0.52656917303E+02  0.81728185691E+03  0.92524050155E+02 0.  0.
         13    1    3    3    0    0  0.63365504656E+03  0.24361089157E+03  0.75101121303E+02  0.68301183222E+03  0.00000000000E+00 0.  1.
        -13    1    3    3    0    0  0.11637445918E+03  0.63100574396E+02 -0.22444204000E+02  0.13427002470E+03  0.00000000000E+00 0. -1.
         22    1    1    2    0    0 -0.75002950575E+03 -0.30671146597E+03  0.16605439452E+04  0.18477073298E+04  0.00000000000E+00 0. -1.
<mgrwt>
<rscale>  0 0.20413501E+04</rscale>
<asrwt>0</asrwt>
<pdfrwt beam="1">  1        2 0.33678384E+00 0.20413501E+04</pdfrwt>
<pdfrwt beam="2">  1       -2 0.73214488E-01 0.20413501E+04</pdfrwt>
<totfact> 0.81678235E+00</totfact>
</mgrwt>
</event>
<event>
 6    1  0.9512547E-007  0.2924794E+04  0.7818608E-02  0.8265538E-01
          1   -1    0    0  501    0  0.00000000000E+00  0.00000000000E+00  0.24280297991E+04  0.24280297991E+04  0.00000000000E+00 0. -1.
         -1   -1    0    0    0  501 -0.00000000000E+00 -0.00000000000E+00 -0.88079859115E+03  0.88079859115E+03  0.00000000000E+00 0.  1.
         23    2    1    2    0    0 -0.14589560612E+04 -0.62264391660E+02  0.82380229755E+03  0.16791722819E+04  0.92410410317E+02 0.  0.
         13    1    3    3    0    0 -0.53998331707E+03 -0.63256411921E+02  0.32866366023E+03  0.63529769236E+03  0.00000000000E+00 0. -1.
        -13    1    3    3    0    0 -0.91897274413E+03  0.99202026076E+00  0.49513863732E+03  0.10438745896E+04  0.00000000000E+00 0.  1.
         22    1    1    2    0    0  0.14589560612E+04  0.62264391660E+02  0.72342891039E+03  0.16296561083E+04  0.00000000000E+00 0.  1.
<mgrwt>
<rscale>  0 0.29247942E+04</rscale>
<asrwt>0</asrwt>
<pdfrwt beam="1">  1        1 0.37354304E+00 0.29247942E+04</pdfrwt>
<pdfrwt beam="2">  1       -1 0.13550748E+00 0.29247942E+04</pdfrwt>
<totfact> 0.59356406E-01</totfact>
</mgrwt>
</event>
<event>
 6    1  0.9512547E-007  0.2065929E+04  0.7818608E-02  0.8576402E-01
          2   -1    0    0  501    0  0.00000000000E+00  0.00000000000E+00  0.12077867973E+04  0.12077867973E+04  0.00000000000E+00 0. -1.
         -2   -1    0    0    0  501 -0.00000000000E+00 -0.00000000000E+00 -0.88344680016E+03  0.88344680016E+03  0.00000000000E+00 0.  1.
         23    2    1    2    0    0  0.36842250980E+03  0.53272952664E+03  0.97442966992E+03  0.11735449373E+04  0.90325212899E+02 0.  0.
         13    1    3    3    0    0  0.17157274670E+03  0.22579648293E+03  0.50449724663E+03  0.57873891434E+03  0.00000000000E+00 0. -1.
        -13    1    3    3    0    0  0.19684976309E+03  0.30693304371E+03  0.46993242328E+03  0.59480602301E+03  0.00000000000E+00 0.  1.
         22    1    1    2    0    0 -0.36842250980E+03 -0.53272952664E+03 -0.65008967276E+03  0.91768866012E+03  0.00000000000E+00 0.  1.
<mgrwt>
<rscale>  0 0.20659287E+04</rscale>
<asrwt>0</asrwt>
<pdfrwt beam="1">  1        2 0.18581335E+00 0.20659287E+04</pdfrwt>
<pdfrwt beam="2">  1       -2 0.13591489E+00 0.20659287E+04</pdfrwt>
<totfact> 0.67154322E+00</totfact>
</mgrwt>
</event>
<event>
 6    1  0.9512547E-007  0.1636122E+04  0.7818608E-02  0.8798659E-01
          1   -1    0    0  501    0  0.00000000000E+00  0.00000000000E+00  0.27051205603E+04  0.27051205603E+04  0.00000000000E+00 0. -1.
         -1   -1    0    0    0  501 -0.00000000000E+00 -0.00000000000E+00 -0.24739151312E+03  0.24739151312E+03  0.00000000000E+00 0.  1.
         23    2    1    2    0    0  0.16456655804E+01 -0.39206244615E+03  0.25231272598E+04  0.25550292485E+04  0.91036376960E+02 0.  0.
         13    1    3    3    0    0 -0.28727739062E+02 -0.14668813420E+03  0.11686730207E+04  0.11781932443E+04  0.00000000000E+00 0. -1.
        -13    1    3    3    0    0  0.30373404642E+02 -0.24537431195E+03  0.13544542391E+04  0.13768360042E+04  0.00000000000E+00 0.  1.
         22    1    1    2    0    0 -0.16456655804E+01  0.39206244615E+03 -0.65398212575E+02  0.39748282491E+03  0.00000000000E+00 0.  1.
<mgrwt>
<rscale>  0 0.16361221E+04</rscale>
<asrwt>0</asrwt>
<pdfrwt beam="1">  1        1 0.41617237E+00 0.16361221E+04</pdfrwt>
<pdfrwt beam="2">  1       -1 0.38060235E-01 0.16361221E+04</pdfrwt>
<totfact> 0.62272658E+00</totfact>
</mgrwt>
</event>
<event>
 6    1  0.9512547E-007  0.5724961E+03  0.7818608E-02  0.9964170E-01
          1   -1    0    0  501    0  0.00000000000E+00  0.00000000000E+00  0.36373857846E+04  0.36373857846E+04  0.00000000000E+00 0. -1.
         -1   -1    0    0    0  501 -0.00000000000E+00 -0.00000000000E+00 -0.22526602905E+02  0.22526602905E+02  0.00000000000E+00 0.  1.
         23    2    1    2    0    0  0.11331894773E+03  0.19491450432E+03  0.29040070916E+04  0.29141620661E+04  0.90832325880E+02 0.  0.
         13    1    3    3    0    0 -0.64324503692E-01  0.84924204251E+02  0.10693619764E+04  0.10727288386E+04  0.00000000000E+00 0. -1.
        -13    1    3    3    0    0  0.11338327223E+03  0.10999030007E+03  0.18346451152E+04  0.18414332275E+04  0.00000000000E+00 0.  1.
         22    1    1    2    0    0 -0.11331894773E+03 -0.19491450432E+03  0.71085209014E+03  0.74575032146E+03  0.00000000000E+00 0.  1.
<mgrwt>
<rscale>  0 0.57249610E+03</rscale>
<asrwt>0</asrwt>
<pdfrwt beam="1">  1        1 0.55959735E+00 0.57249610E+03</pdfrwt>
<pdfrwt beam="2">  1       -1 0.34656341E-02 0.57249610E+03</pdfrwt>
<totfact> 0.69908641E+01</totfact>
</mgrwt>
</event>
<event>
 6    1  0.9512547E-007  0.5511991E+03  0.7818608E-02  0.1001217E+00
         -2   -1    0    0    0  501 -0.00000000000E+00  0.00000000000E+00  0.67640490818E+02  0.67640490818E+02  0.00000000000E+00 0.  1.
          2   -1    0    0  501    0  0.00000000000E+00 -0.00000000000E+00 -0.11229238676E+04  0.11229238676E+04  0.00000000000E+00 0. -1.
         23    2    1    2    0    0 -0.20565102596E+03 -0.16978954189E+03 -0.60871905572E+03  0.67042925495E+03  0.88406244639E+02 0.  0.
         13    1    3    3    0    0 -0.13856214799E+03 -0.71662156543E+02 -0.27489706244E+03  0.31607487796E+03  0.00000000000E+00 0.  1.
        -13    1    3    3    0    0 -0.67088877966E+02 -0.98127385348E+02 -0.33382199328E+03  0.35435437700E+03  0.00000000000E+00 0. -1.
         22    1    1    2    0    0  0.20565102596E+03  0.16978954189E+03 -0.44656432110E+03  0.52013510350E+03  0.00000000000E+00 0. -1.
<mgrwt>
<rscale>  0 0.55119913E+03</rscale>
<asrwt>0</asrwt>
<pdfrwt beam="1">  1        2 0.17275753E+00 0.55119913E+03</pdfrwt>
<pdfrwt beam="2">  1       -2 0.10406229E-01 0.55119913E+03</pdfrwt>
<totfact> 0.13703936E+03</totfact>
</mgrwt>
</event>
<event>
 6    1  0.9512547E-007  0.3868349E+03  0.7818608E-02  0.1048436E+00
          2   -1    0    0  501    0  0.00000000000E+00  0.00000000000E+00  0.69054424152E+03  0.69054424152E+03  0.00000000000E+00 0. -1.
         -2   -1    0    0    0  501 -0.00000000000E+00 -0.00000000000E+00 -0.54175120114E+02  0.54175120114E+02  0.00000000000E+00 0.  1.
         23    2    1    2    0    0 -0.18232392665E+01  0.24526304124E+02  0.68439776280E+03  0.69075998628E+03  0.90245205559E+02 0.  0.
         13    1    3    3    0    0 -0.18082025557E+02 -0.27252287610E+02  0.39247215561E+03  0.39383250216E+03  0.00000000000E+00 0.  1.
        -13    1    3    3    0    0  0.16258786290E+02  0.51778591734E+02  0.29192560719E+03  0.29692748412E+03  0.00000000000E+00 0. -1.
         22    1    1    2    0    0  0.18232392665E+01 -0.24526304124E+02 -0.48028641388E+02  0.53959375358E+02  0.00000000000E+00 0.  1.
<mgrwt>
<rscale>  0 0.38683494E+03</rscale>
<asrwt>0</asrwt>
<pdfrwt beam="1">  1        2 0.10623757E+00 0.38683494E+03</pdfrwt>
<pdfrwt beam="2">  1       -2 0.83346343E-02 0.38683494E+03</pdfrwt>
<totfact> 0.38003469E+03</totfact>
</mgrwt>
</event>
<event>
 6    1  0.9512547E-007  0.1382612E+04  0.7818608E-02  0.8966502E-01
         -2   -1    0    0    0  501 -0.00000000000E+00  0.00000000000E+00  0.75727527893E+03  0.75727527893E+03  0.00000000000E+00 0.  1.
          2   -1    0    0  501    0  0.00000000000E+00 -0.00000000000E+00 -0.63108327812E+03  0.63108327812E+03  0.00000000000E+00 0. -1.
         23    2    1    2    0    0  0.27548126460E+03  0.39561433645E+03  0.55685005773E+03  0.74193223307E+03  0.89335442696E+02 0.  0.
         13    1    3    3    0    0  0.41299965648E+02  0.10399436578E+03  0.89082176632E+02  0.14302499596E+03  0.00000000000E+00 0.  1.
        -13    1    3    3    0    0  0.23418129895E+03  0.29161997067E+03  0.46776788110E+03  0.59890723711E+03  0.00000000000E+00 0. -1.
         22    1    1    2    0    0 -0.27548126460E+03 -0.39561433645E+03 -0.43065805692E+03  0.64642632398E+03  0.00000000000E+00 0. -1.
<mgrwt>
<rscale>  0 0.13826117E+04</rscale>
<asrwt>0</asrwt>
<pdfrwt beam="1">  1        2 0.97089735E-01 0.13826117E+04</pdfrwt>
<pdfrwt beam="2">  1       -2 0.11650389E+00 0.13826117E+04</pdfrwt>
<totfact> 0.25954284E+01</totfact>
</mgrwt>
</event>
<event>
 6    1  0.9512547E-007  0.1170098E+04  0.7818608E-02  0.9139440E-01
          2   -1    0    0  501    0  0.00000000000E+00  0.00000000000E+00  0.12464566600E+04  0.12464566600E+04  0.00000000000E+00 0. -1.
         -2   -1    0    0    0  501 -0.00000000000E+00 -0.00000000000E+00 -0.27460431843E+03  0.27460431843E+03  0.00000000000E+00 0.  1.
         23    2    1    2    0    0  0.21006324479E+03  0.32678180336E+03  0.10513420448E+04  0.11245366706E+04  0.91376772203E+02 0.  0.
         13    1    3    3    0    0  0.47875839444E+02  0.15731851440E+03  0.44339720889E+03  0.47290833766E+03  0.00000000000E+00 0.  1.
        -13    1    3    3    0    0  0.16218740534E+03  0.16946328896E+03  0.60794483589E+03  0.65162833291E+03  0.00000000000E+00 0. -1.
         22    1    1    2    0    0 -0.21006324479E+03 -0.32678180336E+03 -0.79489703217E+02  0.39652430787E+03  0.00000000000E+00 0.  1.
<mgrwt>
<rscale>  0 0.11700981E+04</rscale>
<asrwt>0</asrwt>
<pdfrwt beam="1">  1        2 0.19176256E+00 0.11700981E+04</pdfrwt>
<pdfrwt beam="2">  1       -2 0.42246819E-01 0.11700981E+04</pdfrwt>
<totfact> 0.93255867E+01</totfact>
</mgrwt>
</event>
<event>
 6    1  0.9512547E-007  0.4351104E+04  0.7818608E-02  0.7937235E-01
          2   -1    0    0  501    0  0.00000000000E+00  0.00000000000E+00  0.38956544627E+04  0.38956544627E+04  0.00000000000E+00 0. -1.
         -2   -1    0    0    0  501 -0.00000000000E+00 -0.00000000000E+00 -0.12149503376E+04  0.12149503376E+04  0.00000000000E+00 0.  1.
         23    2    1    2    0    0 -0.45142392235E+01  0.14356512899E+04  0.32593918270E+04  0.35627047839E+04  0.90084908098E+02 0.  0.
         13    1    3    3    0    0  0.22958347561E+02  0.12903561693E+04  0.29150382912E+04  0.31879451640E+04  0.00000000000E+00 0.  1.
        -13    1    3    3    0    0 -0.27472586785E+02  0.14529512054E+03  0.34435353581E+03  0.37475961990E+03  0.00000000000E+00 0. -1.
         22    1    1    2    0    0  0.45142392235E+01 -0.14356512899E+04 -0.57868770187E+03  0.15479000164E+04  0.00000000000E+00 0.  1.
<mgrwt>
<rscale>  0 0.43511041E+04</rscale>
<asrwt>0</asrwt>
<pdfrwt beam="1">  1        2 0.59933145E+00 0.43511041E+04</pdfrwt>
<pdfrwt beam="2">  1       -2 0.18691544E+00 0.43511041E+04</pdfrwt>
<totfact> 0.51481822E-02</totfact>
</mgrwt>
</event>
<event>
 6    1  0.1028872E-006  0.4142478E+04  0.7818608E-02  0.7976405E-01
         -1   -1    0    0    0  501 -0.00000000000E+00  0.00000000000E+00  0.11970263025E+04  0.11970263025E+04  0.00000000000E+00 0.  1.
          1   -1    0    0  501    0  0.00000000000E+00 -0.00000000000E+00 -0.35839070480E+04  0.35839070480E+04  0.00000000000E+00 0. -1.
         23    2    1    2    0    0  0.13067341316E+04  0.26100374906E+03 -0.30225679310E+04  0.33045271579E+04  0.91136117599E+02 0.  0.
         11    1    3    3    0    0  0.71078737149E+03  0.14158467258E+03 -0.17556141490E+04  0.18993277619E+04  0.00000000000E+00 0. -1.
        -11    1    3    3    0    0  0.59594676012E+03  0.11941907648E+03 -0.12669537820E+04  0.14051993960E+04  0.00000000000E+00 0.  1.
         22    1    1    2    0    0 -0.13067341316E+04 -0.26100374906E+03  0.63568718546E+03  0.14764061926E+04  0.00000000000E+00 0.  1.
<mgrwt>
<rscale>  0 0.41424780E+04</rscale>
<asrwt>0</asrwt>
<pdfrwt beam="1">  1        1 0.55137032E+00 0.41424780E+04</pdfrwt>
<pdfrwt beam="2">  1       -1 0.18415789E+00 0.41424780E+04</pdfrwt>
<totfact> 0.32160275E-02</totfact>
</mgrwt>
</event>
<event>
 6    1  0.9512547E-007  0.8309895E+04  0.7818608E-02  0.7455621E-01
         -1   -1    0    0    0  501 -0.00000000000E+00  0.00000000000E+00  0.48522653535E+04  0.48522653535E+04  0.00000000000E+00 0.  1.
          1   -1    0    0  501    0  0.00000000000E+00 -0.00000000000E+00 -0.35578407113E+04  0.35578407113E+04  0.00000000000E+00 0. -1.
         23    2    1    2    0    0 -0.38535776030E+03 -0.33784498223E+04 -0.17683610760E+04  0.38337450476E+04  0.89868735493E+02 0.  0.
         11    1    3    3    0    0 -0.26162375879E+03 -0.23283033858E+04 -0.12649017758E+04  0.26625965053E+04  0.00000000000E+00 0. -1.
        -11    1    3    3    0    0 -0.12373400151E+03 -0.10501464364E+04 -0.50345930027E+03  0.11711485423E+04  0.00000000000E+00 0.  1.
         22    1    1    2    0    0  0.38535776030E+03  0.33784498223E+04  0.30627857182E+04  0.45763610173E+04  0.00000000000E+00 0. -1.
<mgrwt>
<rscale>  0 0.83098946E+04</rscale>
<asrwt>0</asrwt>
<pdfrwt beam="1">  1        1 0.54736011E+00 0.83098946E+04</pdfrwt>
<pdfrwt beam="2">  1       -1 0.74650236E+00 0.83098946E+04</pdfrwt>
<totfact> 0.17136602E-05</totfact>
</mgrwt>
</event>
<event>
 6    1  0.9512547E-007  0.2010275E+04  0.7818608E-02  0.8601832E-01
          2   -1    0    0  501    0  0.00000000000E+00  0.00000000000E+00  0.96315539450E+03  0.96315539450E+03  0.00000000000E+00 0. -1.
         -2   -1    0    0    0  501 -0.00000000000E+00 -0.00000000000E+00 -0.10489496380E+04  0.10489496380E+04  0.00000000000E+00 0.  1.
         23    2    1    2    0    0  0.14022896405E+02 -0.43805794392E+03 -0.94599836006E+03  0.10466815368E+04  0.92400965221E+02 0.  0.
         11    1    3    3    0    0 -0.54546739593E+01 -0.19703265379E+03 -0.32289368326E+03  0.37830140208E+03  0.00000000000E+00 0. -1.
        -11    1    3    3    0    0  0.19477570364E+02 -0.24102529013E+03 -0.62310467679E+03  0.66838013471E+03  0.00000000000E+00 0.  1.
         22    1    1    2    0    0 -0.14022896405E+02  0.43805794392E+03  0.86020411657E+03  0.96542349569E+03  0.00000000000E+00 0. -1.
<mgrwt>
<rscale>  0 0.20102751E+04</rscale>
<asrwt>0</asrwt>
<pdfrwt beam="1">  1        2 0.14817775E+00 0.20102751E+04</pdfrwt>
<pdfrwt beam="2">  1       -2 0.16137687E+00 0.20102751E+04</pdfrwt>
<totfact> 0.60781522E+00</totfact>
</mgrwt>
</event>
<event>
 6    1  0.9512547E-007  0.1992140E+04  0.7818608E-02  0.8610305E-01
          2   -1    0    0  501    0  0.00000000000E+00  0.00000000000E+00  0.33972367684E+04  0.33972367684E+04  0.00000000000E+00 0. -1.
         -2   -1    0    0    0  501 -0.00000000000E+00 -0.00000000000E+00 -0.29204764667E+03  0.29204764667E+03  0.00000000000E+00 0.  1.
         23    2    1    2    0    0 -0.59426635005E+02 -0.42709401661E+03  0.32143736245E+04  0.32444675093E+04  0.91819369405E+02 0.  0.
         11    1    3    3    0    0 -0.22022216074E+02 -0.38024829701E+03  0.27613646069E+04  0.27875093252E+04  0.00000000000E+00 0.  1.
        -11    1    3    3    0    0 -0.37404418931E+02 -0.46845719603E+02  0.45300901761E+03  0.45695818412E+03  0.00000000000E+00 0. -1.
         22    1    1    2    0    0  0.59426635005E+02  0.42709401661E+03 -0.10918450286E+03  0.44481690575E+03  0.00000000000E+00 0.  1.
<mgrwt>
<rscale>  0 0.19921396E+04</rscale>
<asrwt>0</asrwt>
<pdfrwt beam="1">  1        2 0.52265178E+00 0.19921396E+04</pdfrwt>
<pdfrwt beam="2">  1       -2 0.44930409E-01 0.19921396E+04</pdfrwt>
<totfact> 0.42025475E+00</totfact>
</mgrwt>
</event>
<event>
 6    1  0.9512547E-007  0.1490076E+04  0.7818608E-02  0.8891079E-01
          2   -1    0    0  501    0  0.00000000000E+00  0.00000000000E+00  0.10973995817E+04  0.10973995817E+04  0.00000000000E+00 0. -1.
         -2   -1    0    0    0  501 -0.00000000000E+00 -0.00000000000E+00 -0.50581549204E+03  0.50581549204E+03  0.00000000000E+00 0.  1.
         23    2    1    2    0    0 -0.43546686451E+03 -0.30108476150E+02  0.94261630492E+03  0.10430708721E+04  0.94516853430E+02 0.  0.
         13    1    3    3    0    0 -0.17926771343E+03  0.32797365599E+02  0.41124241412E+03  0.44981429884E+03  0.00000000000E+00 0. -1.
        -13    1    3    3    0    0 -0.25619915108E+03 -0.62905841749E+02  0.53137389080E+03  0.59325657330E+03  0.00000000000E+00 0.  1.
         22    1    1    2    0    0  0.43546686451E+03  0.30108476150E+02 -0.35103221527E+03  0.56014420159E+03  0.00000000000E+00 0.  1.
<mgrwt>
<rscale>  0 0.14900761E+04</rscale>
<asrwt>0</asrwt>
<pdfrwt beam="1">  1        2 0.16883070E+00 0.14900761E+04</pdfrwt>
<pdfrwt beam="2">  1       -2 0.77817768E-01 0.14900761E+04</pdfrwt>
<totfact> 0.31103851E+01</totfact>
</mgrwt>
</event>
<event>
 6    1  0.9512547E-007  0.2157020E+04  0.7818608E-02  0.8536533E-01
          1   -1    0    0  501    0  0.00000000000E+00  0.00000000000E+00  0.24355050977E+04  0.24355050977E+04  0.00000000000E+00 0. -1.
         -1   -1    0    0    0  501 -0.00000000000E+00 -0.00000000000E+00 -0.47759436788E+03  0.47759436788E+03  0.00000000000E+00 0.  1.
         23    2    1    2    0    0  0.10028173254E+04 -0.22677496709E+03  0.55018683853E+03  0.11698966581E+04  0.94250515729E+02 0.  0.
         13    1    3    3    0    0  0.33557240190E+03 -0.98848397147E+02  0.14378051702E+03  0.37822305537E+03  0.00000000000E+00 0. -1.
        -13    1    3    3    0    0  0.66724492346E+03 -0.12792656994E+03  0.40640632151E+03  0.79167360278E+03  0.00000000000E+00 0.  1.
         22    1    1    2    0    0 -0.10028173254E+04  0.22677496709E+03  0.14077238913E+04  0.17432028074E+04  0.00000000000E+00 0. -1.
<mgrwt>
<rscale>  0 0.21570197E+04</rscale>
<asrwt>0</asrwt>
<pdfrwt beam="1">  1        1 0.37469308E+00 0.21570197E+04</pdfrwt>
<pdfrwt beam="2">  1       -1 0.73476058E-01 0.21570197E+04</pdfrwt>
<totfact> 0.25645507E+00</totfact>
</mgrwt>
</event>
<event>
 6    1  0.9512547E-007  0.2109321E+04  0.7818608E-02  0.8557149E-01
         -2   -1    0    0    0  501 -0.00000000000E+00  0.00000000000E+00  0.19452150921E+04  0.19452150921E+04  0.00000000000E+00 0.  1.
          2   -1    0    0  501    0  0.00000000000E+00 -0.00000000000E+00 -0.57181784087E+03  0.57181784087E+03  0.00000000000E+00 0. -1.
         23    2    1    2    0    0 -0.31636718047E+03  0.28847941524E+03  0.18356028519E+04  0.18869991377E+04  0.89550823464E+02 0.  0.
         13    1    3    3    0    0 -0.27167179318E+03  0.21265418060E+03  0.13437251877E+04  0.13873084530E+04  0.00000000000E+00 0.  1.
        -13    1    3    3    0    0 -0.44695387283E+02  0.75825234640E+02  0.49187766414E+03  0.49969068466E+03  0.00000000000E+00 0. -1.
         22    1    1    2    0    0  0.31636718047E+03 -0.28847941524E+03 -0.46220560065E+03  0.63003379526E+03  0.00000000000E+00 0. -1.
<mgrwt>
<rscale>  0 0.21093209E+04</rscale>
<asrwt>0</asrwt>
<pdfrwt beam="1">  1        2 0.87971977E-01 0.21093209E+04</pdfrwt>
<pdfrwt beam="2">  1       -2 0.29926386E+00 0.21093209E+04</pdfrwt>
<totfact> 0.15554046E+00</totfact>
</mgrwt>
</event>
<event>
 6    1  0.9512547E-007  0.1465644E+04  0.7818608E-02  0.8907626E-01
          1   -1    0    0  501    0  0.00000000000E+00  0.00000000000E+00  0.11099517962E+04  0.11099517962E+04  0.00000000000E+00 0. -1.
         -1   -1    0    0    0  501 -0.00000000000E+00 -0.00000000000E+00 -0.48382986360E+03  0.48382986360E+03  0.00000000000E+00 0.  1.
         23    2    1    2    0    0  0.45632126631E+03  0.49448640763E+03  0.62055359728E+01  0.67888153180E+03  0.89976219808E+02 0.  0.
         13    1    3    3    0    0  0.40517054073E+03  0.39000009805E+03 -0.15668480767E+00  0.56237289062E+03  0.00000000000E+00 0. -1.
        -13    1    3    3    0    0  0.51150725573E+02  0.10448630958E+03  0.63622207805E+01  0.11650864118E+03  0.00000000000E+00 0.  1.
         22    1    1    2    0    0 -0.45632126631E+03 -0.49448640763E+03  0.61991639665E+03  0.91490012802E+03  0.00000000000E+00 0. -1.
<mgrwt>
<rscale>  0 0.14656436E+04</rscale>
<asrwt>0</asrwt>
<pdfrwt beam="1">  1        1 0.17076181E+00 0.14656436E+04</pdfrwt>
<pdfrwt beam="2">  1       -1 0.74435364E-01 0.14656436E+04</pdfrwt>
<totfact> 0.21960087E+01</totfact>
</mgrwt>
</event>
<event>
 6    1  0.9512547E-007  0.2096483E+04  0.7818608E-02  0.8562794E-01
          2   -1    0    0  501    0  0.00000000000E+00  0.00000000000E+00  0.15759626109E+04  0.15759626109E+04  0.00000000000E+00 0. -1.
         -2   -1    0    0    0  501 -0.00000000000E+00 -0.00000000000E+00 -0.69723118232E+03  0.69723118232E+03  0.00000000000E+00 0.  1.
         23    2    1    2    0    0  0.65818365883E+03 -0.81217887090E+03  0.40195104688E+03  0.11242117310E+04  0.97196321162E+02 0.  0.
         11    1    3    3    0    0  0.14805316660E+03 -0.22366290593E+03  0.67406770055E+02  0.27656555874E+03  0.00000000000E+00 0.  1.
        -11    1    3    3    0    0  0.51013049223E+03 -0.58851596497E+03  0.33454427682E+03  0.84764617222E+03  0.00000000000E+00 0. -1.
         22    1    1    2    0    0 -0.65818365883E+03  0.81217887090E+03  0.47678038174E+03  0.11489820623E+04  0.00000000000E+00 0. -1.
<mgrwt>
<rscale>  0 0.20964830E+04</rscale>
<asrwt>0</asrwt>
<pdfrwt beam="1">  1        2 0.24245579E+00 0.20964830E+04</pdfrwt>
<pdfrwt beam="2">  1       -2 0.10726634E+00 0.20964830E+04</pdfrwt>
<totfact> 0.74049405E+00</totfact>
</mgrwt>
</event>
<event>
 6    1  0.9512547E-007  0.2786988E+04  0.7818608E-02  0.8307319E-01
         -1   -1    0    0    0  501 -0.00000000000E+00  0.00000000000E+00  0.14003011406E+04  0.14003011406E+04  0.00000000000E+00 0.  1.
          1   -1    0    0  501    0  0.00000000000E+00 -0.00000000000E+00 -0.13867203068E+04  0.13867203068E+04  0.00000000000E+00 0. -1.
         23    2    1    2    0    0 -0.45597515022E+03 -0.49962187512E+03 -0.12098810860E+04  0.13890248720E+04  0.89679970633E+02 0.  0.
         11    1    3    3    0    0 -0.12922104004E+03 -0.94378724088E+02 -0.32828822429E+03  0.36521032153E+03  0.00000000000E+00 0.  1.
        -11    1    3    3    0    0 -0.32675411017E+03 -0.40524315103E+03 -0.88159286171E+03  0.10238145505E+04  0.00000000000E+00 0. -1.
         22    1    1    2    0    0  0.45597515022E+03  0.49962187512E+03  0.12234619198E+04  0.13979965754E+04  0.00000000000E+00 0.  1.
<mgrwt>
<rscale>  0 0.27869884E+04</rscale>
<asrwt>0</asrwt>
<pdfrwt beam="1">  1        1 0.21334159E+00 0.27869884E+04</pdfrwt>
<pdfrwt beam="2">  1       -1 0.21543095E+00 0.27869884E+04</pdfrwt>
<totfact> 0.80365410E-01</totfact>
</mgrwt>
</event>
<event>
 6    1  0.9512547E-007  0.3329305E+04  0.7818608E-02  0.8155478E-01
          1   -1    0    0  501    0  0.00000000000E+00  0.00000000000E+00  0.20288267568E+04  0.20288267568E+04  0.00000000000E+00 0. -1.
         -1   -1    0    0    0  501 -0.00000000000E+00 -0.00000000000E+00 -0.13658478832E+04  0.13658478832E+04  0.00000000000E+00 0.  1.
         23    2    1    2    0    0  0.10530598739E+04  0.60626544986E+03 -0.82676697050E+03  0.14722190297E+04  0.85978800819E+02 0.  0.
         11    1    3    3    0    0  0.16021683600E+03  0.69901205938E+02 -0.14764734281E+03  0.22881291696E+03  0.00000000000E+00 0.  1.
        -11    1    3    3    0    0  0.89284303792E+03  0.53636424392E+03 -0.67911962769E+03  0.12434061128E+04  0.00000000000E+00 0. -1.
         22    1    1    2    0    0 -0.10530598739E+04 -0.60626544986E+03  0.14897458440E+04  0.19224556103E+04  0.00000000000E+00 0. -1.
<mgrwt>
<rscale>  0 0.33293055E+04</rscale>
<asrwt>0</asrwt>
<pdfrwt beam="1">  1        1 0.31212719E+00 0.33293055E+04</pdfrwt>
<pdfrwt beam="2">  1       -1 0.21013044E+00 0.33293055E+04</pdfrwt>
<totfact> 0.30248282E-01</totfact>
</mgrwt>
</event>
<event>
 6    1  0.9512547E-007  0.7894815E+03  0.7818608E-02  0.9575368E-01
         -1   -1    0    0    0  501 -0.00000000000E+00  0.00000000000E+00  0.10607425556E+03  0.10607425556E+03  0.00000000000E+00 0.  1.
          1   -1    0    0  501    0  0.00000000000E+00 -0.00000000000E+00 -0.14689735538E+04  0.14689735538E+04  0.00000000000E+00 0. -1.
         23    2    1    2    0    0  0.98261112433E+02 -0.50739147953E+02 -0.14354686545E+04  0.14427752922E+04  0.93811398031E+02 0.  0.
         13    1    3    3    0    0  0.11145440283E+03 -0.22836291209E+02 -0.10839454069E+04  0.10898996400E+04  0.00000000000E+00 0. -1.
        -13    1    3    3    0    0 -0.13193290398E+02 -0.27902856744E+02 -0.35152324760E+03  0.35287565222E+03  0.00000000000E+00 0.  1.
         22    1    1    2    0    0 -0.98261112433E+02  0.50739147953E+02  0.72569356197E+02  0.13227251722E+03  0.00000000000E+00 0.  1.
<mgrwt>
<rscale>  0 0.78948154E+03</rscale>
<asrwt>0</asrwt>
<pdfrwt beam="1">  1        1 0.22599592E+00 0.78948154E+03</pdfrwt>
<pdfrwt beam="2">  1       -1 0.16319117E-01 0.78948154E+03</pdfrwt>
<totfact> 0.20004100E+02</totfact>
</mgrwt>
</event>
<event>
 6    1  0.9512547E-007  0.2691329E+04  0.7818608E-02  0.8337824E-01
         -2   -1    0    0    0  501 -0.00000000000E+00  0.00000000000E+00  0.88489022298E+03  0.88489022298E+03  0.00000000000E+00 0.  1.
          2   -1    0    0  501    0  0.00000000000E+00 -0.00000000000E+00 -0.20463695899E+04  0.20463695899E+04  0.00000000000E+00 0. -1.
         23    2    1    2    0    0 -0.13204687598E+04  0.24281023349E+03 -0.65130522297E+03  0.14949895695E+04  0.90558071568E+02 0.  0.
         13    1    3    3    0    0 -0.85653822110E+03  0.14767544215E+03 -0.37431409170E+03  0.94634919542E+03  0.00000000000E+00 0. -1.
        -13    1    3    3    0    0 -0.46393053865E+03  0.95134791340E+02 -0.27699113127E+03  0.54864037404E+03  0.00000000000E+00 0.  1.
         22    1    1    2    0    0  0.13204687598E+04 -0.24281023349E+03 -0.51017414394E+03  0.14362702434E+04  0.00000000000E+00 0.  1.
<mgrwt>
<rscale>  0 0.26913286E+04</rscale>
<asrwt>0</asrwt>
<pdfrwt beam="1">  1        2 0.31482609E+00 0.26913286E+04</pdfrwt>
<pdfrwt beam="2">  1       -2 0.13613696E+00 0.26913286E+04</pdfrwt>
<totfact> 0.21341432E+00</totfact>
</mgrwt>
</event>
<event>
 6    1  0.9512547E-007  0.3480752E+04  0.7818608E-02  0.8118367E-01
         -1   -1    0    0    0  501 -0.00000000000E+00  0.00000000000E+00  0.84617676056E+03  0.84617676056E+03  0.00000000000E+00 0.  1.
          1   -1    0    0  501    0  0.00000000000E+00 -0.00000000000E+00 -0.35795215093E+04  0.35795215093E+04  0.00000000000E+00 0. -1.
         23    2    1    2    0    0 -0.14263942411E+04  0.83394557314E+03 -0.20578258105E+04  0.26406516077E+04  0.91258408392E+02 0.  0.
         11    1    3    3    0    0 -0.11995419403E+04  0.66904847962E+03 -0.17399447930E+04  0.22167396368E+04  0.00000000000E+00 0.  1.
        -11    1    3    3    0    0 -0.22685230081E+03  0.16489709351E+03 -0.31788101747E+03  0.42391197093E+03  0.00000000000E+00 0. -1.
         22    1    1    2    0    0  0.14263942411E+04 -0.83394557314E+03 -0.67551893822E+03  0.17850466621E+04  0.00000000000E+00 0.  1.
<mgrwt>
<rscale>  0 0.34807516E+04</rscale>
<asrwt>0</asrwt>
<pdfrwt beam="1">  1        1 0.55069563E+00 0.34807516E+04</pdfrwt>
<pdfrwt beam="2">  1       -1 0.13018104E+00 0.34807516E+04</pdfrwt>
<totfact> 0.89069483E-02</totfact>
</mgrwt>
</event>
<event>
 6    1  0.9512547E-007  0.3953440E+04  0.7818608E-02  0.8014006E-01
         -2   -1    0    0    0  501 -0.00000000000E+00  0.00000000000E+00  0.19220541172E+04  0.19220541172E+04  0.00000000000E+00 0.  1.
          2   -1    0    0  501    0  0.00000000000E+00 -0.00000000000E+00 -0.20329406395E+04  0.20329406395E+04  0.00000000000E+00 0. -1.
         23    2    1    2    0    0 -0.85997513402E+03 -0.81784782049E+03 -0.16355623876E+04  0.20228796507E+04  0.92441706457E+02 0.  0.
         11    1    3    3    0    0 -0.55010341783E+03 -0.57846401892E+03 -0.11254671194E+04  0.13798226800E+04  0.00000000000E+00 0.  1.
        -11    1    3    3    0    0 -0.30987171619E+03 -0.23938380157E+03 -0.51009526817E+03  0.64305697069E+03  0.00000000000E+00 0. -1.
         22    1    1    2    0    0  0.85997513402E+03  0.81784782049E+03  0.15246758652E+04  0.19321151059E+04  0.00000000000E+00 0.  1.
<mgrwt>
<rscale>  0 0.39534400E+04</rscale>
<asrwt>0</asrwt>
<pdfrwt beam="1">  1        2 0.31276010E+00 0.39534400E+04</pdfrwt>
<pdfrwt beam="2">  1       -2 0.29570063E+00 0.39534400E+04</pdfrwt>
<totfact> 0.17126849E-01</totfact>
</mgrwt>
</event>
<event>
 6    1  0.1018895E-006  0.2307473E+04  0.7818608E-02  0.8474980E-01
         -1   -1    0    0    0  501 -0.00000000000E+00  0.00000000000E+00  0.71143344845E+03  0.71143344845E+03  0.00000000000E+00 0.  1.
          1   -1    0    0  501    0  0.00000000000E+00 -0.00000000000E+00 -0.18710221578E+04  0.18710221578E+04  0.00000000000E+00 0. -1.
         23    2    1    2    0    0  0.11252866075E+04 -0.73599508034E+02 -0.31964936714E+03  0.11763315238E+04  0.99465067091E+02 0.  0.
         13    1    3    3    0    0  0.71603615306E+03 -0.60521819892E+02 -0.25095467892E+03  0.76114973168E+03  0.00000000000E+00 0. -1.
        -13    1    3    3    0    0  0.40925045439E+03 -0.13077688141E+02 -0.68694688222E+02  0.41518179216E+03  0.00000000000E+00 0.  1.
         22    1    1    2    0    0 -0.11252866075E+04  0.73599508034E+02 -0.83993934218E+03  0.14061240824E+04  0.00000000000E+00 0.  1.
<mgrwt>
<rscale>  0 0.23074729E+04</rscale>
<asrwt>0</asrwt>
<pdfrwt beam="1">  1        1 0.28784956E+00 0.23074729E+04</pdfrwt>
<pdfrwt beam="2">  1       -1 0.10945130E+00 0.23074729E+04</pdfrwt>
<totfact> 0.25427250E+00</totfact>
</mgrwt>
</event>
<event>
 6    1  0.9512547E-007  0.9641301E+03  0.7818608E-02  0.9348785E-01
          1   -1    0    0  501    0  0.00000000000E+00  0.00000000000E+00  0.13460174166E+03  0.13460174166E+03  0.00000000000E+00 0. -1.
         -1   -1    0    0    0  501 -0.00000000000E+00 -0.00000000000E+00 -0.17264762741E+04  0.17264762741E+04  0.00000000000E+00 0.  1.
         23    2    1    2    0    0  0.19294632261E+03 -0.14609999382E+03 -0.15982126276E+04  0.16189754279E+04  0.90688154241E+02 0.  0.
         11    1    3    3    0    0  0.13182310906E+03 -0.12300882524E+03 -0.91149874206E+03  0.92916008305E+03  0.00000000000E+00 0. -1.
        -11    1    3    3    0    0  0.61123213544E+02 -0.23091168577E+02 -0.68671388557E+03  0.68981534481E+03  0.00000000000E+00 0.  1.
         22    1    1    2    0    0 -0.19294632261E+03  0.14609999382E+03  0.63380952216E+01  0.24210258787E+03  0.00000000000E+00 0. -1.
<mgrwt>
<rscale>  0 0.96413010E+03</rscale>
<asrwt>0</asrwt>
<pdfrwt beam="1">  1        1 0.20707961E-01 0.96413010E+03</pdfrwt>
<pdfrwt beam="2">  1       -1 0.26561172E+00 0.96413010E+03</pdfrwt>
<totfact> 0.14015566E+01</totfact>
</mgrwt>
</event>
<event>
 6    1  0.9512547E-007  0.1383585E+04  0.7818608E-02  0.8965787E-01
          3   -1    0    0  501    0  0.00000000000E+00  0.00000000000E+00  0.24099135719E+04  0.24099135719E+04  0.00000000000E+00 0. -1.
         -3   -1    0    0    0  501 -0.00000000000E+00 -0.00000000000E+00 -0.19858669743E+03  0.19858669743E+03  0.00000000000E+00 0.  1.
         23    2    1    2    0    0 -0.53059765499E+03  0.40667174975E+03  0.14233282431E+04  0.15751283002E+04  0.90830011471E+02 0.  0.
         11    1    3    3    0    0 -0.15298921456E+03  0.69069859831E+02  0.33491581571E+03  0.37462641247E+03  0.00000000000E+00 0.  1.
        -11    1    3    3    0    0 -0.37760844043E+03  0.33760188992E+03  0.10884124274E+04  0.12005018877E+04  0.00000000000E+00 0. -1.
         22    1    1    2    0    0  0.53059765499E+03 -0.40667174975E+03  0.78799863137E+03  0.10333719691E+04  0.00000000000E+00 0.  1.
<mgrwt>
<rscale>  0 0.13835849E+04</rscale>
<asrwt>0</asrwt>
<pdfrwt beam="1">  1        3 0.37075591E+00 0.13835849E+04</pdfrwt>
<pdfrwt beam="2">  1       -3 0.30551801E-01 0.13835849E+04</pdfrwt>
<totfact> 0.43138920E-01</totfact>
</mgrwt>
</event>
<event>
 6    1  0.9512547E-007  0.2701916E+04  0.7818608E-02  0.8334384E-01
          2   -1    0    0  501    0  0.00000000000E+00  0.00000000000E+00  0.25421892323E+04  0.25421892323E+04  0.00000000000E+00 0. -1.
         -2   -1    0    0    0  501 -0.00000000000E+00 -0.00000000000E+00 -0.71791949824E+03  0.71791949824E+03  0.00000000000E+00 0.  1.
         23    2    1    2    0    0 -0.19549905684E+03 -0.35156206270E+03  0.24673839763E+04  0.25015497718E+04  0.89172917137E+02 0.  0.
         11    1    3    3    0    0 -0.76600150891E+02 -0.19145690898E+03  0.14731111767E+04  0.14874743258E+04  0.00000000000E+00 0.  1.
        -11    1    3    3    0    0 -0.11889890595E+03 -0.16010515371E+03  0.99427279965E+03  0.10140754460E+04  0.00000000000E+00 0. -1.
         22    1    1    2    0    0  0.19549905684E+03  0.35156206270E+03 -0.64311424230E+03  0.75855895868E+03  0.00000000000E+00 0.  1.
<mgrwt>
<rscale>  0 0.27019158E+04</rscale>
<asrwt>0</asrwt>
<pdfrwt beam="1">  1        2 0.39110603E+00 0.27019158E+04</pdfrwt>
<pdfrwt beam="2">  1       -2 0.11044916E+00 0.27019158E+04</pdfrwt>
<totfact> 0.18768578E+00</totfact>
</mgrwt>
</event>
<event>
 6    1  0.9512547E-007  0.1972286E+04  0.7818608E-02  0.8619688E-01
          2   -1    0    0  501    0  0.00000000000E+00  0.00000000000E+00  0.21194486456E+04  0.21194486456E+04  0.00000000000E+00 0. -1.
         -2   -1    0    0    0  501 -0.00000000000E+00 -0.00000000000E+00 -0.45883546656E+03  0.45883546656E+03  0.00000000000E+00 0.  1.
         23    2    1    2    0    0 -0.36546646925E+03 -0.65757415985E+03  0.16613565857E+04  0.18259742901E+04  0.90038255009E+02 0.  0.
         11    1    3    3    0    0 -0.40638748570E+02 -0.13164421924E+03  0.35318029911E+03  0.37910161174E+03  0.00000000000E+00 0. -1.
        -11    1    3    3    0    0 -0.32482772068E+03 -0.52592994061E+03  0.13081762866E+04  0.14468726783E+04  0.00000000000E+00 0.  1.
         22    1    1    2    0    0  0.36546646925E+03  0.65757415985E+03 -0.74340658233E+00  0.75230982214E+03  0.00000000000E+00 0.  1.
<mgrwt>
<rscale>  0 0.19722862E+04</rscale>
<asrwt>0</asrwt>
<pdfrwt beam="1">  1        2 0.32606902E+00 0.19722862E+04</pdfrwt>
<pdfrwt beam="2">  1       -2 0.70590073E-01 0.19722862E+04</pdfrwt>
<totfact> 0.97382016E+00</totfact>
</mgrwt>
</event>
<event>
 6    1  0.9512547E-007  0.2732166E+04  0.7818608E-02  0.8324643E-01
          2   -1    0    0  501    0  0.00000000000E+00  0.00000000000E+00  0.24596073031E+04  0.24596073031E+04  0.00000000000E+00 0. -1.
         -2   -1    0    0    0  501 -0.00000000000E+00 -0.00000000000E+00 -0.75873205851E+03  0.75873205851E+03  0.00000000000E+00 0.  1.
         23    2    1    2    0    0 -0.22855640759E+03 -0.53181424151E+03 -0.60428544396E+03  0.84161257484E+03  0.89924465087E+02 0.  0.
         13    1    3    3    0    0 -0.20355445849E+03 -0.37405995978E+03 -0.44938165536E+03  0.61911157578E+03  0.00000000000E+00 0. -1.
        -13    1    3    3    0    0 -0.25001949104E+02 -0.15775428173E+03 -0.15490378860E+03  0.22250099906E+03  0.00000000000E+00 0.  1.
         22    1    1    2    0    0  0.22855640759E+03  0.53181424151E+03  0.23051606886E+04  0.23767267868E+04  0.00000000000E+00 0. -1.
<mgrwt>
<rscale>  0 0.27321661E+04</rscale>
<asrwt>0</asrwt>
<pdfrwt beam="1">  1        2 0.37840112E+00 0.27321661E+04</pdfrwt>
<pdfrwt beam="2">  1       -2 0.11672801E+00 0.27321661E+04</pdfrwt>
<totfact> 0.18270402E+00</totfact>
</mgrwt>
</event>
<event>
 6    1  0.9512547E-007  0.1609423E+04  0.7818608E-02  0.8814780E-01
          2   -1    0    0  501    0  0.00000000000E+00  0.00000000000E+00  0.13775565116E+04  0.13775565116E+04  0.00000000000E+00 0. -1.
         -2   -1    0    0    0  501 -0.00000000000E+00 -0.00000000000E+00 -0.47007911946E+03  0.47007911946E+03  0.00000000000E+00 0.  1.
         23    2    1    2    0    0  0.88617310655E+02  0.79673847669E+03  0.48705676502E+03  0.94242917302E+03  0.91122038015E+02 0.  0.
         13    1    3    3    0    0  0.12458943185E+01  0.22950316681E+03  0.17898324835E+03  0.29104683303E+03  0.00000000000E+00 0. -1.
        -13    1    3    3    0    0  0.87371416336E+02  0.56723530988E+03  0.30807351667E+03  0.65138233998E+03  0.00000000000E+00 0.  1.
         22    1    1    2    0    0 -0.88617310655E+02 -0.79673847669E+03  0.42042062714E+03  0.90520645806E+03  0.00000000000E+00 0.  1.
<mgrwt>
<rscale>  0 0.16094229E+04</rscale>
<asrwt>0</asrwt>
<pdfrwt beam="1">  1        2 0.21193177E+00 0.16094229E+04</pdfrwt>
<pdfrwt beam="2">  1       -2 0.72319865E-01 0.16094229E+04</pdfrwt>
<totfact> 0.24719348E+01</totfact>
</mgrwt>
</event>
<event>
 6    1  0.9512547E-007  0.7140630E+03  0.7818608E-02  0.9693480E-01
         -1   -1    0    0    0  501 -0.00000000000E+00  0.00000000000E+00  0.52548378614E+02  0.52548378614E+02  0.00000000000E+00 0.  1.
          1   -1    0    0  501    0  0.00000000000E+00 -0.00000000000E+00 -0.24257928701E+04  0.24257928701E+04  0.00000000000E+00 0. -1.
         23    2    1    2    0    0 -0.34068444169E+03 -0.78541658534E+02 -0.11882993159E+04  0.12428940624E+04  0.10244854969E+03 0.  0.
         13    1    3    3    0    0 -0.20843188408E+03 -0.88264571881E+02 -0.84742631205E+03  0.87713501771E+03  0.00000000000E+00 0. -1.
        -13    1    3    3    0    0 -0.13225255761E+03  0.97229133471E+01 -0.34087300381E+03  0.36575904468E+03  0.00000000000E+00 0.  1.
         22    1    1    2    0    0  0.34068444169E+03  0.78541658534E+02 -0.11849451756E+04  0.12354471863E+04  0.00000000000E+00 0.  1.
<mgrwt>
<rscale>  0 0.71406297E+03</rscale>
<asrwt>0</asrwt>
<pdfrwt beam="1">  1        1 0.37319873E+00 0.71406297E+03</pdfrwt>
<pdfrwt beam="2">  1       -1 0.80843697E-02 0.71406297E+03</pdfrwt>
<totfact> 0.14045117E+02</totfact>
</mgrwt>
</event>
<event>
 6    1  0.9512547E-007  0.1377014E+04  0.7818608E-02  0.8970627E-01
         -2   -1    0    0    0  501 -0.00000000000E+00  0.00000000000E+00  0.59046161099E+03  0.59046161099E+03  0.00000000000E+00 0.  1.
          2   -1    0    0  501    0  0.00000000000E+00 -0.00000000000E+00 -0.80283319328E+03  0.80283319328E+03  0.00000000000E+00 0. -1.
         23    2    1    2    0    0  0.46165218115E+02  0.30740524228E+03  0.51140366098E+03  0.60558939415E+03  0.92604532826E+02 0.  0.
         13    1    3    3    0    0  0.31203444872E+02  0.25314081540E+03  0.33903483674E+03  0.42426235742E+03  0.00000000000E+00 0. -1.
        -13    1    3    3    0    0  0.14961773243E+02  0.54264426881E+02  0.17236882424E+03  0.18132703674E+03  0.00000000000E+00 0.  1.
         22    1    1    2    0    0 -0.46165218115E+02 -0.30740524228E+03 -0.72377524327E+03  0.78770541011E+03  0.00000000000E+00 0. -1.
<mgrwt>
<rscale>  0 0.13770144E+04</rscale>
<asrwt>0</asrwt>
<pdfrwt beam="1">  1        2 0.12351280E+00 0.13770144E+04</pdfrwt>
<pdfrwt beam="2">  1       -2 0.90840248E-01 0.13770144E+04</pdfrwt>
<totfact> 0.34583180E+01</totfact>
</mgrwt>
</event>
<event>
 6    1  0.9512547E-007  0.2039721E+04  0.7818608E-02  0.8588272E-01
          2   -1    0    0  501    0  0.00000000000E+00  0.00000000000E+00  0.46668220898E+04  0.46668220898E+04  0.00000000000E+00 0. -1.
         -2   -1    0    0    0  501 -0.00000000000E+00 -0.00000000000E+00 -0.22287435606E+03  0.22287435606E+03  0.00000000000E+00 0.  1.
         23    2    1    2    0    0  0.77840109808E+03 -0.57709232693E+03  0.29730069840E+04  0.31282735800E+04  0.91549116968E+02 0.  0.
         11    1    3    3    0    0  0.35011758951E+03 -0.23830386551E+03  0.11648078002E+04  0.12394144868E+04  0.00000000000E+00 0.  1.
        -11    1    3    3    0    0  0.42828350857E+03 -0.33878846142E+03  0.18081991838E+04  0.18888590931E+04  0.00000000000E+00 0. -1.
         22    1    1    2    0    0 -0.77840109808E+03  0.57709232693E+03  0.14709407498E+04  0.17614228659E+04  0.00000000000E+00 0.  1.
<mgrwt>
<rscale>  0 0.20397205E+04</rscale>
<asrwt>0</asrwt>
<pdfrwt beam="1">  1        2 0.71797256E+00 0.20397205E+04</pdfrwt>
<pdfrwt beam="2">  1       -2 0.34288366E-01 0.20397205E+04</pdfrwt>
<totfact> 0.62547151E-01</totfact>
</mgrwt>
</event>
<event>
 6    1  0.9512547E-007  0.4870085E+04  0.7818608E-02  0.7848866E-01
         -1   -1    0    0    0  501 -0.00000000000E+00  0.00000000000E+00  0.38280490177E+04  0.38280490177E+04  0.00000000000E+00 0.  1.
          1   -1    0    0  501    0  0.00000000000E+00 -0.00000000000E+00 -0.15489438616E+04  0.15489438616E+04  0.00000000000E+00 0. -1.
         23    2    1    2    0    0 -0.99733348327E+03 -0.21612165279E+04  0.17026794233E+04  0.29279527443E+04  0.90879572437E+02 0.  0.
         13    1    3    3    0    0 -0.69496229789E+03 -0.15826383073E+04  0.12660913965E+04  0.21425928291E+04  0.00000000000E+00 0. -1.
        -13    1    3    3    0    0 -0.30237118538E+03 -0.57857822067E+03  0.43658802684E+03  0.78535991517E+03  0.00000000000E+00 0.  1.
         22    1    1    2    0    0  0.99733348327E+03  0.21612165279E+04  0.57642573281E+03  0.24490401350E+04  0.00000000000E+00 0.  1.
<mgrwt>
<rscale>  0 0.48700854E+04</rscale>
<asrwt>0</asrwt>
<pdfrwt beam="1">  1        1 0.23829906E+00 0.48700854E+04</pdfrwt>
<pdfrwt beam="2">  1       -1 0.58893061E+00 0.48700854E+04</pdfrwt>
<totfact> 0.21809169E-03</totfact>
</mgrwt>
</event>
<event>
 6    1  0.9512547E-007  0.3263213E+04  0.7818608E-02  0.8172320E-01
         -2   -1    0    0    0  501 -0.00000000000E+00  0.00000000000E+00  0.57761583829E+03  0.57761583829E+03  0.00000000000E+00 0.  1.
          2   -1    0    0  501    0  0.00000000000E+00 -0.00000000000E+00 -0.46088401486E+04  0.46088401486E+04  0.00000000000E+00 0. -1.
         23    2    1    2    0    0 -0.15822627730E+04 -0.38089401606E+03 -0.21709380957E+04  0.27147560588E+04  0.91063215222E+02 0.  0.
         13    1    3    3    0    0 -0.69461094099E+03 -0.12385827227E+03 -0.91314680669E+03  0.11539767422E+04  0.00000000000E+00 0.  1.
        -13    1    3    3    0    0 -0.88765183200E+03 -0.25703574378E+03 -0.12577912890E+04  0.15607793166E+04  0.00000000000E+00 0. -1.
         22    1    1    2    0    0  0.15822627730E+04  0.38089401606E+03 -0.18602862146E+04  0.24716999281E+04  0.00000000000E+00 0.  1.
<mgrwt>
<rscale>  0 0.32632126E+04</rscale>
<asrwt>0</asrwt>
<pdfrwt beam="1">  1        2 0.70905232E+00 0.32632126E+04</pdfrwt>
<pdfrwt beam="2">  1       -2 0.88863976E-01 0.32632126E+04</pdfrwt>
<totfact> 0.86933172E-02</totfact>
</mgrwt>
</event>
<event>
 6    1  0.9512547E-007  0.3642415E+04  0.7818608E-02  0.8080845E-01
          1   -1    0    0  501    0  0.00000000000E+00  0.00000000000E+00  0.14849188311E+04  0.14849188311E+04  0.00000000000E+00 0. -1.
         -1   -1    0    0    0  501 -0.00000000000E+00 -0.00000000000E+00 -0.22336546755E+04  0.22336546755E+04  0.00000000000E+00 0.  1.
         23    2    1    2    0    0 -0.16444764680E+04 -0.44863349173E+03 -0.10260799788E+04  0.19915834567E+04  0.89385000636E+02 0.  0.
         13    1    3    3    0    0 -0.74219175274E+03 -0.16319547775E+03 -0.48406882331E+03  0.90100165788E+03  0.00000000000E+00 0. -1.
        -13    1    3    3    0    0 -0.90228471529E+03 -0.28543801398E+03 -0.54201115544E+03  0.10905817988E+04  0.00000000000E+00 0.  1.
         22    1    1    2    0    0  0.16444764680E+04  0.44863349173E+03  0.27734413436E+03  0.17269900500E+04  0.00000000000E+00 0.  1.
<mgrwt>
<rscale>  0 0.36424145E+04</rscale>
<asrwt>0</asrwt>
<pdfrwt beam="1">  1        1 0.22844905E+00 0.36424145E+04</pdfrwt>
<pdfrwt beam="2">  1       -1 0.34363918E+00 0.36424145E+04</pdfrwt>
<totfact> 0.92454827E-02</totfact>
</mgrwt>
</event>
<event>
 6    1  0.1048270E-006  0.3186497E+04  0.7818608E-02  0.8192392E-01
          2   -1    0    0  501    0  0.00000000000E+00  0.00000000000E+00  0.25212612214E+04  0.25212612214E+04  0.00000000000E+00 0. -1.
         -2   -1    0    0    0  501 -0.00000000000E+00 -0.00000000000E+00 -0.10068137982E+04  0.10068137982E+04  0.00000000000E+00 0.  1.
         23    2    1    2    0    0 -0.31385733939E+03  0.40391688070E+03 -0.91132288297E+03  0.10489588759E+04  0.90277628862E+02 0.  0.
         13    1    3    3    0    0 -0.19624134759E+03  0.28898811763E+03 -0.54389879971E+03  0.64641372430E+03  0.00000000000E+00 0. -1.
        -13    1    3    3    0    0 -0.11761599180E+03  0.11492876307E+03 -0.36742408326E+03  0.40254515159E+03  0.00000000000E+00 0.  1.
         22    1    1    2    0    0  0.31385733939E+03 -0.40391688070E+03  0.24257703061E+04  0.24791161437E+04  0.00000000000E+00 0. -1.
<mgrwt>
<rscale>  0 0.31864969E+04</rscale>
<asrwt>0</asrwt>
<pdfrwt beam="1">  1        2 0.38788634E+00 0.31864969E+04</pdfrwt>
<pdfrwt beam="2">  1       -2 0.15489443E+00 0.31864969E+04</pdfrwt>
<totfact> 0.78429283E-01</totfact>
</mgrwt>
</event>
<event>
 6    1  0.9512547E-007  0.1667467E+04  0.7818608E-02  0.8780140E-01
          2   -1    0    0  501    0  0.00000000000E+00  0.00000000000E+00  0.13650268385E+04  0.13650268385E+04  0.00000000000E+00 0. -1.
         -2   -1    0    0    0  501 -0.00000000000E+00 -0.00000000000E+00 -0.50922933795E+03  0.50922933795E+03  0.00000000000E+00 0.  1.
         23    2    1    2    0    0 -0.48805386235E+02 -0.77689637001E+03  0.75707074008E+03  0.10895926124E+04  0.90033438611E+02 0.  0.
         11    1    3    3    0    0 -0.55120420296E+02 -0.48826800976E+03  0.52603365462E+03  0.71983006042E+03  0.00000000000E+00 0. -1.
        -11    1    3    3    0    0  0.63150340608E+01 -0.28862836025E+03  0.23103708546E+03  0.36976255199E+03  0.00000000000E+00 0.  1.
         22    1    1    2    0    0  0.48805386235E+02  0.77689637001E+03  0.98726760442E+02  0.78466356401E+03  0.00000000000E+00 0. -1.
<mgrwt>
<rscale>  0 0.16674672E+04</rscale>
<asrwt>0</asrwt>
<pdfrwt beam="1">  1        2 0.21000413E+00 0.16674672E+04</pdfrwt>
<pdfrwt beam="2">  1       -2 0.78342976E-01 0.16674672E+04</pdfrwt>
<totfact> 0.20948530E+01</totfact>
</mgrwt>
</event>
<event>
 6    1  0.9512547E-007  0.2640587E+04  0.7818608E-02  0.8354544E-01
          1   -1    0    0  501    0  0.00000000000E+00  0.00000000000E+00  0.31777631450E+04  0.31777631450E+04  0.00000000000E+00 0. -1.
         -1   -1    0    0    0  501 -0.00000000000E+00 -0.00000000000E+00 -0.54855387526E+03  0.54855387526E+03  0.00000000000E+00 0.  1.
         23    2    1    2    0    0 -0.11941617446E+04  0.19900366554E+03  0.20537906487E+04  0.23858949522E+04  0.93882711061E+02 0.  0.
         11    1    3    3    0    0 -0.97068156737E+02  0.26205835267E+02  0.12756215640E+03  0.16242252491E+03  0.00000000000E+00 0.  1.
        -11    1    3    3    0    0 -0.10970935878E+04  0.17279783028E+03  0.19262284923E+04  0.22234724273E+04  0.00000000000E+00 0. -1.
         22    1    1    2    0    0  0.11941617446E+04 -0.19900366554E+03  0.57541862112E+03  0.13404220681E+04  0.00000000000E+00 0.  1.
<mgrwt>
<rscale>  0 0.26405865E+04</rscale>
<asrwt>0</asrwt>
<pdfrwt beam="1">  1        1 0.48888663E+00 0.26405865E+04</pdfrwt>
<pdfrwt beam="2">  1       -1 0.84392906E-01 0.26405865E+04</pdfrwt>
<totfact> 0.53895146E-01</totfact>
</mgrwt>
</event>
<event>
 6    1  0.9512547E-007  0.2786106E+04  0.7818608E-02  0.8307595E-01
          2   -1    0    0  501    0  0.00000000000E+00  0.00000000000E+00  0.22084349952E+04  0.22084349952E+04  0.00000000000E+00 0. -1.
         -2   -1    0    0    0  501 -0.00000000000E+00 -0.00000000000E+00 -0.87872034705E+03  0.87872034705E+03  0.00000000000E+00 0.  1.
         23    2    1    2    0    0 -0.94375343182E+03  0.10060986825E+04  0.46266864355E+03  0.14578383464E+04  0.91242925889E+02 0.  0.
         11    1    3    3    0    0 -0.23687103940E+03  0.20588799921E+03  0.12745797660E+03  0.33873779435E+03  0.00000000000E+00 0. -1.
        -11    1    3    3    0    0 -0.70688239242E+03  0.80021068327E+03  0.33521066695E+03  0.11191005520E+04  0.00000000000E+00 0.  1.
         22    1    1    2    0    0  0.94375343182E+03 -0.10060986825E+04  0.86704600462E+03  0.16293169959E+04  0.00000000000E+00 0.  1.
<mgrwt>
<rscale>  0 0.27861061E+04</rscale>
<asrwt>0</asrwt>
<pdfrwt beam="1">  1        2 0.33975923E+00 0.27861061E+04</pdfrwt>
<pdfrwt beam="2">  1       -2 0.13518775E+00 0.27861061E+04</pdfrwt>
<totfact> 0.17490628E+00</totfact>
</mgrwt>
</event>
<event>
 6    1  0.9512547E-007  0.2586451E+04  0.7818608E-02  0.8372818E-01
         -2   -1    0    0    0  501 -0.00000000000E+00  0.00000000000E+00  0.14546233653E+04  0.14546233653E+04  0.00000000000E+00 0.  1.
          2   -1    0    0  501    0  0.00000000000E+00 -0.00000000000E+00 -0.11497351637E+04  0.11497351637E+04  0.00000000000E+00 0. -1.
         23    2    1    2    0    0  0.36257883786E+03 -0.10840725865E+04 -0.45296273207E+03  0.12328575907E+04  0.89921164513E+02 0.  0.
         11    1    3    3    0    0  0.34230397467E+03 -0.95816789034E+03 -0.42271979068E+03  0.11017938730E+04  0.00000000000E+00 0. -1.
        -11    1    3    3    0    0  0.20274863184E+02 -0.12590469612E+03 -0.30242941396E+02  0.13106371766E+03  0.00000000000E+00 0.  1.
         22    1    1    2    0    0 -0.36257883786E+03  0.10840725865E+04  0.75785093362E+03  0.13715009384E+04  0.00000000000E+00 0.  1.
<mgrwt>
<rscale>  0 0.25864506E+04</rscale>
<asrwt>0</asrwt>
<pdfrwt beam="1">  1        2 0.17688233E+00 0.25864506E+04</pdfrwt>
<pdfrwt beam="2">  1       -2 0.22378821E+00 0.25864506E+04</pdfrwt>
<totfact> 0.16821282E+00</totfact>
</mgrwt>
</event>
<event>
 6    1  0.9512547E-007  0.4065581E+04  0.7818608E-02  0.7991446E-01
          1   -1    0    0  501    0  0.00000000000E+00  0.00000000000E+00  0.21684445469E+04  0.21684445469E+04  0.00000000000E+00 0. -1.
         -1   -1    0    0    0  501 -0.00000000000E+00 -0.00000000000E+00 -0.19056222686E+04  0.19056222686E+04  0.00000000000E+00 0.  1.
         23    2    1    2    0    0  0.20233607485E+04  0.17927989298E+03  0.18016285955E+03  0.20410979082E+04  0.86556432358E+02 0.  0.
         11    1    3    3    0    0  0.12321786929E+04  0.11256107450E+03  0.15197288016E+03  0.12466074294E+04  0.00000000000E+00 0. -1.
        -11    1    3    3    0    0  0.79118205560E+03  0.66718818477E+02  0.28189979383E+02  0.79449047872E+03  0.00000000000E+00 0.  1.
         22    1    1    2    0    0 -0.20233607485E+04 -0.17927989298E+03  0.82659418723E+02  0.20329689074E+04  0.00000000000E+00 0.  1.
<mgrwt>
<rscale>  0 0.40655805E+04</rscale>
<asrwt>0</asrwt>
<pdfrwt beam="1">  1        1 0.33360685E+00 0.40655805E+04</pdfrwt>
<pdfrwt beam="2">  1       -1 0.29317266E+00 0.40655805E+04</pdfrwt>
<totfact> 0.65168081E-02</totfact>
</mgrwt>
</event>
<event>
 6    1  0.9512547E-007  0.2391005E+04  0.7818608E-02  0.8442879E-01
          2   -1    0    0  501    0  0.00000000000E+00  0.00000000000E+00  0.13873176213E+04  0.13873176213E+04  0.00000000000E+00 0. -1.
         -2   -1    0    0    0  501 -0.00000000000E+00 -0.00000000000E+00 -0.10302081705E+04  0.10302081705E+04  0.00000000000E+00 0.  1.
         23    2    1    2    0    0  0.98798326548E+02 -0.49755613843E+03 -0.91248257688E+03  0.10503436031E+04  0.11521289518E+03 0.  0.
         13    1    3    3    0    0  0.99378216735E+01 -0.23273396392E+03 -0.50705075341E+03  0.55800029104E+03  0.00000000000E+00 0. -1.
        -13    1    3    3    0    0  0.88860504875E+02 -0.26482217451E+03 -0.40543182347E+03  0.49234331205E+03  0.00000000000E+00 0.  1.
         22    1    1    2    0    0 -0.98798326548E+02  0.49755613843E+03  0.12695920277E+04  0.13671821886E+04  0.00000000000E+00 0. -1.
<mgrwt>
<rscale>  0 0.23910048E+04</rscale>
<asrwt>0</asrwt>
<pdfrwt beam="1">  1        2 0.21343348E+00 0.23910048E+04</pdfrwt>
<pdfrwt beam="2">  1       -2 0.15849357E+00 0.23910048E+04</pdfrwt>
<totfact> 0.34230200E+00</totfact>
</mgrwt>
</event>
<event>
 6    1  0.9512547E-007  0.6699226E+03  0.7818608E-02  0.9770098E-01
         -1   -1    0    0    0  501 -0.00000000000E+00  0.00000000000E+00  0.10823231357E+03  0.10823231357E+03  0.00000000000E+00 0.  1.
          1   -1    0    0  501    0  0.00000000000E+00 -0.00000000000E+00 -0.10366503925E+04  0.10366503925E+04  0.00000000000E+00 0. -1.
         23    2    1    2    0    0  0.23569998692E+03 -0.22887489833E+03 -0.50366169104E+03  0.60789463173E+03  0.89008883565E+02 0.  0.
         11    1    3    3    0    0  0.77998694710E+02 -0.13226356198E+03 -0.19686784877E+03  0.24966857248E+03  0.00000000000E+00 0. -1.
        -11    1    3    3    0    0  0.15770129221E+03 -0.96611336342E+02 -0.30679384227E+03  0.35822605926E+03  0.00000000000E+00 0.  1.
         22    1    1    2    0    0 -0.23569998692E+03  0.22887489833E+03 -0.42475638785E+03  0.53698807430E+03  0.00000000000E+00 0. -1.
<mgrwt>
<rscale>  0 0.66992259E+03</rscale>
<asrwt>0</asrwt>
<pdfrwt beam="1">  1        1 0.15948468E+00 0.66992259E+03</pdfrwt>
<pdfrwt beam="2">  1       -1 0.16651125E-01 0.66992259E+03</pdfrwt>
<totfact> 0.39830201E+02</totfact>
</mgrwt>
</event>
<event>
 6    1  0.9512547E-007  0.2117510E+04  0.7818608E-02  0.8553569E-01
          1   -1    0    0  501    0  0.00000000000E+00  0.00000000000E+00  0.66501888699E+03  0.66501888699E+03  0.00000000000E+00 0. -1.
         -1   -1    0    0    0  501 -0.00000000000E+00 -0.00000000000E+00 -0.16856090533E+04  0.16856090533E+04  0.00000000000E+00 0.  1.
         23    2    1    2    0    0 -0.34560604276E+03  0.93924977652E+03 -0.88805502776E+03  0.13410739583E+04  0.90575658551E+02 0.  0.
         13    1    3    3    0    0 -0.18041455953E+03  0.43862817693E+03 -0.47619375131E+03  0.67208971103E+03  0.00000000000E+00 0.  1.
        -13    1    3    3    0    0 -0.16519148323E+03  0.50062159959E+03 -0.41186127645E+03  0.66898424731E+03  0.00000000000E+00 0. -1.
         22    1    1    2    0    0  0.34560604276E+03 -0.93924977652E+03 -0.13253513854E+03  0.10095539819E+04  0.00000000000E+00 0. -1.
<mgrwt>
<rscale>  0 0.21175097E+04</rscale>
<asrwt>0</asrwt>
<pdfrwt beam="1">  1        1 0.10231060E+00 0.21175097E+04</pdfrwt>
<pdfrwt beam="2">  1       -1 0.25932447E+00 0.21175097E+04</pdfrwt>
<totfact> 0.16384536E+00</totfact>
</mgrwt>
</event>
<event>
 6    1  0.9512547E-007  0.2769387E+04  0.7818608E-02  0.8312836E-01
          2   -1    0    0  501    0  0.00000000000E+00  0.00000000000E+00  0.26464721188E+04  0.26464721188E+04  0.00000000000E+00 0. -1.
         -2   -1    0    0    0  501 -0.00000000000E+00 -0.00000000000E+00 -0.72450245022E+03  0.72450245022E+03  0.00000000000E+00 0.  1.
         23    2    1    2    0    0 -0.42640306716E+03 -0.37280719002E+03 -0.57403899542E+03  0.81150899445E+03  0.90671402346E+02 0.  0.
         11    1    3    3    0    0 -0.14483456039E+03 -0.18205420728E+03 -0.21138780470E+03  0.31433356207E+03  0.00000000000E+00 0. -1.
        -11    1    3    3    0    0 -0.28156850677E+03 -0.19075298274E+03 -0.36265119072E+03  0.49717543238E+03  0.00000000000E+00 0.  1.
         22    1    1    2    0    0  0.42640306716E+03  0.37280719002E+03  0.24960086640E+04  0.25594655746E+04  0.00000000000E+00 0. -1.
<mgrwt>
<rscale>  0 0.27693866E+04</rscale>
<asrwt>0</asrwt>
<pdfrwt beam="1">  1        2 0.40714955E+00 0.27693866E+04</pdfrwt>
<pdfrwt beam="2">  1       -2 0.11146192E+00 0.27693866E+04</pdfrwt>
<totfact> 0.15854338E+00</totfact>
</mgrwt>
</event>
<event>
 6    1  0.9512547E-007  0.2895034E+04  0.7818608E-02  0.8274357E-01
         -1   -1    0    0    0  501 -0.00000000000E+00  0.00000000000E+00  0.16552782039E+04  0.16552782039E+04  0.00000000000E+00 0.  1.
          1   -1    0    0  501    0  0.00000000000E+00 -0.00000000000E+00 -0.12658325350E+04  0.12658325350E+04  0.00000000000E+00 0. -1.
         23    2    1    2    0    0 -0.14396508397E+03 -0.12444464330E+04  0.92528122223E+03  0.15585790475E+04  0.60418846498E+02 0.  0.
         11    1    3    3    0    0 -0.95014184990E+02 -0.74859158324E+03  0.52184308622E+03  0.91746240276E+03  0.00000000000E+00 0. -1.
        -11    1    3    3    0    0 -0.48950898984E+02 -0.49585484974E+03  0.40343813601E+03  0.64111664470E+03  0.00000000000E+00 0.  1.
         22    1    1    2    0    0  0.14396508397E+03  0.12444464330E+04 -0.53583555337E+03  0.13625316915E+04  0.00000000000E+00 0. -1.
<mgrwt>
<rscale>  0 0.28950337E+04</rscale>
<asrwt>0</asrwt>
<pdfrwt beam="1">  1        1 0.19474347E+00 0.28950337E+04</pdfrwt>
<pdfrwt beam="2">  1       -1 0.25465818E+00 0.28950337E+04</pdfrwt>
<totfact> 0.53426747E-01</totfact>
</mgrwt>
</event>
<event>
 6    1  0.9512547E-007  0.1334212E+04  0.7818608E-02  0.9002866E-01
         -2   -1    0    0    0  501 -0.00000000000E+00  0.00000000000E+00  0.30799627108E+03  0.30799627108E+03  0.00000000000E+00 0.  1.
          2   -1    0    0  501    0  0.00000000000E+00 -0.00000000000E+00 -0.14449223120E+04  0.14449223120E+04  0.00000000000E+00 0. -1.
         23    2    1    2    0    0 -0.30813891201E+03  0.45756079031E+03 -0.10566233858E+04  0.11954600803E+04  0.91434993647E+02 0.  0.
         11    1    3    3    0    0 -0.11329375961E+03  0.22634819528E+03 -0.55036452623E+03  0.60578056523E+03  0.00000000000E+00 0.  1.
        -11    1    3    3    0    0 -0.19484515240E+03  0.23121259504E+03 -0.50625885960E+03  0.58967951503E+03  0.00000000000E+00 0. -1.
         22    1    1    2    0    0  0.30813891201E+03 -0.45756079031E+03 -0.80302655045E+02  0.55745850279E+03  0.00000000000E+00 0.  1.
<mgrwt>
<rscale>  0 0.13342124E+04</rscale>
<asrwt>0</asrwt>
<pdfrwt beam="1">  1        2 0.22229574E+00 0.13342124E+04</pdfrwt>
<pdfrwt beam="2">  1       -2 0.47384041E-01 0.13342124E+04</pdfrwt>
<totfact> 0.56285155E+01</totfact>
</mgrwt>
</event>
<event>
 6    1  0.9512547E-007  0.9975915E+03  0.7818608E-02  0.9311190E-01
          2   -1    0    0  501    0  0.00000000000E+00  0.00000000000E+00  0.20563364711E+04  0.20563364711E+04  0.00000000000E+00 0. -1.
         -2   -1    0    0    0  501 -0.00000000000E+00 -0.00000000000E+00 -0.12099052295E+03  0.12099052295E+03  0.00000000000E+00 0.  1.
         23    2    1    2    0    0  0.42077617914E+03 -0.58902997904E+02  0.44008757802E+03  0.62287540281E+03  0.11736496495E+03 0.  0.
         13    1    3    3    0    0  0.15736642784E+03 -0.12006946337E+02  0.24625554473E+03  0.29248957705E+03  0.00000000000E+00 0. -1.
        -13    1    3    3    0    0  0.26340975130E+03 -0.46896051567E+02  0.19383203330E+03  0.33038582576E+03  0.00000000000E+00 0.  1.
         22    1    1    2    0    0 -0.42077617914E+03  0.58902997904E+02  0.14952583701E+04  0.15544515912E+04  0.00000000000E+00 0. -1.
<mgrwt>
<rscale>  0 0.99759155E+03</rscale>
<asrwt>0</asrwt>
<pdfrwt beam="1">  1        2 0.31635943E+00 0.99759155E+03</pdfrwt>
<pdfrwt beam="2">  1       -2 0.18613928E-01 0.99759155E+03</pdfrwt>
<totfact> 0.15110866E+02</totfact>
</mgrwt>
</event>
<event>
 6    1  0.9512547E-007  0.2577423E+04  0.7818608E-02  0.8375911E-01
          2   -1    0    0  501    0  0.00000000000E+00  0.00000000000E+00  0.32108830136E+04  0.32108830136E+04  0.00000000000E+00 0. -1.
         -2   -1    0    0    0  501 -0.00000000000E+00 -0.00000000000E+00 -0.51723363470E+03  0.51723363470E+03  0.00000000000E+00 0.  1.
         23    2    1    2    0    0 -0.51812789169E+03  0.27781241176E+03 -0.30770234843E+03  0.66972680405E+03  0.90647716731E+02 0.  0.
         11    1    3    3    0    0 -0.35515202079E+03  0.17302569218E+03 -0.16059049839E+03  0.42645064919E+03  0.00000000000E+00 0. -1.
        -11    1    3    3    0    0 -0.16297587091E+03  0.10478671958E+03 -0.14711185004E+03  0.24327615485E+03  0.00000000000E+00 0.  1.
         22    1    1    2    0    0  0.51812789169E+03 -0.27781241176E+03  0.30013517273E+04  0.30583898442E+04  0.00000000000E+00 0. -1.
<mgrwt>
<rscale>  0 0.25774225E+04</rscale>
<asrwt>0</asrwt>
<pdfrwt beam="1">  1        2 0.49398199E+00 0.25774225E+04</pdfrwt>
<pdfrwt beam="2">  1       -2 0.79574407E-01 0.25774225E+04</pdfrwt>
<totfact> 0.15819734E+00</totfact>
</mgrwt>
</event>
<event>
 6    1  0.9512547E-007  0.3867557E+04  0.7818608E-02  0.8031811E-01
         -2   -1    0    0    0  501 -0.00000000000E+00  0.00000000000E+00  0.20739414632E+04  0.20739414632E+04  0.00000000000E+00 0.  1.
          2   -1    0    0  501    0  0.00000000000E+00 -0.00000000000E+00 -0.18030880118E+04  0.18030880118E+04  0.00000000000E+00 0. -1.
         23    2    1    2    0    0 -0.91743083527E+03 -0.90786429918E+02 -0.15665939343E+04  0.18212730670E+04  0.11356723242E+03 0.  0.
         13    1    3    3    0    0 -0.36838578470E+03 -0.90111452552E+02 -0.67205847641E+03  0.77168047531E+03  0.00000000000E+00 0.  1.
        -13    1    3    3    0    0 -0.54904505057E+03 -0.67497736570E+00 -0.89453545792E+03  0.10495925917E+04  0.00000000000E+00 0. -1.
         22    1    1    2    0    0  0.91743083527E+03  0.90786429918E+02  0.18374473858E+04  0.20557564079E+04  0.00000000000E+00 0.  1.
<mgrwt>
<rscale>  0 0.38675568E+04</rscale>
<asrwt>0</asrwt>
<pdfrwt beam="1">  1        2 0.27739816E+00 0.38675568E+04</pdfrwt>
<pdfrwt beam="2">  1       -2 0.31906792E+00 0.38675568E+04</pdfrwt>
<totfact> 0.16627266E-01</totfact>
</mgrwt>
</event>
<event>
 6    1  0.9512547E-007  0.1808269E+04  0.7818608E-02  0.8701915E-01
         -3   -1    0    0    0  501 -0.00000000000E+00  0.00000000000E+00  0.39959947998E+03  0.39959947998E+03  0.00000000000E+00 0.  1.
          3   -1    0    0  501    0  0.00000000000E+00 -0.00000000000E+00 -0.20456953955E+04  0.20456953955E+04  0.00000000000E+00 0. -1.
         23    2    1    2    0    0 -0.56340073433E+03  0.68696570429E+03 -0.10348062956E+04  0.13668620933E+04  0.90253233895E+02 0.  0.
         11    1    3    3    0    0 -0.41459934812E+03  0.44493828160E+03 -0.67894894160E+03  0.91150115699E+03  0.00000000000E+00 0. -1.
        -11    1    3    3    0    0 -0.14880138621E+03  0.24202742269E+03 -0.35585735404E+03  0.45536093628E+03  0.00000000000E+00 0.  1.
         22    1    1    2    0    0  0.56340073433E+03 -0.68696570429E+03 -0.61128961985E+03  0.10784327822E+04  0.00000000000E+00 0.  1.
<mgrwt>
<rscale>  0 0.18082686E+04</rscale>
<asrwt>0</asrwt>
<pdfrwt beam="1">  1        3 0.31472237E+00 0.18082686E+04</pdfrwt>
<pdfrwt beam="2">  1       -3 0.61476844E-01 0.18082686E+04</pdfrwt>
<totfact> 0.20485461E-01</totfact>
</mgrwt>
</event>
<event>
 6    1  0.9512547E-007  0.1599594E+04  0.7818608E-02  0.8820798E-01
          2   -1    0    0  501    0  0.00000000000E+00  0.00000000000E+00  0.32271400169E+04  0.32271400169E+04  0.00000000000E+00 0. -1.
         -2   -1    0    0    0  501 -0.00000000000E+00 -0.00000000000E+00 -0.19821726682E+03  0.19821726682E+03  0.00000000000E+00 0.  1.
         23    2    1    2    0    0  0.23987887610E+03 -0.61163413678E+03  0.24865181535E+04  0.25733942922E+04  0.89148545207E+02 0.  0.
         13    1    3    3    0    0  0.75172131177E+02 -0.27806539115E+03  0.12067417802E+04  0.12406437584E+04  0.00000000000E+00 0. -1.
        -13    1    3    3    0    0  0.16470674493E+03 -0.33356874563E+03  0.12797763733E+04  0.13327505338E+04  0.00000000000E+00 0.  1.
         22    1    1    2    0    0 -0.23987887610E+03  0.61163413678E+03  0.54240459660E+03  0.85196299150E+03  0.00000000000E+00 0.  1.
<mgrwt>
<rscale>  0 0.15995935E+04</rscale>
<asrwt>0</asrwt>
<pdfrwt beam="1">  1        2 0.49648304E+00 0.15995935E+04</pdfrwt>
<pdfrwt beam="2">  1       -2 0.30494966E-01 0.15995935E+04</pdfrwt>
<totfact> 0.11971468E+01</totfact>
</mgrwt>
</event>
<event>
 6    1  0.9512547E-007  0.2082646E+04  0.7818608E-02  0.8568927E-01
          1   -1    0    0  501    0  0.00000000000E+00  0.00000000000E+00  0.36784821274E+03  0.36784821274E+03  0.00000000000E+00 0. -1.
         -1   -1    0    0    0  501 -0.00000000000E+00 -0.00000000000E+00 -0.29478285018E+04  0.29478285018E+04  0.00000000000E+00 0.  1.
         23    2    1    2    0    0 -0.17237414018E+03  0.19603728743E+03 -0.28939225321E+04  0.29073836896E+04  0.99743845474E+02 0.  0.
         11    1    3    3    0    0 -0.13958077848E+03  0.10766730039E+03 -0.22062452163E+04  0.22132765295E+04  0.00000000000E+00 0. -1.
        -11    1    3    3    0    0 -0.32793361694E+02  0.88369987036E+02 -0.68767731577E+03  0.69410716017E+03  0.00000000000E+00 0.  1.
         22    1    1    2    0    0  0.17237414018E+03 -0.19603728743E+03  0.31394224301E+03  0.40829302494E+03  0.00000000000E+00 0. -1.
<mgrwt>
<rscale>  0 0.20826459E+04</rscale>
<asrwt>0</asrwt>
<pdfrwt beam="1">  1        1 0.56592032E-01 0.20826459E+04</pdfrwt>
<pdfrwt beam="2">  1       -1 0.45351208E+00 0.20826459E+04</pdfrwt>
<totfact> 0.18906242E-01</totfact>
</mgrwt>
</event>
<event>
 6    1  0.9512547E-007  0.1529282E+04  0.7818608E-02  0.8865211E-01
          3   -1    0    0  501    0  0.00000000000E+00  0.00000000000E+00  0.45048658860E+03  0.45048658860E+03  0.00000000000E+00 0. -1.
         -3   -1    0    0    0  501 -0.00000000000E+00 -0.00000000000E+00 -0.12978770851E+04  0.12978770851E+04  0.00000000000E+00 0.  1.
         23    2    1    2    0    0  0.26055782848E+03 -0.71111596018E+03 -0.52093363018E+03  0.92365137457E+03  0.90463936891E+02 0.  0.
         11    1    3    3    0    0  0.20022167658E+02 -0.15236322130E+03 -0.89118333000E+02  0.17764435167E+03  0.00000000000E+00 0. -1.
        -11    1    3    3    0    0  0.24053566082E+03 -0.55875273888E+03 -0.43181529718E+03  0.74600702290E+03  0.00000000000E+00 0.  1.
         22    1    1    2    0    0 -0.26055782848E+03  0.71111596018E+03 -0.32645686636E+03  0.82471229917E+03  0.00000000000E+00 0.  1.
<mgrwt>
<rscale>  0 0.15292825E+04</rscale>
<asrwt>0</asrwt>
<pdfrwt beam="1">  1        3 0.69305630E-01 0.15292825E+04</pdfrwt>
<pdfrwt beam="2">  1       -3 0.19967339E+00 0.15292825E+04</pdfrwt>
<totfact> 0.74111560E-01</totfact>
</mgrwt>
</event>
<event>
 6    1  0.9512547E-007  0.1475677E+04  0.7818608E-02  0.8900791E-01
          2   -1    0    0  501    0  0.00000000000E+00  0.00000000000E+00  0.78376204007E+03  0.78376204007E+03  0.00000000000E+00 0. -1.
         -2   -1    0    0    0  501 -0.00000000000E+00 -0.00000000000E+00 -0.69460545455E+03  0.69460545455E+03  0.00000000000E+00 0.  1.
         23    2    1    2    0    0 -0.13118216986E+03  0.72318515500E+03  0.61741706971E+02  0.74286963218E+03  0.88530909514E+02 0.  0.
         11    1    3    3    0    0 -0.59026982238E+01  0.23852837490E+03  0.38989727127E+02  0.24176605697E+03  0.00000000000E+00 0.  1.
        -11    1    3    3    0    0 -0.12527947164E+03  0.48465678009E+03  0.22751979844E+02  0.50110357521E+03  0.00000000000E+00 0. -1.
         22    1    1    2    0    0  0.13118216986E+03 -0.72318515500E+03  0.27414878551E+02  0.73549786245E+03  0.00000000000E+00 0.  1.
<mgrwt>
<rscale>  0 0.14756766E+04</rscale>
<asrwt>0</asrwt>
<pdfrwt beam="1">  1        2 0.12057878E+00 0.14756766E+04</pdfrwt>
<pdfrwt beam="2">  1       -2 0.10686238E+00 0.14756766E+04</pdfrwt>
<totfact> 0.24145275E+01</totfact>
</mgrwt>
</event>
<event>
 6    1  0.9512547E-007  0.2196284E+04  0.7818608E-02  0.8519976E-01
          1   -1    0    0  501    0  0.00000000000E+00  0.00000000000E+00  0.27279836462E+04  0.27279836462E+04  0.00000000000E+00 0. -1.
         -1   -1    0    0    0  501 -0.00000000000E+00 -0.00000000000E+00 -0.44205411610E+03  0.44205411610E+03  0.00000000000E+00 0.  1.
         23    2    1    2    0    0 -0.27307171190E+03  0.45303222787E+03  0.25306074617E+04  0.25872224832E+04  0.99698009189E+02 0.  0.
         11    1    3    3    0    0 -0.13456778212E+03  0.17948596675E+03  0.12849119689E+04  0.13043475258E+04  0.00000000000E+00 0.  1.
        -11    1    3    3    0    0 -0.13850392978E+03  0.27354626112E+03  0.12456954928E+04  0.12828749574E+04  0.00000000000E+00 0. -1.
         22    1    1    2    0    0  0.27307171190E+03 -0.45303222787E+03 -0.24467793160E+03  0.58281527909E+03  0.00000000000E+00 0.  1.
<mgrwt>
<rscale>  0 0.21962845E+04</rscale>
<asrwt>0</asrwt>
<pdfrwt beam="1">  1        1 0.41968978E+00 0.21962845E+04</pdfrwt>
<pdfrwt beam="2">  1       -1 0.68008328E-01 0.21962845E+04</pdfrwt>
<totfact> 0.18725968E+00</totfact>
</mgrwt>
</event>
<event>
 6    1  0.9512547E-007  0.2664112E+04  0.7818608E-02  0.8346744E-01
         -1   -1    0    0    0  501 -0.00000000000E+00  0.00000000000E+00  0.81315759663E+03  0.81315759663E+03  0.00000000000E+00 0.  1.
          1   -1    0    0  501    0  0.00000000000E+00 -0.00000000000E+00 -0.21820784360E+04  0.21820784360E+04  0.00000000000E+00 0. -1.
         23    2    1    2    0    0 -0.62599870974E+03 -0.55789827783E+03  0.47615098112E+03  0.96856020860E+03  0.90907908698E+02 0.  0.
         11    1    3    3    0    0 -0.31687172952E+03 -0.23740557791E+03  0.18915354627E+03  0.43880310557E+03  0.00000000000E+00 0. -1.
        -11    1    3    3    0    0 -0.30912698022E+03 -0.32049269992E+03  0.28699743485E+03  0.52975710303E+03  0.00000000000E+00 0.  1.
         22    1    1    2    0    0  0.62599870974E+03  0.55789827783E+03 -0.18450718205E+04  0.20266758240E+04  0.00000000000E+00 0. -1.
<mgrwt>
<rscale>  0 0.26641124E+04</rscale>
<asrwt>0</asrwt>
<pdfrwt beam="1">  1        1 0.33570437E+00 0.26641124E+04</pdfrwt>
<pdfrwt beam="2">  1       -1 0.12510117E+00 0.26641124E+04</pdfrwt>
<totfact> 0.10958078E+00</totfact>
</mgrwt>
</event>
<event>
 6    1  0.9512547E-007  0.2090174E+04  0.7818608E-02  0.8565584E-01
         -1   -1    0    0    0  501 -0.00000000000E+00  0.00000000000E+00  0.49911862742E+03  0.49911862742E+03  0.00000000000E+00 0.  1.
          1   -1    0    0  501    0  0.00000000000E+00 -0.00000000000E+00 -0.21882707708E+04  0.21882707708E+04  0.00000000000E+00 0. -1.
         23    2    1    2    0    0 -0.61846734002E+03 -0.83364399823E+03 -0.71291573231E+03  0.12624326632E+04  0.89572435412E+02 0.  0.
         11    1    3    3    0    0 -0.43753020398E+03 -0.62660169302E+03 -0.56325685924E+03  0.94937908686E+03  0.00000000000E+00 0. -1.
        -11    1    3    3    0    0 -0.18093713604E+03 -0.20704230521E+03 -0.14965887307E+03  0.31305357630E+03  0.00000000000E+00 0.  1.
         22    1    1    2    0    0  0.61846734002E+03  0.83364399823E+03 -0.97623641105E+03  0.14249567350E+04  0.00000000000E+00 0.  1.
<mgrwt>
<rscale>  0 0.20901739E+04</rscale>
<asrwt>0</asrwt>
<pdfrwt beam="1">  1        1 0.33665704E+00 0.20901739E+04</pdfrwt>
<pdfrwt beam="2">  1       -1 0.76787481E-01 0.20901739E+04</pdfrwt>
<totfact> 0.34753140E+00</totfact>
</mgrwt>
</event>
<event>
 6    1  0.9512547E-007  0.2893455E+04  0.7818608E-02  0.8274827E-01
         -2   -1    0    0    0  501 -0.00000000000E+00  0.00000000000E+00  0.12327928443E+04  0.12327928443E+04  0.00000000000E+00 0.  1.
          2   -1    0    0  501    0  0.00000000000E+00 -0.00000000000E+00 -0.16977878626E+04  0.16977878626E+04  0.00000000000E+00 0. -1.
         23    2    1    2    0    0 -0.39441814266E+03  0.13632942505E+04  0.44236606041E+02  0.14227830639E+04  0.90652550464E+02 0.  0.
         13    1    3    3    0    0 -0.37149447860E+02  0.14377413788E+03  0.32217324175E+02  0.15195078208E+03  0.00000000000E+00 0.  1.
        -13    1    3    3    0    0 -0.35726869480E+03  0.12195201127E+04  0.12019281866E+02  0.12708322819E+04  0.00000000000E+00 0. -1.
         22    1    1    2    0    0  0.39441814266E+03 -0.13632942505E+04 -0.50923162444E+03  0.15077976430E+04  0.00000000000E+00 0. -1.
<mgrwt>
<rscale>  0 0.28934552E+04</rscale>
<asrwt>0</asrwt>
<pdfrwt beam="1">  1        2 0.26119813E+00 0.28934552E+04</pdfrwt>
<pdfrwt beam="2">  1       -2 0.18966044E+00 0.28934552E+04</pdfrwt>
<totfact> 0.13234650E+00</totfact>
</mgrwt>
</event>
<event>
 6    1  0.9512547E-007  0.3194860E+04  0.7818608E-02  0.8190176E-01
          2   -1    0    0  501    0  0.00000000000E+00  0.00000000000E+00  0.92552220488E+03  0.92552220488E+03  0.00000000000E+00 0. -1.
         -2   -1    0    0    0  501 -0.00000000000E+00 -0.00000000000E+00 -0.27571276134E+04  0.27571276134E+04  0.00000000000E+00 0.  1.
         23    2    1    2    0    0  0.16597782430E+03  0.14290053484E+04 -0.17140048616E+04  0.22392389923E+04  0.82302338362E+02 0.  0.
         13    1    3    3    0    0  0.99612792072E+02  0.76999509621E+03 -0.86295852301E+03  0.11608240905E+04  0.00000000000E+00 0. -1.
        -13    1    3    3    0    0  0.66365032225E+02  0.65901025222E+03 -0.85104633861E+03  0.10784149018E+04  0.00000000000E+00 0.  1.
         22    1    1    2    0    0 -0.16597782430E+03 -0.14290053484E+04 -0.11760054691E+03  0.14434108260E+04  0.00000000000E+00 0. -1.
<mgrwt>
<rscale>  0 0.31948601E+04</rscale>
<asrwt>0</asrwt>
<pdfrwt beam="1">  1        2 0.14238803E+00 0.31948601E+04</pdfrwt>
<pdfrwt beam="2">  1       -2 0.42417347E+00 0.31948601E+04</pdfrwt>
<totfact> 0.12203222E-01</totfact>
</mgrwt>
</event>
<event>
 6    1  0.9512547E-007  0.7463626E+03  0.7818608E-02  0.9641074E-01
          1   -1    0    0  501    0  0.00000000000E+00  0.00000000000E+00  0.62176152812E+03  0.62176152812E+03  0.00000000000E+00 0. -1.
         -1   -1    0    0    0  501 -0.00000000000E+00 -0.00000000000E+00 -0.22398342382E+03  0.22398342382E+03  0.00000000000E+00 0.  1.
         23    2    1    2    0    0 -0.12905369989E+03  0.22799395948E+03 -0.86080307739E+02  0.29551312270E+03  0.10621715159E+03 0.  0.
         13    1    3    3    0    0 -0.12490482528E+03  0.11560184460E+03 -0.49445935633E+02  0.17722839052E+03  0.00000000000E+00 0. -1.
        -13    1    3    3    0    0 -0.41488746044E+01  0.11239211488E+03 -0.36634372106E+02  0.11828473218E+03  0.00000000000E+00 0.  1.
         22    1    1    2    0    0  0.12905369989E+03 -0.22799395948E+03  0.48385841204E+03  0.55023182925E+03  0.00000000000E+00 0. -1.
<mgrwt>
<rscale>  0 0.74636258E+03</rscale>
<asrwt>0</asrwt>
<pdfrwt beam="1">  1        1 0.95655619E-01 0.74636258E+03</pdfrwt>
<pdfrwt beam="2">  1       -1 0.34458989E-01 0.74636258E+03</pdfrwt>
<totfact> 0.26241647E+02</totfact>
</mgrwt>
</event>
<event>
 6    1  0.9512547E-007  0.1436119E+04  0.7818608E-02  0.8928081E-01
          1   -1    0    0  501    0  0.00000000000E+00  0.00000000000E+00  0.53828747172E+03  0.53828747172E+03  0.00000000000E+00 0. -1.
         -1   -1    0    0    0  501 -0.00000000000E+00 -0.00000000000E+00 -0.95787035273E+03  0.95787035273E+03  0.00000000000E+00 0.  1.
         23    2    1    2    0    0 -0.61539888591E+03  0.33750585200E+03 -0.67052950717E+02  0.71072587918E+03  0.89494068081E+02 0.  0.
         13    1    3    3    0    0 -0.24776956586E+03  0.86674846626E+02 -0.27153782869E+02  0.26389318810E+03  0.00000000000E+00 0.  1.
        -13    1    3    3    0    0 -0.36762932005E+03  0.25083100538E+03 -0.39899167849E+02  0.44683269107E+03  0.00000000000E+00 0. -1.
         22    1    1    2    0    0  0.61539888591E+03 -0.33750585200E+03 -0.35252993029E+03  0.78543194528E+03  0.00000000000E+00 0.  1.
<mgrwt>
<rscale>  0 0.14361192E+04</rscale>
<asrwt>0</asrwt>
<pdfrwt beam="1">  1        1 0.82813458E-01 0.14361192E+04</pdfrwt>
<pdfrwt beam="2">  1       -1 0.14736467E+00 0.14361192E+04</pdfrwt>
<totfact> 0.14228878E+01</totfact>
</mgrwt>
</event>
<event>
 6    1  0.9512547E-007  0.1394751E+04  0.7818608E-02  0.8957627E-01
         -2   -1    0    0    0  501 -0.00000000000E+00  0.00000000000E+00  0.26952855862E+03  0.26952855862E+03  0.00000000000E+00 0.  1.
          2   -1    0    0  501    0  0.00000000000E+00 -0.00000000000E+00 -0.18043825174E+04  0.18043825174E+04  0.00000000000E+00 0. -1.
         23    2    1    2    0    0  0.42335493691E+03 -0.54878818493E+03 -0.82908737546E+03  0.10847172908E+04  0.93956640923E+02 0.  0.
         11    1    3    3    0    0  0.38414567361E+03 -0.52809058966E+03 -0.75363603092E+03  0.99720350809E+03  0.00000000000E+00 0. -1.
        -11    1    3    3    0    0  0.39209263296E+02 -0.20697595267E+02 -0.75451344542E+02  0.87513782750E+02  0.00000000000E+00 0.  1.
         22    1    1    2    0    0 -0.42335493691E+03  0.54878818493E+03 -0.70576658333E+03  0.98919378520E+03  0.00000000000E+00 0.  1.
<mgrwt>
<rscale>  0 0.13947510E+04</rscale>
<asrwt>0</asrwt>
<pdfrwt beam="1">  1        2 0.27759731E+00 0.13947510E+04</pdfrwt>
<pdfrwt beam="2">  1       -2 0.41465933E-01 0.13947510E+04</pdfrwt>
<totfact> 0.46036974E+01</totfact>
</mgrwt>
</event>
<event>
 6    1  0.1005337E-006  0.3002370E+04  0.7818608E-02  0.8243054E-01
         -2   -1    0    0    0  501 -0.00000000000E+00  0.00000000000E+00  0.18959123129E+04  0.18959123129E+04  0.00000000000E+00 0.  1.
          2   -1    0    0  501    0  0.00000000000E+00 -0.00000000000E+00 -0.11886395069E+04  0.11886395069E+04  0.00000000000E+00 0. -1.
         23    2    1    2    0    0  0.82509056471E+03  0.11076294549E+04  0.95507347642E+03  0.16813331549E+04  0.84251902751E+02 0.  0.
         13    1    3    3    0    0  0.34479364209E+03  0.43813349356E+03  0.43265055243E+03  0.70571248701E+03  0.00000000000E+00 0. -1.
        -13    1    3    3    0    0  0.48029692262E+03  0.66949596137E+03  0.52242292399E+03  0.97562066792E+03  0.00000000000E+00 0.  1.
         22    1    1    2    0    0 -0.82509056471E+03 -0.11076294549E+04 -0.24780067041E+03  0.14032186649E+04  0.00000000000E+00 0.  1.
<mgrwt>
<rscale>  0 0.30023699E+04</rscale>
<asrwt>0</asrwt>
<pdfrwt beam="1">  1        2 0.18286762E+00 0.30023699E+04</pdfrwt>
<pdfrwt beam="2">  1       -2 0.29167882E+00 0.30023699E+04</pdfrwt>
<totfact> 0.58841625E-01</totfact>
</mgrwt>
</event>
<event>
 6    1  0.9512547E-007  0.4340446E+04  0.7818608E-02  0.7939181E-01
          2   -1    0    0  501    0  0.00000000000E+00  0.00000000000E+00  0.24569977439E+04  0.24569977439E+04  0.00000000000E+00 0. -1.
         -2   -1    0    0    0  501 -0.00000000000E+00 -0.00000000000E+00 -0.19169197161E+04  0.19169197161E+04  0.00000000000E+00 0.  1.
         23    2    1    2    0    0 -0.17572123693E+04  0.33244773727E+03 -0.96704322113E+03  0.20351717988E+04  0.91841440471E+02 0.  0.
         13    1    3    3    0    0 -0.15659429534E+04  0.32432928264E+03 -0.85626033134E+03  0.18139869271E+04  0.00000000000E+00 0. -1.
        -13    1    3    3    0    0 -0.19126941591E+03  0.81184546290E+01 -0.11078288978E+03  0.22118487163E+03  0.00000000000E+00 0.  1.
         22    1    1    2    0    0  0.17572123693E+04 -0.33244773727E+03  0.15071212489E+04  0.23387456612E+04  0.00000000000E+00 0. -1.
<mgrwt>
<rscale>  0 0.43404458E+04</rscale>
<asrwt>0</asrwt>
<pdfrwt beam="1">  1        2 0.37799965E+00 0.43404458E+04</pdfrwt>
<pdfrwt beam="2">  1       -2 0.29491072E+00 0.43404458E+04</pdfrwt>
<totfact> 0.96615110E-02</totfact>
</mgrwt>
</event>
<event>
 6    1  0.9512547E-007  0.3608062E+04  0.7818608E-02  0.8088648E-01
         -2   -1    0    0    0  501 -0.00000000000E+00  0.00000000000E+00  0.16172976820E+04  0.16172976820E+04  0.00000000000E+00 0.  1.
          2   -1    0    0  501    0  0.00000000000E+00 -0.00000000000E+00 -0.20123241625E+04  0.20123241625E+04  0.00000000000E+00 0. -1.
         23    2    1    2    0    0  0.52171282988E+03 -0.11354358051E+04 -0.15050407038E+04  0.19582360960E+04  0.90234933831E+02 0.  0.
         13    1    3    3    0    0  0.98281805575E+02 -0.30833822302E+03 -0.38620540632E+03  0.50387140121E+03  0.00000000000E+00 0.  1.
        -13    1    3    3    0    0  0.42343102431E+03 -0.82709758211E+03 -0.11188352975E+04  0.14543646948E+04  0.00000000000E+00 0. -1.
         22    1    1    2    0    0 -0.52171282988E+03  0.11354358051E+04  0.11100142233E+04  0.16713857485E+04  0.00000000000E+00 0.  1.
<mgrwt>
<rscale>  0 0.36080616E+04</rscale>
<asrwt>0</asrwt>
<pdfrwt beam="1">  1        2 0.30958833E+00 0.36080616E+04</pdfrwt>
<pdfrwt beam="2">  1       -2 0.24881503E+00 0.36080616E+04</pdfrwt>
<totfact> 0.35007566E-01</totfact>
</mgrwt>
</event>
<event>
 6    1  0.9512547E-007  0.3545685E+04  0.7818608E-02  0.8103048E-01
         -2   -1    0    0    0  501 -0.00000000000E+00  0.00000000000E+00  0.19560431337E+04  0.19560431337E+04  0.00000000000E+00 0.  1.
          2   -1    0    0  501    0  0.00000000000E+00 -0.00000000000E+00 -0.16068003849E+04  0.16068003849E+04  0.00000000000E+00 0. -1.
         23    2    1    2    0    0  0.28101735127E+03 -0.16090344099E+04  0.86428989498E+03  0.18501742433E+04  0.90472226544E+02 0.  0.
         11    1    3    3    0    0  0.12533707436E+03 -0.49074115321E+03  0.28468274158E+03  0.58101680270E+03  0.00000000000E+00 0. -1.
        -11    1    3    3    0    0  0.15568027692E+03 -0.11182932567E+04  0.57960715339E+03  0.12691574406E+04  0.00000000000E+00 0.  1.
         22    1    1    2    0    0 -0.28101735127E+03  0.16090344099E+04 -0.51504714615E+03  0.17126692754E+04  0.00000000000E+00 0.  1.
<mgrwt>
<rscale>  0 0.35456852E+04</rscale>
<asrwt>0</asrwt>
<pdfrwt beam="1">  1        2 0.24720006E+00 0.35456852E+04</pdfrwt>
<pdfrwt beam="2">  1       -2 0.30092971E+00 0.35456852E+04</pdfrwt>
<totfact> 0.28386645E-01</totfact>
</mgrwt>
</event>
<event>
 6    1  0.9512547E-007  0.1226315E+04  0.7818608E-02  0.9090130E-01
          1   -1    0    0  501    0  0.00000000000E+00  0.00000000000E+00  0.85904015296E+03  0.85904015296E+03  0.00000000000E+00 0. -1.
         -1   -1    0    0    0  501 -0.00000000000E+00 -0.00000000000E+00 -0.43765381075E+03  0.43765381075E+03  0.00000000000E+00 0.  1.
         23    2    1    2    0    0 -0.10250262214E+03  0.49046011937E+03  0.57918733825E+03  0.77137589760E+03  0.92221940853E+02 0.  0.
         11    1    3    3    0    0 -0.13388620061E+01  0.23058385362E+03  0.25940707218E+03  0.34707741960E+03  0.00000000000E+00 0. -1.
        -11    1    3    3    0    0 -0.10116376013E+03  0.25987626575E+03  0.31978026607E+03  0.42429847800E+03  0.00000000000E+00 0.  1.
         22    1    1    2    0    0  0.10250262214E+03 -0.49046011937E+03 -0.15780099603E+03  0.52531806611E+03  0.00000000000E+00 0.  1.
<mgrwt>
<rscale>  0 0.12263151E+04</rscale>
<asrwt>0</asrwt>
<pdfrwt beam="1">  1        1 0.13216002E+00 0.12263151E+04</pdfrwt>
<pdfrwt beam="2">  1       -1 0.67331355E-01 0.12263151E+04</pdfrwt>
<totfact> 0.43442502E+01</totfact>
</mgrwt>
</event>
<event>
 6    1  0.9512547E-007  0.2470680E+04  0.7818608E-02  0.8413506E-01
          2   -1    0    0  501    0  0.00000000000E+00  0.00000000000E+00  0.14359645444E+04  0.14359645444E+04  0.00000000000E+00 0. -1.
         -2   -1    0    0    0  501 -0.00000000000E+00 -0.00000000000E+00 -0.10627454689E+04  0.10627454689E+04  0.00000000000E+00 0.  1.
         23    2    1    2    0    0 -0.10877581694E+04 -0.45928646070E+03 -0.17458388031E+03  0.11970764372E+04  0.91381493023E+02 0.  0.
         11    1    3    3    0    0 -0.13526036853E+03 -0.64834270406E+02  0.74692162182E+01  0.15018201991E+03  0.00000000000E+00 0.  1.
        -11    1    3    3    0    0 -0.95249780084E+03 -0.39445219030E+03 -0.18205309653E+03  0.10468944173E+04  0.00000000000E+00 0. -1.
         22    1    1    2    0    0  0.10877581694E+04  0.45928646070E+03  0.54780295584E+03  0.13016335761E+04  0.00000000000E+00 0. -1.
<mgrwt>
<rscale>  0 0.24706799E+04</rscale>
<asrwt>0</asrwt>
<pdfrwt beam="1">  1        2 0.22091762E+00 0.24706799E+04</pdfrwt>
<pdfrwt beam="2">  1       -2 0.16349930E+00 0.24706799E+04</pdfrwt>
<totfact> 0.29299067E+00</totfact>
</mgrwt>
</event>
<event>
 6    1  0.9512547E-007  0.8370953E+03  0.7818608E-02  0.9507823E-01
         -1   -1    0    0    0  501 -0.00000000000E+00  0.00000000000E+00  0.96278696906E+02  0.96278696906E+02  0.00000000000E+00 0.  1.
          1   -1    0    0  501    0  0.00000000000E+00 -0.00000000000E+00 -0.18195316833E+04  0.18195316833E+04  0.00000000000E+00 0. -1.
         23    2    1    2    0    0 -0.24401136302E+01 -0.24952325424E+03 -0.16267725910E+04  0.16482729524E+04  0.90259926744E+02 0.  0.
         13    1    3    3    0    0 -0.28390808964E+02 -0.13798073044E+03 -0.11137425134E+04  0.11226161883E+04  0.00000000000E+00 0. -1.
        -13    1    3    3    0    0  0.25950695334E+02 -0.11154252380E+03 -0.51303007756E+03  0.52565676414E+03  0.00000000000E+00 0.  1.
         22    1    1    2    0    0  0.24401136302E+01  0.24952325424E+03 -0.96480395407E+02  0.26753742777E+03  0.00000000000E+00 0.  1.
<mgrwt>
<rscale>  0 0.83709531E+03</rscale>
<asrwt>0</asrwt>
<pdfrwt beam="1">  1        1 0.27992793E+00 0.83709531E+03</pdfrwt>
<pdfrwt beam="2">  1       -1 0.14812108E-01 0.83709531E+03</pdfrwt>
<totfact> 0.13509359E+02</totfact>
</mgrwt>
</event>
<event>
 6    1  0.9512547E-007  0.1022782E+04  0.7818608E-02  0.9283905E-01
         -2   -1    0    0    0  501 -0.00000000000E+00  0.00000000000E+00  0.96242983558E+03  0.96242983558E+03  0.00000000000E+00 0.  1.
          2   -1    0    0  501    0  0.00000000000E+00 -0.00000000000E+00 -0.27172966101E+03  0.27172966101E+03  0.00000000000E+00 0. -1.
         23    2    1    2    0    0 -0.35958916509E+03  0.77922200849E+02  0.76968904866E+03  0.85784117486E+03  0.89966730623E+02 0.  0.
         13    1    3    3    0    0 -0.13425970893E+03  0.72911958684E+02  0.28732878954E+03  0.32542227407E+03  0.00000000000E+00 0.  1.
        -13    1    3    3    0    0 -0.22532945616E+03  0.50102421648E+01  0.48236025912E+03  0.53241890079E+03  0.00000000000E+00 0. -1.
         22    1    1    2    0    0  0.35958916509E+03 -0.77922200849E+02 -0.78988874100E+02  0.37631832173E+03  0.00000000000E+00 0. -1.
<mgrwt>
<rscale>  0 0.10227820E+04</rscale>
<asrwt>0</asrwt>
<pdfrwt beam="1">  1        2 0.41804564E-01 0.10227820E+04</pdfrwt>
<pdfrwt beam="2">  1       -2 0.14806613E+00 0.10227820E+04</pdfrwt>
<totfact> 0.37878699E+01</totfact>
</mgrwt>
</event>
<event>
 6    1  0.9512547E-007  0.2164237E+04  0.7818608E-02  0.8533463E-01
          1   -1    0    0  501    0  0.00000000000E+00  0.00000000000E+00  0.16252939093E+04  0.16252939093E+04  0.00000000000E+00 0. -1.
         -1   -1    0    0    0  501 -0.00000000000E+00 -0.00000000000E+00 -0.72047320735E+03  0.72047320735E+03  0.00000000000E+00 0.  1.
         23    2    1    2    0    0 -0.12286343928E+03 -0.98789384518E+03 -0.13959967774E+01  0.99956565360E+03  0.89999294393E+02 0.  0.
         11    1    3    3    0    0 -0.90163608241E+02 -0.79457803680E+03  0.33701243725E+02  0.80038709800E+03  0.00000000000E+00 0. -1.
        -11    1    3    3    0    0 -0.32699831043E+02 -0.19331580838E+03 -0.35097240502E+02  0.19917855560E+03  0.00000000000E+00 0.  1.
         22    1    1    2    0    0  0.12286343928E+03  0.98789384518E+03  0.90621669875E+03  0.13462014631E+04  0.00000000000E+00 0. -1.
<mgrwt>
<rscale>  0 0.21642372E+04</rscale>
<asrwt>0</asrwt>
<pdfrwt beam="1">  1        1 0.25004522E+00 0.21642372E+04</pdfrwt>
<pdfrwt beam="2">  1       -1 0.11084203E+00 0.21642372E+04</pdfrwt>
<totfact> 0.36748212E+00</totfact>
</mgrwt>
</event>
<event>
 6    1  0.9512547E-007  0.7975579E+03  0.7818608E-02  0.9563559E-01
         -2   -1    0    0    0  501 -0.00000000000E+00  0.00000000000E+00  0.16945837398E+03  0.16945837398E+03  0.00000000000E+00 0.  1.
          2   -1    0    0  501    0  0.00000000000E+00 -0.00000000000E+00 -0.93842891440E+03  0.93842891440E+03  0.00000000000E+00 0. -1.
         23    2    1    2    0    0 -0.85516506482E+02 -0.34569402006E+03 -0.62356799374E+03  0.72323247043E+03  0.86085626420E+02 0.  0.
         11    1    3    3    0    0 -0.34003281756E+02 -0.14677783441E+03 -0.18254459537E+03  0.23669069509E+03  0.00000000000E+00 0. -1.
        -11    1    3    3    0    0 -0.51513224726E+02 -0.19891618565E+03 -0.44102339838E+03  0.48654177534E+03  0.00000000000E+00 0.  1.
         22    1    1    2    0    0  0.85516506482E+02  0.34569402006E+03 -0.14540254668E+03  0.38465481795E+03  0.00000000000E+00 0.  1.
<mgrwt>
<rscale>  0 0.79755787E+03</rscale>
<asrwt>0</asrwt>
<pdfrwt beam="1">  1        2 0.14437368E+00 0.79755787E+03</pdfrwt>
<pdfrwt beam="2">  1       -2 0.26070519E-01 0.79755787E+03</pdfrwt>
<totfact> 0.36869493E+02</totfact>
</mgrwt>
</event>
<event>
 6    1  0.9512547E-007  0.2199354E+04  0.7818608E-02  0.8518697E-01
         -2   -1    0    0    0  501 -0.00000000000E+00  0.00000000000E+00  0.58434561417E+03  0.58434561417E+03  0.00000000000E+00 0.  1.
          2   -1    0    0  501    0  0.00000000000E+00 -0.00000000000E+00 -0.20694759333E+04  0.20694759333E+04  0.00000000000E+00 0. -1.
         23    2    1    2    0    0  0.22784737010E+03  0.91666939175E+03 -0.68265866745E+02  0.95097038714E+03  0.86528901695E+02 0.  0.
         11    1    3    3    0    0  0.14605165763E+03  0.62719068237E+03 -0.71468604076E+01  0.64401111509E+03  0.00000000000E+00 0.  1.
        -11    1    3    3    0    0  0.81795712469E+02  0.28947870938E+03 -0.61119006337E+02  0.30695927205E+03  0.00000000000E+00 0. -1.
         22    1    1    2    0    0 -0.22784737010E+03 -0.91666939175E+03 -0.14168644524E+04  0.17028511604E+04  0.00000000000E+00 0. -1.
<mgrwt>
<rscale>  0 0.21993537E+04</rscale>
<asrwt>0</asrwt>
<pdfrwt beam="1">  1        2 0.31838091E+00 0.21993537E+04</pdfrwt>
<pdfrwt beam="2">  1       -2 0.89899326E-01 0.21993537E+04</pdfrwt>
<totfact> 0.59181849E+00</totfact>
</mgrwt>
</event>
<event>
 6    1  0.9512547E-007  0.3046656E+04  0.7818608E-02  0.8230532E-01
         -1   -1    0    0    0  501 -0.00000000000E+00  0.00000000000E+00  0.21048143492E+04  0.21048143492E+04  0.00000000000E+00 0.  1.
          1   -1    0    0  501    0  0.00000000000E+00 -0.00000000000E+00 -0.11024856535E+04  0.11024856535E+04  0.00000000000E+00 0. -1.
         23    2    1    2    0    0 -0.10375210351E+04  0.16784248112E+03 -0.65717048833E+03  0.12429786088E+04  0.92205067823E+02 0.  0.
         13    1    3    3    0    0 -0.85216815724E+03  0.10229531739E+03 -0.52622955168E+03  0.10067633492E+04  0.00000000000E+00 0.  1.
        -13    1    3    3    0    0 -0.18535287781E+03  0.65547163721E+02 -0.13094093665E+03  0.23621525961E+03  0.00000000000E+00 0. -1.
         22    1    1    2    0    0  0.10375210351E+04 -0.16784248112E+03  0.16594991841E+04  0.19643213939E+04  0.00000000000E+00 0.  1.
<mgrwt>
<rscale>  0 0.30466556E+04</rscale>
<asrwt>0</asrwt>
<pdfrwt beam="1">  1        1 0.16961318E+00 0.30466556E+04</pdfrwt>
<pdfrwt beam="2">  1       -1 0.32381759E+00 0.30466556E+04</pdfrwt>
<totfact> 0.24724164E-01</totfact>
</mgrwt>
</event>
<event>
 6    1  0.9512547E-007  0.1994821E+04  0.7818608E-02  0.8609046E-01
         -1   -1    0    0    0  501 -0.00000000000E+00  0.00000000000E+00  0.75751108014E+03  0.75751108014E+03  0.00000000000E+00 0.  1.
          1   -1    0    0  501    0  0.00000000000E+00 -0.00000000000E+00 -0.13132852011E+04  0.13132852011E+04  0.00000000000E+00 0. -1.
         23    2    1    2    0    0 -0.87632244335E+03  0.34135129236E+03  0.59961981376E+02  0.94669989871E+03  0.90462862450E+02 0.  0.
         13    1    3    3    0    0 -0.45202659908E+03  0.20368466946E+03  0.68755658864E+02  0.50054253713E+03  0.00000000000E+00 0. -1.
        -13    1    3    3    0    0 -0.42429584427E+03  0.13766662290E+03 -0.87936774874E+01  0.44615736158E+03  0.00000000000E+00 0.  1.
         22    1    1    2    0    0  0.87632244335E+03 -0.34135129236E+03 -0.61573610234E+03  0.11240963825E+04  0.00000000000E+00 0. -1.
<mgrwt>
<rscale>  0 0.19948214E+04</rscale>
<asrwt>0</asrwt>
<pdfrwt beam="1">  1        1 0.20204388E+00 0.19948214E+04</pdfrwt>
<pdfrwt beam="2">  1       -1 0.11654017E+00 0.19948214E+04</pdfrwt>
<totfact> 0.54602016E+00</totfact>
</mgrwt>
</event>
<event>
 6    1  0.9512547E-007  0.2362465E+04  0.7818608E-02  0.8453691E-01
         -1   -1    0    0    0  501 -0.00000000000E+00  0.00000000000E+00  0.64865108425E+03  0.64865108425E+03  0.00000000000E+00 0.  1.
          1   -1    0    0  501    0  0.00000000000E+00 -0.00000000000E+00 -0.21510952519E+04  0.21510952519E+04  0.00000000000E+00 0. -1.
         23    2    1    2    0    0 -0.57004897916E+03 -0.10166690881E+04 -0.53914733887E+03  0.12876244318E+04  0.93407446453E+02 0.  0.
         11    1    3    3    0    0 -0.46103807867E+03 -0.88203762246E+03 -0.47611242513E+03  0.11032812510E+04  0.00000000000E+00 0. -1.
        -11    1    3    3    0    0 -0.10901090049E+03 -0.13463146562E+03 -0.63034913740E+02  0.18434318081E+03  0.00000000000E+00 0.  1.
         22    1    1    2    0    0  0.57004897916E+03  0.10166690881E+04 -0.96329682877E+03  0.15121219043E+04  0.00000000000E+00 0. -1.
<mgrwt>
<rscale>  0 0.23624650E+04</rscale>
<asrwt>0</asrwt>
<pdfrwt beam="1">  1        1 0.33093772E+00 0.23624650E+04</pdfrwt>
<pdfrwt beam="2">  1       -1 0.99792477E-01 0.23624650E+04</pdfrwt>
<totfact> 0.20248619E+00</totfact>
</mgrwt>
</event>
<event>
 6    1  0.9512547E-007  0.2003051E+04  0.7818608E-02  0.8605195E-01
          1   -1    0    0  501    0  0.00000000000E+00  0.00000000000E+00  0.28039728550E+04  0.28039728550E+04  0.00000000000E+00 0. -1.
         -1   -1    0    0    0  501 -0.00000000000E+00 -0.00000000000E+00 -0.35772591310E+03  0.35772591310E+03  0.00000000000E+00 0.  1.
         23    2    1    2    0    0  0.87037346083E+02 -0.87318550052E+03  0.19806988405E+04  0.21683390887E+04  0.92185078666E+02 0.  0.
         13    1    3    3    0    0  0.56256531068E+02 -0.52135189776E+03  0.10708421621E+04  0.11923403603E+04  0.00000000000E+00 0.  1.
        -13    1    3    3    0    0  0.30780815015E+02 -0.35183360277E+03  0.90985667842E+03  0.97599872841E+03  0.00000000000E+00 0. -1.
         22    1    1    2    0    0 -0.87037346083E+02  0.87318550052E+03  0.46554810132E+03  0.99335967936E+03  0.00000000000E+00 0.  1.
<mgrwt>
<rscale>  0 0.20030514E+04</rscale>
<asrwt>0</asrwt>
<pdfrwt beam="1">  1        1 0.43138043E+00 0.20030514E+04</pdfrwt>
<pdfrwt beam="2">  1       -1 0.55034757E-01 0.20030514E+04</pdfrwt>
<totfact> 0.25654627E+00</totfact>
</mgrwt>
</event>
<event>
 6    1  0.9512547E-007  0.1670066E+04  0.7818608E-02  0.8778623E-01
         -2   -1    0    0    0  501 -0.00000000000E+00  0.00000000000E+00  0.67108180321E+03  0.67108180321E+03  0.00000000000E+00 0.  1.
          2   -1    0    0  501    0  0.00000000000E+00 -0.00000000000E+00 -0.10390392315E+04  0.10390392315E+04  0.00000000000E+00 0. -1.
         23    2    1    2    0    0  0.57769067924E+03  0.59492148732E+03 -0.25986350708E+03  0.87385409606E+03  0.91835951213E+02 0.  0.
         13    1    3    3    0    0  0.14240821318E+03  0.17568340990E+03 -0.34052524651E+02  0.22870140824E+03  0.00000000000E+00 0.  1.
        -13    1    3    3    0    0  0.43528246606E+03  0.41923807741E+03 -0.22581098243E+03  0.64515268782E+03  0.00000000000E+00 0. -1.
         22    1    1    2    0    0 -0.57769067924E+03 -0.59492148732E+03 -0.10809392125E+03  0.83626693870E+03  0.00000000000E+00 0.  1.
<mgrwt>
<rscale>  0 0.16700663E+04</rscale>
<asrwt>0</asrwt>
<pdfrwt beam="1">  1        2 0.15985219E+00 0.16700663E+04</pdfrwt>
<pdfrwt beam="2">  1       -2 0.10324336E+00 0.16700663E+04</pdfrwt>
<totfact> 0.17366927E+01</totfact>
</mgrwt>
</event>
<event>
 6    1  0.9512547E-007  0.3660223E+04  0.7818608E-02  0.8076835E-01
         -2   -1    0    0    0  501 -0.00000000000E+00  0.00000000000E+00  0.10073200834E+04  0.10073200834E+04  0.00000000000E+00 0.  1.
          2   -1    0    0  501    0  0.00000000000E+00 -0.00000000000E+00 -0.33249687725E+04  0.33249687725E+04  0.00000000000E+00 0. -1.
         23    2    1    2    0    0 -0.54637600573E+03 -0.11819525896E+04 -0.26797261328E+04  0.29807568589E+04  0.91872964098E+02 0.  0.
         11    1    3    3    0    0 -0.18666166903E+03 -0.45058739272E+03 -0.10956716033E+04  0.11993197403E+04  0.00000000000E+00 0.  1.
        -11    1    3    3    0    0 -0.35971433670E+03 -0.73136519691E+03 -0.15840545294E+04  0.17814371186E+04  0.00000000000E+00 0. -1.
         22    1    1    2    0    0  0.54637600573E+03  0.11819525896E+04  0.36207744363E+03  0.13515319970E+04  0.00000000000E+00 0.  1.
<mgrwt>
<rscale>  0 0.36602228E+04</rscale>
<asrwt>0</asrwt>
<pdfrwt beam="1">  1        2 0.51153366E+00 0.36602228E+04</pdfrwt>
<pdfrwt beam="2">  1       -2 0.15497232E+00 0.36602228E+04</pdfrwt>
<totfact> 0.23843382E-01</totfact>
</mgrwt>
</event>
<event>
 6    1  0.9512547E-007  0.1512244E+04  0.7818608E-02  0.8876351E-01
         -2   -1    0    0    0  501 -0.00000000000E+00  0.00000000000E+00  0.10930695587E+03  0.10930695587E+03  0.00000000000E+00 0.  1.
          2   -1    0    0  501    0  0.00000000000E+00 -0.00000000000E+00 -0.52304159232E+04  0.52304159232E+04  0.00000000000E+00 0. -1.
         23    2    1    2    0    0  0.67538083360E+03  0.31033113503E+03 -0.21344681320E+04  0.22619853720E+04  0.90437450597E+02 0.  0.
         11    1    3    3    0    0  0.17341418035E+03  0.92157790533E+02 -0.45468256508E+03  0.49527948806E+03  0.00000000000E+00 0.  1.
        -11    1    3    3    0    0  0.50196665325E+03  0.21817334450E+03 -0.16797855670E+04  0.17667058839E+04  0.00000000000E+00 0. -1.
         22    1    1    2    0    0 -0.67538083360E+03 -0.31033113503E+03 -0.29866408353E+04  0.30777375071E+04  0.00000000000E+00 0. -1.
<mgrwt>
<rscale>  0 0.15122445E+04</rscale>
<asrwt>0</asrwt>
<pdfrwt beam="1">  1        2 0.80467943E+00 0.15122445E+04</pdfrwt>
<pdfrwt beam="2">  1       -2 0.16816454E-01 0.15122445E+04</pdfrwt>
<totfact> 0.49301432E-01</totfact>
</mgrwt>
</event>
<event>
 6    1  0.9512547E-007  0.3135090E+04  0.7818608E-02  0.8206173E-01
          2   -1    0    0  501    0  0.00000000000E+00  0.00000000000E+00  0.14648185368E+04  0.14648185368E+04  0.00000000000E+00 0. -1.
         -2   -1    0    0    0  501 -0.00000000000E+00 -0.00000000000E+00 -0.16774750659E+04  0.16774750659E+04  0.00000000000E+00 0.  1.
         23    2    1    2    0    0 -0.76158525813E+03  0.79993726150E+03 -0.12193808278E+04  0.16478353258E+04  0.92519889554E+02 0.  0.
         13    1    3    3    0    0 -0.37812614796E+03  0.41566485155E+03 -0.55403809776E+03  0.78912284617E+03  0.00000000000E+00 0.  1.
        -13    1    3    3    0    0 -0.38345911016E+03  0.38427240995E+03 -0.66534273005E+03  0.85871247962E+03  0.00000000000E+00 0. -1.
         22    1    1    2    0    0  0.76158525813E+03 -0.79993726150E+03  0.10067242987E+04  0.14944582769E+04  0.00000000000E+00 0.  1.
<mgrwt>
<rscale>  0 0.31350895E+04</rscale>
<asrwt>0</asrwt>
<pdfrwt beam="1">  1        2 0.22535670E+00 0.31350895E+04</pdfrwt>
<pdfrwt beam="2">  1       -2 0.25807309E+00 0.31350895E+04</pdfrwt>
<totfact> 0.64501125E-01</totfact>
</mgrwt>
</event>
<event>
 6    1  0.9512547E-007  0.8528459E+03  0.7818608E-02  0.9486525E-01
         -2   -1    0    0    0  501 -0.00000000000E+00  0.00000000000E+00  0.28208469988E+03  0.28208469988E+03  0.00000000000E+00 0.  1.
          2   -1    0    0  501    0  0.00000000000E+00 -0.00000000000E+00 -0.64461679965E+03  0.64461679965E+03  0.00000000000E+00 0. -1.
         23    2    1    2    0    0 -0.26441452234E+03 -0.26873909875E+03  0.21718929758E+02  0.38838505308E+03  0.90749626607E+02 0.  0.
         11    1    3    3    0    0 -0.33531413828E+02 -0.11128394416E+01 -0.50029022077E+01  0.33920836597E+02  0.00000000000E+00 0. -1.
        -11    1    3    3    0    0 -0.23088310851E+03 -0.26762625931E+03  0.26721831966E+02  0.35446421649E+03  0.00000000000E+00 0.  1.
         22    1    1    2    0    0  0.26441452234E+03  0.26873909875E+03 -0.38425102953E+03  0.53831644645E+03  0.00000000000E+00 0. -1.
<mgrwt>
<rscale>  0 0.85284591E+03</rscale>
<asrwt>0</asrwt>
<pdfrwt beam="1">  1        2 0.99171815E-01 0.85284591E+03</pdfrwt>
<pdfrwt beam="2">  1       -2 0.43397646E-01 0.85284591E+03</pdfrwt>
<totfact> 0.22976772E+02</totfact>
</mgrwt>
</event>
<event>
 6    1  0.9512547E-007  0.2861691E+04  0.7818608E-02  0.8284368E-01
          2   -1    0    0  501    0  0.00000000000E+00  0.00000000000E+00  0.13455714388E+04  0.13455714388E+04  0.00000000000E+00 0. -1.
         -2   -1    0    0    0  501 -0.00000000000E+00 -0.00000000000E+00 -0.15215239680E+04  0.15215239680E+04  0.00000000000E+00 0.  1.
         23    2    1    2    0    0  0.11024370799E+03  0.42062516233E+03  0.12760220875E+04  0.13514076125E+04  0.94820699294E+02 0.  0.
         13    1    3    3    0    0 -0.12385863245E+02  0.28034669854E+02  0.54848774912E+02  0.62831046717E+02  0.00000000000E+00 0. -1.
        -13    1    3    3    0    0  0.12262957123E+03  0.39259049247E+03  0.12211733126E+04  0.12885765658E+04  0.00000000000E+00 0.  1.
         22    1    1    2    0    0 -0.11024370799E+03 -0.42062516233E+03 -0.14519746167E+04  0.15156877943E+04  0.00000000000E+00 0.  1.
<mgrwt>
<rscale>  0 0.28616912E+04</rscale>
<asrwt>0</asrwt>
<pdfrwt beam="1">  1        2 0.20701099E+00 0.28616912E+04</pdfrwt>
<pdfrwt beam="2">  1       -2 0.23408061E+00 0.28616912E+04</pdfrwt>
<totfact> 0.10856789E+00</totfact>
</mgrwt>
</event>
<event>
 6    1  0.9512547E-007  0.2031797E+04  0.7818608E-02  0.8591897E-01
          2   -1    0    0  501    0  0.00000000000E+00  0.00000000000E+00  0.33272448019E+04  0.33272448019E+04  0.00000000000E+00 0. -1.
         -2   -1    0    0    0  501 -0.00000000000E+00 -0.00000000000E+00 -0.31018147665E+03  0.31018147665E+03  0.00000000000E+00 0.  1.
         23    2    1    2    0    0 -0.95983465394E+03 -0.14837447559E+03  0.99116070115E+03  0.13907445053E+04  0.92049962696E+02 0.  0.
         13    1    3    3    0    0 -0.51354728501E+03 -0.36390853655E+02  0.54829858725E+03  0.75212129936E+03  0.00000000000E+00 0.  1.
        -13    1    3    3    0    0 -0.44628736893E+03 -0.11198362194E+03  0.44286211390E+03  0.63862320595E+03  0.00000000000E+00 0. -1.
         22    1    1    2    0    0  0.95983465394E+03  0.14837447559E+03  0.20259026241E+04  0.22466817733E+04  0.00000000000E+00 0.  1.
<mgrwt>
<rscale>  0 0.20317969E+04</rscale>
<asrwt>0</asrwt>
<pdfrwt beam="1">  1        2 0.51188379E+00 0.20317969E+04</pdfrwt>
<pdfrwt beam="2">  1       -2 0.47720229E-01 0.20317969E+04</pdfrwt>
<totfact> 0.41349469E+00</totfact>
</mgrwt>
</event>
<event>
 6    1  0.9512547E-007  0.1711477E+04  0.7818608E-02  0.8754846E-01
         -1   -1    0    0    0  501 -0.00000000000E+00  0.00000000000E+00  0.81920556389E+03  0.81920556389E+03  0.00000000000E+00 0.  1.
          1   -1    0    0  501    0  0.00000000000E+00 -0.00000000000E+00 -0.89390019056E+03  0.89390019056E+03  0.00000000000E+00 0. -1.
         23    2    1    2    0    0 -0.62063699652E+03  0.36337860831E+03 -0.49705880582E+03  0.87906391242E+03  0.91932645191E+02 0.  0.
         11    1    3    3    0    0 -0.35151220697E+03  0.19510864909E+03 -0.33152018618E+03  0.52108910029E+03  0.00000000000E+00 0. -1.
        -11    1    3    3    0    0 -0.26912478955E+03  0.16826995922E+03 -0.16553861964E+03  0.35797481213E+03  0.00000000000E+00 0.  1.
         22    1    1    2    0    0  0.62063699652E+03 -0.36337860831E+03  0.42236417915E+03  0.83404184203E+03  0.00000000000E+00 0.  1.
<mgrwt>
<rscale>  0 0.17114766E+04</rscale>
<asrwt>0</asrwt>
<pdfrwt beam="1">  1        1 0.13752311E+00 0.17114766E+04</pdfrwt>
<pdfrwt beam="2">  1       -1 0.12603162E+00 0.17114766E+04</pdfrwt>
<totfact> 0.95968203E+00</totfact>
</mgrwt>
</event>
<event>
 6    1  0.9512547E-007  0.1076951E+04  0.7818608E-02  0.9227953E-01
          2   -1    0    0  501    0  0.00000000000E+00  0.00000000000E+00  0.34978824980E+03  0.34978824980E+03  0.00000000000E+00 0. -1.
         -2   -1    0    0    0  501 -0.00000000000E+00 -0.00000000000E+00 -0.82894657933E+03  0.82894657933E+03  0.00000000000E+00 0.  1.
         23    2    1    2    0    0 -0.36001606752E+03 -0.57201835316E+02 -0.66908977827E+03  0.76769033755E+03  0.93721417762E+02 0.  0.
         11    1    3    3    0    0 -0.11837340755E+03  0.95587028793E+01 -0.15075388812E+03  0.19191239459E+03  0.00000000000E+00 0.  1.
        -11    1    3    3    0    0 -0.24164265997E+03 -0.66760538195E+02 -0.51833589015E+03  0.57577794296E+03  0.00000000000E+00 0. -1.
         22    1    1    2    0    0  0.36001606752E+03  0.57201835316E+02  0.18993144874E+03  0.41104449158E+03  0.00000000000E+00 0. -1.
<mgrwt>
<rscale>  0 0.10769508E+04</rscale>
<asrwt>0</asrwt>
<pdfrwt beam="1">  1        2 0.53813578E-01 0.10769508E+04</pdfrwt>
<pdfrwt beam="2">  1       -2 0.12753024E+00 0.10769508E+04</pdfrwt>
<totfact> 0.41886323E+01</totfact>
</mgrwt>
</event>
<event>
 6    1  0.9512547E-007  0.3620591E+04  0.7818608E-02  0.8085791E-01
          2   -1    0    0  501    0  0.00000000000E+00  0.00000000000E+00  0.22032668761E+04  0.22032668761E+04  0.00000000000E+00 0. -1.
         -2   -1    0    0    0  501 -0.00000000000E+00 -0.00000000000E+00 -0.14874136480E+04  0.14874136480E+04  0.00000000000E+00 0.  1.
         23    2    1    2    0    0 -0.14344092054E+04  0.96759495107E+03  0.89681534464E+03  0.19509917457E+04  0.91221002684E+02 0.  0.
         13    1    3    3    0    0 -0.42486103981E+03  0.32587698374E+03  0.30763565808E+03  0.61752927849E+03  0.00000000000E+00 0.  1.
        -13    1    3    3    0    0 -0.10095481656E+04  0.64171796733E+03  0.58917968657E+03  0.13334624672E+04  0.00000000000E+00 0. -1.
         22    1    1    2    0    0  0.14344092054E+04 -0.96759495107E+03 -0.18096211656E+03  0.17396887784E+04  0.00000000000E+00 0. -1.
<mgrwt>
<rscale>  0 0.36205907E+04</rscale>
<asrwt>0</asrwt>
<pdfrwt beam="1">  1        2 0.33896413E+00 0.36205907E+04</pdfrwt>
<pdfrwt beam="2">  1       -2 0.22883287E+00 0.36205907E+04</pdfrwt>
<totfact> 0.36380777E-01</totfact>
</mgrwt>
</event>
<event>
 6    1  0.9512547E-007  0.9476418E+03  0.7818608E-02  0.9367911E-01
          2   -1    0    0  501    0  0.00000000000E+00  0.00000000000E+00  0.36746637602E+03  0.36746637602E+03  0.00000000000E+00 0. -1.
         -2   -1    0    0    0  501 -0.00000000000E+00 -0.00000000000E+00 -0.61095722175E+03  0.61095722175E+03  0.00000000000E+00 0.  1.
         23    2    1    2    0    0  0.22115186348E+03  0.37890401318E+03  0.49322613194E+02  0.45096163739E+03  0.91963472625E+02 0.  0.
         11    1    3    3    0    0  0.97934706460E+02  0.13817063738E+03 -0.23278720528E+02  0.17095095961E+03  0.00000000000E+00 0.  1.
        -11    1    3    3    0    0  0.12321715702E+03  0.24073337581E+03  0.72601333722E+02  0.28001067778E+03  0.00000000000E+00 0. -1.
         22    1    1    2    0    0 -0.22115186348E+03 -0.37890401318E+03 -0.29281345892E+03  0.52746196038E+03  0.00000000000E+00 0. -1.
<mgrwt>
<rscale>  0 0.94764178E+03</rscale>
<asrwt>0</asrwt>
<pdfrwt beam="1">  1        2 0.56533290E-01 0.94764178E+03</pdfrwt>
<pdfrwt beam="2">  1       -2 0.93993417E-01 0.94764178E+03</pdfrwt>
<totfact> 0.83718235E+01</totfact>
</mgrwt>
</event>
<event>
 6    1  0.9512547E-007  0.1199754E+04  0.7818608E-02  0.9113072E-01
          1   -1    0    0  501    0  0.00000000000E+00  0.00000000000E+00  0.14177453820E+04  0.14177453820E+04  0.00000000000E+00 0. -1.
         -1   -1    0    0    0  501 -0.00000000000E+00 -0.00000000000E+00 -0.25382015833E+03  0.25382015833E+03  0.00000000000E+00 0.  1.
         23    2    1    2    0    0  0.54666662552E+02  0.31501765205E+03 -0.11513504524E+03  0.35314992430E+03  0.96094876533E+02 0.  0.
         11    1    3    3    0    0  0.61773558167E+02  0.10721434603E+03 -0.23595917069E+02  0.12596688368E+03  0.00000000000E+00 0. -1.
        -11    1    3    3    0    0 -0.71068956147E+01  0.20780330602E+03 -0.91539128170E+02  0.22718304062E+03  0.00000000000E+00 0.  1.
         22    1    1    2    0    0 -0.54666662552E+02 -0.31501765205E+03  0.12790602689E+04  0.13184156160E+04  0.00000000000E+00 0. -1.
<mgrwt>
<rscale>  0 0.11997539E+04</rscale>
<asrwt>0</asrwt>
<pdfrwt beam="1">  1        1 0.21811467E+00 0.11997539E+04</pdfrwt>
<pdfrwt beam="2">  1       -1 0.39049256E-01 0.11997539E+04</pdfrwt>
<totfact> 0.47013879E+01</totfact>
</mgrwt>
</event>
<event>
 6    1  0.9512547E-007  0.1166229E+04  0.7818608E-02  0.9142941E-01
         -2   -1    0    0    0  501 -0.00000000000E+00  0.00000000000E+00  0.61436623039E+03  0.61436623039E+03  0.00000000000E+00 0.  1.
          2   -1    0    0  501    0  0.00000000000E+00 -0.00000000000E+00 -0.55345209042E+03  0.55345209042E+03  0.00000000000E+00 0. -1.
         23    2    1    2    0    0 -0.57932210092E+02 -0.19274071991E+03 -0.51354430673E+03  0.55912493900E+03  0.91585022620E+02 0.  0.
         13    1    3    3    0    0 -0.27095199280E+02 -0.12270999943E+03 -0.19860455528E+03  0.23502268648E+03  0.00000000000E+00 0.  1.
        -13    1    3    3    0    0 -0.30837010812E+02 -0.70030720474E+02 -0.31493975145E+03  0.32410225252E+03  0.00000000000E+00 0. -1.
         22    1    1    2    0    0  0.57932210092E+02  0.19274071991E+03  0.57445844669E+03  0.60869338180E+03  0.00000000000E+00 0.  1.
<mgrwt>
<rscale>  0 0.11662286E+04</rscale>
<asrwt>0</asrwt>
<pdfrwt beam="1">  1        2 0.85146476E-01 0.11662286E+04</pdfrwt>
<pdfrwt beam="2">  1       -2 0.94517881E-01 0.11662286E+04</pdfrwt>
<totfact> 0.50982843E+01</totfact>
</mgrwt>
</event>
<event>
 6    1  0.9512547E-007  0.2319473E+04  0.7818608E-02  0.8470282E-01
          2   -1    0    0  501    0  0.00000000000E+00  0.00000000000E+00  0.82530346052E+03  0.82530346052E+03  0.00000000000E+00 0. -1.
         -2   -1    0    0    0  501 -0.00000000000E+00 -0.00000000000E+00 -0.16296906278E+04  0.16296906278E+04  0.00000000000E+00 0.  1.
         23    2    1    2    0    0  0.17312904512E+03 -0.24888644347E+03  0.78000376197E+03  0.84185654158E+03  0.91643002542E+02 0.  0.
         11    1    3    3    0    0  0.71591183512E+02 -0.13483137709E+03  0.50169436225E+03  0.52440636049E+03  0.00000000000E+00 0. -1.
        -11    1    3    3    0    0  0.10153786161E+03 -0.11405506638E+03  0.27830939971E+03  0.31745018110E+03  0.00000000000E+00 0.  1.
         22    1    1    2    0    0 -0.17312904512E+03  0.24888644347E+03 -0.15843909293E+04  0.16131375468E+04  0.00000000000E+00 0.  1.
<mgrwt>
<rscale>  0 0.23194735E+04</rscale>
<asrwt>0</asrwt>
<pdfrwt beam="1">  1        2 0.12696976E+00 0.23194735E+04</pdfrwt>
<pdfrwt beam="2">  1       -2 0.25072163E+00 0.23194735E+04</pdfrwt>
<totfact> 0.19017936E+00</totfact>
</mgrwt>
</event>
<event>
 6    1  0.9512547E-007  0.6992983E+03  0.7818608E-02  0.9718433E-01
         -1   -1    0    0    0  501 -0.00000000000E+00  0.00000000000E+00  0.12521428385E+03  0.12521428385E+03  0.00000000000E+00 0.  1.
          1   -1    0    0  501    0  0.00000000000E+00 -0.00000000000E+00 -0.97636258276E+03  0.97636258276E+03  0.00000000000E+00 0. -1.
         23    2    1    2    0    0 -0.11967792665E+03  0.24156284011E+03 -0.95869625313E+02  0.29962843520E+03  0.88942690938E+02 0.  0.
         13    1    3    3    0    0 -0.16778827757E+02 -0.43243258803E+01 -0.57416269976E+01  0.18253633496E+02  0.00000000000E+00 0.  1.
        -13    1    3    3    0    0 -0.10289909889E+03  0.24588716599E+03 -0.90127998315E+02  0.28137480170E+03  0.00000000000E+00 0. -1.
         22    1    1    2    0    0  0.11967792665E+03 -0.24156284011E+03 -0.75527867360E+03  0.80194843141E+03  0.00000000000E+00 0. -1.
<mgrwt>
<rscale>  0 0.69929834E+03</rscale>
<asrwt>0</asrwt>
<pdfrwt beam="1">  1        1 0.15020962E+00 0.69929834E+03</pdfrwt>
<pdfrwt beam="2">  1       -1 0.19263737E-01 0.69929834E+03</pdfrwt>
<totfact> 0.34816018E+02</totfact>
</mgrwt>
</event>
<event>
 6    1  0.9512547E-007  0.1356139E+04  0.7818608E-02  0.8986194E-01
          2   -1    0    0  501    0  0.00000000000E+00  0.00000000000E+00  0.20720741109E+04  0.20720741109E+04  0.00000000000E+00 0. -1.
         -2   -1    0    0    0  501 -0.00000000000E+00 -0.00000000000E+00 -0.22189261245E+03  0.22189261245E+03  0.00000000000E+00 0.  1.
         23    2    1    2    0    0 -0.73241680164E+02  0.65915346679E+03  0.11419009667E+04  0.13236528833E+04  0.90947794387E+02 0.  0.
         13    1    3    3    0    0 -0.52567265069E+02  0.13939718290E+03  0.23884242422E+03  0.28149706138E+03  0.00000000000E+00 0.  1.
        -13    1    3    3    0    0 -0.20674415095E+02  0.51975628389E+03  0.90305854248E+03  0.10421558220E+04  0.00000000000E+00 0. -1.
         22    1    1    2    0    0  0.73241680164E+02 -0.65915346679E+03  0.70828053178E+03  0.97031384006E+03  0.00000000000E+00 0.  1.
<mgrwt>
<rscale>  0 0.13561385E+04</rscale>
<asrwt>0</asrwt>
<pdfrwt beam="1">  1        2 0.31878062E+00 0.13561385E+04</pdfrwt>
<pdfrwt beam="2">  1       -2 0.34137326E-01 0.13561385E+04</pdfrwt>
<totfact> 0.47834175E+01</totfact>
</mgrwt>
</event>
<event>
 6    1  0.9512547E-007  0.2493171E+04  0.7818608E-02  0.8405422E-01
         -1   -1    0    0    0  501 -0.00000000000E+00  0.00000000000E+00  0.10871988452E+04  0.10871988452E+04  0.00000000000E+00 0.  1.
          1   -1    0    0  501    0  0.00000000000E+00 -0.00000000000E+00 -0.14293388580E+04  0.14293388580E+04  0.00000000000E+00 0. -1.
         23    2    1    2    0    0  0.20819449103E+03  0.10683050414E+04  0.43883150910E+03  0.11769343568E+04  0.89335207768E+02 0.  0.
         11    1    3    3    0    0  0.42190651263E+02  0.15279549083E+03  0.96163140703E+02  0.18540189508E+03  0.00000000000E+00 0.  1.
        -11    1    3    3    0    0  0.16600383977E+03  0.91550955058E+03  0.34266836840E+03  0.99153246176E+03  0.00000000000E+00 0. -1.
         22    1    1    2    0    0 -0.20819449103E+03 -0.10683050414E+04 -0.78097152188E+03  0.13396033464E+04  0.00000000000E+00 0. -1.
<mgrwt>
<rscale>  0 0.24931711E+04</rscale>
<asrwt>0</asrwt>
<pdfrwt beam="1">  1        1 0.21989828E+00 0.24931711E+04</pdfrwt>
<pdfrwt beam="2">  1       -1 0.16726136E+00 0.24931711E+04</pdfrwt>
<totfact> 0.16792328E+00</totfact>
</mgrwt>
</event>
<event>
 6    1  0.9512547E-007  0.1339412E+04  0.7818608E-02  0.8998882E-01
         -1   -1    0    0    0  501 -0.00000000000E+00  0.00000000000E+00  0.73603348831E+03  0.73603348831E+03  0.00000000000E+00 0.  1.
          1   -1    0    0  501    0  0.00000000000E+00 -0.00000000000E+00 -0.60935554694E+03  0.60935554694E+03  0.00000000000E+00 0. -1.
         23    2    1    2    0    0  0.38651438376E+03  0.94446502873E+01 -0.48212618358E+03  0.62419209069E+03  0.87678611515E+02 0.  0.
         11    1    3    3    0    0  0.33793020340E+03 -0.69567949881E+01 -0.37145825865E+03  0.50222152212E+03  0.00000000000E+00 0.  1.
        -11    1    3    3    0    0  0.48584180364E+02  0.16401445275E+02 -0.11066792493E+03  0.12197056857E+03  0.00000000000E+00 0. -1.
         22    1    1    2    0    0 -0.38651438376E+03 -0.94446502873E+01  0.60880412495E+03  0.72119694455E+03  0.00000000000E+00 0.  1.
<mgrwt>
<rscale>  0 0.13394119E+04</rscale>
<asrwt>0</asrwt>
<pdfrwt beam="1">  1        1 0.93747008E-01 0.13394119E+04</pdfrwt>
<pdfrwt beam="2">  1       -1 0.11323592E+00 0.13394119E+04</pdfrwt>
<totfact> 0.23377676E+01</totfact>
</mgrwt>
</event>
<event>
 6    1  0.9512547E-007  0.9775802E+03  0.7818608E-02  0.9333482E-01
          3   -1    0    0  501    0  0.00000000000E+00  0.00000000000E+00  0.24464872522E+03  0.24464872522E+03  0.00000000000E+00 0. -1.
         -3   -1    0    0    0  501 -0.00000000000E+00 -0.00000000000E+00 -0.97656658024E+03  0.97656658024E+03  0.00000000000E+00 0.  1.
         23    2    1    2    0    0  0.30227110664E+02  0.62965192221E+02 -0.96814457673E+03  0.97487944186E+03  0.90596418568E+02 0.  0.
         11    1    3    3    0    0  0.51054136362E+02  0.63227169542E+02 -0.52564233971E+03  0.53188727105E+03  0.00000000000E+00 0.  1.
        -11    1    3    3    0    0 -0.20827025698E+02 -0.26197732047E+00 -0.44250223702E+03  0.44299217081E+03  0.00000000000E+00 0. -1.
         22    1    1    2    0    0 -0.30227110664E+02 -0.62965192221E+02  0.23622672170E+03  0.24633586360E+03  0.00000000000E+00 0. -1.
<mgrwt>
<rscale>  0 0.97758021E+03</rscale>
<asrwt>0</asrwt>
<pdfrwt beam="1">  1        3 0.37638266E-01 0.97758021E+03</pdfrwt>
<pdfrwt beam="2">  1       -3 0.15024101E+00 0.97758021E+03</pdfrwt>
<totfact> 0.58940366E+00</totfact>
</mgrwt>
</event>
<event>
 6    1  0.9512547E-007  0.1942549E+04  0.7818608E-02  0.8633962E-01
         -2   -1    0    0    0  501 -0.00000000000E+00  0.00000000000E+00  0.38057145059E+03  0.38057145059E+03  0.00000000000E+00 0.  1.
          2   -1    0    0  501    0  0.00000000000E+00 -0.00000000000E+00 -0.24788345840E+04  0.24788345840E+04  0.00000000000E+00 0. -1.
         23    2    1    2    0    0 -0.13519342505E+03 -0.70066976640E+03 -0.20167108814E+04  0.21411678057E+04  0.90892294557E+02 0.  0.
         13    1    3    3    0    0 -0.10289868998E+03 -0.64488129502E+03 -0.17870493790E+04  0.19026312066E+04  0.00000000000E+00 0. -1.
        -13    1    3    3    0    0 -0.32294735078E+02 -0.55788471379E+02 -0.22966150235E+03  0.23853659911E+03  0.00000000000E+00 0.  1.
         22    1    1    2    0    0  0.13519342505E+03  0.70066976640E+03 -0.81552252047E+02  0.71823822895E+03  0.00000000000E+00 0.  1.
<mgrwt>
<rscale>  0 0.19425485E+04</rscale>
<asrwt>0</asrwt>
<pdfrwt beam="1">  1        2 0.38135915E+00 0.19425485E+04</pdfrwt>
<pdfrwt beam="2">  1       -2 0.58549456E-01 0.19425485E+04</pdfrwt>
<totfact> 0.91212740E+00</totfact>
</mgrwt>
</event>
<event>
 6    1  0.9512547E-007  0.3849461E+04  0.7818608E-02  0.8035623E-01
          2   -1    0    0  501    0  0.00000000000E+00  0.00000000000E+00  0.24558048639E+04  0.24558048639E+04  0.00000000000E+00 0. -1.
         -2   -1    0    0    0  501 -0.00000000000E+00 -0.00000000000E+00 -0.15085026000E+04  0.15085026000E+04  0.00000000000E+00 0.  1.
         23    2    1    2    0    0  0.21308439830E+03 -0.91214080722E+03  0.22044988705E+04  0.23965226825E+04  0.78101761405E+02 0.  0.
         13    1    3    3    0    0  0.90792416108E+02 -0.55194666105E+03  0.13361930307E+04  0.14485510674E+04  0.00000000000E+00 0. -1.
        -13    1    3    3    0    0  0.12229198220E+03 -0.36019414617E+03  0.86830583975E+03  0.94797161518E+03  0.00000000000E+00 0.  1.
         22    1    1    2    0    0 -0.21308439830E+03  0.91214080722E+03 -0.12571966065E+04  0.15677847813E+04  0.00000000000E+00 0.  1.
<mgrwt>
<rscale>  0 0.38494613E+04</rscale>
<asrwt>0</asrwt>
<pdfrwt beam="1">  1        2 0.37781613E+00 0.38494613E+04</pdfrwt>
<pdfrwt beam="2">  1       -2 0.23207732E+00 0.38494613E+04</pdfrwt>
<totfact> 0.24466363E-01</totfact>
</mgrwt>
</event>
<event>
 6    1  0.9512547E-007  0.2657691E+04  0.7818608E-02  0.8348865E-01
         -2   -1    0    0    0  501 -0.00000000000E+00  0.00000000000E+00  0.95638719724E+03  0.95638719724E+03  0.00000000000E+00 0.  1.
          2   -1    0    0  501    0  0.00000000000E+00 -0.00000000000E+00 -0.18463547994E+04  0.18463547994E+04  0.00000000000E+00 0. -1.
         23    2    1    2    0    0  0.32603799121E+03 -0.74868611599E+03  0.65786053590E+03  0.10527123920E+04  0.92688854153E+02 0.  0.
         11    1    3    3    0    0  0.31756646134E+03 -0.65930481313E+03  0.59406093244E+03  0.94257078537E+03  0.00000000000E+00 0.  1.
        -11    1    3    3    0    0  0.84715298729E+01 -0.89381302861E+02  0.63799603458E+02  0.11014160667E+03  0.00000000000E+00 0. -1.
         22    1    1    2    0    0 -0.32603799121E+03  0.74868611599E+03 -0.15478281380E+04  0.17500296046E+04  0.00000000000E+00 0. -1.
<mgrwt>
<rscale>  0 0.26576908E+04</rscale>
<asrwt>0</asrwt>
<pdfrwt beam="1">  1        2 0.28405458E+00 0.26576908E+04</pdfrwt>
<pdfrwt beam="2">  1       -2 0.14713649E+00 0.26576908E+04</pdfrwt>
<totfact> 0.22576113E+00</totfact>
</mgrwt>
</event>
<event>
 6    1  0.9512547E-007  0.1017835E+04  0.7818608E-02  0.9289197E-01
         -2   -1    0    0    0  501 -0.00000000000E+00  0.00000000000E+00  0.38979844487E+03  0.38979844487E+03  0.00000000000E+00 0.  1.
          2   -1    0    0  501    0  0.00000000000E+00 -0.00000000000E+00 -0.66443823380E+03  0.66443823380E+03  0.00000000000E+00 0. -1.
         23    2    1    2    0    0 -0.11692421962E+03  0.96047959001E+02 -0.63762324781E+03  0.66097661842E+03  0.86198610127E+02 0.  0.
         13    1    3    3    0    0 -0.87337744164E+02  0.18955092862E+02 -0.38341405002E+03  0.39369215239E+03  0.00000000000E+00 0.  1.
        -13    1    3    3    0    0 -0.29586475454E+02  0.77092866139E+02 -0.25420919779E+03  0.26728446603E+03  0.00000000000E+00 0. -1.
         22    1    1    2    0    0  0.11692421962E+03 -0.96047959001E+02  0.36298345888E+03  0.39326006024E+03  0.00000000000E+00 0.  1.
<mgrwt>
<rscale>  0 0.10178349E+04</rscale>
<asrwt>0</asrwt>
<pdfrwt beam="1">  1        2 0.10222126E+00 0.10178349E+04</pdfrwt>
<pdfrwt beam="2">  1       -2 0.59968993E-01 0.10178349E+04</pdfrwt>
<totfact> 0.11320829E+02</totfact>
</mgrwt>
</event>
<event>
 6    1  0.9512547E-007  0.1422645E+04  0.7818608E-02  0.8937588E-01
         -2   -1    0    0    0  501 -0.00000000000E+00  0.00000000000E+00  0.25612470389E+03  0.25612470389E+03  0.00000000000E+00 0.  1.
          2   -1    0    0  501    0  0.00000000000E+00 -0.00000000000E+00 -0.19755196855E+04  0.19755196855E+04  0.00000000000E+00 0. -1.
         23    2    1    2    0    0  0.34315586758E+03 -0.51347438324E+03 -0.31860157207E+03  0.70075116389E+03  0.90185033504E+02 0.  0.
         13    1    3    3    0    0  0.11095649231E+03 -0.21982792787E+03 -0.90349727572E+02  0.26229512830E+03  0.00000000000E+00 0.  1.
        -13    1    3    3    0    0  0.23219937527E+03 -0.29364645537E+03 -0.22825184450E+03  0.43845603559E+03  0.00000000000E+00 0. -1.
         22    1    1    2    0    0 -0.34315586758E+03  0.51347438324E+03 -0.14007934096E+04  0.15308932255E+04  0.00000000000E+00 0. -1.
<mgrwt>
<rscale>  0 0.14226446E+04</rscale>
<asrwt>0</asrwt>
<pdfrwt beam="1">  1        2 0.30392610E+00 0.14226446E+04</pdfrwt>
<pdfrwt beam="2">  1       -2 0.39403802E-01 0.14226446E+04</pdfrwt>
<totfact> 0.40821634E+01</totfact>
</mgrwt>
</event>
<event>
 6    1  0.9512547E-007  0.1828342E+04  0.7818608E-02  0.8691371E-01
          1   -1    0    0  501    0  0.00000000000E+00  0.00000000000E+00  0.13345794632E+04  0.13345794632E+04  0.00000000000E+00 0. -1.
         -1   -1    0    0    0  501 -0.00000000000E+00 -0.00000000000E+00 -0.62619635362E+03  0.62619635362E+03  0.00000000000E+00 0.  1.
         23    2    1    2    0    0  0.22833209577E+03  0.55597216112E+03  0.10906296197E+04  0.12484886665E+04  0.89500799869E+02 0.  0.
         13    1    3    3    0    0  0.19600928917E+03  0.37105549121E+03  0.73536608099E+03  0.84667886005E+03  0.00000000000E+00 0.  1.
        -13    1    3    3    0    0  0.32322806599E+02  0.18491666991E+03  0.35526353871E+03  0.40180980647E+03  0.00000000000E+00 0. -1.
         22    1    1    2    0    0 -0.22833209577E+03 -0.55597216112E+03 -0.38224651016E+03  0.71228715026E+03  0.00000000000E+00 0.  1.
<mgrwt>
<rscale>  0 0.18283422E+04</rscale>
<asrwt>0</asrwt>
<pdfrwt beam="1">  1        1 0.20531992E+00 0.18283422E+04</pdfrwt>
<pdfrwt beam="2">  1       -1 0.96337900E-01 0.18283422E+04</pdfrwt>
<totfact> 0.83469608E+00</totfact>
</mgrwt>
</event>
<event>
 6    1  0.9512547E-007  0.1567856E+04  0.7818608E-02  0.8840542E-01
          2   -1    0    0  501    0  0.00000000000E+00  0.00000000000E+00  0.17046070866E+04  0.17046070866E+04  0.00000000000E+00 0. -1.
         -2   -1    0    0    0  501 -0.00000000000E+00 -0.00000000000E+00 -0.36051913471E+03  0.36051913471E+03  0.00000000000E+00 0.  1.
         23    2    1    2    0    0 -0.40661076308E+03 -0.22770311505E+03  0.15003058221E+04  0.15736132060E+04  0.90332391742E+02 0.  0.
         13    1    3    3    0    0 -0.95944945668E+01  0.83943472531E+01  0.43686932330E+02  0.45508982061E+02  0.00000000000E+00 0. -1.
        -13    1    3    3    0    0 -0.39701626852E+03 -0.23609746230E+03  0.14566188898E+04  0.15281042240E+04  0.00000000000E+00 0.  1.
         22    1    1    2    0    0  0.40661076308E+03  0.22770311505E+03 -0.15621787020E+03  0.49151301532E+03  0.00000000000E+00 0.  1.
<mgrwt>
<rscale>  0 0.15678565E+04</rscale>
<asrwt>0</asrwt>
<pdfrwt beam="1">  1        2 0.26224724E+00 0.15678565E+04</pdfrwt>
<pdfrwt beam="2">  1       -2 0.55464483E-01 0.15678565E+04</pdfrwt>
<totfact> 0.28626814E+01</totfact>
</mgrwt>
</event>
<event>
 6    1  0.9512547E-007  0.2207344E+04  0.7818608E-02  0.8515378E-01
         -2   -1    0    0    0  501 -0.00000000000E+00  0.00000000000E+00  0.19991324345E+04  0.19991324345E+04  0.00000000000E+00 0.  1.
          2   -1    0    0  501    0  0.00000000000E+00 -0.00000000000E+00 -0.60931003742E+03  0.60931003742E+03  0.00000000000E+00 0. -1.
         23    2    1    2    0    0 -0.51325015117E+03 -0.23584405878E+03 -0.42175573043E+03  0.71084835046E+03  0.91538753870E+02 0.  0.
         13    1    3    3    0    0 -0.36124921316E+03 -0.20991882772E+03 -0.31643205733E+03  0.52411463931E+03  0.00000000000E+00 0.  1.
        -13    1    3    3    0    0 -0.15200093801E+03 -0.25925231063E+02 -0.10532367311E+03  0.18673371115E+03  0.00000000000E+00 0. -1.
         22    1    1    2    0    0  0.51325015117E+03  0.23584405878E+03  0.18115781275E+04  0.18975941215E+04  0.00000000000E+00 0.  1.
<mgrwt>
<rscale>  0 0.22073436E+04</rscale>
<asrwt>0</asrwt>
<pdfrwt beam="1">  1        2 0.93740007E-01 0.22073436E+04</pdfrwt>
<pdfrwt beam="2">  1       -2 0.30755883E+00 0.22073436E+04</pdfrwt>
<totfact> 0.12710542E+00</totfact>
</mgrwt>
</event>
<event>
 6    1  0.9512547E-007  0.3238931E+04  0.7818608E-02  0.8178611E-01
         -2   -1    0    0    0  501 -0.00000000000E+00  0.00000000000E+00  0.64856885507E+03  0.64856885507E+03  0.00000000000E+00 0.  1.
          2   -1    0    0  501    0  0.00000000000E+00 -0.00000000000E+00 -0.40437780184E+04  0.40437780184E+04  0.00000000000E+00 0. -1.
         23    2    1    2    0    0  0.17605380690E+02 -0.14580413077E+04 -0.27153980159E+04  0.30835157448E+04  0.92133378452E+02 0.  0.
         11    1    3    3    0    0  0.44570705217E+02 -0.11689782765E+04 -0.22179205326E+04  0.25075223324E+04  0.00000000000E+00 0.  1.
        -11    1    3    3    0    0 -0.26965324527E+02 -0.28906303117E+03 -0.49747748329E+03  0.57599341237E+03  0.00000000000E+00 0. -1.
         22    1    1    2    0    0 -0.17605380690E+02  0.14580413077E+04 -0.67981114749E+03  0.16088311287E+04  0.00000000000E+00 0.  1.
<mgrwt>
<rscale>  0 0.32389310E+04</rscale>
<asrwt>0</asrwt>
<pdfrwt beam="1">  1        2 0.62211969E+00 0.32389310E+04</pdfrwt>
<pdfrwt beam="2">  1       -2 0.99779825E-01 0.32389310E+04</pdfrwt>
<totfact> 0.21919100E-01</totfact>
</mgrwt>
</event>
<event>
 6    1  0.9512547E-007  0.1471071E+04  0.7818608E-02  0.8903922E-01
          1   -1    0    0  501    0  0.00000000000E+00  0.00000000000E+00  0.26726201138E+03  0.26726201138E+03  0.00000000000E+00 0. -1.
         -1   -1    0    0    0  501 -0.00000000000E+00 -0.00000000000E+00 -0.20242774687E+04  0.20242774687E+04  0.00000000000E+00 0.  1.
         23    2    1    2    0    0 -0.29471609769E+03 -0.66872864333E+03 -0.81642798310E+03  0.11004222007E+04  0.10158145250E+03 0.  0.
         13    1    3    3    0    0 -0.44750703585E+02 -0.16663740526E+03 -0.14361063291E+03  0.22448755910E+03  0.00000000000E+00 0. -1.
        -13    1    3    3    0    0 -0.24996539410E+03 -0.50209123807E+03 -0.67281735019E+03  0.87593464158E+03  0.00000000000E+00 0.  1.
         22    1    1    2    0    0  0.29471609769E+03  0.66872864333E+03 -0.94058747417E+03  0.11911172794E+04  0.00000000000E+00 0.  1.
<mgrwt>
<rscale>  0 0.14710710E+04</rscale>
<asrwt>0</asrwt>
<pdfrwt beam="1">  1        1 0.41117232E-01 0.14710710E+04</pdfrwt>
<pdfrwt beam="2">  1       -1 0.31142731E+00 0.14710710E+04</pdfrwt>
<totfact> 0.27607682E+00</totfact>
</mgrwt>
</event>
<event>
 6    1  0.9512547E-007  0.1294752E+04  0.7818608E-02  0.9033737E-01
          1   -1    0    0  501    0  0.00000000000E+00  0.00000000000E+00  0.15489448630E+04  0.15489448630E+04  0.00000000000E+00 0. -1.
         -1   -1    0    0    0  501 -0.00000000000E+00 -0.00000000000E+00 -0.27056851972E+03  0.27056851972E+03  0.00000000000E+00 0.  1.
         23    2    1    2    0    0  0.31392430568E+02  0.29568444839E+03 -0.16058224502E+03  0.35015413578E+03  0.91686878432E+02 0.  0.
         11    1    3    3    0    0  0.10123151275E+02  0.66784744963E+02 -0.84124971029E+02  0.10788740011E+03  0.00000000000E+00 0.  1.
        -11    1    3    3    0    0  0.21269279293E+02  0.22889970342E+03 -0.76457273992E+02  0.24226673568E+03  0.00000000000E+00 0. -1.
         22    1    1    2    0    0 -0.31392430568E+02 -0.29568444839E+03  0.14389585883E+04  0.14693592470E+04  0.00000000000E+00 0. -1.
<mgrwt>
<rscale>  0 0.12947521E+04</rscale>
<asrwt>0</asrwt>
<pdfrwt beam="1">  1        1 0.23829921E+00 0.12947521E+04</pdfrwt>
<pdfrwt beam="2">  1       -1 0.41625927E-01 0.12947521E+04</pdfrwt>
<totfact> 0.33661757E+01</totfact>
</mgrwt>
</event>
<event>
 6    1  0.9512547E-007  0.1758651E+04  0.7818608E-02  0.8728603E-01
         -2   -1    0    0    0  501 -0.00000000000E+00  0.00000000000E+00  0.11210095007E+04  0.11210095007E+04  0.00000000000E+00 0.  1.
          2   -1    0    0  501    0  0.00000000000E+00 -0.00000000000E+00 -0.68974707474E+03  0.68974707474E+03  0.00000000000E+00 0. -1.
         23    2    1    2    0    0  0.52564402520E+03  0.12028780929E+03 -0.49590444283E+03  0.73818527205E+03  0.90694438406E+02 0.  0.
         11    1    3    3    0    0  0.58606181759E+02  0.43032422612E+02 -0.53677775128E+02  0.90375757141E+02  0.00000000000E+00 0.  1.
        -11    1    3    3    0    0  0.46703784344E+03  0.77255386682E+02 -0.44222666770E+03  0.64780951491E+03  0.00000000000E+00 0. -1.
         22    1    1    2    0    0 -0.52564402520E+03 -0.12028780929E+03  0.92716686876E+03  0.10725713034E+04  0.00000000000E+00 0. -1.
<mgrwt>
<rscale>  0 0.17586506E+04</rscale>
<asrwt>0</asrwt>
<pdfrwt beam="1">  1        2 0.10611493E+00 0.17586506E+04</pdfrwt>
<pdfrwt beam="2">  1       -2 0.17246300E+00 0.17586506E+04</pdfrwt>
<totfact> 0.80892884E+00</totfact>
</mgrwt>
</event>
<event>
 6    1  0.9512547E-007  0.3547310E+04  0.7818608E-02  0.8102669E-01
          2   -1    0    0  501    0  0.00000000000E+00  0.00000000000E+00  0.20843245600E+04  0.20843245600E+04  0.00000000000E+00 0. -1.
         -2   -1    0    0    0  501 -0.00000000000E+00 -0.00000000000E+00 -0.15092906961E+04  0.15092906961E+04  0.00000000000E+00 0.  1.
         23    2    1    2    0    0 -0.81683481449E+03 -0.10678618772E+04  0.14579475367E+04  0.19851735703E+04  0.88062374402E+02 0.  0.
         13    1    3    3    0    0 -0.41416285590E+03 -0.54681247744E+03  0.67910661076E+03  0.96525672516E+03  0.00000000000E+00 0. -1.
        -13    1    3    3    0    0 -0.40267195859E+03 -0.52104939978E+03  0.77884092589E+03  0.10199168452E+04  0.00000000000E+00 0.  1.
         22    1    1    2    0    0  0.81683481449E+03  0.10678618772E+04 -0.88291367276E+03  0.16084416858E+04  0.00000000000E+00 0.  1.
<mgrwt>
<rscale>  0 0.35473098E+04</rscale>
<asrwt>0</asrwt>
<pdfrwt beam="1">  1        2 0.32066532E+00 0.35473098E+04</pdfrwt>
<pdfrwt beam="2">  1       -2 0.23219857E+00 0.35473098E+04</pdfrwt>
<totfact> 0.40654702E-01</totfact>
</mgrwt>
</event>
<event>
 6    1  0.9512547E-007  0.2379147E+04  0.7818608E-02  0.8447352E-01
          1   -1    0    0  501    0  0.00000000000E+00  0.00000000000E+00  0.16266162635E+04  0.16266162635E+04  0.00000000000E+00 0. -1.
         -1   -1    0    0    0  501 -0.00000000000E+00 -0.00000000000E+00 -0.86995647664E+03  0.86995647664E+03  0.00000000000E+00 0.  1.
         23    2    1    2    0    0 -0.85785004047E+03 -0.75290150512E+01  0.12393967466E+04  0.15121956019E+04  0.12111096133E+03 0.  0.
         11    1    3    3    0    0 -0.63038149103E+03 -0.43447113778E+01  0.99860080312E+03  0.11809332177E+04  0.00000000000E+00 0.  1.
        -11    1    3    3    0    0 -0.22746854945E+03 -0.31843036734E+01  0.24079594347E+03  0.33126238417E+03  0.00000000000E+00 0. -1.
         22    1    1    2    0    0  0.85785004047E+03  0.75290150512E+01 -0.48273695972E+03  0.98437713824E+03  0.00000000000E+00 0.  1.
<mgrwt>
<rscale>  0 0.23791472E+04</rscale>
<asrwt>0</asrwt>
<pdfrwt beam="1">  1        1 0.25024866E+00 0.23791472E+04</pdfrwt>
<pdfrwt beam="2">  1       -1 0.13383946E+00 0.23791472E+04</pdfrwt>
<totfact> 0.22619500E+00</totfact>
</mgrwt>
</event>
<event>
 6    1  0.9512547E-007  0.1378882E+04  0.7818608E-02  0.8969248E-01
         -2   -1    0    0    0  501 -0.00000000000E+00  0.00000000000E+00  0.23093338988E+03  0.23093338988E+03  0.00000000000E+00 0.  1.
          2   -1    0    0  501    0  0.00000000000E+00 -0.00000000000E+00 -0.20582951895E+04  0.20582951895E+04  0.00000000000E+00 0. -1.
         23    2    1    2    0    0 -0.87789662466E+02 -0.30492599503E+03 -0.19281420498E+04  0.19562968354E+04  0.93159309120E+02 0.  0.
         13    1    3    3    0    0  0.15075146977E+02 -0.70491548390E+02 -0.53405778522E+03  0.53890076675E+03  0.00000000000E+00 0.  1.
        -13    1    3    3    0    0 -0.10286480944E+03 -0.23443444664E+03 -0.13940842646E+04  0.14173960687E+04  0.00000000000E+00 0. -1.
         22    1    1    2    0    0  0.87789662466E+02  0.30492599503E+03  0.10078025019E+03  0.33293174392E+03  0.00000000000E+00 0.  1.
<mgrwt>
<rscale>  0 0.13788823E+04</rscale>
<asrwt>0</asrwt>
<pdfrwt beam="1">  1        2 0.31666080E+00 0.13788823E+04</pdfrwt>
<pdfrwt beam="2">  1       -2 0.35528214E-01 0.13788823E+04</pdfrwt>
<totfact> 0.45026489E+01</totfact>
</mgrwt>
</event>
<event>
 6    1  0.9512547E-007  0.2323141E+04  0.7818608E-02  0.8468853E-01
         -2   -1    0    0    0  501 -0.00000000000E+00  0.00000000000E+00  0.32164798318E+03  0.32164798318E+03  0.00000000000E+00 0.  1.
          2   -1    0    0  501    0  0.00000000000E+00 -0.00000000000E+00 -0.41947896045E+04  0.41947896045E+04  0.00000000000E+00 0. -1.
         23    2    1    2    0    0  0.69018283605E+03 -0.37909007797E+02 -0.37501258642E+04  0.38143533217E+04  0.89765390117E+02 0.  0.
         11    1    3    3    0    0  0.23758191643E+03 -0.39257752819E+02 -0.14932312188E+04  0.15125229952E+04  0.00000000000E+00 0. -1.
        -11    1    3    3    0    0  0.45260091962E+03  0.13487450216E+01 -0.22568946454E+04  0.23018303265E+04  0.00000000000E+00 0.  1.
         22    1    1    2    0    0 -0.69018283605E+03  0.37909007797E+02 -0.12301575712E+03  0.70208426599E+03  0.00000000000E+00 0.  1.
<mgrwt>
<rscale>  0 0.23231406E+04</rscale>
<asrwt>0</asrwt>
<pdfrwt beam="1">  1        2 0.64535224E+00 0.23231406E+04</pdfrwt>
<pdfrwt beam="2">  1       -2 0.49484305E-01 0.23231406E+04</pdfrwt>
<totfact> 0.82747465E-01</totfact>
</mgrwt>
</event>
<event>
 6    1  0.9512547E-007  0.3105570E+04  0.7818608E-02  0.8214211E-01
         -2   -1    0    0    0  501 -0.00000000000E+00  0.00000000000E+00  0.11084253657E+04  0.11084253657E+04  0.00000000000E+00 0.  1.
          2   -1    0    0  501    0  0.00000000000E+00 -0.00000000000E+00 -0.21752851498E+04  0.21752851498E+04  0.00000000000E+00 0. -1.
         23    2    1    2    0    0  0.10878931801E+03 -0.10091134584E+04  0.70680656417E+03  0.12401750001E+04  0.91177979595E+02 0.  0.
         11    1    3    3    0    0  0.45449765583E+02 -0.55386317067E+03  0.33413649818E+03  0.64844220439E+03  0.00000000000E+00 0. -1.
        -11    1    3    3    0    0  0.63339552428E+02 -0.45525028775E+03  0.37267006599E+03  0.59173279568E+03  0.00000000000E+00 0.  1.
         22    1    1    2    0    0 -0.10878931801E+03  0.10091134584E+04 -0.17736663483E+04  0.20435355154E+04  0.00000000000E+00 0. -1.
<mgrwt>
<rscale>  0 0.31055700E+04</rscale>
<asrwt>0</asrwt>
<pdfrwt beam="1">  1        2 0.33465925E+00 0.31055700E+04</pdfrwt>
<pdfrwt beam="2">  1       -2 0.17052698E+00 0.31055700E+04</pdfrwt>
<totfact> 0.95608174E-01</totfact>
</mgrwt>
</event>
<event>
 6    1  0.9512547E-007  0.2189757E+04  0.7818608E-02  0.8522704E-01
         -2   -1    0    0    0  501 -0.00000000000E+00  0.00000000000E+00  0.57265336746E+03  0.57265336746E+03  0.00000000000E+00 0.  1.
          2   -1    0    0  501    0  0.00000000000E+00 -0.00000000000E+00 -0.20933409950E+04  0.20933409950E+04  0.00000000000E+00 0. -1.
         23    2    1    2    0    0  0.65519918393E+03  0.44288462161E+03  0.15682069915E+03  0.81141437098E+03  0.91475631068E+02 0.  0.
         13    1    3    3    0    0  0.23325069749E+03  0.20358753585E+03  0.37431473259E+02  0.31185715933E+03  0.00000000000E+00 0.  1.
        -13    1    3    3    0    0  0.42194848643E+03  0.23929708576E+03  0.11938922589E+03  0.49955721165E+03  0.00000000000E+00 0. -1.
         22    1    1    2    0    0 -0.65519918393E+03 -0.44288462161E+03 -0.16775083266E+04  0.18545799914E+04  0.00000000000E+00 0. -1.
<mgrwt>
<rscale>  0 0.21897569E+04</rscale>
<asrwt>0</asrwt>
<pdfrwt beam="1">  1        2 0.32205245E+00 0.21897569E+04</pdfrwt>
<pdfrwt beam="2">  1       -2 0.88100520E-01 0.21897569E+04</pdfrwt>
<totfact> 0.60175197E+00</totfact>
</mgrwt>
</event>
<event>
 6    1  0.9512547E-007  0.2172830E+04  0.7818608E-02  0.8529823E-01
          1   -1    0    0  501    0  0.00000000000E+00  0.00000000000E+00  0.19900832464E+04  0.19900832464E+04  0.00000000000E+00 0. -1.
         -1   -1    0    0    0  501 -0.00000000000E+00 -0.00000000000E+00 -0.59308952280E+03  0.59308952280E+03  0.00000000000E+00 0.  1.
         23    2    1    2    0    0  0.50046420080E+03  0.60591703456E+03  0.15878344238E+04  0.17744577131E+04  0.99408999187E+02 0.  0.
         13    1    3    3    0    0  0.94546321892E+02  0.17643968352E+03  0.36372474262E+03  0.41516943203E+03  0.00000000000E+00 0. -1.
        -13    1    3    3    0    0  0.40591787890E+03  0.42947735104E+03  0.12241096812E+04  0.13592882811E+04  0.00000000000E+00 0.  1.
         22    1    1    2    0    0 -0.50046420080E+03 -0.60591703456E+03 -0.19084070024E+03  0.80871505607E+03  0.00000000000E+00 0.  1.
<mgrwt>
<rscale>  0 0.21728300E+04</rscale>
<asrwt>0</asrwt>
<pdfrwt beam="1">  1        1 0.30616665E+00 0.21728300E+04</pdfrwt>
<pdfrwt beam="2">  1       -1 0.91244543E-01 0.21728300E+04</pdfrwt>
<totfact> 0.32404227E+00</totfact>
</mgrwt>
</event>
<event>
 6    1  0.1104941E-006  0.3491408E+04  0.7818608E-02  0.8115829E-01
          1   -1    0    0  501    0  0.00000000000E+00  0.00000000000E+00  0.16417391722E+04  0.16417391722E+04  0.00000000000E+00 0. -1.
         -1   -1    0    0    0  501 -0.00000000000E+00 -0.00000000000E+00 -0.18562528884E+04  0.18562528884E+04  0.00000000000E+00 0.  1.
         23    2    1    2    0    0  0.86223452790E+03  0.70262632567E+03  0.12391178134E+04  0.16676432528E+04  0.92135382470E+02 0.  0.
         13    1    3    3    0    0  0.28913187961E+03  0.28828788949E+03  0.47966987061E+03  0.62991295891E+03  0.00000000000E+00 0. -1.
        -13    1    3    3    0    0  0.57310264830E+03  0.41433843618E+03  0.75944794274E+03  0.10377302939E+04  0.00000000000E+00 0.  1.
         22    1    1    2    0    0 -0.86223452790E+03 -0.70262632567E+03 -0.14536315295E+04  0.18303488078E+04  0.00000000000E+00 0.  1.
<mgrwt>
<rscale>  0 0.34914084E+04</rscale>
<asrwt>0</asrwt>
<pdfrwt beam="1">  1        1 0.25257526E+00 0.34914084E+04</pdfrwt>
<pdfrwt beam="2">  1       -1 0.28557737E+00 0.34914084E+04</pdfrwt>
<totfact> 0.17466444E-01</totfact>
</mgrwt>
</event>
<event>
 6    1  0.9512547E-007  0.2582941E+04  0.7818608E-02  0.8374019E-01
         -2   -1    0    0    0  501 -0.00000000000E+00  0.00000000000E+00  0.11592912510E+04  0.11592912510E+04  0.00000000000E+00 0.  1.
          2   -1    0    0  501    0  0.00000000000E+00 -0.00000000000E+00 -0.14387205076E+04  0.14387205076E+04  0.00000000000E+00 0. -1.
         23    2    1    2    0    0  0.23326666979E+03  0.10934094949E+04 -0.78676707055E+03  0.13702702059E+04  0.93168402073E+02 0.  0.
         13    1    3    3    0    0  0.34733089273E+02  0.36552110177E+03 -0.24417538699E+03  0.44094634928E+03  0.00000000000E+00 0. -1.
        -13    1    3    3    0    0  0.19853358052E+03  0.72788839311E+03 -0.54259168356E+03  0.92932385662E+03  0.00000000000E+00 0.  1.
         22    1    1    2    0    0 -0.23326666979E+03 -0.10934094949E+04  0.50733781399E+03  0.12277415527E+04  0.00000000000E+00 0.  1.
<mgrwt>
<rscale>  0 0.25829410E+04</rscale>
<asrwt>0</asrwt>
<pdfrwt beam="1">  1        2 0.22134162E+00 0.25829410E+04</pdfrwt>
<pdfrwt beam="2">  1       -2 0.17835250E+00 0.25829410E+04</pdfrwt>
<totfact> 0.22680106E+00</totfact>
</mgrwt>
</event>
<event>
 6    1  0.9512547E-007  0.1378130E+04  0.7818608E-02  0.8969803E-01
          2   -1    0    0  501    0  0.00000000000E+00  0.00000000000E+00  0.21198044317E+04  0.21198044317E+04  0.00000000000E+00 0. -1.
         -2   -1    0    0    0  501 -0.00000000000E+00 -0.00000000000E+00 -0.22398804657E+03  0.22398804657E+03  0.00000000000E+00 0.  1.
         23    2    1    2    0    0 -0.63700488126E+03  0.23737731063E+03  0.10995825495E+04  0.12968390279E+04  0.10289059551E+03 0.  0.
         11    1    3    3    0    0 -0.49299685963E+03  0.20450489101E+03  0.92702954658E+03  0.10696971227E+04  0.00000000000E+00 0.  1.
        -11    1    3    3    0    0 -0.14400802163E+03  0.32872419618E+02  0.17255300292E+03  0.22714190517E+03  0.00000000000E+00 0. -1.
         22    1    1    2    0    0  0.63700488126E+03 -0.23737731063E+03  0.79623383567E+03  0.10469534505E+04  0.00000000000E+00 0. -1.
<mgrwt>
<rscale>  0 0.13781304E+04</rscale>
<asrwt>0</asrwt>
<pdfrwt beam="1">  1        2 0.32612375E+00 0.13781304E+04</pdfrwt>
<pdfrwt beam="2">  1       -2 0.34459701E-01 0.13781304E+04</pdfrwt>
<totfact> 0.44121307E+01</totfact>
</mgrwt>
</event>
<event>
 6    1  0.9512547E-007  0.4669256E+04  0.7818608E-02  0.7881657E-01
          2   -1    0    0  501    0  0.00000000000E+00  0.00000000000E+00  0.28996235437E+04  0.28996235437E+04  0.00000000000E+00 0. -1.
         -2   -1    0    0    0  501 -0.00000000000E+00 -0.00000000000E+00 -0.18797225704E+04  0.18797225704E+04  0.00000000000E+00 0.  1.
         23    2    1    2    0    0  0.28643609382E+03 -0.16956386772E+04  0.21249929730E+04  0.27352168405E+04  0.92627585758E+02 0.  0.
         13    1    3    3    0    0  0.13176142067E+03 -0.98362393793E+03  0.12739402341E+04  0.16148686768E+04  0.00000000000E+00 0.  1.
        -13    1    3    3    0    0  0.15467467315E+03 -0.71201473930E+03  0.85105273881E+03  0.11203481636E+04  0.00000000000E+00 0. -1.
         22    1    1    2    0    0 -0.28643609382E+03  0.16956386772E+04 -0.11050919997E+04  0.20441292736E+04  0.00000000000E+00 0.  1.
<mgrwt>
<rscale>  0 0.46692560E+04</rscale>
<asrwt>0</asrwt>
<pdfrwt beam="1">  1        2 0.44609593E+00 0.46692560E+04</pdfrwt>
<pdfrwt beam="2">  1       -2 0.28918809E+00 0.46692560E+04</pdfrwt>
<totfact> 0.55586057E-02</totfact>
</mgrwt>
</event>
<event>
 6    1  0.9512547E-007  0.3740905E+04  0.7818608E-02  0.8058957E-01
          2   -1    0    0  501    0  0.00000000000E+00  0.00000000000E+00  0.29225670180E+04  0.29225670180E+04  0.00000000000E+00 0. -1.
         -2   -1    0    0    0  501 -0.00000000000E+00 -0.00000000000E+00 -0.11970954604E+04  0.11970954604E+04  0.00000000000E+00 0.  1.
         23    2    1    2    0    0  0.15609288634E+04 -0.88094815585E+03  0.27858235640E+03  0.18161744862E+04  0.91176011911E+02 0.  0.
         13    1    3    3    0    0  0.80019118959E+03 -0.46242306818E+03  0.18874247302E+03  0.94327342537E+03  0.00000000000E+00 0.  1.
        -13    1    3    3    0    0  0.76073767382E+03 -0.41852508767E+03  0.89839883382E+02  0.87290106084E+03  0.00000000000E+00 0. -1.
         22    1    1    2    0    0 -0.15609288634E+04  0.88094815585E+03  0.14468892012E+04  0.23034879923E+04  0.00000000000E+00 0.  1.
<mgrwt>
<rscale>  0 0.37409045E+04</rscale>
<asrwt>0</asrwt>
<pdfrwt beam="1">  1        2 0.44962569E+00 0.37409045E+04</pdfrwt>
<pdfrwt beam="2">  1       -2 0.18416853E+00 0.37409045E+04</pdfrwt>
<totfact> 0.26596666E-01</totfact>
</mgrwt>
</event>
<event>
 6    1  0.9512547E-007  0.1297599E+04  0.7818608E-02  0.9031471E-01
         -1   -1    0    0    0  501 -0.00000000000E+00  0.00000000000E+00  0.19652394316E+03  0.19652394316E+03  0.00000000000E+00 0.  1.
          1   -1    0    0  501    0  0.00000000000E+00 -0.00000000000E+00 -0.21419317679E+04  0.21419317679E+04  0.00000000000E+00 0. -1.
         23    2    1    2    0    0 -0.35075531535E+03 -0.23432054771E+03 -0.96080879955E+02  0.44163058495E+03  0.88716558466E+02 0.  0.
         13    1    3    3    0    0 -0.23764539333E+03 -0.11204818912E+03 -0.39339028925E+02  0.26566461724E+03  0.00000000000E+00 0.  1.
        -13    1    3    3    0    0 -0.11310992202E+03 -0.12227235859E+03 -0.56741851030E+02  0.17596596771E+03  0.00000000000E+00 0. -1.
         22    1    1    2    0    0  0.35075531535E+03  0.23432054771E+03 -0.18493269448E+04  0.18968251261E+04  0.00000000000E+00 0. -1.
<mgrwt>
<rscale>  0 0.12975991E+04</rscale>
<asrwt>0</asrwt>
<pdfrwt beam="1">  1        1 0.32952797E+00 0.12975991E+04</pdfrwt>
<pdfrwt beam="2">  1       -1 0.30234452E-01 0.12975991E+04</pdfrwt>
<totfact> 0.23652578E+01</totfact>
</mgrwt>
</event>
<event>
 6    1  0.9512547E-007  0.2712255E+04  0.7818608E-02  0.8331040E-01
          2   -1    0    0  501    0  0.00000000000E+00  0.00000000000E+00  0.13030092780E+04  0.13030092780E+04  0.00000000000E+00 0. -1.
         -2   -1    0    0    0  501 -0.00000000000E+00 -0.00000000000E+00 -0.14114108460E+04  0.14114108460E+04  0.00000000000E+00 0.  1.
         23    2    1    2    0    0 -0.30259744692E+03 -0.10200490586E+04  0.78482051580E+03  0.13252077616E+04  0.90371856580E+02 0.  0.
         13    1    3    3    0    0 -0.12210378227E+02 -0.14882168101E+03  0.10219903479E+03  0.18094648045E+03  0.00000000000E+00 0. -1.
        -13    1    3    3    0    0 -0.29038706869E+03 -0.87122737761E+03  0.68262148101E+03  0.11442612811E+04  0.00000000000E+00 0.  1.
         22    1    1    2    0    0  0.30259744692E+03  0.10200490586E+04 -0.89322208377E+03  0.13892123624E+04  0.00000000000E+00 0.  1.
<mgrwt>
<rscale>  0 0.27122547E+04</rscale>
<asrwt>0</asrwt>
<pdfrwt beam="1">  1        2 0.20046297E+00 0.27122547E+04</pdfrwt>
<pdfrwt beam="2">  1       -2 0.21714013E+00 0.27122547E+04</pdfrwt>
<totfact> 0.14871747E+00</totfact>
</mgrwt>
</event>
<event>
 6    1  0.9512547E-007  0.1324991E+04  0.7818608E-02  0.9009979E-01
         -2   -1    0    0    0  501 -0.00000000000E+00  0.00000000000E+00  0.65068634192E+03  0.65068634192E+03  0.00000000000E+00 0.  1.
          2   -1    0    0  501    0  0.00000000000E+00 -0.00000000000E+00 -0.67451895728E+03  0.67451895728E+03  0.00000000000E+00 0. -1.
         23    2    1    2    0    0 -0.59413092936E+03  0.92303973861E+02 -0.28001144589E+03  0.67164644338E+03  0.10578728782E+03 0.  0.
         13    1    3    3    0    0 -0.53975795679E+03  0.10492766259E+03 -0.22769047399E+03  0.59513983083E+03  0.00000000000E+00 0. -1.
        -13    1    3    3    0    0 -0.54372972565E+02 -0.12623688729E+02 -0.52320971902E+02  0.76506612547E+02  0.00000000000E+00 0.  1.
         22    1    1    2    0    0  0.59413092936E+03 -0.92303973861E+02  0.25617883052E+03  0.65355885582E+03  0.00000000000E+00 0.  1.
<mgrwt>
<rscale>  0 0.13249910E+04</rscale>
<asrwt>0</asrwt>
<pdfrwt beam="1">  1        2 0.10377215E+00 0.13249910E+04</pdfrwt>
<pdfrwt beam="2">  1       -2 0.10010559E+00 0.13249910E+04</pdfrwt>
<totfact> 0.34622793E+01</totfact>
</mgrwt>
</event>
<event>
 6    1  0.9512547E-007  0.2115200E+03  0.7818608E-02  0.1140368E+00
         -2   -1    0    0    0  501 -0.00000000000E+00  0.00000000000E+00  0.51535662741E+02  0.51535662741E+02  0.00000000000E+00 0.  1.
          2   -1    0    0  501    0  0.00000000000E+00 -0.00000000000E+00 -0.21703761056E+03  0.21703761056E+03  0.00000000000E+00 0. -1.
         23    2    1    2    0    0 -0.60301247317E+02  0.13136261174E+02 -0.13783825023E+02  0.10478319249E+03  0.83550714009E+02 0.  0.
         13    1    3    3    0    0 -0.52859158047E+01 -0.31655817310E+02 -0.10482660863E+02  0.33762669537E+02  0.00000000000E+00 0.  1.
        -13    1    3    3    0    0 -0.55015331512E+02  0.44792078484E+02 -0.33011641600E+01  0.71020522958E+02  0.00000000000E+00 0. -1.
         22    1    1    2    0    0  0.60301247317E+02 -0.13136261174E+02 -0.15171812279E+03  0.16379008080E+03  0.00000000000E+00 0. -1.
<mgrwt>
<rscale>  0 0.21152000E+03</rscale>
<asrwt>0</asrwt>
<pdfrwt beam="1">  1        2 0.33390401E-01 0.21152000E+03</pdfrwt>
<pdfrwt beam="2">  1       -2 0.79285636E-02 0.21152000E+03</pdfrwt>
<totfact> 0.14511213E+04</totfact>
</mgrwt>
</event>
<event>
 6    1  0.9512547E-007  0.3018987E+04  0.7818608E-02  0.8238330E-01
         -2   -1    0    0    0  501 -0.00000000000E+00  0.00000000000E+00  0.12910659652E+04  0.12910659652E+04  0.00000000000E+00 0.  1.
          2   -1    0    0  501    0  0.00000000000E+00 -0.00000000000E+00 -0.17648760174E+04  0.17648760174E+04  0.00000000000E+00 0. -1.
         23    2    1    2    0    0 -0.12303594513E+03 -0.11095199331E+04 -0.12618685027E+04  0.16894836235E+04  0.12597805473E+03 0.  0.
         13    1    3    3    0    0 -0.19791934993E+00 -0.57216877643E+03 -0.63703904119E+03  0.85626858397E+03  0.00000000000E+00 0. -1.
        -13    1    3    3    0    0 -0.12283802578E+03 -0.53735115668E+03 -0.62482946147E+03  0.83321503952E+03  0.00000000000E+00 0.  1.
         22    1    1    2    0    0  0.12303594513E+03  0.11095199331E+04  0.78805845053E+03  0.13664583591E+04  0.00000000000E+00 0.  1.
<mgrwt>
<rscale>  0 0.30189875E+04</rscale>
<asrwt>0</asrwt>
<pdfrwt beam="1">  1        2 0.27151939E+00 0.30189875E+04</pdfrwt>
<pdfrwt beam="2">  1       -2 0.19862553E+00 0.30189875E+04</pdfrwt>
<totfact> 0.10476377E+00</totfact>
</mgrwt>
</event>
<event>
 6    1  0.9512547E-007  0.3748517E+04  0.7818608E-02  0.8057294E-01
          1   -1    0    0  501    0  0.00000000000E+00  0.00000000000E+00  0.24418364460E+04  0.24418364460E+04  0.00000000000E+00 0. -1.
         -1   -1    0    0    0  501 -0.00000000000E+00 -0.00000000000E+00 -0.14386078663E+04  0.14386078663E+04  0.00000000000E+00 0.  1.
         23    2    1    2    0    0  0.10724479060E+03  0.13330795220E+04  0.18595481852E+04  0.22923996896E+04  0.92598202702E+02 0.  0.
         13    1    3    3    0    0  0.51473177949E+02  0.10809147740E+04  0.15163220369E+04  0.18628630535E+04  0.00000000000E+00 0. -1.
        -13    1    3    3    0    0  0.55771612652E+02  0.25216474800E+03  0.34322614828E+03  0.42953663613E+03  0.00000000000E+00 0.  1.
         22    1    1    2    0    0 -0.10724479060E+03 -0.13330795220E+04 -0.85631960545E+03  0.15880446227E+04  0.00000000000E+00 0.  1.
<mgrwt>
<rscale>  0 0.37485171E+04</rscale>
<asrwt>0</asrwt>
<pdfrwt beam="1">  1        1 0.37566714E+00 0.37485171E+04</pdfrwt>
<pdfrwt beam="2">  1       -1 0.22132429E+00 0.37485171E+04</pdfrwt>
<totfact> 0.12807503E-01</totfact>
</mgrwt>
</event>
<event>
 6    1  0.9512547E-007  0.1614333E+04  0.7818608E-02  0.8811791E-01
         -1   -1    0    0    0  501 -0.00000000000E+00  0.00000000000E+00  0.39385378984E+04  0.39385378984E+04  0.00000000000E+00 0.  1.
          1   -1    0    0  501    0  0.00000000000E+00 -0.00000000000E+00 -0.16542125205E+03  0.16542125205E+03  0.00000000000E+00 0. -1.
         23    2    1    2    0    0 -0.33327813461E+03  0.61147235956E+02  0.37476733258E+04  0.37641641210E+04  0.95199124491E+02 0.  0.
         13    1    3    3    0    0 -0.10129904000E+03 -0.10785766767E+02  0.14858433129E+04  0.14893314537E+04  0.00000000000E+00 0. -1.
        -13    1    3    3    0    0 -0.23197909461E+03  0.71933002723E+02  0.22618300129E+04  0.22748326674E+04  0.00000000000E+00 0.  1.
         22    1    1    2    0    0  0.33327813461E+03 -0.61147235956E+02  0.25443320529E+02  0.33979502944E+03  0.00000000000E+00 0. -1.
<mgrwt>
<rscale>  0 0.16143331E+04</rscale>
<asrwt>0</asrwt>
<pdfrwt beam="1">  1        1 0.25449426E-01 0.16143331E+04</pdfrwt>
<pdfrwt beam="2">  1       -1 0.60592884E+00 0.16143331E+04</pdfrwt>
<totfact> 0.74593614E-02</totfact>
</mgrwt>
</event>
<event>
 6    1  0.9512547E-007  0.4756296E+04  0.7818608E-02  0.7867241E-01
          2   -1    0    0  501    0  0.00000000000E+00  0.00000000000E+00  0.20299090265E+04  0.20299090265E+04  0.00000000000E+00 0. -1.
         -2   -1    0    0    0  501 -0.00000000000E+00 -0.00000000000E+00 -0.27861284954E+04  0.27861284954E+04  0.00000000000E+00 0.  1.
         23    2    1    2    0    0 -0.21456568199E+04  0.11397940167E+03 -0.14078723715E+04  0.25707121561E+04  0.98091193013E+02 0.  0.
         11    1    3    3    0    0 -0.94696761625E+03  0.93897037753E+02 -0.59688939476E+03  0.11233170832E+04  0.00000000000E+00 0. -1.
        -11    1    3    3    0    0 -0.11986892037E+04  0.20082363916E+02 -0.81098297675E+03  0.14473950728E+04  0.00000000000E+00 0.  1.
         22    1    1    2    0    0  0.21456568199E+04 -0.11397940167E+03  0.65165290259E+03  0.22453253658E+04  0.00000000000E+00 0. -1.
<mgrwt>
<rscale>  0 0.47562958E+04</rscale>
<asrwt>0</asrwt>
<pdfrwt beam="1">  1        2 0.31229369E+00 0.47562958E+04</pdfrwt>
<pdfrwt beam="2">  1       -2 0.42863516E+00 0.47562958E+04</pdfrwt>
<totfact> 0.22969859E-02</totfact>
</mgrwt>
</event>
<event>
 6    1  0.9512547E-007  0.1889632E+04  0.7818608E-02  0.8660034E-01
          1   -1    0    0  501    0  0.00000000000E+00  0.00000000000E+00  0.70220074373E+03  0.70220074373E+03  0.00000000000E+00 0. -1.
         -1   -1    0    0    0  501 -0.00000000000E+00 -0.00000000000E+00 -0.12712564837E+04  0.12712564837E+04  0.00000000000E+00 0.  1.
         23    2    1    2    0    0  0.68188223756E+03  0.55081221576E+03 -0.64735986167E+03  0.10934066503E+04  0.90032380132E+02 0.  0.
         11    1    3    3    0    0  0.56513675386E+03  0.40974321995E+03 -0.51041301257E+03  0.86474880760E+03  0.00000000000E+00 0. -1.
        -11    1    3    3    0    0  0.11674548370E+03  0.14106899580E+03 -0.13694684910E+03  0.22865784268E+03  0.00000000000E+00 0.  1.
         22    1    1    2    0    0 -0.68188223756E+03 -0.55081221576E+03  0.78304121667E+02  0.88005057718E+03  0.00000000000E+00 0.  1.
<mgrwt>
<rscale>  0 0.18896320E+04</rscale>
<asrwt>0</asrwt>
<pdfrwt beam="1">  1        1 0.10803089E+00 0.18896320E+04</pdfrwt>
<pdfrwt beam="2">  1       -1 0.19557792E+00 0.18896320E+04</pdfrwt>
<totfact> 0.41003649E+00</totfact>
</mgrwt>
</event>
<event>
 6    1  0.9512547E-007  0.2564108E+04  0.7818608E-02  0.8380496E-01
          1   -1    0    0  501    0  0.00000000000E+00  0.00000000000E+00  0.12030111398E+04  0.12030111398E+04  0.00000000000E+00 0. -1.
         -1   -1    0    0    0  501 -0.00000000000E+00 -0.00000000000E+00 -0.13662899913E+04  0.13662899913E+04  0.00000000000E+00 0.  1.
         23    2    1    2    0    0  0.24331936459E+03  0.95365801754E+03  0.73894496579E+03  0.12341323237E+04  0.91515038643E+02 0.  0.
         13    1    3    3    0    0  0.73896186668E+01  0.73940982527E+02  0.84864055795E+02  0.11279974879E+03  0.00000000000E+00 0.  1.
        -13    1    3    3    0    0  0.23592974592E+03  0.87971703501E+03  0.65408090999E+03  0.11213325749E+04  0.00000000000E+00 0. -1.
         22    1    1    2    0    0 -0.24331936459E+03 -0.95365801754E+03 -0.90222381728E+03  0.13351688073E+04  0.00000000000E+00 0.  1.
<mgrwt>
<rscale>  0 0.25641077E+04</rscale>
<asrwt>0</asrwt>
<pdfrwt beam="1">  1        1 0.18507864E+00 0.25641077E+04</pdfrwt>
<pdfrwt beam="2">  1       -1 0.21019846E+00 0.25641077E+04</pdfrwt>
<totfact> 0.12038174E+00</totfact>
</mgrwt>
</event>
<event>
 6    1  0.9512547E-007  0.1384917E+04  0.7818608E-02  0.8964809E-01
          2   -1    0    0  501    0  0.00000000000E+00  0.00000000000E+00  0.18153670326E+04  0.18153670326E+04  0.00000000000E+00 0. -1.
         -2   -1    0    0    0  501 -0.00000000000E+00 -0.00000000000E+00 -0.26413331242E+03  0.26413331242E+03  0.00000000000E+00 0.  1.
         23    2    1    2    0    0 -0.13375757091E+03 -0.67569433112E+03  0.73257698773E+03  0.10096158828E+04  0.90560869026E+02 0.  0.
         11    1    3    3    0    0 -0.85393195676E+02 -0.21676473089E+03  0.25950927361E+03  0.34874633979E+03  0.00000000000E+00 0. -1.
        -11    1    3    3    0    0 -0.48364375229E+02 -0.45892960023E+03  0.47306771412E+03  0.66086954303E+03  0.00000000000E+00 0.  1.
         22    1    1    2    0    0  0.13375757091E+03  0.67569433112E+03  0.81865673249E+03  0.10698844622E+04  0.00000000000E+00 0. -1.
<mgrwt>
<rscale>  0 0.13849172E+04</rscale>
<asrwt>0</asrwt>
<pdfrwt beam="1">  1        2 0.27928723E+00 0.13849172E+04</pdfrwt>
<pdfrwt beam="2">  1       -2 0.40635895E-01 0.13849172E+04</pdfrwt>
<totfact> 0.47274221E+01</totfact>
</mgrwt>
</event>
<event>
 6    1  0.9512547E-007  0.2998120E+04  0.7818608E-02  0.8244268E-01
          2   -1    0    0  501    0  0.00000000000E+00  0.00000000000E+00  0.18002852983E+04  0.18002852983E+04  0.00000000000E+00 0. -1.
         -2   -1    0    0    0  501 -0.00000000000E+00 -0.00000000000E+00 -0.12482358901E+04  0.12482358901E+04  0.00000000000E+00 0.  1.
         23    2    1    2    0    0  0.42035595163E+03 -0.40122818892E+03 -0.11270521726E+04  0.12717079443E+04  0.96495130658E+02 0.  0.
         13    1    3    3    0    0  0.80156321146E+02 -0.11108847343E+03 -0.33929493927E+03  0.36590537105E+03  0.00000000000E+00 0. -1.
        -13    1    3    3    0    0  0.34019963049E+03 -0.29013971549E+03 -0.78775723330E+03  0.90580257325E+03  0.00000000000E+00 0.  1.
         22    1    1    2    0    0 -0.42035595163E+03  0.40122818892E+03  0.16791015808E+04  0.17768132440E+04  0.00000000000E+00 0. -1.
<mgrwt>
<rscale>  0 0.29981199E+04</rscale>
<asrwt>0</asrwt>
<pdfrwt beam="1">  1        2 0.27696697E+00 0.29981199E+04</pdfrwt>
<pdfrwt beam="2">  1       -2 0.19203629E+00 0.29981199E+04</pdfrwt>
<totfact> 0.11093879E+00</totfact>
</mgrwt>
</event>
<event>
 6    1  0.9512547E-007  0.6395145E+04  0.7818608E-02  0.7643250E-01
         -2   -1    0    0    0  501 -0.00000000000E+00  0.00000000000E+00  0.30235471599E+04  0.30235471599E+04  0.00000000000E+00 0.  1.
          2   -1    0    0  501    0  0.00000000000E+00 -0.00000000000E+00 -0.33816139559E+04  0.33816139559E+04  0.00000000000E+00 0. -1.
         23    2    1    2    0    0  0.12617083794E+04  0.21459053723E+04  0.18301686994E+04  0.30907693940E+04  0.80746995683E+02 0.  0.
         11    1    3    3    0    0  0.94480801728E+03  0.16737032028E+04  0.14143190550E+04  0.23862612996E+04  0.00000000000E+00 0.  1.
        -11    1    3    3    0    0  0.31690036208E+03  0.47220216952E+03  0.41584964436E+03  0.70450809442E+03  0.00000000000E+00 0. -1.
         22    1    1    2    0    0 -0.12617083794E+04 -0.21459053723E+04 -0.21882354954E+04  0.33143917217E+04  0.00000000000E+00 0. -1.
<mgrwt>
<rscale>  0 0.63951448E+04</rscale>
<asrwt>0</asrwt>
<pdfrwt beam="1">  1        2 0.52024831E+00 0.63951448E+04</pdfrwt>
<pdfrwt beam="2">  1       -2 0.46516110E+00 0.63951448E+04</pdfrwt>
<totfact> 0.17773239E-03</totfact>
</mgrwt>
</event>
<event>
 6    1  0.9512547E-007  0.1430801E+04  0.7818608E-02  0.8931820E-01
          1   -1    0    0  501    0  0.00000000000E+00  0.00000000000E+00  0.12521144083E+04  0.12521144083E+04  0.00000000000E+00 0. -1.
         -1   -1    0    0    0  501 -0.00000000000E+00 -0.00000000000E+00 -0.40874669615E+03  0.40874669615E+03  0.00000000000E+00 0.  1.
         23    2    1    2    0    0 -0.37567034969E+03  0.38227459650E+03  0.96824608413E+03  0.11105369394E+04  0.92356567950E+02 0.  0.
         13    1    3    3    0    0 -0.61784157137E+02  0.10051424799E+03  0.27205590798E+03  0.29653804678E+03  0.00000000000E+00 0.  1.
        -13    1    3    3    0    0 -0.31388619255E+03  0.28176034851E+03  0.69619017615E+03  0.81399889265E+03  0.00000000000E+00 0. -1.
         22    1    1    2    0    0  0.37567034969E+03 -0.38227459650E+03 -0.12487837201E+03  0.55032416498E+03  0.00000000000E+00 0.  1.
<mgrwt>
<rscale>  0 0.14308007E+04</rscale>
<asrwt>0</asrwt>
<pdfrwt beam="1">  1        1 0.19263298E+00 0.14308007E+04</pdfrwt>
<pdfrwt beam="2">  1       -1 0.62884108E-01 0.14308007E+04</pdfrwt>
<totfact> 0.24430327E+01</totfact>
</mgrwt>
</event>
<event>
 6    1  0.9512547E-007  0.4186737E+04  0.7818608E-02  0.7967900E-01
         -1   -1    0    0    0  501 -0.00000000000E+00  0.00000000000E+00  0.15093310728E+04  0.15093310728E+04  0.00000000000E+00 0.  1.
          1   -1    0    0  501    0  0.00000000000E+00 -0.00000000000E+00 -0.29033992307E+04  0.29033992307E+04  0.00000000000E+00 0. -1.
         23    2    1    2    0    0  0.37275083357E+03 -0.17150732805E+04 -0.18979895281E+04  0.25867083188E+04  0.90973275078E+02 0.  0.
         13    1    3    3    0    0  0.12959148303E+03 -0.52485043376E+03 -0.52771474024E+03  0.75547652337E+03  0.00000000000E+00 0.  1.
        -13    1    3    3    0    0  0.24315935054E+03 -0.11902228467E+04 -0.13702747878E+04  0.18312317955E+04  0.00000000000E+00 0. -1.
         22    1    1    2    0    0 -0.37275083357E+03  0.17150732805E+04  0.50392137019E+03  0.18260219847E+04  0.00000000000E+00 0.  1.
<mgrwt>
<rscale>  0 0.41867365E+04</rscale>
<asrwt>0</asrwt>
<pdfrwt beam="1">  1        1 0.44667680E+00 0.41867365E+04</pdfrwt>
<pdfrwt beam="2">  1       -1 0.23220478E+00 0.41867365E+04</pdfrwt>
<totfact> 0.49408348E-02</totfact>
</mgrwt>
</event>
<event>
 6    1  0.9512547E-007  0.3094225E+04  0.7818608E-02  0.8217325E-01
          1   -1    0    0  501    0  0.00000000000E+00  0.00000000000E+00  0.13213058647E+04  0.13213058647E+04  0.00000000000E+00 0. -1.
         -1   -1    0    0    0  501 -0.00000000000E+00 -0.00000000000E+00 -0.18115090821E+04  0.18115090821E+04  0.00000000000E+00 0.  1.
         23    2    1    2    0    0  0.12597943134E+04 -0.70186220271E+03  0.31816588443E+03  0.14795899565E+04  0.90910096063E+02 0.  0.
         11    1    3    3    0    0  0.33105411990E+03 -0.15054335801E+03  0.10699288090E+03  0.37908786515E+03  0.00000000000E+00 0.  1.
        -11    1    3    3    0    0  0.92874019351E+03 -0.55131884471E+03  0.21117300354E+03  0.11005020913E+04  0.00000000000E+00 0. -1.
         22    1    1    2    0    0 -0.12597943134E+04  0.70186220271E+03 -0.80836910193E+03  0.16532249903E+04  0.00000000000E+00 0.  1.
<mgrwt>
<rscale>  0 0.30942253E+04</rscale>
<asrwt>0</asrwt>
<pdfrwt beam="1">  1        1 0.20327783E+00 0.30942253E+04</pdfrwt>
<pdfrwt beam="2">  1       -1 0.27869370E+00 0.30942253E+04</pdfrwt>
<totfact> 0.33460991E-01</totfact>
</mgrwt>
</event>
<event>
 6    1  0.9512547E-007  0.1621478E+04  0.7818608E-02  0.8807461E-01
         -2   -1    0    0    0  501 -0.00000000000E+00  0.00000000000E+00  0.12672102226E+04  0.12672102226E+04  0.00000000000E+00 0.  1.
          2   -1    0    0  501    0  0.00000000000E+00 -0.00000000000E+00 -0.51869684411E+03  0.51869684411E+03  0.00000000000E+00 0. -1.
         23    2    1    2    0    0  0.66117720371E+03  0.44477243210E+03  0.52318706528E+03  0.95780697703E+03  0.93229227760E+02 0.  0.
         13    1    3    3    0    0  0.34270780114E+03  0.18026778999E+03  0.22810588796E+03  0.44941896844E+03  0.00000000000E+00 0.  1.
        -13    1    3    3    0    0  0.31846940257E+03  0.26450464211E+03  0.29508117732E+03  0.50838800859E+03  0.00000000000E+00 0. -1.
         22    1    1    2    0    0 -0.66117720371E+03 -0.44477243210E+03  0.22532631318E+03  0.82810008965E+03  0.00000000000E+00 0. -1.
<mgrwt>
<rscale>  0 0.16214783E+04</rscale>
<asrwt>0</asrwt>
<pdfrwt beam="1">  1        2 0.79799515E-01 0.16214783E+04</pdfrwt>
<pdfrwt beam="2">  1       -2 0.19495542E+00 0.16214783E+04</pdfrwt>
<totfact> 0.81029346E+00</totfact>
</mgrwt>
</event>
<event>
 6    1  0.9512547E-007  0.1602790E+04  0.7818608E-02  0.8818836E-01
         -1   -1    0    0    0  501 -0.00000000000E+00  0.00000000000E+00  0.36671776974E+03  0.36671776974E+03  0.00000000000E+00 0.  1.
          1   -1    0    0  501    0  0.00000000000E+00 -0.00000000000E+00 -0.17513024731E+04  0.17513024731E+04  0.00000000000E+00 0. -1.
         23    2    1    2    0    0  0.46844562082E+03  0.51884330634E+03 -0.12054585836E+04  0.13964068817E+04  0.90454995407E+02 0.  0.
         13    1    3    3    0    0  0.29045014648E+03  0.38423057492E+03 -0.81756307797E+03  0.94889610009E+03  0.00000000000E+00 0. -1.
        -13    1    3    3    0    0  0.17799547434E+03  0.13461273141E+03 -0.38789550565E+03  0.44751078160E+03  0.00000000000E+00 0.  1.
         22    1    1    2    0    0 -0.46844562082E+03 -0.51884330634E+03 -0.17912611971E+03  0.72161336113E+03  0.00000000000E+00 0.  1.
<mgrwt>
<rscale>  0 0.16027897E+04</rscale>
<asrwt>0</asrwt>
<pdfrwt beam="1">  1        1 0.26943115E+00 0.16027897E+04</pdfrwt>
<pdfrwt beam="2">  1       -1 0.56418119E-01 0.16027897E+04</pdfrwt>
<totfact> 0.13412035E+01</totfact>
</mgrwt>
</event>
<event>
 6    1  0.9512547E-007  0.2362791E+04  0.7818608E-02  0.8453567E-01
         -1   -1    0    0    0  501 -0.00000000000E+00  0.00000000000E+00  0.37984450733E+03  0.37984450733E+03  0.00000000000E+00 0.  1.
          1   -1    0    0  501    0  0.00000000000E+00 -0.00000000000E+00 -0.36743870425E+04  0.36743870425E+04  0.00000000000E+00 0. -1.
         23    2    1    2    0    0  0.73511640620E+03  0.40303217379E+02 -0.32312624670E+04  0.33152966088E+04  0.90077712183E+02 0.  0.
         13    1    3    3    0    0  0.33535728777E+03  0.52715307542E+02 -0.16138459458E+04  0.16491640764E+04  0.00000000000E+00 0.  1.
        -13    1    3    3    0    0  0.39975911843E+03 -0.12412090163E+02 -0.16174165212E+04  0.16661325324E+04  0.00000000000E+00 0. -1.
         22    1    1    2    0    0 -0.73511640620E+03 -0.40303217379E+02 -0.63280068229E+02  0.73893494100E+03  0.00000000000E+00 0.  1.
<mgrwt>
<rscale>  0 0.23627913E+04</rscale>
<asrwt>0</asrwt>
<pdfrwt beam="1">  1        1 0.56529032E+00 0.23627913E+04</pdfrwt>
<pdfrwt beam="2">  1       -1 0.58437615E-01 0.23627913E+04</pdfrwt>
<totfact> 0.48414357E-01</totfact>
</mgrwt>
</event>
<event>
 6    1  0.9512547E-007  0.5463799E+03  0.7818608E-02  0.1002335E+00
          1   -1    0    0  501    0  0.00000000000E+00  0.00000000000E+00  0.21166973871E+03  0.21166973871E+03  0.00000000000E+00 0. -1.
         -1   -1    0    0    0  501 -0.00000000000E+00 -0.00000000000E+00 -0.35259060873E+03  0.35259060873E+03  0.00000000000E+00 0.  1.
         23    2    1    2    0    0  0.23754203322E+03 -0.10661271802E+03 -0.12480444800E+03  0.30339212736E+03  0.93156553800E+02 0.  0.
         11    1    3    3    0    0  0.75221584097E+02 -0.58465104916E+02 -0.39114472749E+01  0.95350692849E+02  0.00000000000E+00 0.  1.
        -11    1    3    3    0    0  0.16232044912E+03 -0.48147613104E+02 -0.12089300072E+03  0.20804143451E+03  0.00000000000E+00 0. -1.
         22    1    1    2    0    0 -0.23754203322E+03  0.10661271802E+03 -0.16116422015E+02  0.26086822008E+03  0.00000000000E+00 0. -1.
<mgrwt>
<rscale>  0 0.54637995E+03</rscale>
<asrwt>0</asrwt>
<pdfrwt beam="1">  1        1 0.32564576E-01 0.54637995E+03</pdfrwt>
<pdfrwt beam="2">  1       -1 0.54244708E-01 0.54637995E+03</pdfrwt>
<totfact> 0.47969315E+02</totfact>
</mgrwt>
</event>
<event>
 6    1  0.9512547E-007  0.1414957E+04  0.7818608E-02  0.8943063E-01
          1   -1    0    0  501    0  0.00000000000E+00  0.00000000000E+00  0.17259643447E+04  0.17259643447E+04  0.00000000000E+00 0. -1.
         -1   -1    0    0    0  501 -0.00000000000E+00 -0.00000000000E+00 -0.28999759750E+03  0.28999759750E+03  0.00000000000E+00 0.  1.
         23    2    1    2    0    0 -0.63177947410E+03  0.30927233816E+03  0.66396896096E+03  0.97156007269E+03  0.90991816575E+02 0.  0.
         11    1    3    3    0    0 -0.46622930134E+03  0.20213776703E+03  0.43087943785E+03  0.66624809812E+03  0.00000000000E+00 0. -1.
        -11    1    3    3    0    0 -0.16555017276E+03  0.10713457113E+03  0.23308952311E+03  0.30531197457E+03  0.00000000000E+00 0.  1.
         22    1    1    2    0    0  0.63177947410E+03 -0.30927233816E+03  0.77199778621E+03  0.10444018695E+04  0.00000000000E+00 0.  1.
<mgrwt>
<rscale>  0 0.14149566E+04</rscale>
<asrwt>0</asrwt>
<pdfrwt beam="1">  1        1 0.26553297E+00 0.14149566E+04</pdfrwt>
<pdfrwt beam="2">  1       -1 0.44615016E-01 0.14149566E+04</pdfrwt>
<totfact> 0.22180704E+01</totfact>
</mgrwt>
</event>
<event>
 6    1  0.9512547E-007  0.2227840E+04  0.7818608E-02  0.8506929E-01
         -1   -1    0    0    0  501 -0.00000000000E+00  0.00000000000E+00  0.89386003196E+03  0.89386003196E+03  0.00000000000E+00 0.  1.
          1   -1    0    0  501    0  0.00000000000E+00 -0.00000000000E+00 -0.13881568634E+04  0.13881568634E+04  0.00000000000E+00 0. -1.
         23    2    1    2    0    0  0.73035018426E+03  0.21495354116E+03 -0.10779148865E+04  0.13227325524E+04  0.90024919774E+02 0.  0.
         11    1    3    3    0    0  0.36971651820E+03  0.79006184998E+02 -0.59379181544E+03  0.70393252601E+03  0.00000000000E+00 0.  1.
        -11    1    3    3    0    0  0.36063366606E+03  0.13594735616E+03 -0.48412307105E+03  0.61880002639E+03  0.00000000000E+00 0. -1.
         22    1    1    2    0    0 -0.73035018426E+03 -0.21495354116E+03  0.58361805503E+03  0.95928434297E+03  0.00000000000E+00 0.  1.
<mgrwt>
<rscale>  0 0.22278402E+04</rscale>
<asrwt>0</asrwt>
<pdfrwt beam="1">  1        1 0.21356259E+00 0.22278402E+04</pdfrwt>
<pdfrwt beam="2">  1       -1 0.13751693E+00 0.22278402E+04</pdfrwt>
<totfact> 0.31286088E+00</totfact>
</mgrwt>
</event>
<event>
 6    1  0.9512547E-007  0.2807227E+04  0.7818608E-02  0.8301028E-01
          2   -1    0    0  501    0  0.00000000000E+00  0.00000000000E+00  0.29287602747E+04  0.29287602747E+04  0.00000000000E+00 0. -1.
         -2   -1    0    0    0  501 -0.00000000000E+00 -0.00000000000E+00 -0.67268418312E+03  0.67268418312E+03  0.00000000000E+00 0.  1.
         23    2    1    2    0    0 -0.70490645419E+03 -0.99115066141E+02 -0.42037451076E+03  0.83194906475E+03  0.93314583834E+02 0.  0.
         13    1    3    3    0    0 -0.19529646160E+03 -0.21897616986E+01 -0.77466389679E+02  0.21011079101E+03  0.00000000000E+00 0.  1.
        -13    1    3    3    0    0 -0.50960999258E+03 -0.96925304442E+02 -0.34290812108E+03  0.62183827374E+03  0.00000000000E+00 0. -1.
         22    1    1    2    0    0  0.70490645419E+03  0.99115066141E+02  0.26764506023E+04  0.27694953930E+04  0.00000000000E+00 0. -1.
<mgrwt>
<rscale>  0 0.28072269E+04</rscale>
<asrwt>0</asrwt>
<pdfrwt beam="1">  1        2 0.45057850E+00 0.28072269E+04</pdfrwt>
<pdfrwt beam="2">  1       -2 0.10348988E+00 0.28072269E+04</pdfrwt>
<totfact> 0.12759214E+00</totfact>
</mgrwt>
</event>
<event>
 6    1  0.9512547E-007  0.2694943E+04  0.7818608E-02  0.8336647E-01
          1   -1    0    0  501    0  0.00000000000E+00  0.00000000000E+00  0.12344914229E+04  0.12344914229E+04  0.00000000000E+00 0. -1.
         -1   -1    0    0    0  501 -0.00000000000E+00 -0.00000000000E+00 -0.14707919548E+04  0.14707919548E+04  0.00000000000E+00 0.  1.
         23    2    1    2    0    0 -0.49618207539E+03 -0.45724434001E+03  0.10506683958E+04  0.12521632658E+04  0.93486511358E+02 0.  0.
         13    1    3    3    0    0 -0.19048377216E+03 -0.17913016562E+03  0.32574711099E+03  0.41771146024E+03  0.00000000000E+00 0.  1.
        -13    1    3    3    0    0 -0.30569830322E+03 -0.27811417439E+03  0.72492128485E+03  0.83445180557E+03  0.00000000000E+00 0. -1.
         22    1    1    2    0    0  0.49618207539E+03  0.45724434001E+03 -0.12869689278E+04  0.14531201119E+04  0.00000000000E+00 0.  1.
<mgrwt>
<rscale>  0 0.26949435E+04</rscale>
<asrwt>0</asrwt>
<pdfrwt beam="1">  1        1 0.18992176E+00 0.26949435E+04</pdfrwt>
<pdfrwt beam="2">  1       -1 0.22627568E+00 0.26949435E+04</pdfrwt>
<totfact> 0.88025998E-01</totfact>
</mgrwt>
</event>
<event>
 6    1  0.9512547E-007  0.3920151E+04  0.7818608E-02  0.8020851E-01
         -2   -1    0    0    0  501 -0.00000000000E+00  0.00000000000E+00  0.15943638732E+04  0.15943638732E+04  0.00000000000E+00 0.  1.
          2   -1    0    0  501    0  0.00000000000E+00 -0.00000000000E+00 -0.24096738193E+04  0.24096738193E+04  0.00000000000E+00 0. -1.
         23    2    1    2    0    0 -0.61527585561E+03  0.10608448932E+04 -0.19682253510E+04  0.23208353289E+04  0.91702374720E+02 0.  0.
         11    1    3    3    0    0 -0.70545352676E+02  0.13116582326E+03 -0.18704428028E+03  0.23909555153E+03  0.00000000000E+00 0. -1.
        -11    1    3    3    0    0 -0.54473050293E+03  0.92967906996E+03 -0.17811810707E+04  0.20817397774E+04  0.00000000000E+00 0.  1.
         22    1    1    2    0    0  0.61527585561E+03 -0.10608448932E+04  0.11529154049E+04  0.16832023636E+04  0.00000000000E+00 0.  1.
<mgrwt>
<rscale>  0 0.39201515E+04</rscale>
<asrwt>0</asrwt>
<pdfrwt beam="1">  1        2 0.37071905E+00 0.39201515E+04</pdfrwt>
<pdfrwt beam="2">  1       -2 0.24528675E+00 0.39201515E+04</pdfrwt>
<totfact> 0.21412219E-01</totfact>
</mgrwt>
</event>
<event>
 6    1  0.9512547E-007  0.1774117E+04  0.7818608E-02  0.8720186E-01
         -1   -1    0    0    0  501 -0.00000000000E+00  0.00000000000E+00  0.48210299362E+03  0.48210299362E+03  0.00000000000E+00 0.  1.
          1   -1    0    0  501    0  0.00000000000E+00 -0.00000000000E+00 -0.16321681964E+04  0.16321681964E+04  0.00000000000E+00 0. -1.
         23    2    1    2    0    0  0.66699171624E+03  0.49748811758E+03 -0.21815458491E+03  0.86493945810E+03  0.90313158490E+02 0.  0.
         11    1    3    3    0    0  0.25114576642E+03  0.21300607850E+03 -0.12680935824E+03  0.35288298175E+03  0.00000000000E+00 0. -1.
        -11    1    3    3    0    0  0.41584594982E+03  0.28448203908E+03 -0.91345226668E+02  0.51205647636E+03  0.00000000000E+00 0.  1.
         22    1    1    2    0    0 -0.66699171624E+03 -0.49748811758E+03 -0.93191061788E+03  0.12493317319E+04  0.00000000000E+00 0. -1.
<mgrwt>
<rscale>  0 0.17741174E+04</rscale>
<asrwt>0</asrwt>
<pdfrwt beam="1">  1        1 0.25110280E+00 0.17741174E+04</pdfrwt>
<pdfrwt beam="2">  1       -1 0.74169691E-01 0.17741174E+04</pdfrwt>
<totfact> 0.91778079E+00</totfact>
</mgrwt>
</event>
<event>
 6    1  0.9512547E-007  0.3024826E+04  0.7818608E-02  0.8236677E-01
         -1   -1    0    0    0  501 -0.00000000000E+00  0.00000000000E+00  0.11231057358E+04  0.11231057358E+04  0.00000000000E+00 0.  1.
          1   -1    0    0  501    0  0.00000000000E+00 -0.00000000000E+00 -0.20366677363E+04  0.20366677363E+04  0.00000000000E+00 0. -1.
         23    2    1    2    0    0  0.55066925637E+03 -0.93422595070E+03 -0.15564139650E+04  0.18991095973E+04  0.90432711245E+02 0.  0.
         11    1    3    3    0    0  0.32630795915E+03 -0.53569104573E+03 -0.82299346728E+03  0.10347753514E+04  0.00000000000E+00 0. -1.
        -11    1    3    3    0    0  0.22436129723E+03 -0.39853490496E+03 -0.73342049775E+03  0.86433424593E+03  0.00000000000E+00 0.  1.
         22    1    1    2    0    0 -0.55066925637E+03  0.93422595070E+03  0.64285196446E+03  0.12606638747E+04  0.00000000000E+00 0.  1.
<mgrwt>
<rscale>  0 0.30248261E+04</rscale>
<asrwt>0</asrwt>
<pdfrwt beam="1">  1        1 0.31333350E+00 0.30248261E+04</pdfrwt>
<pdfrwt beam="2">  1       -1 0.17278550E+00 0.30248261E+04</pdfrwt>
<totfact> 0.56100754E-01</totfact>
</mgrwt>
</event>
<event>
 6    1  0.9512547E-007  0.3155691E+04  0.7818608E-02  0.8200618E-01
          2   -1    0    0  501    0  0.00000000000E+00  0.00000000000E+00  0.25263638791E+04  0.25263638791E+04  0.00000000000E+00 0. -1.
         -2   -1    0    0    0  501 -0.00000000000E+00 -0.00000000000E+00 -0.98544665529E+03  0.98544665529E+03  0.00000000000E+00 0.  1.
         23    2    1    2    0    0 -0.91242964073E+03 -0.11023723117E+04  0.15073021625E+04  0.20804187169E+04  0.91813211477E+02 0.  0.
         13    1    3    3    0    0 -0.65794886644E+03 -0.73507440869E+03  0.10099627288E+04  0.14118271179E+04  0.00000000000E+00 0. -1.
        -13    1    3    3    0    0 -0.25448077428E+03 -0.36729790299E+03  0.49733943364E+03  0.66859159902E+03  0.00000000000E+00 0.  1.
         22    1    1    2    0    0  0.91242964073E+03  0.11023723117E+04  0.33615061343E+02  0.14313918175E+04  0.00000000000E+00 0.  1.
<mgrwt>
<rscale>  0 0.31556913E+04</rscale>
<asrwt>0</asrwt>
<pdfrwt beam="1">  1        2 0.38867136E+00 0.31556913E+04</pdfrwt>
<pdfrwt beam="2">  1       -2 0.15160718E+00 0.31556913E+04</pdfrwt>
<totfact> 0.82698196E-01</totfact>
</mgrwt>
</event>
<event>
 6    1  0.9512547E-007  0.2300613E+04  0.7818608E-02  0.8477679E-01
         -2   -1    0    0    0  501 -0.00000000000E+00  0.00000000000E+00  0.12015304813E+04  0.12015304813E+04  0.00000000000E+00 0.  1.
          2   -1    0    0  501    0  0.00000000000E+00 -0.00000000000E+00 -0.11012665251E+04  0.11012665251E+04  0.00000000000E+00 0. -1.
         23    2    1    2    0    0  0.97995735494E+03 -0.57886015732E+03  0.20425466755E+03  0.11599017500E+04  0.90865841732E+02 0.  0.
         11    1    3    3    0    0  0.55356493760E+03 -0.27925679055E+03  0.91707129207E+02  0.62676047479E+03  0.00000000000E+00 0. -1.
        -11    1    3    3    0    0  0.42639241735E+03 -0.29960336676E+03  0.11254753834E+03  0.53314127521E+03  0.00000000000E+00 0.  1.
         22    1    1    2    0    0 -0.97995735494E+03  0.57886015732E+03 -0.10399071133E+03  0.11428952565E+04  0.00000000000E+00 0. -1.
<mgrwt>
<rscale>  0 0.23006132E+04</rscale>
<asrwt>0</asrwt>
<pdfrwt beam="1">  1        2 0.16942562E+00 0.23006132E+04</pdfrwt>
<pdfrwt beam="2">  1       -2 0.18485084E+00 0.23006132E+04</pdfrwt>
<totfact> 0.33107154E+00</totfact>
</mgrwt>
</event>
<event>
 6    1  0.9512547E-007  0.1551979E+04  0.7818608E-02  0.8850604E-01
         -2   -1    0    0    0  501 -0.00000000000E+00  0.00000000000E+00  0.16753367274E+04  0.16753367274E+04  0.00000000000E+00 0.  1.
          2   -1    0    0  501    0  0.00000000000E+00 -0.00000000000E+00 -0.35942619534E+03  0.35942619534E+03  0.00000000000E+00 0. -1.
         23    2    1    2    0    0 -0.22992667636E+03  0.42902963433E+03 -0.12747454764E+03  0.51151205964E+03  0.91989799582E+02 0.  0.
         11    1    3    3    0    0 -0.11275152841E+03  0.15119155495E+03 -0.13261970630E+02  0.18907055115E+03  0.00000000000E+00 0.  1.
        -11    1    3    3    0    0 -0.11717514795E+03  0.27783807938E+03 -0.11421257701E+03  0.32244150849E+03  0.00000000000E+00 0. -1.
         22    1    1    2    0    0  0.22992667636E+03 -0.42902963433E+03  0.14433850797E+04  0.15232508631E+04  0.00000000000E+00 0.  1.
<mgrwt>
<rscale>  0 0.15519793E+04</rscale>
<asrwt>0</asrwt>
<pdfrwt beam="1">  1        2 0.55296338E-01 0.15519793E+04</pdfrwt>
<pdfrwt beam="2">  1       -2 0.25774411E+00 0.15519793E+04</pdfrwt>
<totfact> 0.49759894E+00</totfact>
</mgrwt>
</event>
<event>
 6    1  0.9512547E-007  0.4279576E+04  0.7818608E-02  0.7950406E-01
          1   -1    0    0  501    0  0.00000000000E+00  0.00000000000E+00  0.25243623236E+04  0.25243623236E+04  0.00000000000E+00 0. -1.
         -1   -1    0    0    0  501 -0.00000000000E+00 -0.00000000000E+00 -0.18138017013E+04  0.18138017013E+04  0.00000000000E+00 0.  1.
         23    2    1    2    0    0  0.57436303920E+03 -0.18763726377E+04  0.12178858915E+04  0.23113324815E+04  0.91348885187E+02 0.  0.
         11    1    3    3    0    0  0.59801529483E+02 -0.25556927644E+03  0.19365448377E+03  0.32618083492E+03  0.00000000000E+00 0. -1.
        -11    1    3    3    0    0  0.51456150972E+03 -0.16208033613E+04  0.10242314078E+04  0.19851516466E+04  0.00000000000E+00 0.  1.
         22    1    1    2    0    0 -0.57436303920E+03  0.18763726377E+04 -0.50732526931E+03  0.20268315434E+04  0.00000000000E+00 0.  1.
<mgrwt>
<rscale>  0 0.42795760E+04</rscale>
<asrwt>0</asrwt>
<pdfrwt beam="1">  1        1 0.38836344E+00 0.42795760E+04</pdfrwt>
<pdfrwt beam="2">  1       -1 0.27904641E+00 0.42795760E+04</pdfrwt>
<totfact> 0.45000368E-02</totfact>
</mgrwt>
</event>
<event>
 6    1  0.9512547E-007  0.2814822E+04  0.7818608E-02  0.8298682E-01
         -2   -1    0    0    0  501 -0.00000000000E+00  0.00000000000E+00  0.60982870047E+03  0.60982870047E+03  0.00000000000E+00 0.  1.
          2   -1    0    0  501    0  0.00000000000E+00 -0.00000000000E+00 -0.32481341944E+04  0.32481341944E+04  0.00000000000E+00 0. -1.
         23    2    1    2    0    0 -0.12445450026E+03 -0.10446601484E+04 -0.25987602091E+04  0.28051725179E+04  0.92921917051E+02 0.  0.
         13    1    3    3    0    0  0.12439472670E+02 -0.96084829997E+02 -0.20768788464E+03  0.22917524399E+03  0.00000000000E+00 0. -1.
        -13    1    3    3    0    0 -0.13689397293E+03 -0.94857531836E+03 -0.23910723245E+04  0.25759972739E+04  0.00000000000E+00 0.  1.
         22    1    1    2    0    0  0.12445450026E+03  0.10446601484E+04 -0.39545284801E+02  0.10527903769E+04  0.00000000000E+00 0.  1.
<mgrwt>
<rscale>  0 0.28148218E+04</rscale>
<asrwt>0</asrwt>
<pdfrwt beam="1">  1        2 0.49971296E+00 0.28148218E+04</pdfrwt>
<pdfrwt beam="2">  1       -2 0.93819799E-01 0.28148218E+04</pdfrwt>
<totfact> 0.10052181E+00</totfact>
</mgrwt>
</event>
<event>
 6    1  0.9512547E-007  0.7255893E+03  0.7818608E-02  0.9674445E-01
          1   -1    0    0  501    0  0.00000000000E+00  0.00000000000E+00  0.10402282175E+04  0.10402282175E+04  0.00000000000E+00 0. -1.
         -1   -1    0    0    0  501 -0.00000000000E+00 -0.00000000000E+00 -0.12652990272E+03  0.12652990272E+03  0.00000000000E+00 0.  1.
         23    2    1    2    0    0  0.32229127043E+03 -0.12918285732E+03  0.33104629619E+03  0.48849323952E+03  0.92054990147E+02 0.  0.
         11    1    3    3    0    0  0.21086136728E+03 -0.35952862716E+02  0.19454382394E+03  0.28914083762E+03  0.00000000000E+00 0. -1.
        -11    1    3    3    0    0  0.11142990316E+03 -0.93229994607E+02  0.13650247224E+03  0.19935240189E+03  0.00000000000E+00 0.  1.
         22    1    1    2    0    0 -0.32229127043E+03  0.12918285732E+03  0.58265201855E+03  0.67826488067E+03  0.00000000000E+00 0. -1.
<mgrwt>
<rscale>  0 0.72558935E+03</rscale>
<asrwt>0</asrwt>
<pdfrwt beam="1">  1        1 0.16003510E+00 0.72558935E+03</pdfrwt>
<pdfrwt beam="2">  1       -1 0.19466140E-01 0.72558935E+03</pdfrwt>
<totfact> 0.30503608E+02</totfact>
</mgrwt>
</event>
<event>
 6    1  0.9512547E-007  0.2188819E+04  0.7818608E-02  0.8523096E-01
         -1   -1    0    0    0  501 -0.00000000000E+00  0.00000000000E+00  0.11836570880E+04  0.11836570880E+04  0.00000000000E+00 0.  1.
          1   -1    0    0  501    0  0.00000000000E+00 -0.00000000000E+00 -0.10118911110E+04  0.10118911110E+04  0.00000000000E+00 0. -1.
         23    2    1    2    0    0 -0.31582098784E+03  0.83059501970E+02 -0.95964586204E+03  0.10179512701E+04  0.93074328190E+02 0.  0.
         11    1    3    3    0    0 -0.44026461682E+02  0.80889541245E+01 -0.25664277042E+03  0.26051731635E+03  0.00000000000E+00 0.  1.
        -11    1    3    3    0    0 -0.27179452615E+03  0.74970547846E+02 -0.70300309162E+03  0.75743395377E+03  0.00000000000E+00 0. -1.
         22    1    1    2    0    0  0.31582098784E+03 -0.83059501970E+02  0.11314118391E+04  0.11775969289E+04  0.00000000000E+00 0.  1.
<mgrwt>
<rscale>  0 0.21888189E+04</rscale>
<asrwt>0</asrwt>
<pdfrwt beam="1">  1        1 0.15567556E+00 0.21888189E+04</pdfrwt>
<pdfrwt beam="2">  1       -1 0.18210109E+00 0.21888189E+04</pdfrwt>
<totfact> 0.27170427E+00</totfact>
</mgrwt>
</event>
<event>
 6    1  0.9512547E-007  0.1946162E+04  0.7818608E-02  0.8632214E-01
          1   -1    0    0  501    0  0.00000000000E+00  0.00000000000E+00  0.20508502234E+04  0.20508502234E+04  0.00000000000E+00 0. -1.
         -1   -1    0    0    0  501 -0.00000000000E+00 -0.00000000000E+00 -0.46170452396E+03  0.46170452396E+03  0.00000000000E+00 0.  1.
         23    2    1    2    0    0 -0.55957484526E+03  0.65158267618E+03  0.13808132292E+04  0.16287638165E+04  0.92425129961E+02 0.  0.
         13    1    3    3    0    0 -0.26879182363E+03  0.28720852759E+03  0.71334389745E+03  0.81461481621E+03  0.00000000000E+00 0. -1.
        -13    1    3    3    0    0 -0.29078302163E+03  0.36437414859E+03  0.66746933174E+03  0.81414900027E+03  0.00000000000E+00 0.  1.
         22    1    1    2    0    0  0.55957484526E+03 -0.65158267618E+03  0.20833247025E+03  0.88379093088E+03  0.00000000000E+00 0.  1.
<mgrwt>
<rscale>  0 0.19461622E+04</rscale>
<asrwt>0</asrwt>
<pdfrwt beam="1">  1        1 0.31551542E+00 0.19461622E+04</pdfrwt>
<pdfrwt beam="2">  1       -1 0.71031466E-01 0.19461622E+04</pdfrwt>
<totfact> 0.51348264E+00</totfact>
</mgrwt>
</event>
<event>
 6    1  0.9512547E-007  0.1030955E+04  0.7818608E-02  0.9275231E-01
          2   -1    0    0  501    0  0.00000000000E+00  0.00000000000E+00  0.25184249112E+03  0.25184249112E+03  0.00000000000E+00 0. -1.
         -2   -1    0    0    0  501 -0.00000000000E+00 -0.00000000000E+00 -0.10550912092E+04  0.10550912092E+04  0.00000000000E+00 0.  1.
         23    2    1    2    0    0 -0.30663030926E+03  0.38610609203E+02 -0.92155261098E+03  0.97601265717E+03  0.88479186540E+02 0.  0.
         11    1    3    3    0    0 -0.13510016283E+03 -0.33385443081E+01 -0.28494441122E+03  0.31536727376E+03  0.00000000000E+00 0.  1.
        -11    1    3    3    0    0 -0.17153014643E+03  0.41949153511E+02 -0.63660819977E+03  0.66064538341E+03  0.00000000000E+00 0. -1.
         22    1    1    2    0    0  0.30663030926E+03 -0.38610609203E+02  0.11830389292E+03  0.33092104312E+03  0.00000000000E+00 0. -1.
<mgrwt>
<rscale>  0 0.10309545E+04</rscale>
<asrwt>0</asrwt>
<pdfrwt beam="1">  1        2 0.38744999E-01 0.10309545E+04</pdfrwt>
<pdfrwt beam="2">  1       -2 0.16232172E+00 0.10309545E+04</pdfrwt>
<totfact> 0.32191223E+01</totfact>
</mgrwt>
</event>
<event>
 6    1  0.9512547E-007  0.3011390E+04  0.7818608E-02  0.8240486E-01
          1   -1    0    0  501    0  0.00000000000E+00  0.00000000000E+00  0.22457842713E+04  0.22457842713E+04  0.00000000000E+00 0. -1.
         -1   -1    0    0    0  501 -0.00000000000E+00 -0.00000000000E+00 -0.10094991273E+04  0.10094991273E+04  0.00000000000E+00 0.  1.
         23    2    1    2    0    0 -0.13835076192E+04 -0.54299882127E+02  0.12545529530E+04  0.18705901031E+04  0.90346070304E+02 0.  0.
         11    1    3    3    0    0 -0.55980541539E+03  0.21660694232E+02  0.51736937795E+03  0.76257613523E+03  0.00000000000E+00 0. -1.
        -11    1    3    3    0    0 -0.82370220384E+03 -0.75960576360E+02  0.73718357504E+03  0.11080139679E+04  0.00000000000E+00 0.  1.
         22    1    1    2    0    0  0.13835076192E+04  0.54299882127E+02 -0.18267808959E+02  0.13846932955E+04  0.00000000000E+00 0.  1.
<mgrwt>
<rscale>  0 0.30113899E+04</rscale>
<asrwt>0</asrwt>
<pdfrwt beam="1">  1        1 0.34550527E+00 0.30113899E+04</pdfrwt>
<pdfrwt beam="2">  1       -1 0.15530756E+00 0.30113899E+04</pdfrwt>
<totfact> 0.54695499E-01</totfact>
</mgrwt>
</event>
<event>
 6    1  0.9512547E-007  0.2969979E+04  0.7818608E-02  0.8252356E-01
         -2   -1    0    0    0  501 -0.00000000000E+00  0.00000000000E+00  0.69127090961E+03  0.69127090961E+03  0.00000000000E+00 0.  1.
          2   -1    0    0  501    0  0.00000000000E+00 -0.00000000000E+00 -0.31900582686E+04  0.31900582686E+04  0.00000000000E+00 0. -1.
         23    2    1    2    0    0 -0.86034283557E+02  0.54814619260E+03 -0.30487250839E+04  0.31001136845E+04  0.90078149866E+02 0.  0.
         13    1    3    3    0    0  0.57417541597E+00  0.26322316441E+03 -0.15276182643E+04  0.15501304221E+04  0.00000000000E+00 0.  1.
        -13    1    3    3    0    0 -0.86608458973E+02  0.28492302819E+03 -0.15211068196E+04  0.15499832624E+04  0.00000000000E+00 0. -1.
         22    1    1    2    0    0  0.86034283557E+02 -0.54814619260E+03  0.54993772489E+03  0.78121549375E+03  0.00000000000E+00 0.  1.
<mgrwt>
<rscale>  0 0.29699794E+04</rscale>
<asrwt>0</asrwt>
<pdfrwt beam="1">  1        2 0.49077820E+00 0.29699794E+04</pdfrwt>
<pdfrwt beam="2">  1       -2 0.10634937E+00 0.29699794E+04</pdfrwt>
<totfact> 0.80463985E-01</totfact>
</mgrwt>
</event>
<event>
 6    1  0.9512547E-007  0.2040911E+04  0.7818608E-02  0.8587729E-01
          1   -1    0    0  501    0  0.00000000000E+00  0.00000000000E+00  0.28442236301E+04  0.28442236301E+04  0.00000000000E+00 0. -1.
         -1   -1    0    0    0  501 -0.00000000000E+00 -0.00000000000E+00 -0.36612077388E+03  0.36612077388E+03  0.00000000000E+00 0.  1.
         23    2    1    2    0    0 -0.17339300779E+03  0.88471792365E+03  0.49646183979E+03  0.10332610207E+04  0.91449652992E+02 0.  0.
         11    1    3    3    0    0 -0.71958568666E+02  0.53030454682E+03  0.25703914957E+03  0.59369190023E+03  0.00000000000E+00 0.  1.
        -11    1    3    3    0    0 -0.10143443913E+03  0.35441337683E+03  0.23942269021E+03  0.43956912051E+03  0.00000000000E+00 0. -1.
         22    1    1    2    0    0  0.17339300779E+03 -0.88471792365E+03  0.19816410165E+04  0.21770833833E+04  0.00000000000E+00 0. -1.
<mgrwt>
<rscale>  0 0.20409109E+04</rscale>
<asrwt>0</asrwt>
<pdfrwt beam="1">  1        1 0.43757285E+00 0.20409109E+04</pdfrwt>
<pdfrwt beam="2">  1       -1 0.56326275E-01 0.20409109E+04</pdfrwt>
<totfact> 0.22872154E+00</totfact>
</mgrwt>
</event>
<event>
 6    1  0.9512547E-007  0.4018396E+04  0.7818608E-02  0.8000846E-01
          1   -1    0    0  501    0  0.00000000000E+00  0.00000000000E+00  0.25236855549E+04  0.25236855549E+04  0.00000000000E+00 0. -1.
         -1   -1    0    0    0  501 -0.00000000000E+00 -0.00000000000E+00 -0.15995958409E+04  0.15995958409E+04  0.00000000000E+00 0.  1.
         23    2    1    2    0    0 -0.15599035647E+04  0.95750385018E+03  0.13100752651E+04  0.22526938944E+04  0.90663262259E+02 0.  0.
         11    1    3    3    0    0 -0.13889120856E+04  0.88444738192E+03  0.11803992474E+04  0.20259976150E+04  0.00000000000E+00 0.  1.
        -11    1    3    3    0    0 -0.17099147918E+03  0.73056468263E+02  0.12967601772E+03  0.22669627937E+03  0.00000000000E+00 0. -1.
         22    1    1    2    0    0  0.15599035647E+04 -0.95750385018E+03 -0.38598555113E+03  0.18705875013E+04  0.00000000000E+00 0.  1.
<mgrwt>
<rscale>  0 0.40183962E+04</rscale>
<asrwt>0</asrwt>
<pdfrwt beam="1">  1        1 0.38825931E+00 0.40183962E+04</pdfrwt>
<pdfrwt beam="2">  1       -1 0.24609167E+00 0.40183962E+04</pdfrwt>
<totfact> 0.75376286E-02</totfact>
</mgrwt>
</event>
<event>
 6    1  0.9512547E-007  0.4786265E+04  0.7818608E-02  0.7862351E-01
         -2   -1    0    0    0  501 -0.00000000000E+00  0.00000000000E+00  0.25450430934E+04  0.25450430934E+04  0.00000000000E+00 0.  1.
          2   -1    0    0  501    0  0.00000000000E+00 -0.00000000000E+00 -0.22502890244E+04  0.22502890244E+04  0.00000000000E+00 0. -1.
         23    2    1    2    0    0 -0.18323906314E+04  0.17625631712E+03  0.16781182487E+04  0.24926340983E+04  0.91772416175E+02 0.  0.
         13    1    3    3    0    0 -0.13785521495E+04  0.16478905474E+03  0.12955817490E+04  0.18989717033E+04  0.00000000000E+00 0.  1.
        -13    1    3    3    0    0 -0.45383848189E+03  0.11467262379E+02  0.38253649965E+03  0.59366239507E+03  0.00000000000E+00 0. -1.
         22    1    1    2    0    0  0.18323906314E+04 -0.17625631712E+03 -0.13833641796E+04  0.23026980195E+04  0.00000000000E+00 0. -1.
<mgrwt>
<rscale>  0 0.47862647E+04</rscale>
<asrwt>0</asrwt>
<pdfrwt beam="1">  1        2 0.34619831E+00 0.47862647E+04</pdfrwt>
<pdfrwt beam="2">  1       -2 0.39154509E+00 0.47862647E+04</pdfrwt>
<totfact> 0.30198061E-02</totfact>
</mgrwt>
</event>
<event>
 6    1  0.1015195E-006  0.3879989E+04  0.7818608E-02  0.8029204E-01
         -2   -1    0    0    0  501 -0.00000000000E+00  0.00000000000E+00  0.25082440657E+04  0.25082440657E+04  0.00000000000E+00 0.  1.
          2   -1    0    0  501    0  0.00000000000E+00 -0.00000000000E+00 -0.15004835143E+04  0.15004835143E+04  0.00000000000E+00 0. -1.
         23    2    1    2    0    0 -0.11015877886E+04  0.52960749756E+03  0.20592268451E+04  0.23964121256E+04  0.91630337110E+02 0.  0.
         13    1    3    3    0    0 -0.42753245484E+03  0.20600694828E+03  0.88813944083E+03  0.10069828842E+04  0.00000000000E+00 0. -1.
        -13    1    3    3    0    0 -0.67405533376E+03  0.32360054928E+03  0.11710874043E+04  0.13894292414E+04  0.00000000000E+00 0.  1.
         22    1    1    2    0    0  0.11015877886E+04 -0.52960749756E+03 -0.10514662937E+04  0.16123154544E+04  0.00000000000E+00 0. -1.
<mgrwt>
<rscale>  0 0.38799891E+04</rscale>
<asrwt>0</asrwt>
<pdfrwt beam="1">  1        2 0.23084362E+00 0.38799891E+04</pdfrwt>
<pdfrwt beam="2">  1       -2 0.38588370E+00 0.38799891E+04</pdfrwt>
<totfact> 0.92636417E-02</totfact>
</mgrwt>
</event>
<event>
 6    1  0.9512547E-007  0.1680751E+04  0.7818608E-02  0.8772420E-01
         -2   -1    0    0    0  501 -0.00000000000E+00  0.00000000000E+00  0.33341449855E+03  0.33341449855E+03  0.00000000000E+00 0.  1.
          2   -1    0    0  501    0  0.00000000000E+00 -0.00000000000E+00 -0.21181765141E+04  0.21181765141E+04  0.00000000000E+00 0. -1.
         23    2    1    2    0    0  0.24642882734E+03  0.37920123604E+03  0.13393610240E+03  0.48031649797E+03  0.90798206695E+02 0.  0.
         13    1    3    3    0    0  0.19036843391E+03  0.22277359092E+03  0.10711279061E+03  0.31199577458E+03  0.00000000000E+00 0. -1.
        -13    1    3    3    0    0  0.56060393432E+02  0.15642764512E+03  0.26823311792E+02  0.16832072340E+03  0.00000000000E+00 0.  1.
         22    1    1    2    0    0 -0.24642882734E+03 -0.37920123604E+03 -0.19186981180E+04  0.19712745147E+04  0.00000000000E+00 0. -1.
<mgrwt>
<rscale>  0 0.16807507E+04</rscale>
<asrwt>0</asrwt>
<pdfrwt beam="1">  1        2 0.32587331E+00 0.16807507E+04</pdfrwt>
<pdfrwt beam="2">  1       -2 0.51294538E-01 0.16807507E+04</pdfrwt>
<totfact> 0.19650853E+01</totfact>
</mgrwt>
</event>
<event>
 6    1  0.9512547E-007  0.1984730E+04  0.7818608E-02  0.8613793E-01
          3   -1    0    0  501    0  0.00000000000E+00  0.00000000000E+00  0.45795911309E+03  0.45795911309E+03  0.00000000000E+00 0. -1.
         -3   -1    0    0    0  501 -0.00000000000E+00 -0.00000000000E+00 -0.21503839901E+04  0.21503839901E+04  0.00000000000E+00 0.  1.
         23    2    1    2    0    0  0.44620704945E+03 -0.85215402087E+03 -0.11609450124E+04  0.15093717420E+04  0.71711417895E+02 0.  0.
         13    1    3    3    0    0  0.29527652333E+03 -0.56386419977E+03 -0.82027402810E+03  0.10382584178E+04  0.00000000000E+00 0. -1.
        -13    1    3    3    0    0  0.15093052612E+03 -0.28828982109E+03 -0.34067098426E+03  0.47111332413E+03  0.00000000000E+00 0.  1.
         22    1    1    2    0    0 -0.44620704945E+03  0.85215402087E+03 -0.53147986463E+03  0.10989713612E+04  0.00000000000E+00 0. -1.
<mgrwt>
<rscale>  0 0.19847296E+04</rscale>
<asrwt>0</asrwt>
<pdfrwt beam="1">  1        3 0.70455249E-01 0.19847296E+04</pdfrwt>
<pdfrwt beam="2">  1       -3 0.33082830E+00 0.19847296E+04</pdfrwt>
<totfact> 0.11988177E-01</totfact>
</mgrwt>
</event>
<event>
 6    1  0.9512547E-007  0.1533121E+04  0.7818608E-02  0.8862722E-01
          1   -1    0    0  501    0  0.00000000000E+00  0.00000000000E+00  0.17967300729E+04  0.17967300729E+04  0.00000000000E+00 0. -1.
         -1   -1    0    0    0  501 -0.00000000000E+00 -0.00000000000E+00 -0.32704687042E+03  0.32704687042E+03  0.00000000000E+00 0.  1.
         23    2    1    2    0    0  0.19617315365E+03 -0.26079276564E+03  0.16940677513E+04  0.17277400782E+04  0.93399459742E+02 0.  0.
         11    1    3    3    0    0  0.38878838532E+02 -0.12679569092E+03  0.63448944502E+03  0.64820179509E+03  0.00000000000E+00 0.  1.
        -11    1    3    3    0    0  0.15729431512E+03 -0.13399707472E+03  0.10595783062E+04  0.10795382831E+04  0.00000000000E+00 0. -1.
         22    1    1    2    0    0 -0.19617315365E+03  0.26079276564E+03 -0.22438454877E+03  0.39603686514E+03  0.00000000000E+00 0.  1.
<mgrwt>
<rscale>  0 0.15331209E+04</rscale>
<asrwt>0</asrwt>
<pdfrwt beam="1">  1        1 0.27642000E+00 0.15331209E+04</pdfrwt>
<pdfrwt beam="2">  1       -1 0.50314904E-01 0.15331209E+04</pdfrwt>
<totfact> 0.15671042E+01</totfact>
</mgrwt>
</event>
<event>
 6    1  0.9512547E-007  0.1133060E+04  0.7818608E-02  0.9173556E-01
         -2   -1    0    0    0  501 -0.00000000000E+00  0.00000000000E+00  0.18237323848E+03  0.18237323848E+03  0.00000000000E+00 0.  1.
          2   -1    0    0  501    0  0.00000000000E+00 -0.00000000000E+00 -0.17598852185E+04  0.17598852185E+04  0.00000000000E+00 0. -1.
         23    2    1    2    0    0 -0.26949656675E+03 -0.38428644004E+03 -0.13263084515E+04  0.14098979774E+04  0.91726390064E+02 0.  0.
         11    1    3    3    0    0 -0.18569130204E+03 -0.23468754275E+03 -0.71768751466E+03  0.77758271012E+03  0.00000000000E+00 0.  1.
        -11    1    3    3    0    0 -0.83805264714E+02 -0.14959889729E+03 -0.60862093684E+03  0.63231526727E+03  0.00000000000E+00 0. -1.
         22    1    1    2    0    0  0.26949656675E+03  0.38428644004E+03 -0.25120352851E+03  0.53236047959E+03  0.00000000000E+00 0.  1.
<mgrwt>
<rscale>  0 0.11330595E+04</rscale>
<asrwt>0</asrwt>
<pdfrwt beam="1">  1        2 0.27075157E+00 0.11330595E+04</pdfrwt>
<pdfrwt beam="2">  1       -2 0.28057422E-01 0.11330595E+04</pdfrwt>
<totfact> 0.10454187E+02</totfact>
</mgrwt>
</event>
<event>
 6    1  0.9512547E-007  0.1407964E+04  0.7818608E-02  0.8948074E-01
         -2   -1    0    0    0  501 -0.00000000000E+00  0.00000000000E+00  0.10245991718E+04  0.10245991718E+04  0.00000000000E+00 0.  1.
          2   -1    0    0  501    0  0.00000000000E+00 -0.00000000000E+00 -0.48369207955E+03  0.48369207955E+03  0.00000000000E+00 0. -1.
         23    2    1    2    0    0 -0.16994445845E+03  0.66565271751E+03  0.42071381662E+03  0.81085230578E+03  0.92231702753E+02 0.  0.
         11    1    3    3    0    0 -0.78454446243E+02  0.33631561438E+03  0.15813369473E+03  0.37982832704E+03  0.00000000000E+00 0.  1.
        -11    1    3    3    0    0 -0.91490012202E+02  0.32933710313E+03  0.26258012189E+03  0.43102397874E+03  0.00000000000E+00 0. -1.
         22    1    1    2    0    0  0.16994445845E+03 -0.66565271751E+03  0.12019327561E+03  0.69743894557E+03  0.00000000000E+00 0. -1.
<mgrwt>
<rscale>  0 0.14079638E+04</rscale>
<asrwt>0</asrwt>
<pdfrwt beam="1">  1        2 0.74414166E-01 0.14079638E+04</pdfrwt>
<pdfrwt beam="2">  1       -2 0.15763064E+00 0.14079638E+04</pdfrwt>
<totfact> 0.16313881E+01</totfact>
</mgrwt>
</event>
<event>
 6    1  0.9512547E-007  0.1760832E+04  0.7818608E-02  0.8727410E-01
          2   -1    0    0  501    0  0.00000000000E+00  0.00000000000E+00  0.19601661926E+04  0.19601661926E+04  0.00000000000E+00 0. -1.
         -2   -1    0    0    0  501 -0.00000000000E+00 -0.00000000000E+00 -0.39544236344E+03  0.39544236344E+03  0.00000000000E+00 0.  1.
         23    2    1    2    0    0 -0.77997988247E+03 -0.88390544130E+02  0.25697146744E+03  0.83035521809E+03  0.85287442097E+02 0.  0.
         13    1    3    3    0    0 -0.70675738524E+02  0.16492853208E+02  0.23934030766E+02  0.76419317267E+02  0.00000000000E+00 0.  1.
        -13    1    3    3    0    0 -0.70930414395E+03 -0.10488339734E+03  0.23303743668E+03  0.75393590082E+03  0.00000000000E+00 0. -1.
         22    1    1    2    0    0  0.77997988247E+03  0.88390544130E+02  0.13077523617E+04  0.15252533380E+04  0.00000000000E+00 0. -1.
<mgrwt>
<rscale>  0 0.17608325E+04</rscale>
<asrwt>0</asrwt>
<pdfrwt beam="1">  1        2 0.30156402E+00 0.17608325E+04</pdfrwt>
<pdfrwt beam="2">  1       -2 0.60837288E-01 0.17608325E+04</pdfrwt>
<totfact> 0.16745354E+01</totfact>
</mgrwt>
</event>
<event>
 6    1  0.9512547E-007  0.2911788E+04  0.7818608E-02  0.8269379E-01
         -2   -1    0    0    0  501 -0.00000000000E+00  0.00000000000E+00  0.27536860250E+04  0.27536860250E+04  0.00000000000E+00 0.  1.
          2   -1    0    0  501    0  0.00000000000E+00 -0.00000000000E+00 -0.76974179174E+03  0.76974179174E+03  0.00000000000E+00 0. -1.
         23    2    1    2    0    0  0.13063329046E+04 -0.30560451477E+03  0.16726170967E+04  0.21461753479E+04  0.92308691297E+02 0.  0.
         11    1    3    3    0    0  0.26306290692E+03 -0.27217271032E+02  0.35352738337E+03  0.44150252959E+03  0.00000000000E+00 0.  1.
        -11    1    3    3    0    0  0.10432699977E+04 -0.27838724373E+03  0.13190897133E+04  0.17046728183E+04  0.00000000000E+00 0. -1.
         22    1    1    2    0    0 -0.13063329046E+04  0.30560451477E+03  0.31132713658E+03  0.13772524689E+04  0.00000000000E+00 0. -1.
<mgrwt>
<rscale>  0 0.29117879E+04</rscale>
<asrwt>0</asrwt>
<pdfrwt beam="1">  1        2 0.11842182E+00 0.29117879E+04</pdfrwt>
<pdfrwt beam="2">  1       -2 0.42364400E+00 0.29117879E+04</pdfrwt>
<totfact> 0.16197384E-01</totfact>
</mgrwt>
</event>
<event>
 6    1  0.9512547E-007  0.2167040E+04  0.7818608E-02  0.8532273E-01
         -2   -1    0    0    0  501 -0.00000000000E+00  0.00000000000E+00  0.15167518665E+04  0.15167518665E+04  0.00000000000E+00 0.  1.
          2   -1    0    0  501    0  0.00000000000E+00 -0.00000000000E+00 -0.77403294088E+03  0.77403294088E+03  0.00000000000E+00 0. -1.
         23    2    1    2    0    0  0.70059030035E+03 -0.40281413542E+02  0.12420030166E+04  0.14295450238E+04  0.92618144062E+02 0.  0.
         13    1    3    3    0    0  0.67273763146E+03 -0.56339871587E+02  0.11968059114E+04  0.13740795070E+04  0.00000000000E+00 0. -1.
        -13    1    3    3    0    0  0.27852668890E+02  0.16058458045E+02  0.45197105231E+02  0.55465516858E+02  0.00000000000E+00 0.  1.
         22    1    1    2    0    0 -0.70059030035E+03  0.40281413542E+02 -0.49928409102E+03  0.86123978355E+03  0.00000000000E+00 0. -1.
<mgrwt>
<rscale>  0 0.21670403E+04</rscale>
<asrwt>0</asrwt>
<pdfrwt beam="1">  1        2 0.11908199E+00 0.21670403E+04</pdfrwt>
<pdfrwt beam="2">  1       -2 0.23334644E+00 0.21670403E+04</pdfrwt>
<totfact> 0.26862838E+00</totfact>
</mgrwt>
</event>
<event>
 6    1  0.9512547E-007  0.1684212E+04  0.7818608E-02  0.8770420E-01
          2   -1    0    0  501    0  0.00000000000E+00  0.00000000000E+00  0.10582390746E+04  0.10582390746E+04  0.00000000000E+00 0. -1.
         -2   -1    0    0    0  501 -0.00000000000E+00 -0.00000000000E+00 -0.67011577077E+03  0.67011577077E+03  0.00000000000E+00 0.  1.
         23    2    1    2    0    0  0.15939087180E+03  0.32310734982E+03 -0.58362213080E+03  0.69197026461E+03  0.91674674918E+02 0.  0.
         11    1    3    3    0    0  0.22468184560E+02  0.10830020546E+03 -0.23965706519E+03  0.26394935634E+03  0.00000000000E+00 0.  1.
        -11    1    3    3    0    0  0.13692268724E+03  0.21480714436E+03 -0.34396506561E+03  0.42802090826E+03  0.00000000000E+00 0. -1.
         22    1    1    2    0    0 -0.15939087180E+03 -0.32310734982E+03  0.97174543467E+03  0.10363845808E+04  0.00000000000E+00 0. -1.
<mgrwt>
<rscale>  0 0.16842122E+04</rscale>
<asrwt>0</asrwt>
<pdfrwt beam="1">  1        2 0.16280601E+00 0.16842122E+04</pdfrwt>
<pdfrwt beam="2">  1       -2 0.10309473E+00 0.16842122E+04</pdfrwt>
<totfact> 0.16929433E+01</totfact>
</mgrwt>
</event>
<event>
 6    1  0.9512547E-007  0.3548288E+04  0.7818608E-02  0.8102441E-01
          2   -1    0    0  501    0  0.00000000000E+00  0.00000000000E+00  0.27432363593E+04  0.27432363593E+04  0.00000000000E+00 0. -1.
         -2   -1    0    0    0  501 -0.00000000000E+00 -0.00000000000E+00 -0.11473990967E+04  0.11473990967E+04  0.00000000000E+00 0.  1.
         23    2    1    2    0    0  0.83114382088E+03 -0.14320696462E+04  0.14933904174E+04  0.22316843178E+04  0.92609033667E+02 0.  0.
         11    1    3    3    0    0  0.37846193819E+03 -0.73358978268E+03  0.77279117925E+03  0.11307491387E+04  0.00000000000E+00 0. -1.
        -11    1    3    3    0    0  0.45268188269E+03 -0.69847986353E+03  0.72059923813E+03  0.11009351791E+04  0.00000000000E+00 0.  1.
         22    1    1    2    0    0 -0.83114382088E+03  0.14320696462E+04  0.10244684525E+03  0.16589511381E+04  0.00000000000E+00 0.  1.
<mgrwt>
<rscale>  0 0.35482880E+04</rscale>
<asrwt>0</asrwt>
<pdfrwt beam="1">  1        2 0.42203636E+00 0.35482880E+04</pdfrwt>
<pdfrwt beam="2">  1       -2 0.17652294E+00 0.35482880E+04</pdfrwt>
<totfact> 0.39245393E-01</totfact>
</mgrwt>
</event>
<event>
 6    1  0.9512547E-007  0.3591820E+04  0.7818608E-02  0.8092368E-01
         -2   -1    0    0    0  501 -0.00000000000E+00  0.00000000000E+00  0.11334454145E+04  0.11334454145E+04  0.00000000000E+00 0.  1.
          2   -1    0    0  501    0  0.00000000000E+00 -0.00000000000E+00 -0.28455654037E+04  0.28455654037E+04  0.00000000000E+00 0. -1.
         23    2    1    2    0    0 -0.82795725452E+02 -0.17769117574E+04 -0.59248515598E+03  0.18771419627E+04  0.91393448230E+02 0.  0.
         13    1    3    3    0    0 -0.92222398009E+02 -0.14095063301E+04 -0.44274934971E+03  0.14802837741E+04  0.00000000000E+00 0. -1.
        -13    1    3    3    0    0  0.94266725565E+01 -0.36740542731E+03 -0.14973580627E+03  0.39685818860E+03  0.00000000000E+00 0.  1.
         22    1    1    2    0    0  0.82795725452E+02  0.17769117574E+04 -0.11196348332E+04  0.21018688554E+04  0.00000000000E+00 0. -1.
<mgrwt>
<rscale>  0 0.35918202E+04</rscale>
<asrwt>0</asrwt>
<pdfrwt beam="1">  1        2 0.43777929E+00 0.35918202E+04</pdfrwt>
<pdfrwt beam="2">  1       -2 0.17437622E+00 0.35918202E+04</pdfrwt>
<totfact> 0.35102291E-01</totfact>
</mgrwt>
</event>
<event>
 6    1  0.9512547E-007  0.2676049E+04  0.7818608E-02  0.8342818E-01
          2   -1    0    0  501    0  0.00000000000E+00  0.00000000000E+00  0.14435002631E+04  0.14435002631E+04  0.00000000000E+00 0. -1.
         -2   -1    0    0    0  501 -0.00000000000E+00 -0.00000000000E+00 -0.12402562286E+04  0.12402562286E+04  0.00000000000E+00 0.  1.
         23    2    1    2    0    0  0.10635692276E+04 -0.53076085382E+03 -0.51029215361E+03  0.12973869603E+04  0.99640638831E+02 0.  0.
         13    1    3    3    0    0  0.14858594158E+03 -0.89157686676E+02 -0.39990584729E+02  0.17783734702E+03  0.00000000000E+00 0. -1.
        -13    1    3    3    0    0  0.91498328602E+03 -0.44160316714E+03 -0.47030156888E+03  0.11195496133E+04  0.00000000000E+00 0.  1.
         22    1    1    2    0    0 -0.10635692276E+04  0.53076085382E+03  0.71353618809E+03  0.13863695314E+04  0.00000000000E+00 0. -1.
<mgrwt>
<rscale>  0 0.26760495E+04</rscale>
<asrwt>0</asrwt>
<pdfrwt beam="1">  1        2 0.22207696E+00 0.26760495E+04</pdfrwt>
<pdfrwt beam="2">  1       -2 0.19080865E+00 0.26760495E+04</pdfrwt>
<totfact> 0.18390713E+00</totfact>
</mgrwt>
</event>
<event>
 6    1  0.9512547E-007  0.5943617E+04  0.7818608E-02  0.7697432E-01
          2   -1    0    0  501    0  0.00000000000E+00  0.00000000000E+00  0.24410762277E+04  0.24410762277E+04  0.00000000000E+00 0. -1.
         -2   -1    0    0    0  501 -0.00000000000E+00 -0.00000000000E+00 -0.36179309662E+04  0.36179309662E+04  0.00000000000E+00 0.  1.
         23    2    1    2    0    0  0.15218307515E+04 -0.24805052938E+04  0.21916045768E+02  0.29116389692E+04  0.91026507323E+02 0.  0.
         13    1    3    3    0    0  0.59415842344E+03 -0.96650726931E+03 -0.35839523567E+02  0.11350969145E+04  0.00000000000E+00 0.  1.
        -13    1    3    3    0    0  0.92767232802E+03 -0.15139980245E+04  0.57755569335E+02  0.17765420547E+04  0.00000000000E+00 0. -1.
         22    1    1    2    0    0 -0.15218307515E+04  0.24805052938E+04 -0.11987707842E+04  0.31473682247E+04  0.00000000000E+00 0. -1.
<mgrwt>
<rscale>  0 0.59436168E+04</rscale>
<asrwt>0</asrwt>
<pdfrwt beam="1">  1        2 0.37555019E+00 0.59436168E+04</pdfrwt>
<pdfrwt beam="2">  1       -2 0.55660476E+00 0.59436168E+04</pdfrwt>
<totfact> 0.20493332E-03</totfact>
</mgrwt>
</event>
<event>
 6    1  0.9512547E-007  0.9567986E+03  0.7818608E-02  0.9357239E-01
         -1   -1    0    0    0  501 -0.00000000000E+00  0.00000000000E+00  0.34949714658E+03  0.34949714658E+03  0.00000000000E+00 0.  1.
          1   -1    0    0  501    0  0.00000000000E+00 -0.00000000000E+00 -0.65484332309E+03  0.65484332309E+03  0.00000000000E+00 0. -1.
         23    2    1    2    0    0 -0.19348066447E+03 -0.42568630871E+03 -0.23683615187E+03  0.53175479023E+03  0.89600184991E+02 0.  0.
         11    1    3    3    0    0 -0.16913930084E+03 -0.32665194541E+03 -0.14798396808E+03  0.39649571414E+03  0.00000000000E+00 0. -1.
        -11    1    3    3    0    0 -0.24341363627E+02 -0.99034363304E+02 -0.88852183790E+02  0.13525907608E+03  0.00000000000E+00 0.  1.
         22    1    1    2    0    0  0.19348066447E+03  0.42568630871E+03 -0.68510024645E+02  0.47258567945E+03  0.00000000000E+00 0.  1.
<mgrwt>
<rscale>  0 0.95679856E+03</rscale>
<asrwt>0</asrwt>
<pdfrwt beam="1">  1        1 0.10074513E+00 0.95679856E+03</pdfrwt>
<pdfrwt beam="2">  1       -1 0.53768792E-01 0.95679856E+03</pdfrwt>
<totfact> 0.10567175E+02</totfact>
</mgrwt>
</event>
<event>
 6    1  0.9512547E-007  0.2424481E+04  0.7818608E-02  0.8430395E-01
         -1   -1    0    0    0  501 -0.00000000000E+00  0.00000000000E+00  0.46984314591E+03  0.46984314591E+03  0.00000000000E+00 0.  1.
          1   -1    0    0  501    0  0.00000000000E+00 -0.00000000000E+00 -0.31276967274E+04  0.31276967274E+04  0.00000000000E+00 0. -1.
         23    2    1    2    0    0  0.45118668258E+03  0.38137892994E+03 -0.28985450447E+04  0.29596122197E+04  0.93390600865E+02 0.  0.
         13    1    3    3    0    0  0.25604157650E+03  0.16880260156E+03 -0.13482145760E+04  0.13826547472E+04  0.00000000000E+00 0. -1.
        -13    1    3    3    0    0  0.19514510607E+03  0.21257632837E+03 -0.15503304688E+04  0.15769574725E+04  0.00000000000E+00 0.  1.
         22    1    1    2    0    0 -0.45118668258E+03 -0.38137892994E+03  0.24069146321E+03  0.63792765357E+03  0.00000000000E+00 0.  1.
<mgrwt>
<rscale>  0 0.24244809E+04</rscale>
<asrwt>0</asrwt>
<pdfrwt beam="1">  1        1 0.48118409E+00 0.24244809E+04</pdfrwt>
<pdfrwt beam="2">  1       -1 0.72283564E-01 0.24244809E+04</pdfrwt>
<totfact> 0.83143815E-01</totfact>
</mgrwt>
</event>
<event>
 6    1  0.9512547E-007  0.2124642E+04  0.7818608E-02  0.8550465E-01
         -2   -1    0    0    0  501 -0.00000000000E+00  0.00000000000E+00  0.11188982189E+04  0.11188982189E+04  0.00000000000E+00 0.  1.
          2   -1    0    0  501    0  0.00000000000E+00 -0.00000000000E+00 -0.10086050823E+04  0.10086050823E+04  0.00000000000E+00 0. -1.
         23    2    1    2    0    0  0.10598992053E+04  0.23383294259E+02  0.34618432364E+02  0.10646487652E+04  0.91353454168E+02 0.  0.
         11    1    3    3    0    0  0.15771129076E+03  0.34422497348E+01 -0.27404637658E+02  0.16011156885E+03  0.00000000000E+00 0. -1.
        -11    1    3    3    0    0  0.90218791452E+03  0.19941044524E+02  0.62023070021E+02  0.90453719635E+03  0.00000000000E+00 0.  1.
         22    1    1    2    0    0 -0.10598992053E+04 -0.23383294259E+02  0.75674704199E+02  0.10628545360E+04  0.00000000000E+00 0.  1.
<mgrwt>
<rscale>  0 0.21246425E+04</rscale>
<asrwt>0</asrwt>
<pdfrwt beam="1">  1        2 0.15517001E+00 0.21246425E+04</pdfrwt>
<pdfrwt beam="2">  1       -2 0.17213819E+00 0.21246425E+04</pdfrwt>
<totfact> 0.47067850E+00</totfact>
</mgrwt>
</event>
<event>
 6    1  0.9512547E-007  0.4211728E+04  0.7818608E-02  0.7963145E-01
          1   -1    0    0  501    0  0.00000000000E+00  0.00000000000E+00  0.36732763241E+04  0.36732763241E+04  0.00000000000E+00 0. -1.
         -1   -1    0    0    0  501 -0.00000000000E+00 -0.00000000000E+00 -0.12072774304E+04  0.12072774304E+04  0.00000000000E+00 0.  1.
         23    2    1    2    0    0  0.84015204746E+03  0.12613298983E+04 -0.45903465079E+03  0.15862207701E+04  0.92601003820E+02 0.  0.
         13    1    3    3    0    0  0.72183244271E+03  0.10298815182E+04 -0.36140917459E+03  0.13085543964E+04  0.00000000000E+00 0.  1.
        -13    1    3    3    0    0  0.11831960474E+03  0.23144838002E+03 -0.97625476194E+02  0.27766637370E+03  0.00000000000E+00 0. -1.
         22    1    1    2    0    0 -0.84015204746E+03 -0.12613298983E+04  0.29250335445E+04  0.32943329843E+04  0.00000000000E+00 0. -1.
<mgrwt>
<rscale>  0 0.42117282E+04</rscale>
<asrwt>0</asrwt>
<pdfrwt beam="1">  1        1 0.56511943E+00 0.42117282E+04</pdfrwt>
<pdfrwt beam="2">  1       -1 0.18573499E+00 0.42117282E+04</pdfrwt>
<totfact> 0.26378925E-02</totfact>
</mgrwt>
</event>
<event>
 6    1  0.9512547E-007  0.8652914E+03  0.7818608E-02  0.9470040E-01
         -2   -1    0    0    0  501 -0.00000000000E+00  0.00000000000E+00  0.17059392510E+03  0.17059392510E+03  0.00000000000E+00 0.  1.
          2   -1    0    0  501    0  0.00000000000E+00 -0.00000000000E+00 -0.10972389801E+04  0.10972389801E+04  0.00000000000E+00 0. -1.
         23    2    1    2    0    0 -0.10440619068E+03  0.82116576106E+02 -0.10644190107E+04  0.10764551438E+04  0.90133576289E+02 0.  0.
         11    1    3    3    0    0 -0.17858070371E+01  0.39716422483E+02 -0.14485055710E+03  0.15020741397E+03  0.00000000000E+00 0.  1.
        -11    1    3    3    0    0 -0.10262038364E+03  0.42400153623E+02 -0.91956845357E+03  0.92624772980E+03  0.00000000000E+00 0. -1.
         22    1    1    2    0    0  0.10440619068E+03 -0.82116576106E+02  0.13777395564E+03  0.19137776145E+03  0.00000000000E+00 0.  1.
<mgrwt>
<rscale>  0 0.86529141E+03</rscale>
<asrwt>0</asrwt>
<pdfrwt beam="1">  1        2 0.16880600E+00 0.86529141E+03</pdfrwt>
<pdfrwt beam="2">  1       -2 0.26245219E-01 0.86529141E+03</pdfrwt>
<totfact> 0.28779513E+02</totfact>
</mgrwt>
</event>
<event>
 6    1  0.9512547E-007  0.9294885E+03  0.7818608E-02  0.9389452E-01
         -1   -1    0    0    0  501 -0.00000000000E+00  0.00000000000E+00  0.98410672918E+02  0.98410672918E+02  0.00000000000E+00 0.  1.
          1   -1    0    0  501    0  0.00000000000E+00 -0.00000000000E+00 -0.21947540311E+04  0.21947540311E+04  0.00000000000E+00 0. -1.
         23    2    1    2    0    0 -0.25658860293E+03  0.32551268896E+03 -0.15536197136E+04  0.16102700004E+04  0.86249857694E+02 0.  0.
         13    1    3    3    0    0 -0.12938919713E+03  0.20739595825E+03 -0.10307655488E+04  0.10593546453E+04  0.00000000000E+00 0.  1.
        -13    1    3    3    0    0 -0.12719940580E+03  0.11811673072E+03 -0.52285416471E+03  0.55091535509E+03  0.00000000000E+00 0. -1.
         22    1    1    2    0    0  0.25658860293E+03 -0.32551268896E+03 -0.54272364466E+03  0.68289470367E+03  0.00000000000E+00 0. -1.
<mgrwt>
<rscale>  0 0.92948851E+03</rscale>
<asrwt>0</asrwt>
<pdfrwt beam="1">  1        1 0.33765441E+00 0.92948851E+03</pdfrwt>
<pdfrwt beam="2">  1       -1 0.15140106E-01 0.92948851E+03</pdfrwt>
<totfact> 0.72383094E+01</totfact>
</mgrwt>
</event>
<event>
 6    1  0.9512547E-007  0.2415537E+04  0.7818608E-02  0.8433709E-01
         -1   -1    0    0    0  501 -0.00000000000E+00  0.00000000000E+00  0.16764737165E+04  0.16764737165E+04  0.00000000000E+00 0.  1.
          1   -1    0    0  501    0  0.00000000000E+00 -0.00000000000E+00 -0.87010318567E+03  0.87010318567E+03  0.00000000000E+00 0. -1.
         23    2    1    2    0    0  0.98869681151E+01 -0.11863268326E+04  0.63212460298E+03  0.13474810973E+04  0.93030574715E+02 0.  0.
         11    1    3    3    0    0  0.47522931620E+02 -0.77188491803E+03  0.42982013832E+03  0.88476556614E+03  0.00000000000E+00 0. -1.
        -11    1    3    3    0    0 -0.37635963505E+02 -0.41444191459E+03  0.20230446466E+03  0.46271553113E+03  0.00000000000E+00 0.  1.
         22    1    1    2    0    0 -0.98869681151E+01  0.11863268326E+04  0.17424592783E+03  0.11990958049E+04  0.00000000000E+00 0.  1.
<mgrwt>
<rscale>  0 0.24155373E+04</rscale>
<asrwt>0</asrwt>
<pdfrwt beam="1">  1        1 0.13386203E+00 0.24155373E+04</pdfrwt>
<pdfrwt beam="2">  1       -1 0.25791903E+00 0.24155373E+04</pdfrwt>
<totfact> 0.10671244E+00</totfact>
</mgrwt>
</event>
<event>
 6    1  0.9512547E-007  0.2610715E+04  0.7818608E-02  0.8364571E-01
         -2   -1    0    0    0  501 -0.00000000000E+00  0.00000000000E+00  0.41013697471E+03  0.41013697471E+03  0.00000000000E+00 0.  1.
          2   -1    0    0  501    0  0.00000000000E+00 -0.00000000000E+00 -0.41546079213E+04  0.41546079213E+04  0.00000000000E+00 0. -1.
         23    2    1    2    0    0  0.54241332431E+03  0.15972644705E+03 -0.39285532129E+04  0.39700928692E+04  0.91554855486E+02 0.  0.
         11    1    3    3    0    0  0.18261921530E+03  0.62231747292E+02 -0.10592924784E+04  0.10767186833E+04  0.00000000000E+00 0. -1.
        -11    1    3    3    0    0  0.35979410901E+03  0.97494699755E+02 -0.28692607345E+04  0.28933741859E+04  0.00000000000E+00 0.  1.
         22    1    1    2    0    0 -0.54241332431E+03 -0.15972644705E+03  0.18408226624E+03  0.59465202683E+03  0.00000000000E+00 0.  1.
<mgrwt>
<rscale>  0 0.26107151E+04</rscale>
<asrwt>0</asrwt>
<pdfrwt beam="1">  1        2 0.63917041E+00 0.26107151E+04</pdfrwt>
<pdfrwt beam="2">  1       -2 0.63098000E-01 0.26107151E+04</pdfrwt>
<totfact> 0.52471300E-01</totfact>
</mgrwt>
</event>
<event>
 6    1  0.9512547E-007  0.3429233E+04  0.7818608E-02  0.8130769E-01
          1   -1    0    0  501    0  0.00000000000E+00  0.00000000000E+00  0.13888016230E+04  0.13888016230E+04  0.00000000000E+00 0. -1.
         -1   -1    0    0    0  501 -0.00000000000E+00 -0.00000000000E+00 -0.21168677052E+04  0.21168677052E+04  0.00000000000E+00 0.  1.
         23    2    1    2    0    0 -0.10324475828E+04  0.10924723934E+04  0.47779533260E+03  0.15786131035E+04  0.65475254142E+02 0.  0.
         13    1    3    3    0    0 -0.28819312825E+03  0.32997920254E+03  0.16481978070E+03  0.46808878793E+03  0.00000000000E+00 0.  1.
        -13    1    3    3    0    0 -0.74425445460E+03  0.76249319088E+03  0.31297555190E+03  0.11105243155E+04  0.00000000000E+00 0. -1.
         22    1    1    2    0    0  0.10324475828E+04 -0.10924723934E+04 -0.12058614148E+04  0.19270562248E+04  0.00000000000E+00 0.  1.
<mgrwt>
<rscale>  0 0.34292327E+04</rscale>
<asrwt>0</asrwt>
<pdfrwt beam="1">  1        1 0.21366179E+00 0.34292327E+04</pdfrwt>
<pdfrwt beam="2">  1       -1 0.32567195E+00 0.34292327E+04</pdfrwt>
<totfact> 0.14424505E-01</totfact>
</mgrwt>
</event>
<event>
 6    1  0.9512547E-007  0.2989063E+04  0.7818608E-02  0.8246861E-01
         -1   -1    0    0    0  501 -0.00000000000E+00  0.00000000000E+00  0.93037624842E+03  0.93037624842E+03  0.00000000000E+00 0.  1.
          1   -1    0    0  501    0  0.00000000000E+00 -0.00000000000E+00 -0.24007747466E+04  0.24007747466E+04  0.00000000000E+00 0. -1.
         23    2    1    2    0    0  0.66500696093E+03  0.79106606749E+02  0.75141340817E+03  0.10106035897E+04  0.90583619573E+02 0.  0.
         11    1    3    3    0    0  0.49898384748E+03  0.47065190202E+02  0.61491373196E+03  0.79329623088E+03  0.00000000000E+00 0.  1.
        -11    1    3    3    0    0  0.16602311345E+03  0.32041416547E+02  0.13649967621E+03  0.21730735878E+03  0.00000000000E+00 0. -1.
         22    1    1    2    0    0 -0.66500696093E+03 -0.79106606749E+02 -0.22218119063E+04  0.23205474053E+04  0.00000000000E+00 0. -1.
<mgrwt>
<rscale>  0 0.29890626E+04</rscale>
<asrwt>0</asrwt>
<pdfrwt beam="1">  1        1 0.36934996E+00 0.29890626E+04</pdfrwt>
<pdfrwt beam="2">  1       -1 0.14313481E+00 0.29890626E+04</pdfrwt>
<totfact> 0.53432047E-01</totfact>
</mgrwt>
</event>
<event>
 6    1  0.9512547E-007  0.4588120E+04  0.7818608E-02  0.7895389E-01
          2   -1    0    0  501    0  0.00000000000E+00  0.00000000000E+00  0.25597875674E+04  0.25597875674E+04  0.00000000000E+00 0. -1.
         -2   -1    0    0    0  501 -0.00000000000E+00 -0.00000000000E+00 -0.20559172568E+04  0.20559172568E+04  0.00000000000E+00 0.  1.
         23    2    1    2    0    0 -0.13171468671E+04 -0.13669227172E+04 -0.10422417839E+04  0.21674776712E+04  0.91312291778E+02 0.  0.
         13    1    3    3    0    0 -0.81015383486E+03 -0.79802659485E+03 -0.58569810338E+03  0.12791551706E+04  0.00000000000E+00 0. -1.
        -13    1    3    3    0    0 -0.50699303219E+03 -0.56889612238E+03 -0.45654368050E+03  0.88832250053E+03  0.00000000000E+00 0.  1.
         22    1    1    2    0    0  0.13171468671E+04  0.13669227172E+04  0.15461120945E+04  0.24482271531E+04  0.00000000000E+00 0. -1.
<mgrwt>
<rscale>  0 0.45881201E+04</rscale>
<asrwt>0</asrwt>
<pdfrwt beam="1">  1        2 0.39381347E+00 0.45881201E+04</pdfrwt>
<pdfrwt beam="2">  1       -2 0.31629496E+00 0.45881201E+04</pdfrwt>
<totfact> 0.61006848E-02</totfact>
</mgrwt>
</event>
<event>
 6    1  0.9512547E-007  0.2067764E+04  0.7818608E-02  0.8575578E-01
          1   -1    0    0  501    0  0.00000000000E+00  0.00000000000E+00  0.23648288927E+04  0.23648288927E+04  0.00000000000E+00 0. -1.
         -1   -1    0    0    0  501 -0.00000000000E+00 -0.00000000000E+00 -0.45200410433E+03  0.45200410433E+03  0.00000000000E+00 0.  1.
         23    2    1    2    0    0  0.23674022381E+03 -0.85509152276E+03  0.24622376411E+03  0.92876879794E+03  0.12148206510E+03 0.  0.
         13    1    3    3    0    0  0.22512882094E+03 -0.61855965088E+03  0.19422217717E+03  0.68630990217E+03  0.00000000000E+00 0. -1.
        -13    1    3    3    0    0  0.11611402877E+02 -0.23653187188E+03  0.52001586946E+02  0.24245889577E+03  0.00000000000E+00 0.  1.
         22    1    1    2    0    0 -0.23674022381E+03  0.85509152276E+03  0.16666010243E+04  0.18880641991E+04  0.00000000000E+00 0. -1.
<mgrwt>
<rscale>  0 0.20677644E+04</rscale>
<asrwt>0</asrwt>
<pdfrwt beam="1">  1        1 0.36381982E+00 0.20677644E+04</pdfrwt>
<pdfrwt beam="2">  1       -1 0.69539095E-01 0.20677644E+04</pdfrwt>
<totfact> 0.32405258E+00</totfact>
</mgrwt>
</event>
<event>
 6    1  0.9512547E-007  0.1944230E+04  0.7818608E-02  0.8633148E-01
          2   -1    0    0  501    0  0.00000000000E+00  0.00000000000E+00  0.10157690720E+04  0.10157690720E+04  0.00000000000E+00 0. -1.
         -2   -1    0    0    0  501 -0.00000000000E+00 -0.00000000000E+00 -0.93033715865E+03  0.93033715865E+03  0.00000000000E+00 0.  1.
         23    2    1    2    0    0 -0.14100576092E+03  0.11986588792E+03  0.99588461299E+03  0.10170343422E+04  0.91226285225E+02 0.  0.
         13    1    3    3    0    0 -0.15003905716E+03  0.10717753417E+03  0.82067909769E+03  0.84113787448E+03  0.00000000000E+00 0. -1.
        -13    1    3    3    0    0  0.90332962441E+01  0.12688353742E+02  0.17520551531E+03  0.17589646772E+03  0.00000000000E+00 0.  1.
         22    1    1    2    0    0  0.14100576092E+03 -0.11986588792E+03 -0.91045269962E+03  0.92907188847E+03  0.00000000000E+00 0.  1.
<mgrwt>
<rscale>  0 0.19442301E+04</rscale>
<asrwt>0</asrwt>
<pdfrwt beam="1">  1        2 0.15627217E+00 0.19442301E+04</pdfrwt>
<pdfrwt beam="2">  1       -2 0.14312879E+00 0.19442301E+04</pdfrwt>
<totfact> 0.77857778E+00</totfact>
</mgrwt>
</event>
<event>
 6    1  0.9512547E-007  0.4288874E+03  0.7818608E-02  0.1034212E+00
          2   -1    0    0  501    0  0.00000000000E+00  0.00000000000E+00  0.79754611319E+03  0.79754611319E+03  0.00000000000E+00 0. -1.
         -2   -1    0    0    0  501 -0.00000000000E+00 -0.00000000000E+00 -0.57659482294E+02  0.57659482294E+02  0.00000000000E+00 0.  1.
         23    2    1    2    0    0  0.18094529251E+03 -0.81416464619E+01  0.57662152168E+03  0.61135527013E+03  0.91953258561E+02 0.  0.
         13    1    3    3    0    0  0.16070385663E+03 -0.37413940686E+02  0.43253244078E+03  0.46293611311E+03  0.00000000000E+00 0. -1.
        -13    1    3    3    0    0  0.20241435880E+02  0.29272294224E+02  0.14408908090E+03  0.14841915702E+03  0.00000000000E+00 0.  1.
         22    1    1    2    0    0 -0.18094529251E+03  0.81416464619E+01  0.16326510921E+03  0.24385032535E+03  0.00000000000E+00 0.  1.
<mgrwt>
<rscale>  0 0.42888738E+03</rscale>
<asrwt>0</asrwt>
<pdfrwt beam="1">  1        2 0.12269939E+00 0.42888738E+03</pdfrwt>
<pdfrwt beam="2">  1       -2 0.88706902E-02 0.42888738E+03</pdfrwt>
<totfact> 0.28741782E+03</totfact>
</mgrwt>
</event>
<event>
 6    1  0.9512547E-007  0.4643589E+04  0.7818608E-02  0.7885970E-01
          2   -1    0    0  501    0  0.00000000000E+00  0.00000000000E+00  0.36744895038E+04  0.36744895038E+04  0.00000000000E+00 0. -1.
         -2   -1    0    0    0  501 -0.00000000000E+00 -0.00000000000E+00 -0.14670688714E+04  0.14670688714E+04  0.00000000000E+00 0.  1.
         23    2    1    2    0    0 -0.58648144359E+03  0.22455057340E+04  0.11338576762E+04  0.25844518256E+04  0.86611337918E+02 0.  0.
         11    1    3    3    0    0 -0.30276296187E+02  0.16325718349E+03  0.10257980954E+03  0.19517217885E+03  0.00000000000E+00 0. -1.
        -11    1    3    3    0    0 -0.55620514740E+03  0.20822485505E+04  0.10312778666E+04  0.23892796467E+04  0.00000000000E+00 0.  1.
         22    1    1    2    0    0  0.58648144359E+03 -0.22455057340E+04  0.10735629563E+04  0.25571065496E+04  0.00000000000E+00 0.  1.
<mgrwt>
<rscale>  0 0.46435888E+04</rscale>
<asrwt>0</asrwt>
<pdfrwt beam="1">  1        2 0.56530607E+00 0.46435888E+04</pdfrwt>
<pdfrwt beam="2">  1       -2 0.22570291E+00 0.46435888E+04</pdfrwt>
<totfact> 0.41420181E-02</totfact>
</mgrwt>
</event>
<event>
 6    1  0.9512547E-007  0.3322091E+04  0.7818608E-02  0.8157297E-01
         -2   -1    0    0    0  501 -0.00000000000E+00  0.00000000000E+00  0.20574135279E+04  0.20574135279E+04  0.00000000000E+00 0.  1.
          2   -1    0    0  501    0  0.00000000000E+00 -0.00000000000E+00 -0.13410391871E+04  0.13410391871E+04  0.00000000000E+00 0. -1.
         23    2    1    2    0    0  0.61631374037E+03 -0.13497174664E+04  0.11194663302E+04  0.18609017344E+04  0.90391010916E+02 0.  0.
         11    1    3    3    0    0  0.27145824287E+03 -0.65101339077E+03  0.58023300286E+03  0.91333364669E+03  0.00000000000E+00 0. -1.
        -11    1    3    3    0    0  0.34485549751E+03 -0.69870407568E+03  0.53923332737E+03  0.94756808773E+03  0.00000000000E+00 0.  1.
         22    1    1    2    0    0 -0.61631374037E+03  0.13497174664E+04 -0.40309198949E+03  0.15375509806E+04  0.00000000000E+00 0.  1.
<mgrwt>
<rscale>  0 0.33220910E+04</rscale>
<asrwt>0</asrwt>
<pdfrwt beam="1">  1        2 0.20631372E+00 0.33220910E+04</pdfrwt>
<pdfrwt beam="2">  1       -2 0.31652516E+00 0.33220910E+04</pdfrwt>
<totfact> 0.32811526E-01</totfact>
</mgrwt>
</event>
<event>
 6    1  0.9512547E-007  0.1060748E+04  0.7818608E-02  0.9244317E-01
          1   -1    0    0  501    0  0.00000000000E+00  0.00000000000E+00  0.54780966809E+03  0.54780966809E+03  0.00000000000E+00 0. -1.
         -1   -1    0    0    0  501 -0.00000000000E+00 -0.00000000000E+00 -0.51349367525E+03  0.51349367525E+03  0.00000000000E+00 0.  1.
         23    2    1    2    0    0 -0.22928617081E+03 -0.36814414517E+03  0.31593145770E+03  0.54418678994E+03  0.90688018112E+02 0.  0.
         13    1    3    3    0    0 -0.42361037385E+02 -0.13961093908E+03  0.12895355709E+03  0.19471695274E+03  0.00000000000E+00 0.  1.
        -13    1    3    3    0    0 -0.18692513343E+03 -0.22853320609E+03  0.18697790061E+03  0.34946983720E+03  0.00000000000E+00 0. -1.
         22    1    1    2    0    0  0.22928617081E+03  0.36814414517E+03 -0.28161546485E+03  0.51711655340E+03  0.00000000000E+00 0.  1.
<mgrwt>
<rscale>  0 0.10607484E+04</rscale>
<asrwt>0</asrwt>
<pdfrwt beam="1">  1        1 0.84278411E-01 0.10607484E+04</pdfrwt>
<pdfrwt beam="2">  1       -1 0.78999027E-01 0.10607484E+04</pdfrwt>
<totfact> 0.62476727E+01</totfact>
</mgrwt>
</event>
<event>
 6    1  0.9512547E-007  0.1511909E+04  0.7818608E-02  0.8876572E-01
         -1   -1    0    0    0  501 -0.00000000000E+00  0.00000000000E+00  0.11182292118E+04  0.11182292118E+04  0.00000000000E+00 0.  1.
          1   -1    0    0  501    0  0.00000000000E+00 -0.00000000000E+00 -0.51104657951E+03  0.51104657951E+03  0.00000000000E+00 0. -1.
         23    2    1    2    0    0  0.66755910309E+03  0.73967443933E+02  0.67191254748E+03  0.95451931619E+03  0.92381354399E+02 0.  0.
         13    1    3    3    0    0  0.36307842052E+02 -0.15640820679E+01  0.70786701536E+02  0.79570489891E+02  0.00000000000E+00 0. -1.
        -13    1    3    3    0    0  0.63125126103E+03  0.75531526001E+02  0.60112584594E+03  0.87494882630E+03  0.00000000000E+00 0.  1.
         22    1    1    2    0    0 -0.66755910309E+03 -0.73967443933E+02 -0.64729915138E+02  0.67475647517E+03  0.00000000000E+00 0. -1.
<mgrwt>
<rscale>  0 0.15119090E+04</rscale>
<asrwt>0</asrwt>
<pdfrwt beam="1">  1        1 0.78622551E-01 0.15119090E+04</pdfrwt>
<pdfrwt beam="2">  1       -1 0.17203526E+00 0.15119090E+04</pdfrwt>
<totfact> 0.98784947E+00</totfact>
</mgrwt>
</event>
<event>
 6    1  0.9512547E-007  0.3073460E+04  0.7818608E-02  0.8223059E-01
         -1   -1    0    0    0  501 -0.00000000000E+00  0.00000000000E+00  0.31909825888E+04  0.31909825888E+04  0.00000000000E+00 0.  1.
          1   -1    0    0  501    0  0.00000000000E+00 -0.00000000000E+00 -0.74006651869E+03  0.74006651869E+03  0.00000000000E+00 0. -1.
         23    2    1    2    0    0 -0.60693047977E+03 -0.79403070929E+02  0.30275102975E+04  0.30901386735E+04  0.92026979712E+02 0.  0.
         11    1    3    3    0    0 -0.14687655540E+03 -0.30237269732E+02  0.56631089980E+03  0.58582851606E+03  0.00000000000E+00 0. -1.
        -11    1    3    3    0    0 -0.46005392438E+03 -0.49165801197E+02  0.24611993977E+04  0.25043101574E+04  0.00000000000E+00 0.  1.
         22    1    1    2    0    0  0.60693047977E+03  0.79403070929E+02 -0.57659422738E+03  0.84091043399E+03  0.00000000000E+00 0. -1.
<mgrwt>
<rscale>  0 0.30734602E+04</rscale>
<asrwt>0</asrwt>
<pdfrwt beam="1">  1        1 0.11385639E+00 0.30734602E+04</pdfrwt>
<pdfrwt beam="2">  1       -1 0.49092039E+00 0.30734602E+04</pdfrwt>
<totfact> 0.36049916E-02</totfact>
</mgrwt>
</event>
<event>
 6    1  0.9512547E-007  0.2294123E+04  0.7818608E-02  0.8480242E-01
          2   -1    0    0  501    0  0.00000000000E+00  0.00000000000E+00  0.23368398608E+04  0.23368398608E+04  0.00000000000E+00 0. -1.
         -2   -1    0    0    0  501 -0.00000000000E+00 -0.00000000000E+00 -0.56304691524E+03  0.56304691524E+03  0.00000000000E+00 0.  1.
         23    2    1    2    0    0  0.62823196847E+03 -0.57847247115E+03 -0.76240587152E+02  0.86225828237E+03  0.91492689834E+02 0.  0.
         13    1    3    3    0    0  0.59740777071E+03 -0.56859686645E+03 -0.62535905336E+02  0.82710892904E+03  0.00000000000E+00 0. -1.
        -13    1    3    3    0    0  0.30824197761E+02 -0.98756047074E+01 -0.13704681816E+02  0.35149353332E+02  0.00000000000E+00 0.  1.
         22    1    1    2    0    0 -0.62823196847E+03  0.57847247115E+03  0.18500335327E+04  0.20376284937E+04  0.00000000000E+00 0. -1.
<mgrwt>
<rscale>  0 0.22941233E+04</rscale>
<asrwt>0</asrwt>
<pdfrwt beam="1">  1        2 0.35951382E+00 0.22941233E+04</pdfrwt>
<pdfrwt beam="2">  1       -2 0.86622603E-01 0.22941233E+04</pdfrwt>
<totfact> 0.45213253E+00</totfact>
</mgrwt>
</event>
<event>
 6    1  0.9512547E-007  0.1482474E+04  0.7818608E-02  0.8896192E-01
          1   -1    0    0  501    0  0.00000000000E+00  0.00000000000E+00  0.92723313504E+03  0.92723313504E+03  0.00000000000E+00 0. -1.
         -1   -1    0    0    0  501 -0.00000000000E+00 -0.00000000000E+00 -0.59255044677E+03  0.59255044677E+03  0.00000000000E+00 0.  1.
         23    2    1    2    0    0  0.70591940618E+03  0.73100389890E+02  0.37777668325E+03  0.80878219825E+03  0.88020149841E+02 0.  0.
         13    1    3    3    0    0  0.37246283620E+03  0.78032542823E+02  0.17903225183E+03  0.42055937665E+03  0.00000000000E+00 0.  1.
        -13    1    3    3    0    0  0.33345656998E+03 -0.49321529335E+01  0.19874443141E+03  0.38822282161E+03  0.00000000000E+00 0. -1.
         22    1    1    2    0    0 -0.70591940618E+03 -0.73100389890E+02 -0.43093994980E+02  0.71100138356E+03  0.00000000000E+00 0. -1.
<mgrwt>
<rscale>  0 0.14824742E+04</rscale>
<asrwt>0</asrwt>
<pdfrwt beam="1">  1        1 0.14265125E+00 0.14824742E+04</pdfrwt>
<pdfrwt beam="2">  1       -1 0.91161607E-01 0.14824742E+04</pdfrwt>
<totfact> 0.19670735E+01</totfact>
</mgrwt>
</event>
<event>
 6    1  0.9512547E-007  0.1321621E+04  0.7818608E-02  0.9012593E-01
         -2   -1    0    0    0  501 -0.00000000000E+00  0.00000000000E+00  0.20094962402E+04  0.20094962402E+04  0.00000000000E+00 0.  1.
          2   -1    0    0  501    0  0.00000000000E+00 -0.00000000000E+00 -0.21730354347E+03  0.21730354347E+03  0.00000000000E+00 0. -1.
         23    2    1    2    0    0  0.28199547393E+03 -0.54051058800E+03  0.13159840833E+04  0.14532057128E+04  0.91211803170E+02 0.  0.
         13    1    3    3    0    0  0.17933473124E+03 -0.26409505232E+03  0.62066561075E+03  0.69794909761E+03  0.00000000000E+00 0. -1.
        -13    1    3    3    0    0  0.10266074269E+03 -0.27641553569E+03  0.69531847254E+03  0.75525661514E+03  0.00000000000E+00 0.  1.
         22    1    1    2    0    0 -0.28199547393E+03  0.54051058800E+03  0.47620861346E+03  0.77359407094E+03  0.00000000000E+00 0.  1.
<mgrwt>
<rscale>  0 0.13216212E+04</rscale>
<asrwt>0</asrwt>
<pdfrwt beam="1">  1        2 0.33431316E-01 0.13216212E+04</pdfrwt>
<pdfrwt beam="2">  1       -2 0.30915326E+00 0.13216212E+04</pdfrwt>
<totfact> 0.43361422E+00</totfact>
</mgrwt>
</event>
<event>
 6    1  0.9512547E-007  0.2601645E+04  0.7818608E-02  0.8367643E-01
          2   -1    0    0  501    0  0.00000000000E+00  0.00000000000E+00  0.22676747695E+04  0.22676747695E+04  0.00000000000E+00 0. -1.
         -2   -1    0    0    0  501 -0.00000000000E+00 -0.00000000000E+00 -0.74620001973E+03  0.74620001973E+03  0.00000000000E+00 0.  1.
         23    2    1    2    0    0  0.88521000792E+03  0.93803625734E+03  0.94326822406E+03  0.16004280925E+04  0.90035317975E+02 0.  0.
         13    1    3    3    0    0  0.44768478627E+03  0.51059909054E+03  0.54256102179E+03  0.86919822911E+03  0.00000000000E+00 0. -1.
        -13    1    3    3    0    0  0.43752522165E+03  0.42743716680E+03  0.40070720227E+03  0.73122986338E+03  0.00000000000E+00 0.  1.
         22    1    1    2    0    0 -0.88521000792E+03 -0.93803625734E+03  0.57820652572E+03  0.14134466968E+04  0.00000000000E+00 0.  1.
<mgrwt>
<rscale>  0 0.26016448E+04</rscale>
<asrwt>0</asrwt>
<pdfrwt beam="1">  1        2 0.34887304E+00 0.26016448E+04</pdfrwt>
<pdfrwt beam="2">  1       -2 0.11480000E+00 0.26016448E+04</pdfrwt>
<totfact> 0.24763975E+00</totfact>
</mgrwt>
</event>
<event>
 6    1  0.9512547E-007  0.3739714E+04  0.7818608E-02  0.8059217E-01
         -1   -1    0    0    0  501 -0.00000000000E+00  0.00000000000E+00  0.10784197307E+04  0.10784197307E+04  0.00000000000E+00 0.  1.
          1   -1    0    0  501    0  0.00000000000E+00 -0.00000000000E+00 -0.32421191489E+04  0.32421191489E+04  0.00000000000E+00 0. -1.
         23    2    1    2    0    0 -0.10998810163E+04  0.14013709651E+04 -0.17347232409E+04  0.24881635380E+04  0.90079061138E+02 0.  0.
         13    1    3    3    0    0 -0.66681990460E+03  0.91832245530E+03 -0.11160094021E+04  0.15916789572E+04  0.00000000000E+00 0.  1.
        -13    1    3    3    0    0 -0.43306111174E+03  0.48304850984E+03 -0.61871383871E+03  0.89648458077E+03  0.00000000000E+00 0. -1.
         22    1    1    2    0    0  0.10998810163E+04 -0.14013709651E+04 -0.42897617738E+03  0.18323753417E+04  0.00000000000E+00 0.  1.
<mgrwt>
<rscale>  0 0.37397140E+04</rscale>
<asrwt>0</asrwt>
<pdfrwt beam="1">  1        1 0.49878756E+00 0.37397140E+04</pdfrwt>
<pdfrwt beam="2">  1       -1 0.16591073E+00 0.37397140E+04</pdfrwt>
<totfact> 0.83275488E-02</totfact>
</mgrwt>
</event>
<event>
 6    1  0.9512547E-007  0.1320253E+04  0.7818608E-02  0.9013656E-01
         -1   -1    0    0    0  501 -0.00000000000E+00  0.00000000000E+00  0.14247044973E+04  0.14247044973E+04  0.00000000000E+00 0.  1.
          1   -1    0    0  501    0  0.00000000000E+00 -0.00000000000E+00 -0.30586502214E+03  0.30586502214E+03  0.00000000000E+00 0. -1.
         23    2    1    2    0    0  0.52035958081E+02  0.65459437596E+03  0.53019068903E+03  0.84869144886E+03  0.89294292372E+02 0.  0.
         13    1    3    3    0    0 -0.40570524411E+01  0.45415907549E+03  0.37696218800E+03  0.59023505208E+03  0.00000000000E+00 0. -1.
        -13    1    3    3    0    0  0.56093010522E+02  0.20043530048E+03  0.15322850103E+03  0.25845639677E+03  0.00000000000E+00 0.  1.
         22    1    1    2    0    0 -0.52035958081E+02 -0.65459437596E+03  0.58864878614E+03  0.88187807060E+03  0.00000000000E+00 0.  1.
<mgrwt>
<rscale>  0 0.13202534E+04</rscale>
<asrwt>0</asrwt>
<pdfrwt beam="1">  1        1 0.47056158E-01 0.13202534E+04</pdfrwt>
<pdfrwt beam="2">  1       -1 0.21918530E+00 0.13202534E+04</pdfrwt>
<totfact> 0.93493683E+00</totfact>
</mgrwt>
</event>
<event>
 6    1  0.9512547E-007  0.2011607E+04  0.7818608E-02  0.8601213E-01
          2   -1    0    0  501    0  0.00000000000E+00  0.00000000000E+00  0.38313735230E+04  0.38313735230E+04  0.00000000000E+00 0. -1.
         -2   -1    0    0    0  501 -0.00000000000E+00 -0.00000000000E+00 -0.26404113798E+03  0.26404113798E+03  0.00000000000E+00 0.  1.
         23    2    1    2    0    0 -0.54199994183E+02  0.68576548711E+03  0.32759780320E+04  0.33483542205E+04  0.78942874277E+02 0.  0.
         11    1    3    3    0    0  0.20206683376E+02  0.17588651486E+03  0.81364203874E+03  0.83268105741E+03  0.00000000000E+00 0.  1.
        -11    1    3    3    0    0 -0.74406677559E+02  0.50987897225E+03  0.24623359932E+04  0.25156731631E+04  0.00000000000E+00 0. -1.
         22    1    1    2    0    0  0.54199994183E+02 -0.68576548711E+03  0.29135435305E+03  0.74706044047E+03  0.00000000000E+00 0.  1.
<mgrwt>
<rscale>  0 0.20116065E+04</rscale>
<asrwt>0</asrwt>
<pdfrwt beam="1">  1        2 0.58944204E+00 0.20116065E+04</pdfrwt>
<pdfrwt beam="2">  1       -2 0.40621716E-01 0.20116065E+04</pdfrwt>
<totfact> 0.24962527E+00</totfact>
</mgrwt>
</event>
<event>
 6    1  0.9512547E-007  0.3053091E+04  0.7818608E-02  0.8228731E-01
          1   -1    0    0  501    0  0.00000000000E+00  0.00000000000E+00  0.21791462665E+04  0.21791462665E+04  0.00000000000E+00 0. -1.
         -1   -1    0    0    0  501 -0.00000000000E+00 -0.00000000000E+00 -0.10693828831E+04  0.10693828831E+04  0.00000000000E+00 0.  1.
         23    2    1    2    0    0  0.13910199289E+04  0.22065008692E+03  0.11781850258E+04  0.18384566605E+04  0.90443540294E+02 0.  0.
         13    1    3    3    0    0  0.29619089890E+03  0.53987349491E+02  0.30067209883E+03  0.42549664336E+03  0.00000000000E+00 0. -1.
        -13    1    3    3    0    0  0.10948290300E+04  0.16666273743E+03  0.87751292702E+03  0.14129600171E+04  0.00000000000E+00 0.  1.
         22    1    1    2    0    0 -0.13910199289E+04 -0.22065008692E+03 -0.68421642434E+02  0.14100724891E+04  0.00000000000E+00 0.  1.
<mgrwt>
<rscale>  0 0.30530914E+04</rscale>
<asrwt>0</asrwt>
<pdfrwt beam="1">  1        1 0.33525327E+00 0.30530914E+04</pdfrwt>
<pdfrwt beam="2">  1       -1 0.16452044E+00 0.30530914E+04</pdfrwt>
<totfact> 0.51525876E-01</totfact>
</mgrwt>
</event>
<event>
 6    1  0.9512547E-007  0.4044484E+04  0.7818608E-02  0.7995632E-01
          2   -1    0    0  501    0  0.00000000000E+00  0.00000000000E+00  0.29286576554E+04  0.29286576554E+04  0.00000000000E+00 0. -1.
         -2   -1    0    0    0  501 -0.00000000000E+00 -0.00000000000E+00 -0.13963610607E+04  0.13963610607E+04  0.00000000000E+00 0.  1.
         23    2    1    2    0    0  0.84798631169E+03  0.37038297693E+03 -0.11550422818E+04  0.14828268556E+04  0.91588626036E+02 0.  0.
         13    1    3    3    0    0  0.59540707812E+03  0.29965594401E+03 -0.85946293515E+03  0.10876487532E+04  0.00000000000E+00 0.  1.
        -13    1    3    3    0    0  0.25257923356E+03  0.70727032923E+02 -0.29557934666E+03  0.39517810236E+03  0.00000000000E+00 0. -1.
         22    1    1    2    0    0 -0.84798631169E+03 -0.37038297693E+03  0.26873388765E+04  0.28421918605E+04  0.00000000000E+00 0. -1.
<mgrwt>
<rscale>  0 0.40444844E+04</rscale>
<asrwt>0</asrwt>
<pdfrwt beam="1">  1        2 0.45056271E+00 0.40444844E+04</pdfrwt>
<pdfrwt beam="2">  1       -2 0.21482478E+00 0.40444844E+04</pdfrwt>
<totfact> 0.16158828E-01</totfact>
</mgrwt>
</event>
<event>
 6    1  0.9512547E-007  0.1666042E+04  0.7818608E-02  0.8780972E-01
         -2   -1    0    0    0  501 -0.00000000000E+00  0.00000000000E+00  0.34684998501E+03  0.34684998501E+03  0.00000000000E+00 0.  1.
          2   -1    0    0  501    0  0.00000000000E+00 -0.00000000000E+00 -0.20006462531E+04  0.20006462531E+04  0.00000000000E+00 0. -1.
         23    2    1    2    0    0 -0.12125185411E+03 -0.59048311145E+03 -0.24599855557E+02  0.61035684600E+03  0.92509510449E+02 0.  0.
         11    1    3    3    0    0 -0.38702696564E+01 -0.23185721616E+03 -0.22773928802E+02  0.23300514910E+03  0.00000000000E+00 0.  1.
        -11    1    3    3    0    0 -0.11738158445E+03 -0.35862589529E+03 -0.18259267551E+01  0.37735169690E+03  0.00000000000E+00 0. -1.
         22    1    1    2    0    0  0.12125185411E+03  0.59048311145E+03 -0.16291964125E+04  0.17371393921E+04  0.00000000000E+00 0. -1.
<mgrwt>
<rscale>  0 0.16660422E+04</rscale>
<asrwt>0</asrwt>
<pdfrwt beam="1">  1        2 0.30779172E+00 0.16660422E+04</pdfrwt>
<pdfrwt beam="2">  1       -2 0.53361538E-01 0.16660422E+04</pdfrwt>
<totfact> 0.21087056E+01</totfact>
</mgrwt>
</event>
<event>
 6    1  0.9512547E-007  0.2328671E+04  0.7818608E-02  0.8466702E-01
          2   -1    0    0  501    0  0.00000000000E+00  0.00000000000E+00  0.29025543568E+04  0.29025543568E+04  0.00000000000E+00 0. -1.
         -2   -1    0    0    0  501 -0.00000000000E+00 -0.00000000000E+00 -0.46706343521E+03  0.46706343521E+03  0.00000000000E+00 0.  1.
         23    2    1    2    0    0  0.52065952630E+03 -0.10387729416E+04  0.12675784576E+04  0.17221484934E+04  0.94364826496E+02 0.  0.
         11    1    3    3    0    0  0.60526134167E+02 -0.20149571965E+03  0.22659343911E+03  0.30920628163E+03  0.00000000000E+00 0.  1.
        -11    1    3    3    0    0  0.46013339213E+03 -0.83727722193E+03  0.10409850185E+04  0.14129422117E+04  0.00000000000E+00 0. -1.
         22    1    1    2    0    0 -0.52065952630E+03  0.10387729416E+04  0.11679124639E+04  0.16474692986E+04  0.00000000000E+00 0.  1.
<mgrwt>
<rscale>  0 0.23286709E+04</rscale>
<asrwt>0</asrwt>
<pdfrwt beam="1">  1        2 0.44654681E+00 0.23286709E+04</pdfrwt>
<pdfrwt beam="2">  1       -2 0.71855915E-01 0.23286709E+04</pdfrwt>
<totfact> 0.31796402E+00</totfact>
</mgrwt>
</event>
<event>
 6    1  0.9512547E-007  0.1659390E+04  0.7818608E-02  0.8784871E-01
         -1   -1    0    0    0  501 -0.00000000000E+00  0.00000000000E+00  0.42444360998E+03  0.42444360998E+03  0.00000000000E+00 0.  1.
          1   -1    0    0  501    0  0.00000000000E+00 -0.00000000000E+00 -0.16218730091E+04  0.16218730091E+04  0.00000000000E+00 0. -1.
         23    2    1    2    0    0 -0.16168260386E+03  0.44856374372E+03  0.23310431903E+03  0.53841164352E+03  0.90547102405E+02 0.  0.
         13    1    3    3    0    0 -0.71449150893E+02  0.31949668491E+03  0.16834839184E+03  0.36813624362E+03  0.00000000000E+00 0. -1.
        -13    1    3    3    0    0 -0.90233452964E+02  0.12906705881E+03  0.64755927195E+02  0.17027539990E+03  0.00000000000E+00 0.  1.
         22    1    1    2    0    0  0.16168260386E+03 -0.44856374372E+03 -0.14305337181E+04  0.15079049755E+04  0.00000000000E+00 0. -1.
<mgrwt>
<rscale>  0 0.16593898E+04</rscale>
<asrwt>0</asrwt>
<pdfrwt beam="1">  1        1 0.24951893E+00 0.16593898E+04</pdfrwt>
<pdfrwt beam="2">  1       -1 0.65299017E-01 0.16593898E+04</pdfrwt>
<totfact> 0.12236677E+01</totfact>
</mgrwt>
</event>
<event>
 6    1  0.9512547E-007  0.9646432E+03  0.7818608E-02  0.9348197E-01
          1   -1    0    0  501    0  0.00000000000E+00  0.00000000000E+00  0.53981804069E+03  0.53981804069E+03  0.00000000000E+00 0. -1.
         -1   -1    0    0    0  501 -0.00000000000E+00 -0.00000000000E+00 -0.43094911811E+03  0.43094911811E+03  0.00000000000E+00 0.  1.
         23    2    1    2    0    0 -0.30217560585E+03 -0.23010974179E+03  0.34597071826E+03  0.52301962777E+03  0.97944898280E+02 0.  0.
         11    1    3    3    0    0 -0.35432113496E+02 -0.49356536287E+02  0.10252588918E+03  0.11917659289E+03  0.00000000000E+00 0. -1.
        -11    1    3    3    0    0 -0.26674349235E+03 -0.18075320551E+03  0.24344482908E+03  0.40384303488E+03  0.00000000000E+00 0.  1.
         22    1    1    2    0    0  0.30217560585E+03  0.23010974179E+03 -0.23710179568E+03  0.44774753104E+03  0.00000000000E+00 0.  1.
<mgrwt>
<rscale>  0 0.96464316E+03</rscale>
<asrwt>0</asrwt>
<pdfrwt beam="1">  1        1 0.83048929E-01 0.96464316E+03</pdfrwt>
<pdfrwt beam="2">  1       -1 0.66299864E-01 0.96464316E+03</pdfrwt>
<totfact> 0.92275597E+01</totfact>
</mgrwt>
</event>
<event>
 6    1  0.9512547E-007  0.2132388E+04  0.7818608E-02  0.8547109E-01
          2   -1    0    0  501    0  0.00000000000E+00  0.00000000000E+00  0.23979613843E+04  0.23979613843E+04  0.00000000000E+00 0. -1.
         -2   -1    0    0    0  501 -0.00000000000E+00 -0.00000000000E+00 -0.47405668541E+03  0.47405668541E+03  0.00000000000E+00 0.  1.
         23    2    1    2    0    0  0.53726341065E+03 -0.91934233334E+03  0.95107003883E+03  0.14297110379E+04  0.75479366370E+02 0.  0.
         11    1    3    3    0    0  0.24046528567E+03 -0.47656609431E+03  0.45096868225E+03  0.69879292228E+03  0.00000000000E+00 0. -1.
        -11    1    3    3    0    0  0.29679812498E+03 -0.44277623903E+03  0.50010135658E+03  0.73091811559E+03  0.00000000000E+00 0.  1.
         22    1    1    2    0    0 -0.53726341065E+03  0.91934233334E+03  0.97283466005E+03  0.14423070318E+04  0.00000000000E+00 0. -1.
<mgrwt>
<rscale>  0 0.21323880E+04</rscale>
<asrwt>0</asrwt>
<pdfrwt beam="1">  1        2 0.36891713E+00 0.21323880E+04</pdfrwt>
<pdfrwt beam="2">  1       -2 0.72931799E-01 0.21323880E+04</pdfrwt>
<totfact> 0.62243445E+00</totfact>
</mgrwt>
</event>
<event>
 6    1  0.9512547E-007  0.3857746E+04  0.7818608E-02  0.8033875E-01
         -2   -1    0    0    0  501 -0.00000000000E+00  0.00000000000E+00  0.15594451799E+04  0.15594451799E+04  0.00000000000E+00 0.  1.
          2   -1    0    0  501    0  0.00000000000E+00 -0.00000000000E+00 -0.23858170943E+04  0.23858170943E+04  0.00000000000E+00 0. -1.
         23    2    1    2    0    0 -0.13464173352E+04  0.12879097814E+04  0.92678339910E+02  0.18677145333E+04  0.90647986335E+02 0.  0.
         11    1    3    3    0    0 -0.58254000723E+03  0.52869072285E+03 -0.65498875088E+00  0.78668111040E+03  0.00000000000E+00 0.  1.
        -11    1    3    3    0    0 -0.76387732800E+03  0.75921905858E+03  0.93333328661E+02  0.10810334229E+04  0.00000000000E+00 0. -1.
         22    1    1    2    0    0  0.13464173352E+04 -0.12879097814E+04 -0.91905025439E+03  0.20775477409E+04  0.00000000000E+00 0. -1.
<mgrwt>
<rscale>  0 0.38577460E+04</rscale>
<asrwt>0</asrwt>
<pdfrwt beam="1">  1        2 0.36704878E+00 0.38577460E+04</pdfrwt>
<pdfrwt beam="2">  1       -2 0.23991464E+00 0.38577460E+04</pdfrwt>
<totfact> 0.23974919E-01</totfact>
</mgrwt>
</event>
<event>
 6    1  0.9512547E-007  0.3514945E+04  0.7818608E-02  0.8110257E-01
         -2   -1    0    0    0  501 -0.00000000000E+00  0.00000000000E+00  0.18545781804E+04  0.18545781804E+04  0.00000000000E+00 0.  1.
          2   -1    0    0  501    0  0.00000000000E+00 -0.00000000000E+00 -0.16654511589E+04  0.16654511589E+04  0.00000000000E+00 0. -1.
         23    2    1    2    0    0  0.42696824237E+03  0.47811969935E+03 -0.15428416735E+04  0.16732440547E+04  0.92113571887E+02 0.  0.
         11    1    3    3    0    0  0.31473808625E+03  0.37741243002E+03 -0.12653670755E+04  0.13574439366E+04  0.00000000000E+00 0.  1.
        -11    1    3    3    0    0  0.11223015612E+03  0.10070726933E+03 -0.27747459801E+03  0.31580011808E+03  0.00000000000E+00 0. -1.
         22    1    1    2    0    0 -0.42696824237E+03 -0.47811969935E+03  0.17319686951E+04  0.18467852846E+04  0.00000000000E+00 0.  1.
<mgrwt>
<rscale>  0 0.35149449E+04</rscale>
<asrwt>0</asrwt>
<pdfrwt beam="1">  1        2 0.25622326E+00 0.35149449E+04</pdfrwt>
<pdfrwt beam="2">  1       -2 0.28531972E+00 0.35149449E+04</pdfrwt>
<totfact> 0.32878182E-01</totfact>
</mgrwt>
</event>
<event>
 6    1  0.9512547E-007  0.1530707E+04  0.7818608E-02  0.8864286E-01
          2   -1    0    0  501    0  0.00000000000E+00  0.00000000000E+00  0.17527691565E+04  0.17527691565E+04  0.00000000000E+00 0. -1.
         -2   -1    0    0    0  501 -0.00000000000E+00 -0.00000000000E+00 -0.33419450814E+03  0.33419450814E+03  0.00000000000E+00 0.  1.
         23    2    1    2    0    0 -0.54882940902E+03  0.52474381563E+03  0.80803272549E+03  0.11126273614E+04  0.91940021763E+02 0.  0.
         13    1    3    3    0    0 -0.40332300914E+03  0.34167587671E+03  0.60004277255E+03  0.79966441919E+03  0.00000000000E+00 0. -1.
        -13    1    3    3    0    0 -0.14550639988E+03  0.18306793892E+03  0.20798995294E+03  0.31296294220E+03  0.00000000000E+00 0.  1.
         22    1    1    2    0    0  0.54882940902E+03 -0.52474381563E+03  0.61054192287E+03  0.97433630325E+03  0.00000000000E+00 0.  1.
<mgrwt>
<rscale>  0 0.15307068E+04</rscale>
<asrwt>0</asrwt>
<pdfrwt beam="1">  1        2 0.26965679E+00 0.15307068E+04</pdfrwt>
<pdfrwt beam="2">  1       -2 0.51414541E-01 0.15307068E+04</pdfrwt>
<totfact> 0.31576587E+01</totfact>
</mgrwt>
</event>
<event>
 6    1  0.1260841E-006  0.3193009E+04  0.7818608E-02  0.8190666E-01
         -1   -1    0    0    0  501 -0.00000000000E+00  0.00000000000E+00  0.10939474922E+04  0.10939474922E+04  0.00000000000E+00 0.  1.
          1   -1    0    0  501    0  0.00000000000E+00 -0.00000000000E+00 -0.23299350676E+04  0.23299350676E+04  0.00000000000E+00 0. -1.
         23    2    1    2    0    0 -0.11408690770E+04  0.69469598694E+02 -0.18119143387E+04  0.21439997867E+04  0.85400460309E+02 0.  0.
         13    1    3    3    0    0 -0.66436925764E+03  0.30404044124E+02 -0.11298889680E+04  0.13110911472E+04  0.00000000000E+00 0.  1.
        -13    1    3    3    0    0 -0.47649981937E+03  0.39065554571E+02 -0.68202537076E+03  0.83290863952E+03  0.00000000000E+00 0. -1.
         22    1    1    2    0    0  0.11408690770E+04 -0.69469598694E+02  0.57592676330E+03  0.12798827730E+04  0.00000000000E+00 0.  1.
<mgrwt>
<rscale>  0 0.31930090E+04</rscale>
<asrwt>0</asrwt>
<pdfrwt beam="1">  1        1 0.35845154E+00 0.31930090E+04</pdfrwt>
<pdfrwt beam="2">  1       -1 0.16829962E+00 0.31930090E+04</pdfrwt>
<totfact> 0.37632903E-01</totfact>
</mgrwt>
</event>
<event>
 6    1  0.9512547E-007  0.3039823E+04  0.7818608E-02  0.8232450E-01
         -2   -1    0    0    0  501 -0.00000000000E+00  0.00000000000E+00  0.14385163416E+04  0.14385163416E+04  0.00000000000E+00 0.  1.
          2   -1    0    0  501    0  0.00000000000E+00 -0.00000000000E+00 -0.16059124627E+04  0.16059124627E+04  0.00000000000E+00 0. -1.
         23    2    1    2    0    0 -0.10752586224E+04 -0.28818416799E+03  0.95064368177E+03  0.14666949166E+04  0.90770860130E+02 0.  0.
         11    1    3    3    0    0 -0.80065362999E+03 -0.18217401766E+03  0.66652070730E+03  0.10575837845E+04  0.00000000000E+00 0. -1.
        -11    1    3    3    0    0 -0.27460499241E+03 -0.10601015034E+03  0.28412297447E+03  0.40911113215E+03  0.00000000000E+00 0.  1.
         22    1    1    2    0    0  0.10752586224E+04  0.28818416799E+03 -0.11180398028E+04  0.15777338877E+04  0.00000000000E+00 0. -1.
<mgrwt>
<rscale>  0 0.30398232E+04</rscale>
<asrwt>0</asrwt>
<pdfrwt beam="1">  1        2 0.24706346E+00 0.30398232E+04</pdfrwt>
<pdfrwt beam="2">  1       -2 0.22131021E+00 0.30398232E+04</pdfrwt>
<totfact> 0.91569378E-01</totfact>
</mgrwt>
</event>
<event>
 6    1  0.9512547E-007  0.1354769E+04  0.7818608E-02  0.8987226E-01
         -2   -1    0    0    0  501 -0.00000000000E+00  0.00000000000E+00  0.14813036690E+04  0.14813036690E+04  0.00000000000E+00 0.  1.
          2   -1    0    0  501    0  0.00000000000E+00 -0.00000000000E+00 -0.30976080874E+03  0.30976080874E+03  0.00000000000E+00 0. -1.
         23    2    1    2    0    0  0.33962834320E+03 -0.37742214545E+03  0.11752428925E+04  0.12833159400E+04  0.88932884416E+02 0.  0.
         11    1    3    3    0    0  0.16990604209E+03 -0.17062025500E+03  0.66388195598E+03  0.70620010340E+03  0.00000000000E+00 0. -1.
        -11    1    3    3    0    0  0.16972230111E+03 -0.20680189044E+03  0.51136093654E+03  0.57711583656E+03  0.00000000000E+00 0.  1.
         22    1    1    2    0    0 -0.33962834320E+03  0.37742214545E+03 -0.37000322642E+01  0.50774853778E+03  0.00000000000E+00 0. -1.
<mgrwt>
<rscale>  0 0.13547691E+04</rscale>
<asrwt>0</asrwt>
<pdfrwt beam="1">  1        2 0.47655510E-01 0.13547691E+04</pdfrwt>
<pdfrwt beam="2">  1       -2 0.22789287E+00 0.13547691E+04</pdfrwt>
<totfact> 0.91180594E+00</totfact>
</mgrwt>
</event>
<event>
 6    1  0.9512547E-007  0.2694071E+04  0.7818608E-02  0.8336931E-01
         -2   -1    0    0    0  501 -0.00000000000E+00  0.00000000000E+00  0.96169529668E+03  0.96169529668E+03  0.00000000000E+00 0.  1.
          2   -1    0    0  501    0  0.00000000000E+00 -0.00000000000E+00 -0.18867776638E+04  0.18867776638E+04  0.00000000000E+00 0. -1.
         23    2    1    2    0    0 -0.68831260942E+03  0.95072051951E+03  0.23235576529E+03  0.12000474132E+04  0.92091464245E+02 0.  0.
         11    1    3    3    0    0 -0.31495567340E+03  0.39644446285E+03  0.59869181717E+02  0.50985253481E+03  0.00000000000E+00 0.  1.
        -11    1    3    3    0    0 -0.37335693602E+03  0.55427605666E+03  0.17248658357E+03  0.69019487840E+03  0.00000000000E+00 0. -1.
         22    1    1    2    0    0  0.68831260942E+03 -0.95072051951E+03 -0.11574381324E+04  0.16484255472E+04  0.00000000000E+00 0. -1.
<mgrwt>
<rscale>  0 0.26940714E+04</rscale>
<asrwt>0</asrwt>
<pdfrwt beam="1">  1        2 0.29027349E+00 0.26940714E+04</pdfrwt>
<pdfrwt beam="2">  1       -2 0.14795312E+00 0.26940714E+04</pdfrwt>
<totfact> 0.21064794E+00</totfact>
</mgrwt>
</event>
<event>
 6    1  0.9512547E-007  0.2385287E+04  0.7818608E-02  0.8445033E-01
         -2   -1    0    0    0  501 -0.00000000000E+00  0.00000000000E+00  0.73157672194E+03  0.73157672194E+03  0.00000000000E+00 0.  1.
          2   -1    0    0  501    0  0.00000000000E+00 -0.00000000000E+00 -0.19442913995E+04  0.19442913995E+04  0.00000000000E+00 0. -1.
         23    2    1    2    0    0  0.43715716055E+03  0.18264521637E+03 -0.18329120970E+04  0.18954128074E+04  0.92505659940E+02 0.  0.
         13    1    3    3    0    0  0.52208702083E+02  0.22331005477E+02 -0.12437535857E+03  0.13672473148E+03  0.00000000000E+00 0.  1.
        -13    1    3    3    0    0  0.38494845847E+03  0.16031421089E+03 -0.17085367384E+04  0.17586880759E+04  0.00000000000E+00 0. -1.
         22    1    1    2    0    0 -0.43715716055E+03 -0.18264521637E+03  0.62019741944E+03  0.78045531401E+03  0.00000000000E+00 0.  1.
<mgrwt>
<rscale>  0 0.23852868E+04</rscale>
<asrwt>0</asrwt>
<pdfrwt beam="1">  1        2 0.29912175E+00 0.23852868E+04</pdfrwt>
<pdfrwt beam="2">  1       -2 0.11255027E+00 0.23852868E+04</pdfrwt>
<totfact> 0.40144932E+00</totfact>
</mgrwt>
</event>
<event>
 6    1  0.9512547E-007  0.3540823E+04  0.7818608E-02  0.8104183E-01
         -1   -1    0    0    0  501 -0.00000000000E+00  0.00000000000E+00  0.17194613157E+04  0.17194613157E+04  0.00000000000E+00 0.  1.
          1   -1    0    0  501    0  0.00000000000E+00 -0.00000000000E+00 -0.18228712010E+04  0.18228712010E+04  0.00000000000E+00 0. -1.
         23    2    1    2    0    0 -0.10594906595E+04 -0.84442609833E+03  0.10865334490E+04  0.17391295243E+04  0.91873136921E+02 0.  0.
         13    1    3    3    0    0 -0.90752147631E+03 -0.76203514652E+03  0.94318816111E+03  0.15145615543E+04  0.00000000000E+00 0. -1.
        -13    1    3    3    0    0 -0.15196918314E+03 -0.82390951811E+02  0.14334528791E+03  0.22456796996E+03  0.00000000000E+00 0.  1.
         22    1    1    2    0    0  0.10594906595E+04  0.84442609833E+03 -0.11899433343E+04  0.18032029924E+04  0.00000000000E+00 0. -1.
<mgrwt>
<rscale>  0 0.35408228E+04</rscale>
<asrwt>0</asrwt>
<pdfrwt beam="1">  1        1 0.28044173E+00 0.35408228E+04</pdfrwt>
<pdfrwt beam="2">  1       -1 0.26453251E+00 0.35408228E+04</pdfrwt>
<totfact> 0.17919716E-01</totfact>
</mgrwt>
</event>
<event>
 6    1  0.9512547E-007  0.4897094E+04  0.7818608E-02  0.7844580E-01
          2   -1    0    0  501    0  0.00000000000E+00  0.00000000000E+00  0.35667963914E+04  0.35667963914E+04  0.00000000000E+00 0. -1.
         -2   -1    0    0    0  501 -0.00000000000E+00 -0.00000000000E+00 -0.16808870759E+04  0.16808870759E+04  0.00000000000E+00 0.  1.
         23    2    1    2    0    0 -0.15613487444E+03 -0.57876603516E+03  0.34863492005E+04  0.35386615107E+04  0.90256952694E+02 0.  0.
         11    1    3    3    0    0 -0.64498879394E+02 -0.24352208731E+03  0.17313146849E+04  0.17495466986E+04  0.00000000000E+00 0. -1.
        -11    1    3    3    0    0 -0.91635995045E+02 -0.33524394785E+03  0.17550345155E+04  0.17891148121E+04  0.00000000000E+00 0.  1.
         22    1    1    2    0    0  0.15613487444E+03  0.57876603516E+03 -0.16004398850E+04  0.17090219566E+04  0.00000000000E+00 0.  1.
<mgrwt>
<rscale>  0 0.48970938E+04</rscale>
<asrwt>0</asrwt>
<pdfrwt beam="1">  1        2 0.54873791E+00 0.48970938E+04</pdfrwt>
<pdfrwt beam="2">  1       -2 0.25859801E+00 0.48970938E+04</pdfrwt>
<totfact> 0.30391324E-02</totfact>
</mgrwt>
</event>
<event>
 6    1  0.9512547E-007  0.2254006E+04  0.7818608E-02  0.8496280E-01
          1   -1    0    0  501    0  0.00000000000E+00  0.00000000000E+00  0.14633161806E+04  0.14633161806E+04  0.00000000000E+00 0. -1.
         -1   -1    0    0    0  501 -0.00000000000E+00 -0.00000000000E+00 -0.86798444050E+03  0.86798444050E+03  0.00000000000E+00 0.  1.
         23    2    1    2    0    0 -0.49608720607E+02 -0.66164071066E+03 -0.64164716690E+03  0.92761038764E+03  0.92306496524E+02 0.  0.
         13    1    3    3    0    0 -0.68969996757E+02 -0.59546373017E+03 -0.55542890382E+03  0.81721183398E+03  0.00000000000E+00 0.  1.
        -13    1    3    3    0    0  0.19361276150E+02 -0.66176980489E+02 -0.86218263079E+02  0.11039855365E+03  0.00000000000E+00 0. -1.
         22    1    1    2    0    0  0.49608720607E+02  0.66164071066E+03  0.12369789071E+04  0.14036902335E+04  0.00000000000E+00 0. -1.
<mgrwt>
<rscale>  0 0.22540059E+04</rscale>
<asrwt>0</asrwt>
<pdfrwt beam="1">  1        1 0.22512557E+00 0.22540059E+04</pdfrwt>
<pdfrwt beam="2">  1       -1 0.13353607E+00 0.22540059E+04</pdfrwt>
<totfact> 0.29822262E+00</totfact>
</mgrwt>
</event>
<event>
 6    1  0.9512547E-007  0.8561989E+03  0.7818608E-02  0.9482055E-01
         -2   -1    0    0    0  501 -0.00000000000E+00  0.00000000000E+00  0.17408675505E+03  0.17408675505E+03  0.00000000000E+00 0.  1.
          2   -1    0    0  501    0  0.00000000000E+00 -0.00000000000E+00 -0.10527461280E+04  0.10527461280E+04  0.00000000000E+00 0. -1.
         23    2    1    2    0    0  0.13641346328E+03  0.48126877396E+02 -0.10153406993E+04  0.10278187773E+04  0.67600844601E+02 0.  0.
         13    1    3    3    0    0  0.37558875832E+02 -0.63117530960E+01 -0.43105718564E+03  0.43273641477E+03  0.00000000000E+00 0. -1.
        -13    1    3    3    0    0  0.98854587450E+02  0.54438630492E+02 -0.58428351363E+03  0.59508236257E+03  0.00000000000E+00 0.  1.
         22    1    1    2    0    0 -0.13641346328E+03 -0.48126877396E+02  0.13668132633E+03  0.19901410568E+03  0.00000000000E+00 0.  1.
<mgrwt>
<rscale>  0 0.85619894E+03</rscale>
<asrwt>0</asrwt>
<pdfrwt beam="1">  1        2 0.16196094E+00 0.85619894E+03</pdfrwt>
<pdfrwt beam="2">  1       -2 0.26782578E-01 0.85619894E+03</pdfrwt>
<totfact> 0.29568642E+02</totfact>
</mgrwt>
</event>
<event>
 6    1  0.9512547E-007  0.1803216E+04  0.7818608E-02  0.8704591E-01
          1   -1    0    0  501    0  0.00000000000E+00  0.00000000000E+00  0.87113795383E+03  0.87113795383E+03  0.00000000000E+00 0. -1.
         -1   -1    0    0    0  501 -0.00000000000E+00 -0.00000000000E+00 -0.93314427786E+03  0.93314427786E+03  0.00000000000E+00 0.  1.
         23    2    1    2    0    0  0.37247441411E+03  0.14537497110E+03  0.77476775389E+03  0.87688699294E+03  0.93779819465E+02 0.  0.
         13    1    3    3    0    0  0.85539678327E+02  0.72816475102E+02  0.25740222359E+03  0.28084725443E+03  0.00000000000E+00 0. -1.
        -13    1    3    3    0    0  0.28693473578E+03  0.72558495996E+02  0.51736553030E+03  0.59603973851E+03  0.00000000000E+00 0.  1.
         22    1    1    2    0    0 -0.37247441411E+03 -0.14537497110E+03 -0.83677407792E+03  0.92739523875E+03  0.00000000000E+00 0.  1.
<mgrwt>
<rscale>  0 0.18032165E+04</rscale>
<asrwt>0</asrwt>
<pdfrwt beam="1">  1        1 0.13402122E+00 0.18032165E+04</pdfrwt>
<pdfrwt beam="2">  1       -1 0.14356066E+00 0.18032165E+04</pdfrwt>
<totfact> 0.71163738E+00</totfact>
</mgrwt>
</event>
<event>
 6    1  0.9512547E-007  0.2342603E+04  0.7818608E-02  0.8461310E-01
          2   -1    0    0  501    0  0.00000000000E+00  0.00000000000E+00  0.30253206351E+04  0.30253206351E+04  0.00000000000E+00 0. -1.
         -2   -1    0    0    0  501 -0.00000000000E+00 -0.00000000000E+00 -0.45348819904E+03  0.45348819904E+03  0.00000000000E+00 0.  1.
         23    2    1    2    0    0  0.11117385051E+04  0.34091144951E+03  0.14641426174E+04  0.18728325409E+04  0.10772651541E+03 0.  0.
         11    1    3    3    0    0  0.58057743132E+03  0.14486844681E+03  0.68240830745E+03  0.90760019762E+03  0.00000000000E+00 0.  1.
        -11    1    3    3    0    0  0.53116107375E+03  0.19604300271E+03  0.78173430992E+03  0.96523234326E+03  0.00000000000E+00 0. -1.
         22    1    1    2    0    0 -0.11117385051E+04 -0.34091144951E+03  0.11076898187E+04  0.16059762933E+04  0.00000000000E+00 0.  1.
<mgrwt>
<rscale>  0 0.23426030E+04</rscale>
<asrwt>0</asrwt>
<pdfrwt beam="1">  1        2 0.46543393E+00 0.23426030E+04</pdfrwt>
<pdfrwt beam="2">  1       -2 0.69767417E-01 0.23426030E+04</pdfrwt>
<totfact> 0.28415595E+00</totfact>
</mgrwt>
</event>
<event>
 6    1  0.9512547E-007  0.2275739E+04  0.7818608E-02  0.8487549E-01
          1   -1    0    0  501    0  0.00000000000E+00  0.00000000000E+00  0.11822297956E+04  0.11822297956E+04  0.00000000000E+00 0. -1.
         -1   -1    0    0    0  501 -0.00000000000E+00 -0.00000000000E+00 -0.10951736634E+04  0.10951736634E+04  0.00000000000E+00 0.  1.
         23    2    1    2    0    0  0.28270607572E+03  0.39643405478E+03  0.10707318407E+04  0.11798149275E+04  0.91727332445E+02 0.  0.
         11    1    3    3    0    0  0.11966150109E+03  0.19962144378E+03  0.41122010092E+03  0.47251409192E+03  0.00000000000E+00 0. -1.
        -11    1    3    3    0    0  0.16304457463E+03  0.19681261100E+03  0.65951173974E+03  0.70730083558E+03  0.00000000000E+00 0.  1.
         22    1    1    2    0    0 -0.28270607572E+03 -0.39643405478E+03 -0.98367570843E+03  0.10975885315E+04  0.00000000000E+00 0.  1.
<mgrwt>
<rscale>  0 0.22757389E+04</rscale>
<asrwt>0</asrwt>
<pdfrwt beam="1">  1        1 0.18188151E+00 0.22757389E+04</pdfrwt>
<pdfrwt beam="2">  1       -1 0.16848826E+00 0.22757389E+04</pdfrwt>
<totfact> 0.25182094E+00</totfact>
</mgrwt>
</event>
<event>
 6    1  0.9512547E-007  0.1941135E+04  0.7818608E-02  0.8634648E-01
         -2   -1    0    0    0  501 -0.00000000000E+00  0.00000000000E+00  0.87546388024E+03  0.87546388024E+03  0.00000000000E+00 0.  1.
          2   -1    0    0  501    0  0.00000000000E+00 -0.00000000000E+00 -0.10760023394E+04  0.10760023394E+04  0.00000000000E+00 0. -1.
         23    2    1    2    0    0  0.60402238083E+03  0.41653254999E+03  0.53482309986E+03  0.91266930772E+03  0.92666689697E+02 0.  0.
         13    1    3    3    0    0  0.37671585742E+03  0.31295332574E+03  0.35283983501E+03  0.60361458771E+03  0.00000000000E+00 0.  1.
        -13    1    3    3    0    0  0.22730652341E+03  0.10357922424E+03  0.18198326484E+03  0.30905472001E+03  0.00000000000E+00 0. -1.
         22    1    1    2    0    0 -0.60402238083E+03 -0.41653254999E+03 -0.73536155907E+03  0.10387969120E+04  0.00000000000E+00 0. -1.
<mgrwt>
<rscale>  0 0.19411349E+04</rscale>
<asrwt>0</asrwt>
<pdfrwt beam="1">  1        2 0.16553882E+00 0.19411349E+04</pdfrwt>
<pdfrwt beam="2">  1       -2 0.13468675E+00 0.19411349E+04</pdfrwt>
<totfact> 0.83529960E+00</totfact>
</mgrwt>
</event>
<event>
 6    1  0.9512547E-007  0.1652332E+04  0.7818608E-02  0.8789028E-01
         -2   -1    0    0    0  501 -0.00000000000E+00  0.00000000000E+00  0.25623092652E+03  0.25623092652E+03  0.00000000000E+00 0.  1.
          2   -1    0    0  501    0  0.00000000000E+00 -0.00000000000E+00 -0.26638086919E+04  0.26638086919E+04  0.00000000000E+00 0. -1.
         23    2    1    2    0    0 -0.42316586814E+03  0.70425190962E+03 -0.13105552532E+04  0.15494563497E+04  0.90663134007E+02 0.  0.
         11    1    3    3    0    0 -0.31859962260E+03  0.49149724464E+03 -0.99774043863E+03  0.11569620754E+04  0.00000000000E+00 0.  1.
        -11    1    3    3    0    0 -0.10456624554E+03  0.21275466498E+03 -0.31281481457E+03  0.39249427434E+03  0.00000000000E+00 0. -1.
         22    1    1    2    0    0  0.42316586814E+03 -0.70425190962E+03 -0.10970225122E+04  0.13705832687E+04  0.00000000000E+00 0.  1.
<mgrwt>
<rscale>  0 0.16523319E+04</rscale>
<asrwt>0</asrwt>
<pdfrwt beam="1">  1        2 0.40981671E+00 0.16523319E+04</pdfrwt>
<pdfrwt beam="2">  1       -2 0.39420143E-01 0.16523319E+04</pdfrwt>
<totfact> 0.16264807E+01</totfact>
</mgrwt>
</event>
<event>
 6    1  0.1930820E-006  0.3830158E+04  0.7818608E-02  0.8039714E-01
          1   -1    0    0  501    0  0.00000000000E+00  0.00000000000E+00  0.16682715867E+04  0.16682715867E+04  0.00000000000E+00 0. -1.
         -1   -1    0    0    0  501 -0.00000000000E+00 -0.00000000000E+00 -0.21983995860E+04  0.21983995860E+04  0.00000000000E+00 0.  1.
         23    2    1    2    0    0  0.67976854537E+03 -0.12852042404E+03 -0.20667064272E+04  0.21815373383E+04  0.96056897591E+02 0.  0.
         11    1    3    3    0    0  0.49739276270E+03 -0.53362640630E+02 -0.14298945366E+04  0.15148747532E+04  0.00000000000E+00 0.  1.
        -11    1    3    3    0    0  0.18237578267E+03 -0.75157783408E+02 -0.63681189054E+03  0.66666258515E+03  0.00000000000E+00 0. -1.
         22    1    1    2    0    0 -0.67976854537E+03  0.12852042404E+03  0.15365784279E+04  0.16851338344E+04  0.00000000000E+00 0. -1.
<mgrwt>
<rscale>  0 0.38301580E+04</rscale>
<asrwt>0</asrwt>
<pdfrwt beam="1">  1        1 0.25665717E+00 0.38301580E+04</pdfrwt>
<pdfrwt beam="2">  1       -1 0.33821532E+00 0.38301580E+04</pdfrwt>
<totfact> 0.73898372E-02</totfact>
</mgrwt>
</event>
<event>
 6    1  0.9512547E-007  0.7246745E+03  0.7818608E-02  0.9675942E-01
         -2   -1    0    0    0  501 -0.00000000000E+00  0.00000000000E+00  0.62314228522E+02  0.62314228522E+02  0.00000000000E+00 0.  1.
          2   -1    0    0  501    0  0.00000000000E+00 -0.00000000000E+00 -0.21068750213E+04  0.21068750213E+04  0.00000000000E+00 0. -1.
         23    2    1    2    0    0  0.26210614069E+02  0.33344155816E+02 -0.20982285538E+04  0.21007856126E+04  0.94542567690E+02 0.  0.
         13    1    3    3    0    0  0.48678215911E+00  0.56492151605E+02 -0.17331753550E+04  0.17340958484E+04  0.00000000000E+00 0.  1.
        -13    1    3    3    0    0  0.25723831910E+02 -0.23147995789E+02 -0.36505319870E+03  0.36668976414E+03  0.00000000000E+00 0. -1.
         22    1    1    2    0    0 -0.26210614069E+02 -0.33344155816E+02  0.53667761002E+02  0.68403637242E+02  0.00000000000E+00 0.  1.
<mgrwt>
<rscale>  0 0.72467452E+03</rscale>
<asrwt>0</asrwt>
<pdfrwt beam="1">  1        2 0.32413458E+00 0.72467452E+03</pdfrwt>
<pdfrwt beam="2">  1       -2 0.95868056E-02 0.72467452E+03</pdfrwt>
<totfact> 0.44027598E+02</totfact>
</mgrwt>
</event>
<event>
 6    1  0.9512547E-007  0.2706044E+04  0.7818608E-02  0.8333047E-01
         -2   -1    0    0    0  501 -0.00000000000E+00  0.00000000000E+00  0.68031605194E+03  0.68031605194E+03  0.00000000000E+00 0.  1.
          2   -1    0    0  501    0  0.00000000000E+00 -0.00000000000E+00 -0.26909081327E+04  0.26909081327E+04  0.00000000000E+00 0. -1.
         23    2    1    2    0    0 -0.74983859857E+02  0.10250253574E+04  0.86930975780E+02  0.10354368366E+04  0.90955403357E+02 0.  0.
         13    1    3    3    0    0 -0.13005555682E+01  0.60441622171E+03  0.64204315564E+02  0.60781810984E+03  0.00000000000E+00 0. -1.
        -13    1    3    3    0    0 -0.73683304289E+02  0.42060913571E+03  0.22726660216E+02  0.42761872674E+03  0.00000000000E+00 0.  1.
         22    1    1    2    0    0  0.74983859857E+02 -0.10250253574E+04 -0.20975230566E+04  0.23357873481E+04  0.00000000000E+00 0. -1.
<mgrwt>
<rscale>  0 0.27060436E+04</rscale>
<asrwt>0</asrwt>
<pdfrwt beam="1">  1        2 0.41398586E+00 0.27060436E+04</pdfrwt>
<pdfrwt beam="2">  1       -2 0.10466401E+00 0.27060436E+04</pdfrwt>
<totfact> 0.17459981E+00</totfact>
</mgrwt>
</event>
<event>
 6    1  0.9512547E-007  0.8998357E+03  0.7818608E-02  0.9425787E-01
         -2   -1    0    0    0  501 -0.00000000000E+00  0.00000000000E+00  0.24322633672E+03  0.24322633672E+03  0.00000000000E+00 0.  1.
          2   -1    0    0  501    0  0.00000000000E+00 -0.00000000000E+00 -0.83225399312E+03  0.83225399312E+03  0.00000000000E+00 0. -1.
         23    2    1    2    0    0 -0.24559351039E+03  0.13183380590E+03 -0.71252224846E+03  0.77060783356E+03  0.91935596298E+02 0.  0.
         13    1    3    3    0    0 -0.15087414319E+03  0.29427433841E+02 -0.39085921692E+03  0.41999989095E+03  0.00000000000E+00 0. -1.
        -13    1    3    3    0    0 -0.94719367198E+02  0.10240637206E+03 -0.32166303154E+03  0.35060794261E+03  0.00000000000E+00 0.  1.
         22    1    1    2    0    0  0.24559351039E+03 -0.13183380590E+03  0.12349459206E+03  0.30487249628E+03  0.00000000000E+00 0.  1.
<mgrwt>
<rscale>  0 0.89983574E+03</rscale>
<asrwt>0</asrwt>
<pdfrwt beam="1">  1        2 0.12803908E+00 0.89983574E+03</pdfrwt>
<pdfrwt beam="2">  1       -2 0.37419437E-01 0.89983574E+03</pdfrwt>
<totfact> 0.22042396E+02</totfact>
</mgrwt>
</event>
<event>
 6    1  0.9512547E-007  0.3203744E+04  0.7818608E-02  0.8187829E-01
          1   -1    0    0  501    0  0.00000000000E+00  0.00000000000E+00  0.21378456790E+04  0.21378456790E+04  0.00000000000E+00 0. -1.
         -1   -1    0    0    0  501 -0.00000000000E+00 -0.00000000000E+00 -0.12002709941E+04  0.12002709941E+04  0.00000000000E+00 0.  1.
         23    2    1    2    0    0  0.12348290318E+04  0.10054790318E+04  0.30087700845E+03  0.16231313226E+04  0.90760646394E+02 0.  0.
         11    1    3    3    0    0  0.49230565249E+03  0.43734448364E+03  0.89177935926E+02  0.66452069727E+03  0.00000000000E+00 0.  1.
        -11    1    3    3    0    0  0.74252337931E+03  0.56813454818E+03  0.21169907253E+03  0.95861062532E+03  0.00000000000E+00 0. -1.
         22    1    1    2    0    0 -0.12348290318E+04 -0.10054790318E+04  0.63669767652E+03  0.17149853505E+04  0.00000000000E+00 0.  1.
<mgrwt>
<rscale>  0 0.32037442E+04</rscale>
<asrwt>0</asrwt>
<pdfrwt beam="1">  1        1 0.32889934E+00 0.32037442E+04</pdfrwt>
<pdfrwt beam="2">  1       -1 0.18465708E+00 0.32037442E+04</pdfrwt>
<totfact> 0.38718263E-01</totfact>
</mgrwt>
</event>
<event>
 6    1  0.9512547E-007  0.4014010E+04  0.7818608E-02  0.8001726E-01
         -2   -1    0    0    0  501 -0.00000000000E+00  0.00000000000E+00  0.23865742432E+04  0.23865742432E+04  0.00000000000E+00 0.  1.
          2   -1    0    0  501    0  0.00000000000E+00 -0.00000000000E+00 -0.16878041723E+04  0.16878041723E+04  0.00000000000E+00 0. -1.
         23    2    1    2    0    0 -0.15802089480E+04 -0.14167793337E+03 -0.89631984578E+03  0.18246129170E+04  0.93220571659E+02 0.  0.
         13    1    3    3    0    0 -0.93835358654E+03 -0.38391507238E+02 -0.52391572355E+03  0.10753925082E+04  0.00000000000E+00 0. -1.
        -13    1    3    3    0    0 -0.64185536142E+03 -0.10328642613E+03 -0.37240412223E+03  0.74922040887E+03  0.00000000000E+00 0.  1.
         22    1    1    2    0    0  0.15802089480E+04  0.14167793337E+03  0.15950899166E+04  0.22497654985E+04  0.00000000000E+00 0.  1.
<mgrwt>
<rscale>  0 0.40140104E+04</rscale>
<asrwt>0</asrwt>
<pdfrwt beam="1">  1        2 0.25966218E+00 0.40140104E+04</pdfrwt>
<pdfrwt beam="2">  1       -2 0.36716527E+00 0.40140104E+04</pdfrwt>
<totfact> 0.94985682E-02</totfact>
</mgrwt>
</event>
<event>
 6    1  0.9512547E-007  0.4497978E+04  0.7818608E-02  0.7910991E-01
         -2   -1    0    0    0  501 -0.00000000000E+00  0.00000000000E+00  0.14381701692E+04  0.14381701692E+04  0.00000000000E+00 0.  1.
          2   -1    0    0  501    0  0.00000000000E+00 -0.00000000000E+00 -0.35169350367E+04  0.35169350367E+04  0.00000000000E+00 0. -1.
         23    2    1    2    0    0  0.17320334548E+03 -0.21378878721E+04 -0.29880829622E+03  0.21678468132E+04  0.98536567283E+02 0.  0.
         13    1    3    3    0    0  0.15585270246E+03 -0.14667065588E+04 -0.23248155533E+03  0.14931730871E+04  0.00000000000E+00 0.  1.
        -13    1    3    3    0    0  0.17350643021E+02 -0.67118131326E+03 -0.66326740896E+02  0.67467372607E+03  0.00000000000E+00 0. -1.
         22    1    1    2    0    0 -0.17320334548E+03  0.21378878721E+04 -0.17799565712E+04  0.27872583927E+04  0.00000000000E+00 0.  1.
<mgrwt>
<rscale>  0 0.44979778E+04</rscale>
<asrwt>0</asrwt>
<pdfrwt beam="1">  1        2 0.54106692E+00 0.44979778E+04</pdfrwt>
<pdfrwt beam="2">  1       -2 0.22125695E+00 0.44979778E+04</pdfrwt>
<totfact> 0.58057125E-02</totfact>
</mgrwt>
</event>
<event>
 6    1  0.9512547E-007  0.1361334E+04  0.7818608E-02  0.8982293E-01
          2   -1    0    0  501    0  0.00000000000E+00  0.00000000000E+00  0.29216805909E+04  0.29216805909E+04  0.00000000000E+00 0. -1.
         -2   -1    0    0    0  501 -0.00000000000E+00 -0.00000000000E+00 -0.15857559765E+03  0.15857559765E+03  0.00000000000E+00 0.  1.
         23    2    1    2    0    0 -0.67721749931E+03  0.11214305152E+02  0.14367357651E+04  0.15909594984E+04  0.90516102065E+02 0.  0.
         13    1    3    3    0    0 -0.48879916966E+03 -0.24606481488E+02  0.10866517357E+04  0.11917810629E+04  0.00000000000E+00 0. -1.
        -13    1    3    3    0    0 -0.18841832965E+03  0.35820786640E+02  0.35008402939E+03  0.39917843546E+03  0.00000000000E+00 0.  1.
         22    1    1    2    0    0  0.67721749931E+03 -0.11214305152E+02  0.13263692282E+04  0.14892966902E+04  0.00000000000E+00 0. -1.
<mgrwt>
<rscale>  0 0.13613335E+04</rscale>
<asrwt>0</asrwt>
<pdfrwt beam="1">  1        2 0.44948928E+00 0.13613335E+04</pdfrwt>
<pdfrwt beam="2">  1       -2 0.24396248E-01 0.13613335E+04</pdfrwt>
<totfact> 0.28766815E+01</totfact>
</mgrwt>
</event>
<event>
 6    1  0.9512547E-007  0.1734530E+04  0.7818608E-02  0.8741912E-01
          2   -1    0    0  501    0  0.00000000000E+00  0.00000000000E+00  0.13834282452E+04  0.13834282452E+04  0.00000000000E+00 0. -1.
         -2   -1    0    0    0  501 -0.00000000000E+00 -0.00000000000E+00 -0.54368472287E+03  0.54368472287E+03  0.00000000000E+00 0.  1.
         23    2    1    2    0    0 -0.81158299733E+03  0.29035884720E+03  0.34056923314E+03  0.93104560452E+03  0.88787912725E+02 0.  0.
         13    1    3    3    0    0 -0.52267732958E+03  0.22703761791E+03  0.24421280075E+03  0.61998190526E+03  0.00000000000E+00 0.  1.
        -13    1    3    3    0    0 -0.28890566775E+03  0.63321229283E+02  0.96356432396E+02  0.31106369926E+03  0.00000000000E+00 0. -1.
         22    1    1    2    0    0  0.81158299733E+03 -0.29035884720E+03  0.49917428913E+03  0.99606736350E+03  0.00000000000E+00 0. -1.
<mgrwt>
<rscale>  0 0.17345303E+04</rscale>
<asrwt>0</asrwt>
<pdfrwt beam="1">  1        2 0.21283511E+00 0.17345303E+04</pdfrwt>
<pdfrwt beam="2">  1       -2 0.83643804E-01 0.17345303E+04</pdfrwt>
<totfact> 0.17543892E+01</totfact>
</mgrwt>
</event>
<event>
 6    1  0.9512547E-007  0.2461946E+04  0.7818608E-02  0.8416669E-01
         -2   -1    0    0    0  501 -0.00000000000E+00  0.00000000000E+00  0.55029074515E+03  0.55029074515E+03  0.00000000000E+00 0.  1.
          2   -1    0    0  501    0  0.00000000000E+00 -0.00000000000E+00 -0.27536248708E+04  0.27536248708E+04  0.00000000000E+00 0. -1.
         23    2    1    2    0    0 -0.74022526037E+03 -0.72377524648E+03 -0.21388765034E+03  0.10612205137E+04  0.93043045076E+02 0.  0.
         13    1    3    3    0    0 -0.19558495223E+03 -0.24810611984E+03 -0.51506025959E+02  0.32009840823E+03  0.00000000000E+00 0.  1.
        -13    1    3    3    0    0 -0.54464030814E+03 -0.47566912664E+03 -0.16238162438E+03  0.74112210547E+03  0.00000000000E+00 0. -1.
         22    1    1    2    0    0  0.74022526037E+03  0.72377524648E+03 -0.19894464753E+04  0.22426951022E+04  0.00000000000E+00 0. -1.
<mgrwt>
<rscale>  0 0.24619458E+04</rscale>
<asrwt>0</asrwt>
<pdfrwt beam="1">  1        2 0.42363459E+00 0.24619458E+04</pdfrwt>
<pdfrwt beam="2">  1       -2 0.84660115E-01 0.24619458E+04</pdfrwt>
<totfact> 0.26829940E+00</totfact>
</mgrwt>
</event>
<event>
 6    1  0.9512547E-007  0.3830920E+04  0.7818608E-02  0.8039552E-01
         -2   -1    0    0    0  501 -0.00000000000E+00  0.00000000000E+00  0.22427186712E+04  0.22427186712E+04  0.00000000000E+00 0.  1.
          2   -1    0    0  501    0  0.00000000000E+00 -0.00000000000E+00 -0.16359550851E+04  0.16359550851E+04  0.00000000000E+00 0. -1.
         23    2    1    2    0    0  0.10774545706E+04  0.14528064045E+04 -0.33214123258E+03  0.18407588761E+04  0.80750483501E+02 0.  0.
         13    1    3    3    0    0  0.49282205878E+03  0.59850222624E+03 -0.13499966969E+03  0.78695832625E+03  0.00000000000E+00 0.  1.
        -13    1    3    3    0    0  0.58463251182E+03  0.85430417831E+03 -0.19714156289E+03  0.10538005498E+04  0.00000000000E+00 0. -1.
         22    1    1    2    0    0 -0.10774545706E+04 -0.14528064045E+04  0.93890481867E+03  0.20379148803E+04  0.00000000000E+00 0.  1.
<mgrwt>
<rscale>  0 0.38309200E+04</rscale>
<asrwt>0</asrwt>
<pdfrwt beam="1">  1        2 0.25168540E+00 0.38309200E+04</pdfrwt>
<pdfrwt beam="2">  1       -2 0.34503364E+00 0.38309200E+04</pdfrwt>
<totfact> 0.14233636E-01</totfact>
</mgrwt>
</event>
<event>
 6    1  0.9512547E-007  0.2544949E+04  0.7818608E-02  0.8387145E-01
         -1   -1    0    0    0  501 -0.00000000000E+00  0.00000000000E+00  0.18884349158E+04  0.18884349158E+04  0.00000000000E+00 0.  1.
          1   -1    0    0  501    0  0.00000000000E+00 -0.00000000000E+00 -0.85742508461E+03  0.85742508461E+03  0.00000000000E+00 0. -1.
         23    2    1    2    0    0  0.10343754819E+04 -0.67379517687E+03  0.19078071248E+03  0.12525691547E+04  0.92734185272E+02 0.  0.
         11    1    3    3    0    0  0.16258732543E+03 -0.14756265718E+03  0.39564406146E+02  0.22310248411E+03  0.00000000000E+00 0. -1.
        -11    1    3    3    0    0  0.87178815647E+03 -0.52623251969E+03  0.15121630634E+03  0.10294666706E+04  0.00000000000E+00 0.  1.
         22    1    1    2    0    0 -0.10343754819E+04  0.67379517687E+03  0.84022911866E+03  0.14932908457E+04  0.00000000000E+00 0.  1.
<mgrwt>
<rscale>  0 0.25449491E+04</rscale>
<asrwt>0</asrwt>
<pdfrwt beam="1">  1        1 0.13191155E+00 0.25449491E+04</pdfrwt>
<pdfrwt beam="2">  1       -1 0.29052845E+00 0.25449491E+04</pdfrwt>
<totfact> 0.66456617E-01</totfact>
</mgrwt>
</event>
<event>
 6    1  0.9512547E-007  0.1494962E+04  0.7818608E-02  0.8887810E-01
          1   -1    0    0  501    0  0.00000000000E+00  0.00000000000E+00  0.76345574241E+03  0.76345574241E+03  0.00000000000E+00 0. -1.
         -1   -1    0    0    0  501 -0.00000000000E+00 -0.00000000000E+00 -0.73184077855E+03  0.73184077855E+03  0.00000000000E+00 0.  1.
         23    2    1    2    0    0  0.53941769619E+03  0.51249765300E+03 -0.12151678633E+02  0.74995041727E+03  0.93019727962E+02 0.  0.
         11    1    3    3    0    0  0.16969369607E+03  0.21914062115E+03  0.11386530015E+02  0.27739541343E+03  0.00000000000E+00 0. -1.
        -11    1    3    3    0    0  0.36972400011E+03  0.29335703184E+03 -0.23538208648E+02  0.47255500384E+03  0.00000000000E+00 0.  1.
         22    1    1    2    0    0 -0.53941769619E+03 -0.51249765300E+03  0.43766642491E+02  0.74534610369E+03  0.00000000000E+00 0.  1.
<mgrwt>
<rscale>  0 0.14949623E+04</rscale>
<asrwt>0</asrwt>
<pdfrwt beam="1">  1        1 0.11745473E+00 0.14949623E+04</pdfrwt>
<pdfrwt beam="2">  1       -1 0.11259089E+00 0.14949623E+04</pdfrwt>
<totfact> 0.16650268E+01</totfact>
</mgrwt>
</event>
<event>
 6    1  0.9512547E-007  0.1983111E+04  0.7818608E-02  0.8614558E-01
          1   -1    0    0  501    0  0.00000000000E+00  0.00000000000E+00  0.63166860159E+03  0.63166860159E+03  0.00000000000E+00 0. -1.
         -1   -1    0    0    0  501 -0.00000000000E+00 -0.00000000000E+00 -0.15564846816E+04  0.15564846816E+04  0.00000000000E+00 0.  1.
         23    2    1    2    0    0  0.30839365717E+03  0.73333686666E+03 -0.11126013871E+04  0.13707470626E+04  0.90421542410E+02 0.  0.
         11    1    3    3    0    0  0.68311025108E+02  0.10337510107E+03 -0.13514070528E+03  0.18334616957E+03  0.00000000000E+00 0.  1.
        -11    1    3    3    0    0  0.24008263206E+03  0.62996176559E+03 -0.97746068181E+03  0.11874008930E+04  0.00000000000E+00 0. -1.
         22    1    1    2    0    0 -0.30839365717E+03 -0.73333686666E+03  0.18778530713E+03  0.81740622053E+03  0.00000000000E+00 0. -1.
<mgrwt>
<rscale>  0 0.19831112E+04</rscale>
<asrwt>0</asrwt>
<pdfrwt beam="1">  1        1 0.97179785E-01 0.19831112E+04</pdfrwt>
<pdfrwt beam="2">  1       -1 0.23945918E+00 0.19831112E+04</pdfrwt>
<totfact> 0.24124524E+00</totfact>
</mgrwt>
</event>
<event>
 6    1  0.9512547E-007  0.1543202E+04  0.7818608E-02  0.8856222E-01
          2   -1    0    0  501    0  0.00000000000E+00  0.00000000000E+00  0.99792434764E+03  0.99792434764E+03  0.00000000000E+00 0. -1.
         -2   -1    0    0    0  501 -0.00000000000E+00 -0.00000000000E+00 -0.59660626792E+03  0.59660626792E+03  0.00000000000E+00 0.  1.
         23    2    1    2    0    0  0.12600524916E+02  0.76109952940E+03  0.31383653969E+03  0.82831635914E+03  0.90461872042E+02 0.  0.
         11    1    3    3    0    0 -0.15030393380E+01  0.54508247789E+02 -0.12125334916E+01  0.54542446239E+02  0.00000000000E+00 0.  1.
        -11    1    3    3    0    0  0.14103564254E+02  0.70659128162E+03  0.31504907318E+03  0.77377391291E+03  0.00000000000E+00 0. -1.
         22    1    1    2    0    0 -0.12600524916E+02 -0.76109952940E+03  0.87481540033E+02  0.76621425642E+03  0.00000000000E+00 0. -1.
<mgrwt>
<rscale>  0 0.15432018E+04</rscale>
<asrwt>0</asrwt>
<pdfrwt beam="1">  1        2 0.15352682E+00 0.15432018E+04</pdfrwt>
<pdfrwt beam="2">  1       -2 0.91785580E-01 0.15432018E+04</pdfrwt>
<totfact> 0.24577684E+01</totfact>
</mgrwt>
</event>
<event>
 6    1  0.9512547E-007  0.1333049E+04  0.7818608E-02  0.9003760E-01
          2   -1    0    0  501    0  0.00000000000E+00  0.00000000000E+00  0.79425809661E+03  0.79425809661E+03  0.00000000000E+00 0. -1.
         -2   -1    0    0    0  501 -0.00000000000E+00 -0.00000000000E+00 -0.55933280989E+03  0.55933280989E+03  0.00000000000E+00 0.  1.
         23    2    1    2    0    0  0.60215416299E+02  0.55164719548E+03 -0.25164738731E+03  0.61555737626E+03  0.87429693390E+02 0.  0.
         11    1    3    3    0    0 -0.81437047866E+01  0.14288904064E+03 -0.32565574142E+02  0.14677913503E+03  0.00000000000E+00 0.  1.
        -11    1    3    3    0    0  0.68359121086E+02  0.40875815484E+03 -0.21908181317E+03  0.46877824123E+03  0.00000000000E+00 0. -1.
         22    1    1    2    0    0 -0.60215416299E+02 -0.55164719548E+03  0.48657267403E+03  0.73803353024E+03  0.00000000000E+00 0. -1.
<mgrwt>
<rscale>  0 0.13330486E+04</rscale>
<asrwt>0</asrwt>
<pdfrwt beam="1">  1        2 0.12219355E+00 0.13330486E+04</pdfrwt>
<pdfrwt beam="2">  1       -2 0.86051201E-01 0.13330486E+04</pdfrwt>
<totfact> 0.39861160E+01</totfact>
</mgrwt>
</event>
<event>
 6    1  0.9512547E-007  0.2018810E+04  0.7818608E-02  0.8597877E-01
         -1   -1    0    0    0  501 -0.00000000000E+00  0.00000000000E+00  0.60611057438E+03  0.60611057438E+03  0.00000000000E+00 0.  1.
          1   -1    0    0  501    0  0.00000000000E+00 -0.00000000000E+00 -0.16810440046E+04  0.16810440046E+04  0.00000000000E+00 0. -1.
         23    2    1    2    0    0  0.78431595776E+03  0.29215934693E+01  0.17845807806E+03  0.80859097523E+03  0.82534976262E+02 0.  0.
         11    1    3    3    0    0  0.65393455045E+03  0.27765806218E+02  0.16622245942E+03  0.67530085316E+03  0.00000000000E+00 0.  1.
        -11    1    3    3    0    0  0.13038140731E+03 -0.24844212749E+02  0.12235618638E+02  0.13329012207E+03  0.00000000000E+00 0. -1.
         22    1    1    2    0    0 -0.78431595776E+03 -0.29215934693E+01 -0.12533915083E+04  0.14785636038E+04  0.00000000000E+00 0. -1.
<mgrwt>
<rscale>  0 0.20188101E+04</rscale>
<asrwt>0</asrwt>
<pdfrwt beam="1">  1        1 0.25862215E+00 0.20188101E+04</pdfrwt>
<pdfrwt beam="2">  1       -1 0.93247782E-01 0.20188101E+04</pdfrwt>
<totfact> 0.50765068E+00</totfact>
</mgrwt>
</event>
<event>
 6    1  0.9512547E-007  0.2482582E+04  0.7818608E-02  0.8409217E-01
         -2   -1    0    0    0  501 -0.00000000000E+00  0.00000000000E+00  0.55497554417E+03  0.55497554417E+03  0.00000000000E+00 0.  1.
          2   -1    0    0  501    0  0.00000000000E+00 -0.00000000000E+00 -0.27763451039E+04  0.27763451039E+04  0.00000000000E+00 0. -1.
         23    2    1    2    0    0  0.33969834424E+03 -0.73873959675E+03  0.14318331221E+03  0.83087240004E+03  0.93361273383E+02 0.  0.
         13    1    3    3    0    0  0.19904189462E+03 -0.33139988601E+03  0.48029657477E+02  0.38955154762E+03  0.00000000000E+00 0.  1.
        -13    1    3    3    0    0  0.14065644962E+03 -0.40733971074E+03  0.95153654729E+02  0.44132085241E+03  0.00000000000E+00 0. -1.
         22    1    1    2    0    0 -0.33969834424E+03  0.73873959675E+03 -0.23645528719E+04  0.25004482480E+04  0.00000000000E+00 0. -1.
<mgrwt>
<rscale>  0 0.24825822E+04</rscale>
<asrwt>0</asrwt>
<pdfrwt beam="1">  1        2 0.42713001E+00 0.24825822E+04</pdfrwt>
<pdfrwt beam="2">  1       -2 0.85380854E-01 0.24825822E+04</pdfrwt>
<totfact> 0.25456656E+00</totfact>
</mgrwt>
</event>
<event>
 6    1  0.9512547E-007  0.2697338E+04  0.7818608E-02  0.8335869E-01
          2   -1    0    0  501    0  0.00000000000E+00  0.00000000000E+00  0.97352764731E+03  0.97352764731E+03  0.00000000000E+00 0. -1.
         -2   -1    0    0    0  501 -0.00000000000E+00 -0.00000000000E+00 -0.18683675658E+04  0.18683675658E+04  0.00000000000E+00 0.  1.
         23    2    1    2    0    0 -0.80350209688E+02  0.44718504217E+03  0.88825392049E+03  0.10018261229E+04  0.90718989916E+02 0.  0.
         11    1    3    3    0    0  0.14426819280E+02  0.16146797756E+03  0.32422685854E+03  0.36249565058E+03  0.00000000000E+00 0.  1.
        -11    1    3    3    0    0 -0.94777028968E+02  0.28571706462E+03  0.56402706195E+03  0.63933047233E+03  0.00000000000E+00 0. -1.
         22    1    1    2    0    0  0.80350209688E+02 -0.44718504217E+03 -0.17830938390E+04  0.18400690902E+04  0.00000000000E+00 0.  1.
<mgrwt>
<rscale>  0 0.26973376E+04</rscale>
<asrwt>0</asrwt>
<pdfrwt beam="1">  1        2 0.14977348E+00 0.26973376E+04</pdfrwt>
<pdfrwt beam="2">  1       -2 0.28744116E+00 0.26973376E+04</pdfrwt>
<totfact> 0.87212116E-01</totfact>
</mgrwt>
</event>
<event>
 6    1  0.9512547E-007  0.3635183E+04  0.7818608E-02  0.8082480E-01
          1   -1    0    0  501    0  0.00000000000E+00  0.00000000000E+00  0.33079578862E+04  0.33079578862E+04  0.00000000000E+00 0. -1.
         -1   -1    0    0    0  501 -0.00000000000E+00 -0.00000000000E+00 -0.99869440469E+03  0.99869440469E+03  0.00000000000E+00 0.  1.
         23    2    1    2    0    0 -0.68066952935E+03  0.16759688907E+04  0.95993095699E+03  0.20499110579E+04  0.92114995231E+02 0.  0.
         11    1    3    3    0    0 -0.51551989111E+03  0.12671556985E+04  0.77008908561E+03  0.15698667211E+04  0.00000000000E+00 0. -1.
        -11    1    3    3    0    0 -0.16514963824E+03  0.40881319224E+03  0.18984187139E+03  0.48004433680E+03  0.00000000000E+00 0.  1.
         22    1    1    2    0    0  0.68066952935E+03 -0.16759688907E+04  0.13493325245E+04  0.22567412330E+04  0.00000000000E+00 0. -1.
<mgrwt>
<rscale>  0 0.36351831E+04</rscale>
<asrwt>0</asrwt>
<pdfrwt beam="1">  1        1 0.50891659E+00 0.36351831E+04</pdfrwt>
<pdfrwt beam="2">  1       -1 0.15364530E+00 0.36351831E+04</pdfrwt>
<totfact> 0.92750899E-02</totfact>
</mgrwt>
</event>
<event>
 6    1  0.9512547E-007  0.3185272E+04  0.7818608E-02  0.8192718E-01
          1   -1    0    0  501    0  0.00000000000E+00  0.00000000000E+00  0.14569953691E+04  0.14569953691E+04  0.00000000000E+00 0. -1.
         -1   -1    0    0    0  501 -0.00000000000E+00 -0.00000000000E+00 -0.17409038099E+04  0.17409038099E+04  0.00000000000E+00 0.  1.
         23    2    1    2    0    0  0.57927905342E+03 -0.12562729665E+04 -0.93247759023E+03  0.16700156986E+04  0.75179712388E+02 0.  0.
         13    1    3    3    0    0  0.30087283864E+03 -0.59801084230E+03 -0.41503471504E+03  0.78765172965E+03  0.00000000000E+00 0. -1.
        -13    1    3    3    0    0  0.27840621478E+03 -0.65826212423E+03 -0.51744287519E+03  0.88236396895E+03  0.00000000000E+00 0.  1.
         22    1    1    2    0    0 -0.57927905342E+03  0.12562729665E+04  0.64856914935E+03  0.15278834804E+04  0.00000000000E+00 0. -1.
<mgrwt>
<rscale>  0 0.31852716E+04</rscale>
<asrwt>0</asrwt>
<pdfrwt beam="1">  1        1 0.22415313E+00 0.31852716E+04</pdfrwt>
<pdfrwt beam="2">  1       -1 0.26783136E+00 0.31852716E+04</pdfrwt>
<totfact> 0.31331585E-01</totfact>
</mgrwt>
</event>
<event>
 6    1  0.9512547E-007  0.8974049E+03  0.7818608E-02  0.9428831E-01
         -1   -1    0    0    0  501 -0.00000000000E+00  0.00000000000E+00  0.29142453705E+03  0.29142453705E+03  0.00000000000E+00 0.  1.
          1   -1    0    0  501    0  0.00000000000E+00 -0.00000000000E+00 -0.69086113671E+03  0.69086113671E+03  0.00000000000E+00 0. -1.
         23    2    1    2    0    0  0.26646052219E+03  0.10747293600E+03 -0.57192971670E+03  0.64716552025E+03  0.95749505986E+02 0.  0.
         13    1    3    3    0    0  0.18171950569E+03  0.72314585433E+02 -0.28289960796E+03  0.34392377963E+03  0.00000000000E+00 0. -1.
        -13    1    3    3    0    0  0.84741016502E+02  0.35158350566E+02 -0.28903010875E+03  0.30324174062E+03  0.00000000000E+00 0.  1.
         22    1    1    2    0    0 -0.26646052219E+03 -0.10747293600E+03  0.17249311704E+03  0.33512015351E+03  0.00000000000E+00 0.  1.
<mgrwt>
<rscale>  0 0.89740490E+03</rscale>
<asrwt>0</asrwt>
<pdfrwt beam="1">  1        1 0.10628633E+00 0.89740490E+03</pdfrwt>
<pdfrwt beam="2">  1       -1 0.44834545E-01 0.89740490E+03</pdfrwt>
<totfact> 0.13805524E+02</totfact>
</mgrwt>
</event>
<event>
 6    1  0.9512547E-007  0.4614059E+04  0.7818608E-02  0.7890967E-01
         -2   -1    0    0    0  501 -0.00000000000E+00  0.00000000000E+00  0.14550122039E+04  0.14550122039E+04  0.00000000000E+00 0.  1.
          2   -1    0    0  501    0  0.00000000000E+00 -0.00000000000E+00 -0.36579655291E+04  0.36579655291E+04  0.00000000000E+00 0. -1.
         23    2    1    2    0    0 -0.87581165280E+03  0.14563380337E+04 -0.28294015325E+04  0.33017892071E+04  0.91282070972E+02 0.  0.
         11    1    3    3    0    0 -0.33191503248E+03  0.57311667272E+03 -0.11871564999E+04  0.13594009212E+04  0.00000000000E+00 0. -1.
        -11    1    3    3    0    0 -0.54389662033E+03  0.88322136099E+03 -0.16422450326E+04  0.19423882859E+04  0.00000000000E+00 0.  1.
         22    1    1    2    0    0  0.87581165280E+03 -0.14563380337E+04  0.62644820731E+03  0.18111885258E+04  0.00000000000E+00 0.  1.
<mgrwt>
<rscale>  0 0.46140587E+04</rscale>
<asrwt>0</asrwt>
<pdfrwt beam="1">  1        2 0.56276393E+00 0.46140587E+04</pdfrwt>
<pdfrwt beam="2">  1       -2 0.22384803E+00 0.46140587E+04</pdfrwt>
<totfact> 0.43859055E-02</totfact>
</mgrwt>
</event>
<event>
 6    1  0.9512547E-007  0.3968622E+04  0.7818608E-02  0.8010907E-01
          1   -1    0    0  501    0  0.00000000000E+00  0.00000000000E+00  0.22285547816E+04  0.22285547816E+04  0.00000000000E+00 0. -1.
         -1   -1    0    0    0  501 -0.00000000000E+00 -0.00000000000E+00 -0.17668354983E+04  0.17668354983E+04  0.00000000000E+00 0.  1.
         23    2    1    2    0    0 -0.15425421200E+04 -0.11258378925E+04 -0.30729154716E+03  0.19366710641E+04  0.96537885712E+02 0.  0.
         11    1    3    3    0    0 -0.55947228504E+03 -0.35523147418E+03 -0.12318925524E+03  0.67407286741E+03  0.00000000000E+00 0.  1.
        -11    1    3    3    0    0 -0.98306983492E+03 -0.77060641837E+03 -0.18410229192E+03  0.12625981967E+04  0.00000000000E+00 0. -1.
         22    1    1    2    0    0  0.15425421200E+04  0.11258378925E+04  0.76901083048E+03  0.20587192158E+04  0.00000000000E+00 0. -1.
<mgrwt>
<rscale>  0 0.39686218E+04</rscale>
<asrwt>0</asrwt>
<pdfrwt beam="1">  1        1 0.34285458E+00 0.39686218E+04</pdfrwt>
<pdfrwt beam="2">  1       -1 0.27182084E+00 0.39686218E+04</pdfrwt>
<totfact> 0.82185499E-02</totfact>
</mgrwt>
</event>
<event>
 6    1  0.9512547E-007  0.1634702E+04  0.7818608E-02  0.8799508E-01
         -1   -1    0    0    0  501 -0.00000000000E+00  0.00000000000E+00  0.41874132092E+03  0.41874132092E+03  0.00000000000E+00 0.  1.
          1   -1    0    0  501    0  0.00000000000E+00 -0.00000000000E+00 -0.15954069111E+04  0.15954069111E+04  0.00000000000E+00 0. -1.
         23    2    1    2    0    0 -0.24163383127E+03  0.77068327522E+03 -0.45695216089E+03  0.93233168594E+03  0.89985977503E+02 0.  0.
         13    1    3    3    0    0 -0.11681762962E+03  0.29288133115E+03 -0.22077753105E+03  0.38492668255E+03  0.00000000000E+00 0.  1.
        -13    1    3    3    0    0 -0.12481620165E+03  0.47780194407E+03 -0.23617462984E+03  0.54740500338E+03  0.00000000000E+00 0. -1.
         22    1    1    2    0    0  0.24163383127E+03 -0.77068327522E+03 -0.71971342931E+03  0.10818165461E+04  0.00000000000E+00 0. -1.
<mgrwt>
<rscale>  0 0.16347022E+04</rscale>
<asrwt>0</asrwt>
<pdfrwt beam="1">  1        1 0.24544721E+00 0.16347022E+04</pdfrwt>
<pdfrwt beam="2">  1       -1 0.64421742E-01 0.16347022E+04</pdfrwt>
<totfact> 0.13139793E+01</totfact>
</mgrwt>
</event>
<event>
 6    1  0.9512547E-007  0.3568583E+04  0.7818608E-02  0.8097726E-01
          1   -1    0    0  501    0  0.00000000000E+00  0.00000000000E+00  0.19188083402E+04  0.19188083402E+04  0.00000000000E+00 0. -1.
         -1   -1    0    0    0  501 -0.00000000000E+00 -0.00000000000E+00 -0.16592050276E+04  0.16592050276E+04  0.00000000000E+00 0.  1.
         23    2    1    2    0    0 -0.14695941657E+04 -0.13808071451E+03  0.11328154108E+04  0.18629994716E+04  0.93396898598E+02 0.  0.
         13    1    3    3    0    0 -0.33738465720E+03 -0.62331542009E+02  0.29495546630E+03  0.45245149479E+03  0.00000000000E+00 0.  1.
        -13    1    3    3    0    0 -0.11322095085E+04 -0.75749172496E+02  0.83785994447E+03  0.14105479768E+04  0.00000000000E+00 0. -1.
         22    1    1    2    0    0  0.14695941657E+04  0.13808071451E+03 -0.87321209824E+03  0.17150138962E+04  0.00000000000E+00 0.  1.
<mgrwt>
<rscale>  0 0.35685832E+04</rscale>
<asrwt>0</asrwt>
<pdfrwt beam="1">  1        1 0.29520128E+00 0.35685832E+04</pdfrwt>
<pdfrwt beam="2">  1       -1 0.25526231E+00 0.35685832E+04</pdfrwt>
<totfact> 0.17679447E-01</totfact>
</mgrwt>
</event>
<event>
 6    1  0.9512547E-007  0.1927375E+04  0.7818608E-02  0.8641349E-01
          2   -1    0    0  501    0  0.00000000000E+00  0.00000000000E+00  0.72653219357E+03  0.72653219357E+03  0.00000000000E+00 0. -1.
         -2   -1    0    0    0  501 -0.00000000000E+00 -0.00000000000E+00 -0.12782557889E+04  0.12782557889E+04  0.00000000000E+00 0.  1.
         23    2    1    2    0    0 -0.74726064458E+03  0.15254691746E+03 -0.88556136873E+03  0.11722516818E+04  0.91027659270E+02 0.  0.
         13    1    3    3    0    0 -0.39103859962E+03  0.12397416044E+03 -0.45216009971E+03  0.61051579391E+03  0.00000000000E+00 0. -1.
        -13    1    3    3    0    0 -0.35622204496E+03  0.28572757014E+02 -0.43340126902E+03  0.56173588789E+03  0.00000000000E+00 0.  1.
         22    1    1    2    0    0  0.74726064458E+03 -0.15254691746E+03  0.33383777341E+03  0.83253630066E+03  0.00000000000E+00 0. -1.
<mgrwt>
<rscale>  0 0.19273754E+04</rscale>
<asrwt>0</asrwt>
<pdfrwt beam="1">  1        2 0.11177418E+00 0.19273754E+04</pdfrwt>
<pdfrwt beam="2">  1       -2 0.19665473E+00 0.19273754E+04</pdfrwt>
<totfact> 0.51062215E+00</totfact>
</mgrwt>
</event>
<event>
 6    1  0.9512547E-007  0.2214060E+04  0.7818608E-02  0.8512599E-01
         -2   -1    0    0    0  501 -0.00000000000E+00  0.00000000000E+00  0.60145362480E+03  0.60145362480E+03  0.00000000000E+00 0.  1.
          2   -1    0    0  501    0  0.00000000000E+00 -0.00000000000E+00 -0.20375891518E+04  0.20375891518E+04  0.00000000000E+00 0. -1.
         23    2    1    2    0    0 -0.58781123902E+03  0.93426956327E+03 -0.78390371777E+03  0.13569398156E+04  0.91645812358E+02 0.  0.
         11    1    3    3    0    0 -0.49583374377E+03  0.77020880579E+03 -0.68939506926E+03  0.11464459287E+04  0.00000000000E+00 0.  1.
        -11    1    3    3    0    0 -0.91977495248E+02  0.16406075748E+03 -0.94508648504E+02  0.21049388689E+03  0.00000000000E+00 0. -1.
         22    1    1    2    0    0  0.58781123902E+03 -0.93426956327E+03 -0.65223180922E+03  0.12821029610E+04  0.00000000000E+00 0.  1.
<mgrwt>
<rscale>  0 0.22140600E+04</rscale>
<asrwt>0</asrwt>
<pdfrwt beam="1">  1        2 0.31347526E+00 0.22140600E+04</pdfrwt>
<pdfrwt beam="2">  1       -2 0.92531326E-01 0.22140600E+04</pdfrwt>
<totfact> 0.57600007E+00</totfact>
</mgrwt>
</event>
<event>
 6    1  0.9512547E-007  0.3299022E+04  0.7818608E-02  0.8163144E-01
          2   -1    0    0  501    0  0.00000000000E+00  0.00000000000E+00  0.29339019050E+04  0.29339019050E+04  0.00000000000E+00 0. -1.
         -2   -1    0    0    0  501 -0.00000000000E+00 -0.00000000000E+00 -0.92739532637E+03  0.92739532637E+03  0.00000000000E+00 0.  1.
         23    2    1    2    0    0  0.50587832446E+03 -0.10186971132E+04  0.24002393094E+04  0.26576851050E+04  0.92112361257E+02 0.  0.
         13    1    3    3    0    0  0.44171328467E+03 -0.83823847339E+03  0.20539217477E+04  0.22619347713E+04  0.00000000000E+00 0. -1.
        -13    1    3    3    0    0  0.64165039780E+02 -0.18045863981E+03  0.34631756178E+03  0.39575033368E+03  0.00000000000E+00 0.  1.
         22    1    1    2    0    0 -0.50587832446E+03  0.10186971132E+04 -0.39373273076E+03  0.12036121264E+04  0.00000000000E+00 0.  1.
<mgrwt>
<rscale>  0 0.32990222E+04</rscale>
<asrwt>0</asrwt>
<pdfrwt beam="1">  1        2 0.45136952E+00 0.32990222E+04</pdfrwt>
<pdfrwt beam="2">  1       -2 0.14267621E+00 0.32990222E+04</pdfrwt>
<totfact> 0.54630842E-01</totfact>
</mgrwt>
</event>
<event>
 6    1  0.9512547E-007  0.1514412E+04  0.7818608E-02  0.8874925E-01
         -2   -1    0    0    0  501 -0.00000000000E+00  0.00000000000E+00  0.25580783332E+03  0.25580783332E+03  0.00000000000E+00 0.  1.
          2   -1    0    0  501    0  0.00000000000E+00 -0.00000000000E+00 -0.22413732211E+04  0.22413732211E+04  0.00000000000E+00 0. -1.
         23    2    1    2    0    0  0.17820743141E+03  0.14617571277E+03 -0.21808961651E+04  0.21950563448E+04  0.94016200745E+02 0.  0.
         13    1    3    3    0    0  0.88282264477E+01 -0.23074977881E+01 -0.38252475771E+03  0.38263357458E+03  0.00000000000E+00 0. -1.
        -13    1    3    3    0    0  0.16937920496E+03  0.14848321056E+03 -0.17983714074E+04  0.18124227702E+04  0.00000000000E+00 0.  1.
         22    1    1    2    0    0 -0.17820743141E+03 -0.14617571277E+03  0.19533077734E+03  0.30212470967E+03  0.00000000000E+00 0.  1.
<mgrwt>
<rscale>  0 0.15144119E+04</rscale>
<asrwt>0</asrwt>
<pdfrwt beam="1">  1        2 0.34482664E+00 0.15144119E+04</pdfrwt>
<pdfrwt beam="2">  1       -2 0.39355053E-01 0.15144119E+04</pdfrwt>
<totfact> 0.28872485E+01</totfact>
</mgrwt>
</event>
<event>
 6    1  0.9512547E-007  0.1694144E+04  0.7818608E-02  0.8764711E-01
         -2   -1    0    0    0  501 -0.00000000000E+00  0.00000000000E+00  0.29122353099E+03  0.29122353099E+03  0.00000000000E+00 0.  1.
          2   -1    0    0  501    0  0.00000000000E+00 -0.00000000000E+00 -0.24638493641E+04  0.24638493641E+04  0.00000000000E+00 0. -1.
         23    2    1    2    0    0  0.41012198662E+03  0.26004858467E+03  0.36118506319E+02  0.49357408517E+03  0.80532731003E+02 0.  0.
         11    1    3    3    0    0  0.27842604703E+03  0.18733149558E+03 -0.11506638949E+02  0.33577753892E+03  0.00000000000E+00 0.  1.
        -11    1    3    3    0    0  0.13169593958E+03  0.72717089085E+02  0.47625145267E+02  0.15779654625E+03  0.00000000000E+00 0. -1.
         22    1    1    2    0    0 -0.41012198662E+03 -0.26004858467E+03 -0.22087443394E+04  0.22614988099E+04  0.00000000000E+00 0. -1.
<mgrwt>
<rscale>  0 0.16941439E+04</rscale>
<asrwt>0</asrwt>
<pdfrwt beam="1">  1        2 0.37905376E+00 0.16941439E+04</pdfrwt>
<pdfrwt beam="2">  1       -2 0.44803618E-01 0.16941439E+04</pdfrwt>
<totfact> 0.16453857E+01</totfact>
</mgrwt>
</event>
<event>
 6    1  0.9512547E-007  0.1336342E+04  0.7818608E-02  0.9001232E-01
         -2   -1    0    0    0  501 -0.00000000000E+00  0.00000000000E+00  0.19440012707E+04  0.19440012707E+04  0.00000000000E+00 0.  1.
          2   -1    0    0  501    0  0.00000000000E+00 -0.00000000000E+00 -0.22965651984E+03  0.22965651984E+03  0.00000000000E+00 0. -1.
         23    2    1    2    0    0  0.59021888732E+03  0.21342908498E+03  0.12189712094E+04  0.13740921242E+04  0.91258133978E+02 0.  0.
         13    1    3    3    0    0  0.40136844540E+03  0.16048381161E+03  0.92056327419E+03  0.10169997171E+04  0.00000000000E+00 0.  1.
        -13    1    3    3    0    0  0.18885044192E+03  0.52945273367E+02  0.29840793523E+03  0.35709240708E+03  0.00000000000E+00 0. -1.
         22    1    1    2    0    0 -0.59021888732E+03 -0.21342908498E+03  0.49537354141E+03  0.79956566634E+03  0.00000000000E+00 0. -1.
<mgrwt>
<rscale>  0 0.13363421E+04</rscale>
<asrwt>0</asrwt>
<pdfrwt beam="1">  1        2 0.35331774E-01 0.13363421E+04</pdfrwt>
<pdfrwt beam="2">  1       -2 0.29907711E+00 0.13363421E+04</pdfrwt>
<totfact> 0.46871803E+00</totfact>
</mgrwt>
</event>
<event>
 6    1  0.9512547E-007  0.1288987E+04  0.7818608E-02  0.9038344E-01
          1   -1    0    0  501    0  0.00000000000E+00  0.00000000000E+00  0.15878856609E+04  0.15878856609E+04  0.00000000000E+00 0. -1.
         -1   -1    0    0    0  501 -0.00000000000E+00 -0.00000000000E+00 -0.26158816389E+03  0.26158816389E+03  0.00000000000E+00 0.  1.
         23    2    1    2    0    0 -0.20729987856E+03  0.45350001935E+03  0.87920740337E+02  0.51447850694E+03  0.91228122384E+02 0.  0.
         11    1    3    3    0    0 -0.22107281775E+02  0.11864165109E+03 -0.46871235359E+01  0.12077475899E+03  0.00000000000E+00 0.  1.
        -11    1    3    3    0    0 -0.18519259678E+03  0.33485836826E+03  0.92607863873E+02  0.39370374795E+03  0.00000000000E+00 0. -1.
         22    1    1    2    0    0  0.20729987856E+03 -0.45350001935E+03  0.12383767566E+04  0.13349953178E+04  0.00000000000E+00 0. -1.
<mgrwt>
<rscale>  0 0.12889873E+04</rscale>
<asrwt>0</asrwt>
<pdfrwt beam="1">  1        1 0.24429009E+00 0.12889873E+04</pdfrwt>
<pdfrwt beam="2">  1       -1 0.40244334E-01 0.12889873E+04</pdfrwt>
<totfact> 0.33689086E+01</totfact>
</mgrwt>
</event>
<event>
 6    1  0.9512547E-007  0.1142460E+04  0.7818608E-02  0.9164768E-01
          2   -1    0    0  501    0  0.00000000000E+00  0.00000000000E+00  0.32532962395E+03  0.32532962395E+03  0.00000000000E+00 0. -1.
         -2   -1    0    0    0  501 -0.00000000000E+00 -0.00000000000E+00 -0.10029942346E+04  0.10029942346E+04  0.00000000000E+00 0.  1.
         23    2    1    2    0    0  0.49840857376E+03 -0.41188893895E+02 -0.65313943648E+03  0.82761524517E+03  0.90819817017E+02 0.  0.
         13    1    3    3    0    0  0.15384069759E+03  0.24526098687E+02 -0.23317241308E+03  0.28042443540E+03  0.00000000000E+00 0. -1.
        -13    1    3    3    0    0  0.34456787617E+03 -0.65714992582E+02 -0.41996702341E+03  0.54719080976E+03  0.00000000000E+00 0.  1.
         22    1    1    2    0    0 -0.49840857376E+03  0.41188893895E+02 -0.24525174202E+02  0.50070861342E+03  0.00000000000E+00 0. -1.
<mgrwt>
<rscale>  0 0.11424600E+04</rscale>
<asrwt>0</asrwt>
<pdfrwt beam="1">  1        2 0.50050711E-01 0.11424600E+04</pdfrwt>
<pdfrwt beam="2">  1       -2 0.15430681E+00 0.11424600E+04</pdfrwt>
<totfact> 0.27563455E+01</totfact>
</mgrwt>
</event>
<event>
 6    1  0.9512547E-007  0.1069634E+04  0.7818608E-02  0.9235305E-01
          1   -1    0    0  501    0  0.00000000000E+00  0.00000000000E+00  0.39894879557E+04  0.39894879557E+04  0.00000000000E+00 0. -1.
         -1   -1    0    0    0  501 -0.00000000000E+00 -0.00000000000E+00 -0.71695711727E+02  0.71695711727E+02  0.00000000000E+00 0.  1.
         23    2    1    2    0    0  0.12493452873E+03  0.49616096142E+03  0.14319872959E+04  0.15232690558E+04  0.89312174928E+02 0.  0.
         11    1    3    3    0    0  0.26586433527E+02  0.27826858847E+03  0.81357029975E+03  0.86025396158E+03  0.00000000000E+00 0. -1.
        -11    1    3    3    0    0  0.98348095203E+02  0.21789237296E+03  0.61841699618E+03  0.66301509424E+03  0.00000000000E+00 0.  1.
         22    1    1    2    0    0 -0.12493452873E+03 -0.49616096142E+03  0.24858049480E+04  0.25379146116E+04  0.00000000000E+00 0. -1.
<mgrwt>
<rscale>  0 0.10696339E+04</rscale>
<asrwt>0</asrwt>
<pdfrwt beam="1">  1        1 0.61376721E+00 0.10696339E+04</pdfrwt>
<pdfrwt beam="2">  1       -1 0.11030113E-01 0.10696339E+04</pdfrwt>
<totfact> 0.55215493E+00</totfact>
</mgrwt>
</event>
<event>
 6    1  0.9512547E-007  0.3264383E+04  0.7818608E-02  0.8172018E-01
          1   -1    0    0  501    0  0.00000000000E+00  0.00000000000E+00  0.10579892803E+04  0.10579892803E+04  0.00000000000E+00 0. -1.
         -1   -1    0    0    0  501 -0.00000000000E+00 -0.00000000000E+00 -0.25180303669E+04  0.25180303669E+04  0.00000000000E+00 0.  1.
         23    2    1    2    0    0  0.65835017269E+03 -0.13356818385E+04 -0.20678225406E+01  0.14919954241E+04  0.92602085441E+02 0.  0.
         13    1    3    3    0    0  0.11191907476E+03 -0.31401196796E+03 -0.32464566321E+01  0.33337656606E+03  0.00000000000E+00 0. -1.
        -13    1    3    3    0    0  0.54643109792E+03 -0.10216698705E+04  0.11786340915E+01  0.11586188581E+04  0.00000000000E+00 0.  1.
         22    1    1    2    0    0 -0.65835017269E+03  0.13356818385E+04 -0.14579732641E+04  0.20840242230E+04  0.00000000000E+00 0.  1.
<mgrwt>
<rscale>  0 0.32643830E+04</rscale>
<asrwt>0</asrwt>
<pdfrwt beam="1">  1        1 0.16276758E+00 0.32643830E+04</pdfrwt>
<pdfrwt beam="2">  1       -1 0.38738928E+00 0.32643830E+04</pdfrwt>
<totfact> 0.98923207E-02</totfact>
</mgrwt>
</event>
<event>
 6    1  0.9512547E-007  0.2453378E+04  0.7818608E-02  0.8419786E-01
         -2   -1    0    0    0  501 -0.00000000000E+00  0.00000000000E+00  0.13473909589E+04  0.13473909589E+04  0.00000000000E+00 0.  1.
          2   -1    0    0  501    0  0.00000000000E+00 -0.00000000000E+00 -0.11167997954E+04  0.11167997954E+04  0.00000000000E+00 0. -1.
         23    2    1    2    0    0  0.97615897371E+03 -0.49268382637E+03  0.67120853624E+03  0.12853068059E+04  0.76609342877E+02 0.  0.
         13    1    3    3    0    0  0.19843433252E+03 -0.67101696231E+02  0.12146755201E+03  0.24214290853E+03  0.00000000000E+00 0. -1.
        -13    1    3    3    0    0  0.77772464119E+03 -0.42558213014E+03  0.54974098423E+03  0.10431638974E+04  0.00000000000E+00 0.  1.
         22    1    1    2    0    0 -0.97615897371E+03  0.49268382637E+03 -0.44061737277E+03  0.11788839484E+04  0.00000000000E+00 0. -1.
<mgrwt>
<rscale>  0 0.24533780E+04</rscale>
<asrwt>0</asrwt>
<pdfrwt beam="1">  1        2 0.17181535E+00 0.24533780E+04</pdfrwt>
<pdfrwt beam="2">  1       -2 0.20729092E+00 0.24533780E+04</pdfrwt>
<totfact> 0.22702515E+00</totfact>
</mgrwt>
</event>
<event>
 6    1  0.9512547E-007  0.5594386E+04  0.7818608E-02  0.7742833E-01
         -2   -1    0    0    0  501 -0.00000000000E+00  0.00000000000E+00  0.31142445390E+04  0.31142445390E+04  0.00000000000E+00 0.  1.
          2   -1    0    0  501    0  0.00000000000E+00 -0.00000000000E+00 -0.25124198939E+04  0.25124198939E+04  0.00000000000E+00 0. -1.
         23    2    1    2    0    0 -0.54077777734E+02  0.23155843092E+04 -0.12751070115E+04  0.26454352330E+04  0.87032076065E+02 0.  0.
         11    1    3    3    0    0 -0.53304402448E+02  0.13335006995E+04 -0.77653170396E+03  0.15440424095E+04  0.00000000000E+00 0. -1.
        -11    1    3    3    0    0 -0.77337528561E+00  0.98208360962E+03 -0.49857530753E+03  0.11013928235E+04  0.00000000000E+00 0.  1.
         22    1    1    2    0    0  0.54077777734E+02 -0.23155843092E+04  0.18769316566E+04  0.29812291999E+04  0.00000000000E+00 0.  1.
<mgrwt>
<rscale>  0 0.55943864E+04</rscale>
<asrwt>0</asrwt>
<pdfrwt beam="1">  1        2 0.38652614E+00 0.55943864E+04</pdfrwt>
<pdfrwt beam="2">  1       -2 0.47911454E+00 0.55943864E+04</pdfrwt>
<totfact> 0.53594053E-03</totfact>
</mgrwt>
</event>
<event>
 6    1  0.9512547E-007  0.6015300E+03  0.7818608E-02  0.9902237E-01
          1   -1    0    0  501    0  0.00000000000E+00  0.00000000000E+00  0.67624167641E+03  0.67624167641E+03  0.00000000000E+00 0. -1.
         -1   -1    0    0    0  501 -0.00000000000E+00 -0.00000000000E+00 -0.13376811025E+03  0.13376811025E+03  0.00000000000E+00 0.  1.
         23    2    1    2    0    0 -0.10265288390E+03  0.27548277762E+03  0.29565470089E+03  0.42615053173E+03  0.88114687751E+02 0.  0.
         13    1    3    3    0    0 -0.23073540339E+02  0.11232740772E+03  0.62298416726E+02  0.13050259582E+03  0.00000000000E+00 0. -1.
        -13    1    3    3    0    0 -0.79579343563E+02  0.16315536989E+03  0.23335628417E+03  0.29564793591E+03  0.00000000000E+00 0.  1.
         22    1    1    2    0    0  0.10265288390E+03 -0.27548277762E+03  0.24681886527E+03  0.38385925492E+03  0.00000000000E+00 0. -1.
<mgrwt>
<rscale>  0 0.60152995E+03</rscale>
<asrwt>0</asrwt>
<pdfrwt beam="1">  1        1 0.10403718E+00 0.60152995E+03</pdfrwt>
<pdfrwt beam="2">  1       -1 0.20579710E-01 0.60152995E+03</pdfrwt>
<totfact> 0.56521081E+02</totfact>
</mgrwt>
</event>
<event>
 6    1  0.9512547E-007  0.2417904E+04  0.7818608E-02  0.8432831E-01
         -2   -1    0    0    0  501 -0.00000000000E+00  0.00000000000E+00  0.10600147378E+04  0.10600147378E+04  0.00000000000E+00 0.  1.
          2   -1    0    0  501    0  0.00000000000E+00 -0.00000000000E+00 -0.13788161735E+04  0.13788161735E+04  0.00000000000E+00 0. -1.
         23    2    1    2    0    0  0.32196734606E+03 -0.82347654784E+03 -0.98869395156E+03  0.13295371812E+04  0.91524802476E+02 0.  0.
         13    1    3    3    0    0  0.10451393021E+02 -0.73507466654E+02 -0.11333818565E+03  0.13549215326E+03  0.00000000000E+00 0. -1.
        -13    1    3    3    0    0  0.31151595304E+03 -0.74996908118E+03 -0.87535576591E+03  0.11940450279E+04  0.00000000000E+00 0.  1.
         22    1    1    2    0    0 -0.32196734606E+03  0.82347654784E+03  0.66989251589E+03  0.11092937301E+04  0.00000000000E+00 0.  1.
<mgrwt>
<rscale>  0 0.24179044E+04</rscale>
<asrwt>0</asrwt>
<pdfrwt beam="1">  1        2 0.21212557E+00 0.24179044E+04</pdfrwt>
<pdfrwt beam="2">  1       -2 0.16307919E+00 0.24179044E+04</pdfrwt>
<totfact> 0.31952930E+00</totfact>
</mgrwt>
</event>
<event>
 6    1  0.9512547E-007  0.2585689E+04  0.7818608E-02  0.8373079E-01
          1   -1    0    0  501    0  0.00000000000E+00  0.00000000000E+00  0.13956429946E+04  0.13956429946E+04  0.00000000000E+00 0. -1.
         -1   -1    0    0    0  501 -0.00000000000E+00 -0.00000000000E+00 -0.11976180775E+04  0.11976180775E+04  0.00000000000E+00 0.  1.
         23    2    1    2    0    0  0.61760843445E+03  0.79333870044E+03  0.91159894188E+03  0.13603724475E+04  0.93670128921E+02 0.  0.
         11    1    3    3    0    0  0.32347411381E+03  0.34108676202E+03  0.43745243599E+03  0.64213730252E+03  0.00000000000E+00 0. -1.
        -11    1    3    3    0    0  0.29413432063E+03  0.45225193842E+03  0.47414650589E+03  0.71823514494E+03  0.00000000000E+00 0.  1.
         22    1    1    2    0    0 -0.61760843445E+03 -0.79333870044E+03 -0.71357402480E+03  0.12328886246E+04  0.00000000000E+00 0.  1.
<mgrwt>
<rscale>  0 0.25856893E+04</rscale>
<asrwt>0</asrwt>
<pdfrwt beam="1">  1        1 0.21471431E+00 0.25856893E+04</pdfrwt>
<pdfrwt beam="2">  1       -1 0.18424894E+00 0.25856893E+04</pdfrwt>
<totfact> 0.13240333E+00</totfact>
</mgrwt>
</event>
<event>
 6    1  0.9512547E-007  0.7443258E+03  0.7818608E-02  0.9644295E-01
         -3   -1    0    0    0  501 -0.00000000000E+00  0.00000000000E+00  0.12615214873E+04  0.12615214873E+04  0.00000000000E+00 0.  1.
          3   -1    0    0  501    0  0.00000000000E+00 -0.00000000000E+00 -0.10979220462E+03  0.10979220462E+03  0.00000000000E+00 0. -1.
         23    2    1    2    0    0 -0.46182455540E+02 -0.24417505800E+03  0.10809342218E+04  0.11129220922E+04  0.91774251526E+02 0.  0.
         13    1    3    3    0    0 -0.70921315065E+02 -0.13961294148E+03  0.59621579957E+03  0.61643725229E+03  0.00000000000E+00 0. -1.
        -13    1    3    3    0    0  0.24738859525E+02 -0.10456211652E+03  0.48471842228E+03  0.49648483993E+03  0.00000000000E+00 0.  1.
         22    1    1    2    0    0  0.46182455540E+02  0.24417505800E+03  0.70795060824E+02  0.25839159969E+03  0.00000000000E+00 0. -1.
<mgrwt>
<rscale>  0 0.74432580E+03</rscale>
<asrwt>0</asrwt>
<pdfrwt beam="1">  1        3 0.16891109E-01 0.74432580E+03</pdfrwt>
<pdfrwt beam="2">  1       -3 0.19408022E+00 0.74432580E+03</pdfrwt>
<totfact> 0.13171378E+01</totfact>
</mgrwt>
</event>
<event>
 6    1  0.9512547E-007  0.1096758E+04  0.7818608E-02  0.9208358E-01
          2   -1    0    0  501    0  0.00000000000E+00  0.00000000000E+00  0.34208877983E+03  0.34208877983E+03  0.00000000000E+00 0. -1.
         -2   -1    0    0    0  501 -0.00000000000E+00 -0.00000000000E+00 -0.87906804661E+03  0.87906804661E+03  0.00000000000E+00 0.  1.
         23    2    1    2    0    0  0.17519550339E+03 -0.45312327114E+03  0.34342823091E+01  0.49447879093E+03  0.92104924600E+02 0.  0.
         11    1    3    3    0    0  0.19937298290E+02 -0.15834669446E+03  0.20329837127E+02  0.16088652457E+03  0.00000000000E+00 0. -1.
        -11    1    3    3    0    0  0.15525820510E+03 -0.29477657668E+03 -0.16895554818E+02  0.33359226637E+03  0.00000000000E+00 0.  1.
         22    1    1    2    0    0 -0.17519550339E+03  0.45312327114E+03 -0.54041354909E+03  0.72667803551E+03  0.00000000000E+00 0.  1.
<mgrwt>
<rscale>  0 0.10967576E+04</rscale>
<asrwt>0</asrwt>
<pdfrwt beam="1">  1        2 0.52629044E-01 0.10967576E+04</pdfrwt>
<pdfrwt beam="2">  1       -2 0.13524124E+00 0.10967576E+04</pdfrwt>
<totfact> 0.36943190E+01</totfact>
</mgrwt>
</event>
<event>
 6    1  0.9512547E-007  0.4890666E+04  0.7818608E-02  0.7845598E-01
         -2   -1    0    0    0  501 -0.00000000000E+00  0.00000000000E+00  0.21865055916E+04  0.21865055916E+04  0.00000000000E+00 0.  1.
          2   -1    0    0  501    0  0.00000000000E+00 -0.00000000000E+00 -0.27347994255E+04  0.27347994255E+04  0.00000000000E+00 0. -1.
         23    2    1    2    0    0  0.71052283230E+03  0.10036596806E+03 -0.26256616966E+04  0.27234940016E+04  0.91674472462E+02 0.  0.
         11    1    3    3    0    0  0.37014259495E+03  0.80101244763E+02 -0.15185915917E+04  0.15651013297E+04  0.00000000000E+00 0.  1.
        -11    1    3    3    0    0  0.34038023735E+03  0.20264723300E+02 -0.11070701049E+04  0.11583926718E+04  0.00000000000E+00 0. -1.
         22    1    1    2    0    0 -0.71052283230E+03 -0.10036596806E+03  0.20773678627E+04  0.21978110155E+04  0.00000000000E+00 0.  1.
<mgrwt>
<rscale>  0 0.48906663E+04</rscale>
<asrwt>0</asrwt>
<pdfrwt beam="1">  1        2 0.42073837E+00 0.48906663E+04</pdfrwt>
<pdfrwt beam="2">  1       -2 0.33638548E+00 0.48906663E+04</pdfrwt>
<totfact> 0.35206884E-02</totfact>
</mgrwt>
</event>
<event>
 6    1  0.9512547E-007  0.4576930E+04  0.7818608E-02  0.7897305E-01
          1   -1    0    0  501    0  0.00000000000E+00  0.00000000000E+00  0.24075826932E+04  0.24075826932E+04  0.00000000000E+00 0. -1.
         -1   -1    0    0    0  501 -0.00000000000E+00 -0.00000000000E+00 -0.21752405691E+04  0.21752405691E+04  0.00000000000E+00 0.  1.
         23    2    1    2    0    0  0.49067833541E+03  0.13198325133E+04 -0.16888547755E+04  0.22008659540E+04  0.94113774302E+02 0.  0.
         13    1    3    3    0    0  0.20343934412E+03  0.45515709801E+03 -0.64703178455E+03  0.81682659165E+03  0.00000000000E+00 0.  1.
        -13    1    3    3    0    0  0.28723899128E+03  0.86467541529E+03 -0.10418229910E+04  0.13840393623E+04  0.00000000000E+00 0. -1.
         22    1    1    2    0    0 -0.49067833541E+03 -0.13198325133E+04  0.19211968995E+04  0.23819573084E+04  0.00000000000E+00 0. -1.
<mgrwt>
<rscale>  0 0.45769298E+04</rscale>
<asrwt>0</asrwt>
<pdfrwt beam="1">  1        1 0.37039734E+00 0.45769298E+04</pdfrwt>
<pdfrwt beam="2">  1       -1 0.33465239E+00 0.45769298E+04</pdfrwt>
<totfact> 0.23000508E-02</totfact>
</mgrwt>
</event>
<event>
 6    1  0.9512547E-007  0.3758948E+04  0.7818608E-02  0.8055022E-01
         -2   -1    0    0    0  501 -0.00000000000E+00  0.00000000000E+00  0.15863399500E+04  0.15863399500E+04  0.00000000000E+00 0.  1.
          2   -1    0    0  501    0  0.00000000000E+00 -0.00000000000E+00 -0.22267756219E+04  0.22267756219E+04  0.00000000000E+00 0. -1.
         23    2    1    2    0    0 -0.13379615803E+04 -0.10650220927E+04  0.46789576757E+03  0.17752706740E+04  0.90808965227E+02 0.  0.
         11    1    3    3    0    0 -0.65176775068E+03 -0.50138124772E+03  0.26984357113E+03  0.86544780852E+03  0.00000000000E+00 0. -1.
        -11    1    3    3    0    0 -0.68619382965E+03 -0.56364084495E+03  0.19805219644E+03  0.90982286543E+03  0.00000000000E+00 0.  1.
         22    1    1    2    0    0  0.13379615803E+04  0.10650220927E+04 -0.11083314394E+04  0.20378448979E+04  0.00000000000E+00 0. -1.
<mgrwt>
<rscale>  0 0.37589483E+04</rscale>
<asrwt>0</asrwt>
<pdfrwt beam="1">  1        2 0.34258086E+00 0.37589483E+04</pdfrwt>
<pdfrwt beam="2">  1       -2 0.24405230E+00 0.37589483E+04</pdfrwt>
<totfact> 0.28057811E-01</totfact>
</mgrwt>
</event>
<event>
 6    1  0.9512547E-007  0.8895975E+03  0.7818608E-02  0.9438679E-01
         -1   -1    0    0    0  501 -0.00000000000E+00  0.00000000000E+00  0.10383944499E+04  0.10383944499E+04  0.00000000000E+00 0.  1.
          1   -1    0    0  501    0  0.00000000000E+00 -0.00000000000E+00 -0.19053062606E+03  0.19053062606E+03  0.00000000000E+00 0. -1.
         23    2    1    2    0    0 -0.31660809450E+03 -0.28470055867E+03  0.26951331332E+03  0.51074375719E+03  0.83226593383E+02 0.  0.
         11    1    3    3    0    0 -0.13337279506E+03 -0.76532509723E+02  0.69107035177E+02  0.16858620886E+03  0.00000000000E+00 0.  1.
        -11    1    3    3    0    0 -0.18323529944E+03 -0.20816804895E+03  0.20040627814E+03  0.34215754833E+03  0.00000000000E+00 0. -1.
         22    1    1    2    0    0  0.31660809450E+03  0.28470055867E+03  0.57835051048E+03  0.71818131874E+03  0.00000000000E+00 0.  1.
<mgrwt>
<rscale>  0 0.88959754E+03</rscale>
<asrwt>0</asrwt>
<pdfrwt beam="1">  1        1 0.29312405E-01 0.88959754E+03</pdfrwt>
<pdfrwt beam="2">  1       -1 0.15975299E+00 0.88959754E+03</pdfrwt>
<totfact> 0.46982837E+01</totfact>
</mgrwt>
</event>
<event>
 6    1  0.9512547E-007  0.2274015E+04  0.7818608E-02  0.8488238E-01
          2   -1    0    0  501    0  0.00000000000E+00  0.00000000000E+00  0.11073916966E+04  0.11073916966E+04  0.00000000000E+00 0. -1.
         -2   -1    0    0    0  501 -0.00000000000E+00 -0.00000000000E+00 -0.11674156185E+04  0.11674156185E+04  0.00000000000E+00 0.  1.
         23    2    1    2    0    0 -0.76323116791E+03  0.51875659558E+03  0.63183842055E+03  0.11214193829E+04  0.82045240250E+02 0.  0.
         13    1    3    3    0    0 -0.34389926168E+03  0.23530551271E+03  0.33493486281E+03  0.53461832069E+03  0.00000000000E+00 0.  1.
        -13    1    3    3    0    0 -0.41933190624E+03  0.28345108287E+03  0.29690355774E+03  0.58680106217E+03  0.00000000000E+00 0. -1.
         22    1    1    2    0    0  0.76323116791E+03 -0.51875659558E+03 -0.69186234245E+03  0.11533879321E+04  0.00000000000E+00 0.  1.
<mgrwt>
<rscale>  0 0.22740153E+04</rscale>
<asrwt>0</asrwt>
<pdfrwt beam="1">  1        2 0.17036795E+00 0.22740153E+04</pdfrwt>
<pdfrwt beam="2">  1       -2 0.17960240E+00 0.22740153E+04</pdfrwt>
<totfact> 0.35738926E+00</totfact>
</mgrwt>
</event>
<event>
 6    1  0.9512547E-007  0.8090527E+03  0.7818608E-02  0.9547005E-01
          1   -1    0    0  501    0  0.00000000000E+00  0.00000000000E+00  0.32773086585E+03  0.32773086585E+03  0.00000000000E+00 0. -1.
         -1   -1    0    0    0  501 -0.00000000000E+00 -0.00000000000E+00 -0.49931697125E+03  0.49931697125E+03  0.00000000000E+00 0.  1.
         23    2    1    2    0    0 -0.59018791669E+02 -0.53696571747E+02 -0.48676591881E+03  0.50192500744E+03  0.92849953122E+02 0.  0.
         13    1    3    3    0    0 -0.51235451505E+02 -0.70208086422E+02 -0.25428775095E+03  0.26873129177E+03  0.00000000000E+00 0. -1.
        -13    1    3    3    0    0 -0.77833401640E+01  0.16511514675E+02 -0.23247816785E+03  0.23319371567E+03  0.00000000000E+00 0.  1.
         22    1    1    2    0    0  0.59018791669E+02  0.53696571747E+02  0.31517981341E+03  0.32512282966E+03  0.00000000000E+00 0. -1.
<mgrwt>
<rscale>  0 0.80905274E+03</rscale>
<asrwt>0</asrwt>
<pdfrwt beam="1">  1        1 0.50420133E-01 0.80905274E+03</pdfrwt>
<pdfrwt beam="2">  1       -1 0.76817995E-01 0.80905274E+03</pdfrwt>
<totfact> 0.13438113E+02</totfact>
</mgrwt>
</event>
<event>
 6    1  0.9512547E-007  0.2223418E+04  0.7818608E-02  0.8508744E-01
         -2   -1    0    0    0  501 -0.00000000000E+00  0.00000000000E+00  0.56393971841E+03  0.56393971841E+03  0.00000000000E+00 0.  1.
          2   -1    0    0  501    0  0.00000000000E+00 -0.00000000000E+00 -0.21915402682E+04  0.21915402682E+04  0.00000000000E+00 0. -1.
         23    2    1    2    0    0 -0.10370780813E+04  0.26009655268E+03 -0.11838570227E+04  0.15978576469E+04  0.91926309769E+02 0.  0.
         13    1    3    3    0    0 -0.57290345620E+03  0.19040705663E+03 -0.65853622680E+03  0.89338859369E+03  0.00000000000E+00 0.  1.
        -13    1    3    3    0    0 -0.46417462507E+03  0.69689496051E+02 -0.52532079587E+03  0.70446905326E+03  0.00000000000E+00 0. -1.
         22    1    1    2    0    0  0.10370780813E+04 -0.26009655268E+03 -0.44374352708E+03  0.11576223396E+04  0.00000000000E+00 0.  1.
<mgrwt>
<rscale>  0 0.22234177E+04</rscale>
<asrwt>0</asrwt>
<pdfrwt beam="1">  1        2 0.33716004E+00 0.22234177E+04</pdfrwt>
<pdfrwt beam="2">  1       -2 0.86759958E-01 0.22234177E+04</pdfrwt>
<totfact> 0.54755171E+00</totfact>
</mgrwt>
</event>
<event>
 6    1  0.9512547E-007  0.7693455E+03  0.7818608E-02  0.9605480E-01
          1   -1    0    0  501    0  0.00000000000E+00  0.00000000000E+00  0.95654834852E+03  0.95654834852E+03  0.00000000000E+00 0. -1.
         -1   -1    0    0    0  501 -0.00000000000E+00 -0.00000000000E+00 -0.15469486621E+03  0.15469486621E+03  0.00000000000E+00 0.  1.
         23    2    1    2    0    0 -0.14400685787E+03  0.34494907885E+03  0.32098195527E+03  0.50217403341E+03  0.97064422467E+02 0.  0.
         11    1    3    3    0    0 -0.87040836341E+02  0.13628987454E+03  0.18920869198E+03  0.24889951027E+03  0.00000000000E+00 0. -1.
        -11    1    3    3    0    0 -0.56966021527E+02  0.20865920431E+03  0.13177326329E+03  0.25327452314E+03  0.00000000000E+00 0.  1.
         22    1    1    2    0    0  0.14400685787E+03 -0.34494907885E+03  0.48087152704E+03  0.60906918132E+03  0.00000000000E+00 0.  1.
<mgrwt>
<rscale>  0 0.76934548E+03</rscale>
<asrwt>0</asrwt>
<pdfrwt beam="1">  1        1 0.14716128E+00 0.76934548E+03</pdfrwt>
<pdfrwt beam="2">  1       -1 0.23799211E-01 0.76934548E+03</pdfrwt>
<totfact> 0.25218524E+02</totfact>
</mgrwt>
</event>
<event>
 6    1  0.9512547E-007  0.2353596E+04  0.7818608E-02  0.8457084E-01
          1   -1    0    0  501    0  0.00000000000E+00  0.00000000000E+00  0.25037827072E+04  0.25037827072E+04  0.00000000000E+00 0. -1.
         -1   -1    0    0    0  501 -0.00000000000E+00 -0.00000000000E+00 -0.55310467236E+03  0.55310467236E+03  0.00000000000E+00 0.  1.
         23    2    1    2    0    0  0.87119773242E+03  0.80221570330E+02  0.19957988897E+04  0.21808412159E+04  0.86221873651E+02 0.  0.
         13    1    3    3    0    0  0.27009335806E+03 -0.14297857426E+02  0.63348754243E+03  0.68881152517E+03  0.00000000000E+00 0. -1.
        -13    1    3    3    0    0  0.60110437436E+03  0.94519427756E+02  0.13623113473E+04  0.14920296908E+04  0.00000000000E+00 0.  1.
         22    1    1    2    0    0 -0.87119773242E+03 -0.80221570330E+02 -0.45120854880E+02  0.87604616366E+03  0.00000000000E+00 0.  1.
<mgrwt>
<rscale>  0 0.23535963E+04</rscale>
<asrwt>0</asrwt>
<pdfrwt beam="1">  1        1 0.38519733E+00 0.23535963E+04</pdfrwt>
<pdfrwt beam="2">  1       -1 0.85093028E-01 0.23535963E+04</pdfrwt>
<totfact> 0.16544776E+00</totfact>
</mgrwt>
</event>
<event>
 6    1  0.9512547E-007  0.1655349E+04  0.7818608E-02  0.8787249E-01
          2   -1    0    0  501    0  0.00000000000E+00  0.00000000000E+00  0.86271839337E+03  0.86271839337E+03  0.00000000000E+00 0. -1.
         -2   -1    0    0    0  501 -0.00000000000E+00 -0.00000000000E+00 -0.79405376977E+03  0.79405376977E+03  0.00000000000E+00 0.  1.
         23    2    1    2    0    0  0.41388153549E+03  0.61733408930E+03 -0.32430859084E+03  0.81604197425E+03  0.91373619855E+02 0.  0.
         13    1    3    3    0    0  0.13472318457E+03  0.20687691326E+03 -0.15532904799E+03  0.29167705918E+03  0.00000000000E+00 0.  1.
        -13    1    3    3    0    0  0.27915835092E+03  0.41045717604E+03 -0.16897954285E+03  0.52436491507E+03  0.00000000000E+00 0. -1.
         22    1    1    2    0    0 -0.41388153549E+03 -0.61733408930E+03  0.39297321444E+03  0.84073018889E+03  0.00000000000E+00 0. -1.
<mgrwt>
<rscale>  0 0.16553487E+04</rscale>
<asrwt>0</asrwt>
<pdfrwt beam="1">  1        2 0.13272591E+00 0.16553487E+04</pdfrwt>
<pdfrwt beam="2">  1       -2 0.12216212E+00 0.16553487E+04</pdfrwt>
<totfact> 0.15080558E+01</totfact>
</mgrwt>
</event>
<event>
 6    1  0.9512547E-007  0.1164407E+04  0.7818608E-02  0.9144594E-01
         -2   -1    0    0    0  501 -0.00000000000E+00  0.00000000000E+00  0.28423230069E+03  0.28423230069E+03  0.00000000000E+00 0.  1.
          2   -1    0    0  501    0  0.00000000000E+00 -0.00000000000E+00 -0.11925487522E+04  0.11925487522E+04  0.00000000000E+00 0. -1.
         23    2    1    2    0    0 -0.39749563783E+03  0.10636227243E+03 -0.97293450758E+03  0.10602582945E+04  0.90721441850E+02 0.  0.
         11    1    3    3    0    0 -0.10706758891E+03  0.38999174433E+02 -0.17901043350E+03  0.21220070571E+03  0.00000000000E+00 0. -1.
        -11    1    3    3    0    0 -0.29042804893E+03  0.67363098000E+02 -0.79392407409E+03  0.84805758884E+03  0.00000000000E+00 0.  1.
         22    1    1    2    0    0  0.39749563783E+03 -0.10636227243E+03  0.64618056023E+02  0.41652275839E+03  0.00000000000E+00 0.  1.
<mgrwt>
<rscale>  0 0.11644069E+04</rscale>
<asrwt>0</asrwt>
<pdfrwt beam="1">  1        2 0.18346904E+00 0.11644069E+04</pdfrwt>
<pdfrwt beam="2">  1       -2 0.43728047E-01 0.11644069E+04</pdfrwt>
<totfact> 0.93806325E+01</totfact>
</mgrwt>
</event>
<event>
 6    1  0.9512547E-007  0.4549376E+04  0.7818608E-02  0.7902049E-01
         -2   -1    0    0    0  501 -0.00000000000E+00  0.00000000000E+00  0.25638893574E+04  0.25638893574E+04  0.00000000000E+00 0.  1.
          2   -1    0    0  501    0  0.00000000000E+00 -0.00000000000E+00 -0.20181079837E+04  0.20181079837E+04  0.00000000000E+00 0. -1.
         23    2    1    2    0    0  0.11431788017E+04 -0.55635063805E+03  0.21716069763E+04  0.25180950431E+04  0.92422840407E+02 0.  0.
         11    1    3    3    0    0  0.17357703601E+03 -0.10391644492E+03  0.40538304280E+03  0.45305962780E+03  0.00000000000E+00 0. -1.
        -11    1    3    3    0    0  0.96960176572E+03 -0.45243419313E+03  0.17662239335E+04  0.20650354153E+04  0.00000000000E+00 0.  1.
         22    1    1    2    0    0 -0.11431788017E+04  0.55635063805E+03 -0.16258256027E+04  0.20639022980E+04  0.00000000000E+00 0. -1.
<mgrwt>
<rscale>  0 0.45493760E+04</rscale>
<asrwt>0</asrwt>
<pdfrwt beam="1">  1        2 0.31047815E+00 0.45493760E+04</pdfrwt>
<pdfrwt beam="2">  1       -2 0.39444452E+00 0.45493760E+04</pdfrwt>
<totfact> 0.39758835E-02</totfact>
</mgrwt>
</event>
<event>
 6    1  0.9512547E-007  0.2109816E+04  0.7818608E-02  0.8556932E-01
         -2   -1    0    0    0  501 -0.00000000000E+00  0.00000000000E+00  0.79086569543E+03  0.79086569543E+03  0.00000000000E+00 0.  1.
          2   -1    0    0  501    0  0.00000000000E+00 -0.00000000000E+00 -0.14071041770E+04  0.14071041770E+04  0.00000000000E+00 0. -1.
         23    2    1    2    0    0  0.93241290268E+03  0.35736926894E+03  0.39902641073E+02  0.10031360814E+04  0.87081349884E+02 0.  0.
         13    1    3    3    0    0  0.81134237893E+03  0.32104746856E+03  0.62266457689E+02  0.87477142424E+03  0.00000000000E+00 0. -1.
        -13    1    3    3    0    0  0.12107052374E+03  0.36321800383E+02 -0.22363816616E+02  0.12836465711E+03  0.00000000000E+00 0.  1.
         22    1    1    2    0    0 -0.93241290268E+03 -0.35736926894E+03 -0.65614112263E+03  0.11948337911E+04  0.00000000000E+00 0. -1.
<mgrwt>
<rscale>  0 0.21098156E+04</rscale>
<asrwt>0</asrwt>
<pdfrwt beam="1">  1        2 0.21647756E+00 0.21098156E+04</pdfrwt>
<pdfrwt beam="2">  1       -2 0.12167165E+00 0.21098156E+04</pdfrwt>
<totfact> 0.67731464E+00</totfact>
</mgrwt>
</event>
<event>
 6    1  0.9512547E-007  0.1737170E+04  0.7818608E-02  0.8740444E-01
          2   -1    0    0  501    0  0.00000000000E+00  0.00000000000E+00  0.29390383519E+04  0.29390383519E+04  0.00000000000E+00 0. -1.
         -2   -1    0    0    0  501 -0.00000000000E+00 -0.00000000000E+00 -0.25669627477E+03  0.25669627477E+03  0.00000000000E+00 0.  1.
         23    2    1    2    0    0 -0.92073634344E+02 -0.22900161009E+03  0.28722843609E+04  0.28842906306E+04  0.90530105829E+02 0.  0.
         13    1    3    3    0    0 -0.28291799945E+02 -0.10547012459E+03  0.17542841560E+04  0.17576795138E+04  0.00000000000E+00 0. -1.
        -13    1    3    3    0    0 -0.63781834398E+02 -0.12353148549E+03  0.11180002049E+04  0.11266111168E+04  0.00000000000E+00 0.  1.
         22    1    1    2    0    0  0.92073634344E+02  0.22900161009E+03 -0.18994228376E+03  0.31144399613E+03  0.00000000000E+00 0.  1.
<mgrwt>
<rscale>  0 0.17371703E+04</rscale>
<asrwt>0</asrwt>
<pdfrwt beam="1">  1        2 0.45215972E+00 0.17371703E+04</pdfrwt>
<pdfrwt beam="2">  1       -2 0.39491737E-01 0.17371703E+04</pdfrwt>
<totfact> 0.10978587E+01</totfact>
</mgrwt>
</event>
<event>
 6    1  0.9512547E-007  0.3985033E+04  0.7818608E-02  0.8007573E-01
         -1   -1    0    0    0  501 -0.00000000000E+00  0.00000000000E+00  0.23395347822E+04  0.23395347822E+04  0.00000000000E+00 0.  1.
          1   -1    0    0  501    0  0.00000000000E+00 -0.00000000000E+00 -0.16969707030E+04  0.16969707030E+04  0.00000000000E+00 0. -1.
         23    2    1    2    0    0  0.59378491266E+03  0.12495543579E+04  0.17724635235E+04  0.22502693950E+04  0.90104339087E+02 0.  0.
         11    1    3    3    0    0  0.36526366036E+03  0.86629178176E+03  0.11956875902E+04  0.15210351101E+04  0.00000000000E+00 0. -1.
        -11    1    3    3    0    0  0.22852125229E+03  0.38326257614E+03  0.57677593335E+03  0.72923428493E+03  0.00000000000E+00 0.  1.
         22    1    1    2    0    0 -0.59378491266E+03 -0.12495543579E+04 -0.11298994443E+04  0.17862360902E+04  0.00000000000E+00 0. -1.
<mgrwt>
<rscale>  0 0.39850330E+04</rscale>
<asrwt>0</asrwt>
<pdfrwt beam="1">  1        1 0.26107242E+00 0.39850330E+04</pdfrwt>
<pdfrwt beam="2">  1       -1 0.35992843E+00 0.39850330E+04</pdfrwt>
<totfact> 0.50056510E-02</totfact>
</mgrwt>
</event>
<event>
 6    1  0.1404972E-006  0.2756514E+04  0.7818608E-02  0.8316898E-01
          1   -1    0    0  501    0  0.00000000000E+00  0.00000000000E+00  0.25476262012E+04  0.25476262012E+04  0.00000000000E+00 0. -1.
         -1   -1    0    0    0  501 -0.00000000000E+00 -0.00000000000E+00 -0.74563226662E+03  0.74563226662E+03  0.00000000000E+00 0.  1.
         23    2    1    2    0    0  0.11714924035E+04 -0.37083156608E+03  0.16437311644E+04  0.20543244073E+04  0.92120182460E+02 0.  0.
         11    1    3    3    0    0  0.65595155932E+03 -0.18146220768E+03  0.84529350341E+03  0.10852290486E+04  0.00000000000E+00 0. -1.
        -11    1    3    3    0    0  0.51554084418E+03 -0.18936935840E+03  0.79843766096E+03  0.96909535876E+03  0.00000000000E+00 0.  1.
         22    1    1    2    0    0 -0.11714924035E+04  0.37083156608E+03  0.15826277025E+03  0.12389340605E+04  0.00000000000E+00 0.  1.
<mgrwt>
<rscale>  0 0.27565140E+04</rscale>
<asrwt>0</asrwt>
<pdfrwt beam="1">  1        1 0.39194249E+00 0.27565140E+04</pdfrwt>
<pdfrwt beam="2">  1       -1 0.11471266E+00 0.27565140E+04</pdfrwt>
<totfact> 0.75285166E-01</totfact>
</mgrwt>
</event>
<event>
 6    1  0.9512547E-007  0.2559380E+04  0.7818608E-02  0.8382131E-01
         -1   -1    0    0    0  501 -0.00000000000E+00  0.00000000000E+00  0.87726853195E+03  0.87726853195E+03  0.00000000000E+00 0.  1.
          1   -1    0    0  501    0  0.00000000000E+00 -0.00000000000E+00 -0.18667105433E+04  0.18667105433E+04  0.00000000000E+00 0. -1.
         23    2    1    2    0    0  0.37395051701E+03  0.85993843585E+03  0.43553964994E+03  0.10381344640E+04  0.93248464299E+02 0.  0.
         13    1    3    3    0    0  0.23051408647E+03  0.47659920206E+03  0.20022270132E+03  0.56601472913E+03  0.00000000000E+00 0.  1.
        -13    1    3    3    0    0  0.14343643054E+03  0.38333923380E+03  0.23531694861E+03  0.47211973489E+03  0.00000000000E+00 0. -1.
         22    1    1    2    0    0 -0.37395051701E+03 -0.85993843585E+03 -0.14249816613E+04  0.17058446112E+04  0.00000000000E+00 0. -1.
<mgrwt>
<rscale>  0 0.25593799E+04</rscale>
<asrwt>0</asrwt>
<pdfrwt beam="1">  1        1 0.28718623E+00 0.25593799E+04</pdfrwt>
<pdfrwt beam="2">  1       -1 0.13496439E+00 0.25593799E+04</pdfrwt>
<totfact> 0.14951589E+00</totfact>
</mgrwt>
</event>
<event>
 6    1  0.9512547E-007  0.6047639E+03  0.7818608E-02  0.9895572E-01
          1   -1    0    0  501    0  0.00000000000E+00  0.00000000000E+00  0.48200187508E+03  0.48200187508E+03  0.00000000000E+00 0. -1.
         -1   -1    0    0    0  501 -0.00000000000E+00 -0.00000000000E+00 -0.18969809243E+03  0.18969809243E+03  0.00000000000E+00 0.  1.
         23    2    1    2    0    0  0.13913687692E+03  0.15511870862E+02  0.43854169178E+03  0.46925191313E+03  0.90988207447E+02 0.  0.
         11    1    3    3    0    0  0.94089504969E+02  0.25569252854E+02  0.39106566137E+03  0.40303718581E+03  0.00000000000E+00 0. -1.
        -11    1    3    3    0    0  0.45047371946E+02 -0.10057381993E+02  0.47476030406E+02  0.66214727326E+02  0.00000000000E+00 0.  1.
         22    1    1    2    0    0 -0.13913687692E+03 -0.15511870862E+02 -0.14623790913E+03  0.20244805438E+03  0.00000000000E+00 0.  1.
<mgrwt>
<rscale>  0 0.60476388E+03</rscale>
<asrwt>0</asrwt>
<pdfrwt beam="1">  1        1 0.74154134E-01 0.60476388E+03</pdfrwt>
<pdfrwt beam="2">  1       -1 0.29184322E-01 0.60476388E+03</pdfrwt>
<totfact> 0.50447766E+02</totfact>
</mgrwt>
</event>
<event>
 6    1  0.9984427E-007  0.4224614E+04  0.7818608E-02  0.7960707E-01
         -2   -1    0    0    0  501 -0.00000000000E+00  0.00000000000E+00  0.17621342814E+04  0.17621342814E+04  0.00000000000E+00 0.  1.
          2   -1    0    0  501    0  0.00000000000E+00 -0.00000000000E+00 -0.25320663025E+04  0.25320663025E+04  0.00000000000E+00 0. -1.
         23    2    1    2    0    0  0.13271473792E+04  0.40497639347E+03  0.12325095604E+04  0.18579948592E+04  0.87971783447E+02 0.  0.
         13    1    3    3    0    0  0.62769681489E+03  0.21853184569E+03  0.54251363336E+03  0.85795133975E+03  0.00000000000E+00 0. -1.
        -13    1    3    3    0    0  0.69945056435E+03  0.18644454779E+03  0.68999592707E+03  0.10000435194E+04  0.00000000000E+00 0.  1.
         22    1    1    2    0    0 -0.13271473792E+04 -0.40497639347E+03 -0.20024415815E+04  0.24362057247E+04  0.00000000000E+00 0. -1.
<mgrwt>
<rscale>  0 0.42246140E+04</rscale>
<asrwt>0</asrwt>
<pdfrwt beam="1">  1        2 0.38954866E+00 0.42246140E+04</pdfrwt>
<pdfrwt beam="2">  1       -2 0.27109758E+00 0.42246140E+04</pdfrwt>
<totfact> 0.12330129E-01</totfact>
</mgrwt>
</event>
<event>
 6    1  0.9512547E-007  0.3235252E+04  0.7818608E-02  0.8179569E-01
          2   -1    0    0  501    0  0.00000000000E+00  0.00000000000E+00  0.21212190318E+04  0.21212190318E+04  0.00000000000E+00 0. -1.
         -2   -1    0    0    0  501 -0.00000000000E+00 -0.00000000000E+00 -0.12335892902E+04  0.12335892902E+04  0.00000000000E+00 0.  1.
         23    2    1    2    0    0  0.12793400699E+03  0.73839178604E+03 -0.10410387396E+04  0.12856655888E+04  0.87090809362E+02 0.  0.
         13    1    3    3    0    0  0.11482961510E+03  0.42363737254E+03 -0.62868343113E+03  0.76674462534E+03  0.00000000000E+00 0. -1.
        -13    1    3    3    0    0  0.13104391894E+02  0.31475441350E+03 -0.41235530844E+03  0.51892096345E+03  0.00000000000E+00 0.  1.
         22    1    1    2    0    0 -0.12793400699E+03 -0.73839178604E+03  0.19286684812E+04  0.20691427331E+04  0.00000000000E+00 0. -1.
<mgrwt>
<rscale>  0 0.32352515E+04</rscale>
<asrwt>0</asrwt>
<pdfrwt beam="1">  1        2 0.32634139E+00 0.32352515E+04</pdfrwt>
<pdfrwt beam="2">  1       -2 0.18978297E+00 0.32352515E+04</pdfrwt>
<totfact> 0.74660453E-01</totfact>
</mgrwt>
</event>
<event>
 6    1  0.1141812E-006  0.4903556E+04  0.7818608E-02  0.7843559E-01
          2   -1    0    0  501    0  0.00000000000E+00  0.00000000000E+00  0.19989423598E+04  0.19989423598E+04  0.00000000000E+00 0. -1.
         -2   -1    0    0    0  501 -0.00000000000E+00 -0.00000000000E+00 -0.30071979104E+04  0.30071979104E+04  0.00000000000E+00 0.  1.
         23    2    1    2    0    0 -0.23594306946E+03  0.82489574036E+03 -0.28481887486E+04  0.29759983325E+04  0.90911016309E+02 0.  0.
         13    1    3    3    0    0 -0.16182251918E+03  0.51042033925E+03 -0.16302994591E+04  0.17159812868E+04  0.00000000000E+00 0. -1.
        -13    1    3    3    0    0 -0.74120550286E+02  0.31447540112E+03 -0.12178892895E+04  0.12600170456E+04  0.00000000000E+00 0.  1.
         22    1    1    2    0    0  0.23594306946E+03 -0.82489574036E+03  0.18399331979E+04  0.20301419377E+04  0.00000000000E+00 0. -1.
<mgrwt>
<rscale>  0 0.49035560E+04</rscale>
<asrwt>0</asrwt>
<pdfrwt beam="1">  1        2 0.30752959E+00 0.49035560E+04</pdfrwt>
<pdfrwt beam="2">  1       -2 0.46264583E+00 0.49035560E+04</pdfrwt>
<totfact> 0.14105896E-02</totfact>
</mgrwt>
</event>
<event>
 6    1  0.9512547E-007  0.2390784E+04  0.7818608E-02  0.8442962E-01
         -1   -1    0    0    0  501 -0.00000000000E+00  0.00000000000E+00  0.10814221379E+04  0.10814221379E+04  0.00000000000E+00 0.  1.
          1   -1    0    0  501    0  0.00000000000E+00 -0.00000000000E+00 -0.13213732914E+04  0.13213732914E+04  0.00000000000E+00 0. -1.
         23    2    1    2    0    0 -0.57429228706E+03 -0.76034491020E+03 -0.84254607495E+03  0.12753839460E+04  0.93724638018E+02 0.  0.
         11    1    3    3    0    0 -0.41604985213E+03 -0.57781919555E+03 -0.67728341029E+03  0.98269289203E+03  0.00000000000E+00 0.  1.
        -11    1    3    3    0    0 -0.15824243493E+03 -0.18252571466E+03 -0.16526266467E+03  0.29269105394E+03  0.00000000000E+00 0. -1.
         22    1    1    2    0    0  0.57429228706E+03  0.76034491020E+03  0.60259492137E+03  0.11274114833E+04  0.00000000000E+00 0.  1.
<mgrwt>
<rscale>  0 0.23907842E+04</rscale>
<asrwt>0</asrwt>
<pdfrwt beam="1">  1        1 0.20328820E+00 0.23907842E+04</pdfrwt>
<pdfrwt beam="2">  1       -1 0.16637264E+00 0.23907842E+04</pdfrwt>
<totfact> 0.20502066E+00</totfact>
</mgrwt>
</event>
<event>
 6    1  0.9512547E-007  0.1063772E+04  0.7818608E-02  0.9241240E-01
         -2   -1    0    0    0  501 -0.00000000000E+00  0.00000000000E+00  0.28940698577E+03  0.28940698577E+03  0.00000000000E+00 0.  1.
          2   -1    0    0  501    0  0.00000000000E+00 -0.00000000000E+00 -0.97752555225E+03  0.97752555225E+03  0.00000000000E+00 0. -1.
         23    2    1    2    0    0 -0.76865710183E+02  0.49839812101E+03 -0.16139609992E+03  0.53772366450E+03  0.93749740630E+02 0.  0.
         13    1    3    3    0    0 -0.33964528732E+02  0.19381063848E+03 -0.15759488782E+02  0.19739431169E+03  0.00000000000E+00 0.  1.
        -13    1    3    3    0    0 -0.42901181451E+02  0.30458748253E+03 -0.14563661113E+03  0.34032935281E+03  0.00000000000E+00 0. -1.
         22    1    1    2    0    0  0.76865710183E+02 -0.49839812101E+03 -0.52672246657E+03  0.72920887352E+03  0.00000000000E+00 0. -1.
<mgrwt>
<rscale>  0 0.10637720E+04</rscale>
<asrwt>0</asrwt>
<pdfrwt beam="1">  1        2 0.15038855E+00 0.10637720E+04</pdfrwt>
<pdfrwt beam="2">  1       -2 0.44524152E-01 0.10637720E+04</pdfrwt>
<totfact> 0.12390976E+02</totfact>
</mgrwt>
</event>
<event>
 6    1  0.1297075E-006  0.3319876E+04  0.7818608E-02  0.8157856E-01
         -2   -1    0    0    0  501 -0.00000000000E+00  0.00000000000E+00  0.10247597608E+04  0.10247597608E+04  0.00000000000E+00 0.  1.
          2   -1    0    0  501    0  0.00000000000E+00 -0.00000000000E+00 -0.26888198977E+04  0.26888198977E+04  0.00000000000E+00 0. -1.
         23    2    1    2    0    0 -0.16046790500E+04 -0.33306895250E+03 -0.11183674857E+04  0.19862376976E+04  0.92003139783E+02 0.  0.
         11    1    3    3    0    0 -0.11768982553E+04 -0.28550444198E+03 -0.82198610900E+03  0.14636473117E+04  0.00000000000E+00 0.  1.
        -11    1    3    3    0    0 -0.42778079463E+03 -0.47564510510E+02 -0.29638137669E+03  0.52259038583E+03  0.00000000000E+00 0. -1.
         22    1    1    2    0    0  0.16046790500E+04  0.33306895250E+03 -0.54569265119E+03  0.17273419609E+04  0.00000000000E+00 0.  1.
<mgrwt>
<rscale>  0 0.33198762E+04</rscale>
<asrwt>0</asrwt>
<pdfrwt beam="1">  1        2 0.41366459E+00 0.33198762E+04</pdfrwt>
<pdfrwt beam="2">  1       -2 0.15765535E+00 0.33198762E+04</pdfrwt>
<totfact> 0.58937908E-01</totfact>
</mgrwt>
</event>
<event>
 6    1  0.9512547E-007  0.6824796E+03  0.7818608E-02  0.9747673E-01
         -2   -1    0    0    0  501 -0.00000000000E+00  0.00000000000E+00  0.98983197099E+02  0.98983197099E+02  0.00000000000E+00 0.  1.
          2   -1    0    0  501    0  0.00000000000E+00 -0.00000000000E+00 -0.11764077648E+04  0.11764077648E+04  0.00000000000E+00 0. -1.
         23    2    1    2    0    0 -0.61291508388E+02 -0.17228416958E+03 -0.10732879923E+04  0.10924822542E+04  0.90176921839E+02 0.  0.
         13    1    3    3    0    0 -0.16433875179E+02 -0.15300275324E+03 -0.76128106002E+03  0.77667803310E+03  0.00000000000E+00 0. -1.
        -13    1    3    3    0    0 -0.44857633209E+02 -0.19281416343E+02 -0.31200693230E+03  0.31580422112E+03  0.00000000000E+00 0.  1.
         22    1    1    2    0    0  0.61291508388E+02  0.17228416958E+03 -0.41365753810E+01  0.18290870768E+03  0.00000000000E+00 0.  1.
<mgrwt>
<rscale>  0 0.68247960E+03</rscale>
<asrwt>0</asrwt>
<pdfrwt beam="1">  1        2 0.18098582E+00 0.68247960E+03</pdfrwt>
<pdfrwt beam="2">  1       -2 0.15228184E-01 0.68247960E+03</pdfrwt>
<totfact> 0.67470021E+02</totfact>
</mgrwt>
</event>
<event>
 6    1  0.9512547E-007  0.2264554E+04  0.7818608E-02  0.8492029E-01
          1   -1    0    0  501    0  0.00000000000E+00  0.00000000000E+00  0.17282244127E+04  0.17282244127E+04  0.00000000000E+00 0. -1.
         -1   -1    0    0    0  501 -0.00000000000E+00 -0.00000000000E+00 -0.74183159946E+03  0.74183159946E+03  0.00000000000E+00 0.  1.
         23    2    1    2    0    0 -0.13552202166E+03  0.10412239163E+04  0.95105493746E+03  0.14194551233E+04  0.88509269839E+02 0.  0.
         11    1    3    3    0    0 -0.44984698665E+02  0.65286824118E+03  0.61296724321E+03  0.89665456264E+03  0.00000000000E+00 0. -1.
        -11    1    3    3    0    0 -0.90537322995E+02  0.38835567510E+03  0.33808769425E+03  0.52280056068E+03  0.00000000000E+00 0.  1.
         22    1    1    2    0    0  0.13552202166E+03 -0.10412239163E+04  0.35337875779E+02  0.10506008888E+04  0.00000000000E+00 0.  1.
<mgrwt>
<rscale>  0 0.22645542E+04</rscale>
<asrwt>0</asrwt>
<pdfrwt beam="1">  1        1 0.26588068E+00 0.22645542E+04</pdfrwt>
<pdfrwt beam="2">  1       -1 0.11412794E+00 0.22645542E+04</pdfrwt>
<totfact> 0.28893902E+00</totfact>
</mgrwt>
</event>
<event>
 6    1  0.9512547E-007  0.3316952E+04  0.7818608E-02  0.8158595E-01
          1   -1    0    0  501    0  0.00000000000E+00  0.00000000000E+00  0.15175767376E+04  0.15175767376E+04  0.00000000000E+00 0. -1.
         -1   -1    0    0    0  501 -0.00000000000E+00 -0.00000000000E+00 -0.18124568460E+04  0.18124568460E+04  0.00000000000E+00 0.  1.
         23    2    1    2    0    0 -0.23980090281E+02 -0.12426536349E+04  0.95292062520E+03  0.15688493876E+04  0.92019465718E+02 0.  0.
         11    1    3    3    0    0  0.30128177065E+02 -0.46376303636E+03  0.32890393249E+03  0.56935196298E+03  0.00000000000E+00 0. -1.
        -11    1    3    3    0    0 -0.54108267346E+02 -0.77889059856E+03  0.62401669271E+03  0.99949742466E+03  0.00000000000E+00 0.  1.
         22    1    1    2    0    0  0.23980090281E+02  0.12426536349E+04 -0.12478007336E+04  0.17611841959E+04  0.00000000000E+00 0.  1.
<mgrwt>
<rscale>  0 0.33169518E+04</rscale>
<asrwt>0</asrwt>
<pdfrwt beam="1">  1        1 0.23347334E+00 0.33169518E+04</pdfrwt>
<pdfrwt beam="2">  1       -1 0.27883951E+00 0.33169518E+04</pdfrwt>
<totfact> 0.23860410E-01</totfact>
</mgrwt>
</event>
<event>
 6    1  0.9512547E-007  0.1170810E+04  0.7818608E-02  0.9138797E-01
          2   -1    0    0  501    0  0.00000000000E+00  0.00000000000E+00  0.13830918144E+04  0.13830918144E+04  0.00000000000E+00 0. -1.
         -2   -1    0    0    0  501 -0.00000000000E+00 -0.00000000000E+00 -0.24777742132E+03  0.24777742132E+03  0.00000000000E+00 0.  1.
         23    2    1    2    0    0  0.27297464179E+03  0.23827866038E+03  0.12052137676E+04  0.12618464754E+04  0.91784676701E+02 0.  0.
         13    1    3    3    0    0  0.18826774015E+03  0.21000029162E+03  0.84953845933E+03  0.89513153130E+03  0.00000000000E+00 0. -1.
        -13    1    3    3    0    0  0.84706901636E+02  0.28278368757E+02  0.35567530827E+03  0.36671494412E+03  0.00000000000E+00 0.  1.
         22    1    1    2    0    0 -0.27297464179E+03 -0.23827866038E+03 -0.69899374519E+02  0.36902276029E+03  0.00000000000E+00 0.  1.
<mgrwt>
<rscale>  0 0.11708098E+04</rscale>
<asrwt>0</asrwt>
<pdfrwt beam="1">  1        2 0.21278335E+00 0.11708098E+04</pdfrwt>
<pdfrwt beam="2">  1       -2 0.38119604E-01 0.11708098E+04</pdfrwt>
<totfact> 0.94978079E+01</totfact>
</mgrwt>
</event>
<event>
 6    1  0.9512547E-007  0.9315971E+03  0.7818608E-02  0.9386923E-01
         -2   -1    0    0    0  501 -0.00000000000E+00  0.00000000000E+00  0.10148789432E+03  0.10148789432E+03  0.00000000000E+00 0.  1.
          2   -1    0    0  501    0  0.00000000000E+00 -0.00000000000E+00 -0.21378734701E+04  0.21378734701E+04  0.00000000000E+00 0. -1.
         23    2    1    2    0    0 -0.51090684195E+02 -0.45219887950E+03 -0.12141139863E+04  0.12995610391E+04  0.87704264044E+02 0.  0.
         11    1    3    3    0    0 -0.21628480831E+02 -0.20748453801E+03 -0.43589347549E+03  0.48323984384E+03  0.00000000000E+00 0.  1.
        -11    1    3    3    0    0 -0.29462203364E+02 -0.24471434150E+03 -0.77822051084E+03  0.81632119528E+03  0.00000000000E+00 0. -1.
         22    1    1    2    0    0  0.51090684195E+02  0.45219887950E+03 -0.82227158944E+03  0.93980032530E+03  0.00000000000E+00 0. -1.
<mgrwt>
<rscale>  0 0.93159707E+03</rscale>
<asrwt>0</asrwt>
<pdfrwt beam="1">  1        2 0.32890361E+00 0.93159707E+03</pdfrwt>
<pdfrwt beam="2">  1       -2 0.15613522E-01 0.93159707E+03</pdfrwt>
<totfact> 0.18532414E+02</totfact>
</mgrwt>
</event>
<event>
 6    1  0.9512547E-007  0.2344017E+04  0.7818608E-02  0.8460765E-01
         -1   -1    0    0    0  501 -0.00000000000E+00  0.00000000000E+00  0.10846047903E+04  0.10846047903E+04  0.00000000000E+00 0.  1.
          1   -1    0    0  501    0  0.00000000000E+00 -0.00000000000E+00 -0.12664556350E+04  0.12664556350E+04  0.00000000000E+00 0. -1.
         23    2    1    2    0    0  0.11450590391E+04 -0.15093489922E+03 -0.28005898497E+03  0.11919286875E+04  0.91210823223E+02 0.  0.
         13    1    3    3    0    0  0.57475470201E+03 -0.40993672176E+02 -0.10875381663E+03  0.58638796139E+03  0.00000000000E+00 0.  1.
        -13    1    3    3    0    0  0.57030433707E+03 -0.10994122704E+03 -0.17130516833E+03  0.60554072611E+03  0.00000000000E+00 0. -1.
         22    1    1    2    0    0 -0.11450590391E+04  0.15093489922E+03  0.98208140199E+02  0.11591317378E+04  0.00000000000E+00 0.  1.
<mgrwt>
<rscale>  0 0.23440169E+04</rscale>
<asrwt>0</asrwt>
<pdfrwt beam="1">  1        1 0.19483933E+00 0.23440169E+04</pdfrwt>
<pdfrwt beam="2">  1       -1 0.16686228E+00 0.23440169E+04</pdfrwt>
<totfact> 0.22349584E+00</totfact>
</mgrwt>
</event>
<event>
 6    1  0.9512547E-007  0.3958268E+04  0.7818608E-02  0.8013019E-01
          2   -1    0    0  501    0  0.00000000000E+00  0.00000000000E+00  0.29494593517E+04  0.29494593517E+04  0.00000000000E+00 0. -1.
         -2   -1    0    0    0  501 -0.00000000000E+00 -0.00000000000E+00 -0.13280302807E+04  0.13280302807E+04  0.00000000000E+00 0.  1.
         23    2    1    2    0    0 -0.76424456043E+03 -0.78043590988E+03  0.25933016000E+04  0.28154068132E+04  0.90290516548E+02 0.  0.
         11    1    3    3    0    0 -0.17822705862E+03 -0.23093521314E+03  0.63928841591E+03  0.70269882297E+03  0.00000000000E+00 0.  1.
        -11    1    3    3    0    0 -0.58601750181E+03 -0.54950069674E+03  0.19540131841E+04  0.21127079902E+04  0.00000000000E+00 0. -1.
         22    1    1    2    0    0  0.76424456043E+03  0.78043590988E+03 -0.97187252901E+03  0.14620828192E+04  0.00000000000E+00 0.  1.
<mgrwt>
<rscale>  0 0.39582680E+04</rscale>
<asrwt>0</asrwt>
<pdfrwt beam="1">  1        2 0.45376297E+00 0.39582680E+04</pdfrwt>
<pdfrwt beam="2">  1       -2 0.20431235E+00 0.39582680E+04</pdfrwt>
<totfact> 0.18462380E-01</totfact>
</mgrwt>
</event>
<event>
 6    1  0.9512547E-007  0.2391584E+04  0.7818608E-02  0.8442661E-01
          2   -1    0    0  501    0  0.00000000000E+00  0.00000000000E+00  0.25024471823E+04  0.25024471823E+04  0.00000000000E+00 0. -1.
         -2   -1    0    0    0  501 -0.00000000000E+00 -0.00000000000E+00 -0.57140805362E+03  0.57140805362E+03  0.00000000000E+00 0.  1.
         23    2    1    2    0    0  0.38283407642E+03  0.36280489785E+03  0.23438078678E+04  0.24041035237E+04  0.89939466014E+02 0.  0.
         11    1    3    3    0    0  0.59112561706E+02  0.65194801219E+02  0.56126876612E+03  0.56812611705E+03  0.00000000000E+00 0. -1.
        -11    1    3    3    0    0  0.32372151472E+03  0.29761009663E+03  0.17825391017E+04  0.18359774067E+04  0.00000000000E+00 0.  1.
         22    1    1    2    0    0 -0.38283407642E+03 -0.36280489785E+03 -0.41276873914E+03  0.66975171219E+03  0.00000000000E+00 0.  1.
<mgrwt>
<rscale>  0 0.23915840E+04</rscale>
<asrwt>0</asrwt>
<pdfrwt beam="1">  1        2 0.38499187E+00 0.23915840E+04</pdfrwt>
<pdfrwt beam="2">  1       -2 0.87908933E-01 0.23915840E+04</pdfrwt>
<totfact> 0.34828723E+00</totfact>
</mgrwt>
</event>
<event>
 6    1  0.9512547E-007  0.2621804E+04  0.7818608E-02  0.8360832E-01
         -2   -1    0    0    0  501 -0.00000000000E+00  0.00000000000E+00  0.65606225043E+03  0.65606225043E+03  0.00000000000E+00 0.  1.
          2   -1    0    0  501    0  0.00000000000E+00 -0.00000000000E+00 -0.26193608271E+04  0.26193608271E+04  0.00000000000E+00 0. -1.
         23    2    1    2    0    0 -0.95921748970E+03  0.17101231075E+03  0.10991803165E+03  0.98466545001E+03  0.90225671430E+02 0.  0.
         11    1    3    3    0    0 -0.55008185196E+03  0.10167150474E+03  0.18279305726E+02  0.55969748235E+03  0.00000000000E+00 0.  1.
        -11    1    3    3    0    0 -0.40913563774E+03  0.69340806016E+02  0.91638725920E+02  0.42496796766E+03  0.00000000000E+00 0. -1.
         22    1    1    2    0    0  0.95921748970E+03 -0.17101231075E+03 -0.20732166083E+04  0.22907576275E+04  0.00000000000E+00 0.  1.
<mgrwt>
<rscale>  0 0.26218038E+04</rscale>
<asrwt>0</asrwt>
<pdfrwt beam="1">  1        2 0.40297859E+00 0.26218038E+04</pdfrwt>
<pdfrwt beam="2">  1       -2 0.10093265E+00 0.26218038E+04</pdfrwt>
<totfact> 0.21143461E+00</totfact>
</mgrwt>
</event>
<event>
 6    1  0.9512547E-007  0.5264062E+04  0.7818608E-02  0.7789016E-01
          2   -1    0    0  501    0  0.00000000000E+00  0.00000000000E+00  0.26866292679E+04  0.26866292679E+04  0.00000000000E+00 0. -1.
         -2   -1    0    0    0  501 -0.00000000000E+00 -0.00000000000E+00 -0.25785420035E+04  0.25785420035E+04  0.00000000000E+00 0.  1.
         23    2    1    2    0    0 -0.23771012487E+03 -0.10399070505E+04  0.24598715979E+04  0.26827688380E+04  0.91474492824E+02 0.  0.
         11    1    3    3    0    0 -0.54753509672E+02 -0.28353892771E+03  0.57073474363E+03  0.63963303381E+03  0.00000000000E+00 0. -1.
        -11    1    3    3    0    0 -0.18295661520E+03 -0.75636812279E+03  0.18891368542E+04  0.20431358042E+04  0.00000000000E+00 0.  1.
         22    1    1    2    0    0  0.23771012487E+03  0.10399070505E+04 -0.23517843335E+04  0.25824024335E+04  0.00000000000E+00 0.  1.
<mgrwt>
<rscale>  0 0.52640617E+04</rscale>
<asrwt>0</asrwt>
<pdfrwt beam="1">  1        2 0.41332758E+00 0.52640617E+04</pdfrwt>
<pdfrwt beam="2">  1       -2 0.39669877E+00 0.52640617E+04</pdfrwt>
<totfact> 0.15053085E-02</totfact>
</mgrwt>
</event>
<event>
 6    1  0.9512547E-007  0.1673596E+04  0.7818608E-02  0.8776568E-01
          1   -1    0    0  501    0  0.00000000000E+00  0.00000000000E+00  0.21940006850E+04  0.21940006850E+04  0.00000000000E+00 0. -1.
         -1   -1    0    0    0  501 -0.00000000000E+00 -0.00000000000E+00 -0.31915720486E+03  0.31915720486E+03  0.00000000000E+00 0.  1.
         23    2    1    2    0    0 -0.56661291812E+03  0.52701572514E+03  0.47188190356E+03  0.91094162517E+03  0.91358305806E+02 0.  0.
         13    1    3    3    0    0 -0.12643360091E+03  0.13748750301E+03  0.72750790429E+02  0.20045185565E+03  0.00000000000E+00 0.  1.
        -13    1    3    3    0    0 -0.44017931721E+03  0.38952822213E+03  0.39913111314E+03  0.71048976953E+03  0.00000000000E+00 0. -1.
         22    1    1    2    0    0  0.56661291812E+03 -0.52701572514E+03  0.14029615766E+04  0.16022162647E+04  0.00000000000E+00 0.  1.
<mgrwt>
<rscale>  0 0.16735963E+04</rscale>
<asrwt>0</asrwt>
<pdfrwt beam="1">  1        1 0.33753856E+00 0.16735963E+04</pdfrwt>
<pdfrwt beam="2">  1       -1 0.49101110E-01 0.16735963E+04</pdfrwt>
<totfact> 0.87205316E+00</totfact>
</mgrwt>
</event>
<event>
 6    1  0.9512547E-007  0.2913488E+04  0.7818608E-02  0.8268876E-01
         -2   -1    0    0    0  501 -0.00000000000E+00  0.00000000000E+00  0.11031033157E+04  0.11031033157E+04  0.00000000000E+00 0.  1.
          2   -1    0    0  501    0  0.00000000000E+00 -0.00000000000E+00 -0.19237573235E+04  0.19237573235E+04  0.00000000000E+00 0. -1.
         23    2    1    2    0    0 -0.11735789267E+04  0.13376794298E+03 -0.12941287191E+04  0.17543200064E+04  0.87682286916E+02 0.  0.
         11    1    3    3    0    0 -0.35512859773E+03  0.11369379369E+02 -0.43075911267E+03  0.55838964609E+03  0.00000000000E+00 0. -1.
        -11    1    3    3    0    0 -0.81845032898E+03  0.12239856362E+03 -0.86336960642E+03  0.11959303603E+04  0.00000000000E+00 0.  1.
         22    1    1    2    0    0  0.11735789267E+04 -0.13376794298E+03  0.47347471133E+03  0.12725406328E+04  0.00000000000E+00 0.  1.
<mgrwt>
<rscale>  0 0.29134880E+04</rscale>
<asrwt>0</asrwt>
<pdfrwt beam="1">  1        2 0.29596266E+00 0.29134880E+04</pdfrwt>
<pdfrwt beam="2">  1       -2 0.16970820E+00 0.29134880E+04</pdfrwt>
<totfact> 0.13601468E+00</totfact>
</mgrwt>
</event>
<event>
 6    1  0.9512547E-007  0.1159785E+04  0.7818608E-02  0.9148804E-01
         -1   -1    0    0    0  501 -0.00000000000E+00  0.00000000000E+00  0.13631560430E+03  0.13631560430E+03  0.00000000000E+00 0.  1.
          1   -1    0    0  501    0  0.00000000000E+00 -0.00000000000E+00 -0.24668884277E+04  0.24668884277E+04  0.00000000000E+00 0. -1.
         23    2    1    2    0    0  0.56237529388E+03 -0.35866611998E+02 -0.14443506581E+04  0.15529935239E+04  0.89931511376E+02 0.  0.
         11    1    3    3    0    0  0.39086326743E+03  0.14933576547E+00 -0.90243476262E+03  0.98344426223E+03  0.00000000000E+00 0. -1.
        -11    1    3    3    0    0  0.17151202645E+03 -0.36015947764E+02 -0.54191589546E+03  0.56954926167E+03  0.00000000000E+00 0.  1.
         22    1    1    2    0    0 -0.56237529388E+03  0.35866611998E+02 -0.88622216530E+03  0.10502105081E+04  0.00000000000E+00 0. -1.
<mgrwt>
<rscale>  0 0.11597851E+04</rscale>
<asrwt>0</asrwt>
<pdfrwt beam="1">  1        1 0.37952128E+00 0.11597851E+04</pdfrwt>
<pdfrwt beam="2">  1       -1 0.20971632E-01 0.11597851E+04</pdfrwt>
<totfact> 0.26958367E+01</totfact>
</mgrwt>
</event>
<event>
 6    1  0.9512547E-007  0.1661418E+04  0.7818608E-02  0.8783680E-01
          2   -1    0    0  501    0  0.00000000000E+00  0.00000000000E+00  0.16016813043E+04  0.16016813043E+04  0.00000000000E+00 0. -1.
         -2   -1    0    0    0  501 -0.00000000000E+00 -0.00000000000E+00 -0.43084575504E+03  0.43084575504E+03  0.00000000000E+00 0.  1.
         23    2    1    2    0    0  0.41205019235E+02 -0.44623907635E+03  0.14388945507E+04  0.15103366773E+04  0.99358863818E+02 0.  0.
         11    1    3    3    0    0 -0.28660635127E+02 -0.15698250989E+03  0.43912376683E+03  0.46722010125E+03  0.00000000000E+00 0. -1.
        -11    1    3    3    0    0  0.69865654361E+02 -0.28925656646E+03  0.99977078389E+03  0.10431165760E+04  0.00000000000E+00 0.  1.
         22    1    1    2    0    0 -0.41205019235E+02  0.44623907635E+03 -0.26805900143E+03  0.52219038206E+03  0.00000000000E+00 0.  1.
<mgrwt>
<rscale>  0 0.16614182E+04</rscale>
<asrwt>0</asrwt>
<pdfrwt beam="1">  1        2 0.24641250E+00 0.16614182E+04</pdfrwt>
<pdfrwt beam="2">  1       -2 0.66283963E-01 0.16614182E+04</pdfrwt>
<totfact> 0.22225814E+01</totfact>
</mgrwt>
</event>
<event>
 6    1  0.9512547E-007  0.5247423E+03  0.7818608E-02  0.1007515E+00
          2   -1    0    0  501    0  0.00000000000E+00  0.00000000000E+00  0.11425188239E+04  0.11425188239E+04  0.00000000000E+00 0. -1.
         -2   -1    0    0    0  501 -0.00000000000E+00 -0.00000000000E+00 -0.60251639818E+02  0.60251639818E+02  0.00000000000E+00 0.  1.
         23    2    1    2    0    0  0.58542313856E+01  0.24444727856E+03  0.71747865145E+03  0.76361284103E+03  0.92413265674E+02 0.  0.
         11    1    3    3    0    0  0.40812182549E+02  0.53580568382E+02  0.18642334184E+03  0.19821749150E+03  0.00000000000E+00 0. -1.
        -11    1    3    3    0    0 -0.34957951164E+02  0.19086671018E+03  0.53105530961E+03  0.56539534953E+03  0.00000000000E+00 0.  1.
         22    1    1    2    0    0 -0.58542313856E+01 -0.24444727856E+03  0.36478853260E+03  0.43915762266E+03  0.00000000000E+00 0. -1.
<mgrwt>
<rscale>  0 0.52474235E+03</rscale>
<asrwt>0</asrwt>
<pdfrwt beam="1">  1        2 0.17577211E+00 0.52474235E+03</pdfrwt>
<pdfrwt beam="2">  1       -2 0.92694839E-02 0.52474235E+03</pdfrwt>
<totfact> 0.16090435E+03</totfact>
</mgrwt>
</event>
<event>
 6    1  0.9512547E-007  0.3787320E+04  0.7818608E-02  0.8048882E-01
          2   -1    0    0  501    0  0.00000000000E+00  0.00000000000E+00  0.17829964552E+04  0.17829964552E+04  0.00000000000E+00 0. -1.
         -2   -1    0    0    0  501 -0.00000000000E+00 -0.00000000000E+00 -0.20111917230E+04  0.20111917230E+04  0.00000000000E+00 0.  1.
         23    2    1    2    0    0  0.10855059746E+04  0.11287523980E+04 -0.11787508253E+04  0.19622599414E+04  0.92765146383E+02 0.  0.
         11    1    3    3    0    0  0.10352086723E+04  0.10918915869E+04 -0.11122198239E+04  0.18710738012E+04  0.00000000000E+00 0.  1.
        -11    1    3    3    0    0  0.50297302329E+02  0.36860811084E+02 -0.66531001351E+02  0.91186140154E+02  0.00000000000E+00 0. -1.
         22    1    1    2    0    0 -0.10855059746E+04 -0.11287523980E+04  0.95055555743E+03  0.18319282368E+04  0.00000000000E+00 0. -1.
<mgrwt>
<rscale>  0 0.37873197E+04</rscale>
<asrwt>0</asrwt>
<pdfrwt beam="1">  1        2 0.27430715E+00 0.37873197E+04</pdfrwt>
<pdfrwt beam="2">  1       -2 0.30941411E+00 0.37873197E+04</pdfrwt>
<totfact> 0.19693403E-01</totfact>
</mgrwt>
</event>
<event>
 6    1  0.9512547E-007  0.4680809E+04  0.7818608E-02  0.7879725E-01
         -2   -1    0    0    0  501 -0.00000000000E+00  0.00000000000E+00  0.29810626057E+04  0.29810626057E+04  0.00000000000E+00 0.  1.
          2   -1    0    0  501    0  0.00000000000E+00 -0.00000000000E+00 -0.18374300839E+04  0.18374300839E+04  0.00000000000E+00 0. -1.
         23    2    1    2    0    0  0.11689911558E+04 -0.28294962395E+03  0.26377214005E+04  0.29004461862E+04  0.91722843122E+02 0.  0.
         11    1    3    3    0    0  0.38341684208E+03 -0.95691114307E+02  0.97265912922E+03  0.10498719188E+04  0.00000000000E+00 0.  1.
        -11    1    3    3    0    0  0.78557431372E+03 -0.18725850965E+03  0.16650622713E+04  0.18505742674E+04  0.00000000000E+00 0. -1.
         22    1    1    2    0    0 -0.11689911558E+04  0.28294962395E+03 -0.14940888787E+04  0.19180465034E+04  0.00000000000E+00 0. -1.
<mgrwt>
<rscale>  0 0.46808094E+04</rscale>
<asrwt>0</asrwt>
<pdfrwt beam="1">  1        2 0.28268155E+00 0.46808094E+04</pdfrwt>
<pdfrwt beam="2">  1       -2 0.45862502E+00 0.46808094E+04</pdfrwt>
<totfact> 0.18742702E-02</totfact>
</mgrwt>
</event>
<event>
 6    1  0.9512547E-007  0.1575667E+04  0.7818608E-02  0.8835638E-01
         -1   -1    0    0    0  501 -0.00000000000E+00  0.00000000000E+00  0.62199991541E+03  0.62199991541E+03  0.00000000000E+00 0.  1.
          1   -1    0    0  501    0  0.00000000000E+00 -0.00000000000E+00 -0.99787995045E+03  0.99787995045E+03  0.00000000000E+00 0. -1.
         23    2    1    2    0    0 -0.50671337330E+03 -0.25941052403E+03  0.36731719260E+03  0.68372048742E+03  0.92192853701E+02 0.  0.
         11    1    3    3    0    0 -0.99182198003E+02 -0.14601392088E+02  0.79773666260E+02  0.12811770713E+03  0.00000000000E+00 0.  1.
        -11    1    3    3    0    0 -0.40753117530E+03 -0.24480913195E+03  0.28754352634E+03  0.55560278029E+03  0.00000000000E+00 0. -1.
         22    1    1    2    0    0  0.50671337330E+03  0.25941052403E+03 -0.74319722764E+03  0.93615937844E+03  0.00000000000E+00 0. -1.
<mgrwt>
<rscale>  0 0.15756665E+04</rscale>
<asrwt>0</asrwt>
<pdfrwt beam="1">  1        1 0.15351999E+00 0.15756665E+04</pdfrwt>
<pdfrwt beam="2">  1       -1 0.95692296E-01 0.15756665E+04</pdfrwt>
<totfact> 0.15386737E+01</totfact>
</mgrwt>
</event>
<event>
 6    1  0.9512547E-007  0.4102048E+04  0.7818608E-02  0.7984271E-01
         -2   -1    0    0    0  501 -0.00000000000E+00  0.00000000000E+00  0.27956209980E+04  0.27956209980E+04  0.00000000000E+00 0.  1.
          2   -1    0    0  501    0  0.00000000000E+00 -0.00000000000E+00 -0.15047460620E+04  0.15047460620E+04  0.00000000000E+00 0. -1.
         23    2    1    2    0    0  0.97507847407E+03  0.57501328958E+03  0.24375878979E+04  0.26890418505E+04  0.87709747799E+02 0.  0.
         11    1    3    3    0    0  0.45131175430E+03  0.21783003313E+03  0.10458248041E+04  0.11596903655E+04  0.00000000000E+00 0. -1.
        -11    1    3    3    0    0  0.52376671976E+03  0.35718325645E+03  0.13917630938E+04  0.15293514850E+04  0.00000000000E+00 0.  1.
         22    1    1    2    0    0 -0.97507847407E+03 -0.57501328958E+03 -0.11467129619E+04  0.16113252095E+04  0.00000000000E+00 0. -1.
<mgrwt>
<rscale>  0 0.41020481E+04</rscale>
<asrwt>0</asrwt>
<pdfrwt beam="1">  1        2 0.23149939E+00 0.41020481E+04</pdfrwt>
<pdfrwt beam="2">  1       -2 0.43009554E+00 0.41020481E+04</pdfrwt>
<totfact> 0.46402728E-02</totfact>
</mgrwt>
</event>
<event>
 6    1  0.9512547E-007  0.4061031E+03  0.7818608E-02  0.1041687E+00
          2   -1    0    0  501    0  0.00000000000E+00  0.00000000000E+00  0.12266542996E+04  0.12266542996E+04  0.00000000000E+00 0. -1.
         -2   -1    0    0    0  501 -0.00000000000E+00 -0.00000000000E+00 -0.33611689177E+02  0.33611689177E+02  0.00000000000E+00 0.  1.
         23    2    1    2    0    0  0.21660070357E+02  0.14932278510E+03  0.99764892265E+03  0.10133952817E+04  0.94340719172E+02 0.  0.
         13    1    3    3    0    0 -0.18479812130E+02  0.13148611796E+03  0.69423909684E+03  0.70682248567E+03  0.00000000000E+00 0. -1.
        -13    1    3    3    0    0  0.40139882487E+02  0.17836667140E+02  0.30340982582E+03  0.30657279603E+03  0.00000000000E+00 0.  1.
         22    1    1    2    0    0 -0.21660070357E+02 -0.14932278510E+03  0.19539368780E+03  0.24687070711E+03  0.00000000000E+00 0.  1.
<mgrwt>
<rscale>  0 0.40610306E+03</rscale>
<asrwt>0</asrwt>
<pdfrwt beam="1">  1        2 0.18871601E+00 0.40610306E+03</pdfrwt>
<pdfrwt beam="2">  1       -2 0.51710301E-02 0.40610306E+03</pdfrwt>
<totfact> 0.35989233E+03</totfact>
</mgrwt>
</event>
<event>
 6    1  0.9512547E-007  0.1882638E+04  0.7818608E-02  0.8663547E-01
         -2   -1    0    0    0  501 -0.00000000000E+00  0.00000000000E+00  0.23913622407E+03  0.23913622407E+03  0.00000000000E+00 0.  1.
          2   -1    0    0  501    0  0.00000000000E+00 -0.00000000000E+00 -0.37053416840E+04  0.37053416840E+04  0.00000000000E+00 0. -1.
         23    2    1    2    0    0  0.84289103597E+03  0.32849887637E+03 -0.12080455299E+04  0.15118531775E+04  0.89158385397E+02 0.  0.
         11    1    3    3    0    0  0.20415720130E+03  0.11549524645E+03 -0.34612909002E+03  0.41812039146E+03  0.00000000000E+00 0.  1.
        -11    1    3    3    0    0  0.63873383466E+03  0.21300362992E+03 -0.86191643992E+03  0.10937327861E+04  0.00000000000E+00 0. -1.
         22    1    1    2    0    0 -0.84289103597E+03 -0.32849887637E+03 -0.22581599300E+04  0.24326247306E+04  0.00000000000E+00 0.  1.
<mgrwt>
<rscale>  0 0.18826380E+04</rscale>
<asrwt>0</asrwt>
<pdfrwt beam="1">  1        2 0.57005253E+00 0.18826380E+04</pdfrwt>
<pdfrwt beam="2">  1       -2 0.36790191E-01 0.18826380E+04</pdfrwt>
<totfact> 0.38103329E+00</totfact>
</mgrwt>
</event>
<event>
 6    1  0.9512547E-007  0.9082531E+03  0.7818608E-02  0.9415323E-01
         -1   -1    0    0    0  501 -0.00000000000E+00  0.00000000000E+00  0.83318326442E+02  0.83318326442E+02  0.00000000000E+00 0.  1.
          1   -1    0    0  501    0  0.00000000000E+00 -0.00000000000E+00 -0.24752170233E+04  0.24752170233E+04  0.00000000000E+00 0. -1.
         23    2    1    2    0    0  0.49594859327E+02  0.40667724519E+03 -0.17295551116E+04  0.17797253236E+04  0.90638356871E+02 0.  0.
         11    1    3    3    0    0  0.42187715189E+01  0.17656042050E+03 -0.92363066349E+03  0.94036428189E+03  0.00000000000E+00 0. -1.
        -11    1    3    3    0    0  0.45376087808E+02  0.23011682469E+03 -0.80592444807E+03  0.83936104172E+03  0.00000000000E+00 0.  1.
         22    1    1    2    0    0 -0.49594859327E+02 -0.40667724519E+03 -0.66234358531E+03  0.77881002615E+03  0.00000000000E+00 0.  1.
<mgrwt>
<rscale>  0 0.90825314E+03</rscale>
<asrwt>0</asrwt>
<pdfrwt beam="1">  1        1 0.38080264E+00 0.90825314E+03</pdfrwt>
<pdfrwt beam="2">  1       -1 0.12818203E-01 0.90825314E+03</pdfrwt>
<totfact> 0.61301017E+01</totfact>
</mgrwt>
</event>
<event>
 6    1  0.9512547E-007  0.5465488E+04  0.7818608E-02  0.7760456E-01
          1   -1    0    0  501    0  0.00000000000E+00  0.00000000000E+00  0.39324003779E+04  0.39324003779E+04  0.00000000000E+00 0. -1.
         -1   -1    0    0    0  501 -0.00000000000E+00 -0.00000000000E+00 -0.18990664205E+04  0.18990664205E+04  0.00000000000E+00 0.  1.
         23    2    1    2    0    0 -0.24601246841E+04 -0.11824633980E+04  0.11433976521E+04  0.29605053259E+04  0.82464810213E+02 0.  0.
         11    1    3    3    0    0 -0.12764824263E+04 -0.62836405843E+03  0.55369328772E+03  0.15267039764E+04  0.00000000000E+00 0.  1.
        -11    1    3    3    0    0 -0.11836422578E+04 -0.55409933958E+03  0.58970436439E+03  0.14338013496E+04  0.00000000000E+00 0. -1.
         22    1    1    2    0    0  0.24601246841E+04  0.11824633980E+04  0.88993630525E+03  0.28709614725E+04  0.00000000000E+00 0. -1.
<mgrwt>
<rscale>  0 0.54654879E+04</rscale>
<asrwt>0</asrwt>
<pdfrwt beam="1">  1        1 0.60498467E+00 0.54654879E+04</pdfrwt>
<pdfrwt beam="2">  1       -1 0.29216407E+00 0.54654879E+04</pdfrwt>
<totfact> 0.28312698E-03</totfact>
</mgrwt>
</event>
<event>
 6    1  0.9512547E-007  0.1631065E+04  0.7818608E-02  0.8801688E-01
         -1   -1    0    0    0  501 -0.00000000000E+00  0.00000000000E+00  0.43552026849E+03  0.43552026849E+03  0.00000000000E+00 0.  1.
          1   -1    0    0  501    0  0.00000000000E+00 -0.00000000000E+00 -0.15271228773E+04  0.15271228773E+04  0.00000000000E+00 0. -1.
         23    2    1    2    0    0  0.18592418872E+03  0.21880476462E+03 -0.14627001402E+04  0.14934345496E+04  0.91715456442E+02 0.  0.
         13    1    3    3    0    0  0.14539449916E+02  0.73787382529E+02 -0.30215789910E+03  0.31137657171E+03  0.00000000000E+00 0.  1.
        -13    1    3    3    0    0  0.17138473880E+03  0.14501738209E+03 -0.11605422411E+04  0.11820579779E+04  0.00000000000E+00 0. -1.
         22    1    1    2    0    0 -0.18592418872E+03 -0.21880476462E+03  0.37109753134E+03  0.46920859619E+03  0.00000000000E+00 0.  1.
<mgrwt>
<rscale>  0 0.16310646E+04</rscale>
<asrwt>0</asrwt>
<pdfrwt beam="1">  1        1 0.23494198E+00 0.16310646E+04</pdfrwt>
<pdfrwt beam="2">  1       -1 0.67003119E-01 0.16310646E+04</pdfrwt>
<totfact> 0.13528636E+01</totfact>
</mgrwt>
</event>
<event>
 6    1  0.9512547E-007  0.1442204E+04  0.7818608E-02  0.8923823E-01
         -2   -1    0    0    0  501 -0.00000000000E+00  0.00000000000E+00  0.20408424675E+03  0.20408424675E+03  0.00000000000E+00 0.  1.
          2   -1    0    0  501    0  0.00000000000E+00 -0.00000000000E+00 -0.25479083429E+04  0.25479083429E+04  0.00000000000E+00 0. -1.
         23    2    1    2    0    0 -0.14551367493E+03 -0.63985101212E+03 -0.17335828648E+04  0.18559022439E+04  0.92087146081E+02 0.  0.
         13    1    3    3    0    0 -0.49638200952E+02 -0.37484971980E+03 -0.90969963165E+03  0.98515464941E+03  0.00000000000E+00 0. -1.
        -13    1    3    3    0    0 -0.95875473981E+02 -0.26500129232E+03 -0.82388323316E+03  0.87074759450E+03  0.00000000000E+00 0.  1.
         22    1    1    2    0    0  0.14551367493E+03  0.63985101212E+03 -0.61024123132E+03  0.89609034573E+03  0.00000000000E+00 0.  1.
<mgrwt>
<rscale>  0 0.14422038E+04</rscale>
<asrwt>0</asrwt>
<pdfrwt beam="1">  1        2 0.39198587E+00 0.14422038E+04</pdfrwt>
<pdfrwt beam="2">  1       -2 0.31397578E-01 0.14422038E+04</pdfrwt>
<totfact> 0.29935809E+01</totfact>
</mgrwt>
</event>
<event>
 6    1  0.9512547E-007  0.1746145E+04  0.7818608E-02  0.8735475E-01
          1   -1    0    0  501    0  0.00000000000E+00  0.00000000000E+00  0.18077005601E+04  0.18077005601E+04  0.00000000000E+00 0. -1.
         -1   -1    0    0    0  501 -0.00000000000E+00 -0.00000000000E+00 -0.42167143291E+03  0.42167143291E+03  0.00000000000E+00 0.  1.
         23    2    1    2    0    0  0.71548099451E+03 -0.46959868687E+03  0.89960191181E+03  0.12449699328E+04  0.90722399220E+02 0.  0.
         11    1    3    3    0    0  0.27308196335E+03 -0.22598545123E+03  0.40244967034E+03  0.53629182357E+03  0.00000000000E+00 0. -1.
        -11    1    3    3    0    0  0.44239903116E+03 -0.24361323564E+03  0.49715224147E+03  0.70867810926E+03  0.00000000000E+00 0.  1.
         22    1    1    2    0    0 -0.71548099451E+03  0.46959868687E+03  0.48642721539E+03  0.98440206017E+03  0.00000000000E+00 0.  1.
<mgrwt>
<rscale>  0 0.17461451E+04</rscale>
<asrwt>0</asrwt>
<pdfrwt beam="1">  1        1 0.27810778E+00 0.17461451E+04</pdfrwt>
<pdfrwt beam="2">  1       -1 0.64872529E-01 0.17461451E+04</pdfrwt>
<totfact> 0.91926605E+00</totfact>
</mgrwt>
</event>
<event>
 6    1  0.9512547E-007  0.2680041E+04  0.7818608E-02  0.8341510E-01
          2   -1    0    0  501    0  0.00000000000E+00  0.00000000000E+00  0.21506048393E+04  0.21506048393E+04  0.00000000000E+00 0. -1.
         -2   -1    0    0    0  501 -0.00000000000E+00 -0.00000000000E+00 -0.83495327244E+03  0.83495327244E+03  0.00000000000E+00 0.  1.
         23    2    1    2    0    0 -0.11367666048E+04  0.43856866774E+03  0.12752407794E+04  0.17664544157E+04  0.97679923267E+02 0.  0.
         13    1    3    3    0    0 -0.32593166682E+03  0.16554921062E+03  0.34625056258E+03  0.50351508881E+03  0.00000000000E+00 0. -1.
        -13    1    3    3    0    0 -0.81083493794E+03  0.27301945712E+03  0.92899021678E+03  0.12629393269E+04  0.00000000000E+00 0.  1.
         22    1    1    2    0    0  0.11367666048E+04 -0.43856866774E+03  0.40410787547E+02  0.12191036961E+04  0.00000000000E+00 0.  1.
<mgrwt>
<rscale>  0 0.26800407E+04</rscale>
<asrwt>0</asrwt>
<pdfrwt beam="1">  1        2 0.33086228E+00 0.26800407E+04</pdfrwt>
<pdfrwt beam="2">  1       -2 0.12845435E+00 0.26800407E+04</pdfrwt>
<totfact> 0.21652256E+00</totfact>
</mgrwt>
</event>
<event>
 6    1  0.9512547E-007  0.3063279E+04  0.7818608E-02  0.8225888E-01
          2   -1    0    0  501    0  0.00000000000E+00  0.00000000000E+00  0.28078546270E+04  0.28078546270E+04  0.00000000000E+00 0. -1.
         -2   -1    0    0    0  501 -0.00000000000E+00 -0.00000000000E+00 -0.83548474442E+03  0.83548474442E+03  0.00000000000E+00 0.  1.
         23    2    1    2    0    0  0.95800552691E+03  0.35581304248E+03 -0.36766262812E+03  0.10898849148E+04  0.91081329859E+02 0.  0.
         13    1    3    3    0    0  0.73184800566E+03  0.25467880507E+03 -0.31579458690E+03  0.83677297892E+03  0.00000000000E+00 0. -1.
        -13    1    3    3    0    0  0.22615752125E+03  0.10113423741E+03 -0.51868041227E+02  0.25311193590E+03  0.00000000000E+00 0.  1.
         22    1    1    2    0    0 -0.95800552691E+03 -0.35581304248E+03  0.23400325107E+04  0.25534544566E+04  0.00000000000E+00 0. -1.
<mgrwt>
<rscale>  0 0.30632791E+04</rscale>
<asrwt>0</asrwt>
<pdfrwt beam="1">  1        2 0.43197763E+00 0.30632791E+04</pdfrwt>
<pdfrwt beam="2">  1       -2 0.12853612E+00 0.30632791E+04</pdfrwt>
<totfact> 0.87009563E-01</totfact>
</mgrwt>
</event>
<event>
 6    1  0.9512547E-007  0.6264846E+04  0.7818608E-02  0.7658404E-01
         -2   -1    0    0    0  501 -0.00000000000E+00  0.00000000000E+00  0.26729071408E+04  0.26729071408E+04  0.00000000000E+00 0.  1.
          2   -1    0    0  501    0  0.00000000000E+00 -0.00000000000E+00 -0.36709370152E+04  0.36709370152E+04  0.00000000000E+00 0. -1.
         23    2    1    2    0    0  0.21513672821E+04 -0.21916880887E+04 -0.11202395576E+04  0.32702773246E+04  0.88877738423E+02 0.  0.
         11    1    3    3    0    0  0.11435517610E+04 -0.12065778130E+04 -0.57074674793E+03  0.17576383300E+04  0.00000000000E+00 0.  1.
        -11    1    3    3    0    0  0.10078155211E+04 -0.98511027573E+03 -0.54949280967E+03  0.15126389945E+04  0.00000000000E+00 0. -1.
         22    1    1    2    0    0 -0.21513672821E+04  0.21916880887E+04  0.12220968325E+03  0.30735668315E+04  0.00000000000E+00 0.  1.
<mgrwt>
<rscale>  0 0.62648460E+04</rscale>
<asrwt>0</asrwt>
<pdfrwt beam="1">  1        2 0.56475954E+00 0.62648460E+04</pdfrwt>
<pdfrwt beam="2">  1       -2 0.41121649E+00 0.62648460E+04</pdfrwt>
<totfact> 0.25309265E-03</totfact>
</mgrwt>
</event>
<event>
 6    1  0.9512547E-007  0.9634862E+03  0.7818608E-02  0.9349525E-01
         -1   -1    0    0    0  501 -0.00000000000E+00  0.00000000000E+00  0.33938174725E+03  0.33938174725E+03  0.00000000000E+00 0.  1.
          1   -1    0    0  501    0  0.00000000000E+00 -0.00000000000E+00 -0.68382110759E+03  0.68382110759E+03  0.00000000000E+00 0. -1.
         23    2    1    2    0    0  0.18439315520E+03  0.14919795233E+03 -0.61369085701E+03  0.66437527351E+03  0.92288522559E+02 0.  0.
         13    1    3    3    0    0  0.65704521674E+02  0.39467017346E+01 -0.13341536432E+03  0.14876935189E+03  0.00000000000E+00 0.  1.
        -13    1    3    3    0    0  0.11868863353E+03  0.14525125060E+03 -0.48027549269E+03  0.51560592162E+03  0.00000000000E+00 0. -1.
         22    1    1    2    0    0 -0.18439315520E+03 -0.14919795233E+03  0.26925149667E+03  0.35882758133E+03  0.00000000000E+00 0.  1.
<mgrwt>
<rscale>  0 0.96348617E+03</rscale>
<asrwt>0</asrwt>
<pdfrwt beam="1">  1        1 0.10520325E+00 0.96348617E+03</pdfrwt>
<pdfrwt beam="2">  1       -1 0.52212576E-01 0.96348617E+03</pdfrwt>
<totfact> 0.10475181E+02</totfact>
</mgrwt>
</event>
<event>
 6    1  0.9512547E-007  0.1648857E+04  0.7818608E-02  0.8791083E-01
          2   -1    0    0  501    0  0.00000000000E+00  0.00000000000E+00  0.20127484390E+04  0.20127484390E+04  0.00000000000E+00 0. -1.
         -2   -1    0    0    0  501 -0.00000000000E+00 -0.00000000000E+00 -0.33768870217E+03  0.33768870217E+03  0.00000000000E+00 0.  1.
         23    2    1    2    0    0  0.13493787525E+03 -0.73941288355E+03  0.36618087885E+03  0.84109837621E+03  0.91751838610E+02 0.  0.
         13    1    3    3    0    0  0.11019487165E+03 -0.69707745167E+03  0.35814444407E+03  0.79140844460E+03  0.00000000000E+00 0. -1.
        -13    1    3    3    0    0  0.24743003595E+02 -0.42335431887E+02  0.80364347820E+01  0.49689931615E+02  0.00000000000E+00 0.  1.
         22    1    1    2    0    0 -0.13493787525E+03  0.73941288355E+03  0.13088788580E+04  0.15093387649E+04  0.00000000000E+00 0.  1.
<mgrwt>
<rscale>  0 0.16488571E+04</rscale>
<asrwt>0</asrwt>
<pdfrwt beam="1">  1        2 0.30965360E+00 0.16488571E+04</pdfrwt>
<pdfrwt beam="2">  1       -2 0.51952109E-01 0.16488571E+04</pdfrwt>
<totfact> 0.21971843E+01</totfact>
</mgrwt>
</event>
<event>
 6    1  0.9512547E-007  0.1039369E+04  0.7818608E-02  0.9266390E-01
         -2   -1    0    0    0  501 -0.00000000000E+00  0.00000000000E+00  0.11041396970E+03  0.11041396970E+03  0.00000000000E+00 0.  1.
          2   -1    0    0  501    0  0.00000000000E+00 -0.00000000000E+00 -0.24459923248E+04  0.24459923248E+04  0.00000000000E+00 0. -1.
         23    2    1    2    0    0 -0.37512607886E+03  0.92151533308E+02 -0.33589651940E+03  0.51975734975E+03  0.90054154456E+02 0.  0.
         13    1    3    3    0    0 -0.17159225035E+03  0.91037358906E+01 -0.18862887454E+03  0.25516196954E+03  0.00000000000E+00 0. -1.
        -13    1    3    3    0    0 -0.20353382851E+03  0.83047797417E+02 -0.14726764486E+03  0.26459538021E+03  0.00000000000E+00 0.  1.
         22    1    1    2    0    0  0.37512607886E+03 -0.92151533308E+02 -0.19996818357E+04  0.20366489447E+04  0.00000000000E+00 0. -1.
<mgrwt>
<rscale>  0 0.10393685E+04</rscale>
<asrwt>0</asrwt>
<pdfrwt beam="1">  1        2 0.37630652E+00 0.10393685E+04</pdfrwt>
<pdfrwt beam="2">  1       -2 0.16986764E-01 0.10393685E+04</pdfrwt>
<totfact> 0.10686347E+02</totfact>
</mgrwt>
</event>
<event>
 6    1  0.9512547E-007  0.1139602E+04  0.7818608E-02  0.9167430E-01
          1   -1    0    0  501    0  0.00000000000E+00  0.00000000000E+00  0.19540243859E+04  0.19540243859E+04  0.00000000000E+00 0. -1.
         -1   -1    0    0    0  501 -0.00000000000E+00 -0.00000000000E+00 -0.16615604131E+03  0.16615604131E+03  0.00000000000E+00 0.  1.
         23    2    1    2    0    0 -0.56597905812E+03  0.13419170416E+02  0.89477673620E+03  0.10627661331E+04  0.91291169804E+02 0.  0.
         11    1    3    3    0    0 -0.38639357732E+03 -0.17069111332E+02  0.54351934680E+03  0.66708667465E+03  0.00000000000E+00 0.  1.
        -11    1    3    3    0    0 -0.17958548080E+03  0.30488281748E+02  0.35125738940E+03  0.39567945846E+03  0.00000000000E+00 0. -1.
         22    1    1    2    0    0  0.56597905812E+03 -0.13419170416E+02  0.89309160841E+03  0.10574142941E+04  0.00000000000E+00 0.  1.
<mgrwt>
<rscale>  0 0.11396016E+04</rscale>
<asrwt>0</asrwt>
<pdfrwt beam="1">  1        1 0.30061912E+00 0.11396016E+04</pdfrwt>
<pdfrwt beam="2">  1       -1 0.25562469E-01 0.11396016E+04</pdfrwt>
<totfact> 0.42992336E+01</totfact>
</mgrwt>
</event>
<event>
 6    1  0.9512547E-007  0.2492956E+04  0.7818608E-02  0.8405499E-01
          2   -1    0    0  501    0  0.00000000000E+00  0.00000000000E+00  0.26095782308E+04  0.26095782308E+04  0.00000000000E+00 0. -1.
         -2   -1    0    0    0  501 -0.00000000000E+00 -0.00000000000E+00 -0.59538631418E+03  0.59538631418E+03  0.00000000000E+00 0.  1.
         23    2    1    2    0    0  0.79462603122E+03 -0.23238721904E+03 -0.18670561586E+03  0.85350025702E+03  0.90384471388E+02 0.  0.
         11    1    3    3    0    0  0.67629431238E+03 -0.19889009208E+03 -0.12508710898E+03  0.71594556394E+03  0.00000000000E+00 0. -1.
        -11    1    3    3    0    0  0.11833171884E+03 -0.33497126955E+02 -0.61618506885E+02  0.13755469308E+03  0.00000000000E+00 0.  1.
         22    1    1    2    0    0 -0.79462603122E+03  0.23238721904E+03  0.22008975324E+04  0.23514642879E+04  0.00000000000E+00 0. -1.
<mgrwt>
<rscale>  0 0.24929558E+04</rscale>
<asrwt>0</asrwt>
<pdfrwt beam="1">  1        2 0.40147357E+00 0.24929558E+04</pdfrwt>
<pdfrwt beam="2">  1       -2 0.91597896E-01 0.24929558E+04</pdfrwt>
<totfact> 0.27195997E+00</totfact>
</mgrwt>
</event>
<event>
 6    1  0.9512547E-007  0.2333787E+04  0.7818608E-02  0.8464717E-01
          1   -1    0    0  501    0  0.00000000000E+00  0.00000000000E+00  0.18534878391E+04  0.18534878391E+04  0.00000000000E+00 0. -1.
         -1   -1    0    0    0  501 -0.00000000000E+00 -0.00000000000E+00 -0.73463675094E+03  0.73463675094E+03  0.00000000000E+00 0.  1.
         23    2    1    2    0    0  0.37536733016E+03 -0.11025766974E+04  0.52403444682E+03  0.12803085315E+04  0.89452938405E+02 0.  0.
         13    1    3    3    0    0  0.29892876773E+02 -0.13585376385E+03  0.36431745469E+02  0.14379534524E+03  0.00000000000E+00 0. -1.
        -13    1    3    3    0    0  0.34547445339E+03 -0.96672293353E+03  0.48760270135E+03  0.11365131862E+04  0.00000000000E+00 0.  1.
         22    1    1    2    0    0 -0.37536733016E+03  0.11025766974E+04  0.59481664131E+03  0.13078160585E+04  0.00000000000E+00 0.  1.
<mgrwt>
<rscale>  0 0.23337869E+04</rscale>
<asrwt>0</asrwt>
<pdfrwt beam="1">  1        1 0.28515197E+00 0.23337869E+04</pdfrwt>
<pdfrwt beam="2">  1       -1 0.11302104E+00 0.23337869E+04</pdfrwt>
<totfact> 0.24160311E+00</totfact>
</mgrwt>
</event>
<event>
 6    1  0.9512547E-007  0.3363312E+04  0.7818608E-02  0.8146970E-01
         -1   -1    0    0    0  501 -0.00000000000E+00  0.00000000000E+00  0.21073977157E+04  0.21073977157E+04  0.00000000000E+00 0.  1.
          1   -1    0    0  501    0  0.00000000000E+00 -0.00000000000E+00 -0.13419235034E+04  0.13419235034E+04  0.00000000000E+00 0. -1.
         23    2    1    2    0    0 -0.81697907818E+03  0.12611943317E+04 -0.38836290108E+03  0.15547484332E+04  0.91383757679E+02 0.  0.
         11    1    3    3    0    0 -0.57569125879E+03  0.86535094948E+03 -0.22674255564E+03  0.10637973857E+04  0.00000000000E+00 0.  1.
        -11    1    3    3    0    0 -0.24128781939E+03  0.39584338223E+03 -0.16162034544E+03  0.49095104756E+03  0.00000000000E+00 0. -1.
         22    1    1    2    0    0  0.81697907818E+03 -0.12611943317E+04  0.11538371134E+04  0.18945727858E+04  0.00000000000E+00 0.  1.
<mgrwt>
<rscale>  0 0.33633118E+04</rscale>
<asrwt>0</asrwt>
<pdfrwt beam="1">  1        1 0.20644977E+00 0.33633118E+04</pdfrwt>
<pdfrwt beam="2">  1       -1 0.32421503E+00 0.33633118E+04</pdfrwt>
<totfact> 0.16002535E-01</totfact>
</mgrwt>
</event>
<event>
 6    1  0.9512547E-007  0.5608508E+04  0.7818608E-02  0.7740932E-01
          2   -1    0    0  501    0  0.00000000000E+00  0.00000000000E+00  0.36913025044E+04  0.36913025044E+04  0.00000000000E+00 0. -1.
         -2   -1    0    0    0  501 -0.00000000000E+00 -0.00000000000E+00 -0.21303704754E+04  0.21303704754E+04  0.00000000000E+00 0.  1.
         23    2    1    2    0    0  0.13470820714E+04 -0.18592497265E+04 -0.88929140530E+03  0.24638411599E+04  0.90743623232E+02 0.  0.
         11    1    3    3    0    0  0.47329711334E+03 -0.59418427501E+03 -0.32089607357E+03  0.82464501466E+03  0.00000000000E+00 0. -1.
        -11    1    3    3    0    0  0.87378495804E+03 -0.12650654515E+04 -0.56839533173E+03  0.16391961453E+04  0.00000000000E+00 0.  1.
         22    1    1    2    0    0 -0.13470820714E+04  0.18592497265E+04  0.24502234343E+04  0.33578318199E+04  0.00000000000E+00 0. -1.
<mgrwt>
<rscale>  0 0.56085085E+04</rscale>
<asrwt>0</asrwt>
<pdfrwt beam="1">  1        2 0.56789269E+00 0.56085085E+04</pdfrwt>
<pdfrwt beam="2">  1       -2 0.32774930E+00 0.56085085E+04</pdfrwt>
<totfact> 0.87848327E-03</totfact>
</mgrwt>
</event>
<event>
 6    1  0.9512547E-007  0.1443397E+04  0.7818608E-02  0.8922991E-01
          4   -1    0    0  501    0  0.00000000000E+00  0.00000000000E+00  0.28631285758E+03  0.28631285758E+03  0.00000000000E+00 0. -1.
         -4   -1    0    0    0  501 -0.00000000000E+00 -0.00000000000E+00 -0.18191604691E+04  0.18191604691E+04  0.00000000000E+00 0.  1.
         23    2    1    2    0    0  0.16374797875E+03  0.15734802395E+03 -0.17642673056E+04  0.17812405770E+04  0.92774275340E+02 0.  0.
         13    1    3    3    0    0  0.96960059324E+02  0.42730512674E+02 -0.58326691032E+03  0.59281315648E+03  0.00000000000E+00 0. -1.
        -13    1    3    3    0    0  0.66787919425E+02  0.11461751127E+03 -0.11810003953E+04  0.11884274205E+04  0.00000000000E+00 0.  1.
         22    1    1    2    0    0 -0.16374797875E+03 -0.15734802395E+03  0.23141969409E+03  0.32423274973E+03  0.00000000000E+00 0. -1.
<mgrwt>
<rscale>  0 0.14433974E+04</rscale>
<asrwt>0</asrwt>
<pdfrwt beam="1">  1        4 0.44048133E-01 0.14433974E+04</pdfrwt>
<pdfrwt beam="2">  1       -4 0.27987084E+00 0.14433974E+04</pdfrwt>
<totfact> 0.40311114E-01</totfact>
</mgrwt>
</event>
<event>
 6    1  0.9512547E-007  0.1648362E+04  0.7818608E-02  0.8791376E-01
          2   -1    0    0  501    0  0.00000000000E+00  0.00000000000E+00  0.21338337781E+04  0.21338337781E+04  0.00000000000E+00 0. -1.
         -2   -1    0    0    0  501 -0.00000000000E+00 -0.00000000000E+00 -0.31833529164E+03  0.31833529164E+03  0.00000000000E+00 0.  1.
         23    2    1    2    0    0 -0.29177557630E+03 -0.27878340665E+03  0.19749406094E+04  0.20182624376E+04  0.10069598685E+03 0.  0.
         11    1    3    3    0    0 -0.22254852399E+03 -0.19512198044E+03  0.12110683407E+04  0.12467104550E+04  0.00000000000E+00 0.  1.
        -11    1    3    3    0    0 -0.69227052306E+02 -0.83661426219E+02  0.76387226875E+03  0.77155198267E+03  0.00000000000E+00 0. -1.
         22    1    1    2    0    0  0.29177557630E+03  0.27878340665E+03 -0.15944212299E+03  0.43390663205E+03  0.00000000000E+00 0.  1.
<mgrwt>
<rscale>  0 0.16483623E+04</rscale>
<asrwt>0</asrwt>
<pdfrwt beam="1">  1        2 0.32828211E+00 0.16483623E+04</pdfrwt>
<pdfrwt beam="2">  1       -2 0.48974662E-01 0.16483623E+04</pdfrwt>
<totfact> 0.21224340E+01</totfact>
</mgrwt>
</event>
<event>
 6    1  0.9512547E-007  0.3122252E+04  0.7818608E-02  0.8209658E-01
         -2   -1    0    0    0  501 -0.00000000000E+00  0.00000000000E+00  0.12167516563E+04  0.12167516563E+04  0.00000000000E+00 0.  1.
          2   -1    0    0  501    0  0.00000000000E+00 -0.00000000000E+00 -0.20029671662E+04  0.20029671662E+04  0.00000000000E+00 0. -1.
         23    2    1    2    0    0  0.81403602889E+02 -0.13830701289E+04 -0.11323758772E+04  0.17916654174E+04  0.90996223107E+02 0.  0.
         13    1    3    3    0    0  0.83047853230E+02 -0.11956999682E+04 -0.94104710023E+03  0.15238651530E+04  0.00000000000E+00 0. -1.
        -13    1    3    3    0    0 -0.16442503412E+01 -0.18737016072E+03 -0.19132877699E+03  0.26780026436E+03  0.00000000000E+00 0.  1.
         22    1    1    2    0    0 -0.81403602889E+02  0.13830701289E+04  0.34616036732E+03  0.14280534051E+04  0.00000000000E+00 0.  1.
<mgrwt>
<rscale>  0 0.31222515E+04</rscale>
<asrwt>0</asrwt>
<pdfrwt beam="1">  1        2 0.30814879E+00 0.31222515E+04</pdfrwt>
<pdfrwt beam="2">  1       -2 0.18719257E+00 0.31222515E+04</pdfrwt>
<totfact> 0.91331939E-01</totfact>
</mgrwt>
</event>
<event>
 6    1  0.9512547E-007  0.1913131E+04  0.7818608E-02  0.8648348E-01
          2   -1    0    0  501    0  0.00000000000E+00  0.00000000000E+00  0.13208217040E+04  0.13208217040E+04  0.00000000000E+00 0. -1.
         -2   -1    0    0    0  501 -0.00000000000E+00 -0.00000000000E+00 -0.69276401916E+03  0.69276401916E+03  0.00000000000E+00 0.  1.
         23    2    1    2    0    0 -0.24375373339E+03 -0.43294225540E+03 -0.54350245795E+03  0.74102607928E+03  0.82884554157E+02 0.  0.
         13    1    3    3    0    0 -0.57964039025E+02 -0.13749375993E+03 -0.21521010127E+03  0.26187735971E+03  0.00000000000E+00 0.  1.
        -13    1    3    3    0    0 -0.18578969436E+03 -0.29544849548E+03 -0.32829235668E+03  0.47914871957E+03  0.00000000000E+00 0. -1.
         22    1    1    2    0    0  0.24375373339E+03  0.43294225540E+03  0.11715601428E+04  0.12725596439E+04  0.00000000000E+00 0. -1.
<mgrwt>
<rscale>  0 0.19131312E+04</rscale>
<asrwt>0</asrwt>
<pdfrwt beam="1">  1        2 0.20320334E+00 0.19131312E+04</pdfrwt>
<pdfrwt beam="2">  1       -2 0.10657908E+00 0.19131312E+04</pdfrwt>
<totfact> 0.10667710E+01</totfact>
</mgrwt>
</event>
<event>
 6    1  0.9512547E-007  0.2573358E+04  0.7818608E-02  0.8377308E-01
         -1   -1    0    0    0  501 -0.00000000000E+00  0.00000000000E+00  0.68839293972E+03  0.68839293972E+03  0.00000000000E+00 0.  1.
          1   -1    0    0  501    0  0.00000000000E+00 -0.00000000000E+00 -0.24049387066E+04  0.24049387066E+04  0.00000000000E+00 0. -1.
         23    2    1    2    0    0  0.46984573182E+03 -0.63646535333E+03  0.35799337260E+03  0.87307134651E+03  0.90835915610E+02 0.  0.
         13    1    3    3    0    0  0.18016159428E+03 -0.29105811019E+03  0.19339065607E+03  0.39315769027E+03  0.00000000000E+00 0. -1.
        -13    1    3    3    0    0  0.28968413753E+03 -0.34540724314E+03  0.16460271653E+03  0.47991365624E+03  0.00000000000E+00 0.  1.
         22    1    1    2    0    0 -0.46984573182E+03  0.63646535333E+03 -0.20745391394E+04  0.22202602998E+04  0.00000000000E+00 0. -1.
<mgrwt>
<rscale>  0 0.25733580E+04</rscale>
<asrwt>0</asrwt>
<pdfrwt beam="1">  1        1 0.36999056E+00 0.25733580E+04</pdfrwt>
<pdfrwt beam="2">  1       -1 0.10590661E+00 0.25733580E+04</pdfrwt>
<totfact> 0.11607050E+00</totfact>
</mgrwt>
</event>
<event>
 6    1  0.9512547E-007  0.2243212E+04  0.7818608E-02  0.8500655E-01
         -1   -1    0    0    0  501 -0.00000000000E+00  0.00000000000E+00  0.56026295793E+03  0.56026295793E+03  0.00000000000E+00 0.  1.
          1   -1    0    0  501    0  0.00000000000E+00 -0.00000000000E+00 -0.22453739556E+04  0.22453739556E+04  0.00000000000E+00 0. -1.
         23    2    1    2    0    0 -0.11145584138E+04 -0.60756963089E+02 -0.95504023280E+03  0.14718696220E+04  0.91468418277E+02 0.  0.
         13    1    3    3    0    0 -0.18327444356E+03 -0.39962815131E+01 -0.20285416464E+03  0.27341416211E+03  0.00000000000E+00 0. -1.
        -13    1    3    3    0    0 -0.93128397022E+03 -0.56760681576E+02 -0.75218606816E+03  0.11984554599E+04  0.00000000000E+00 0.  1.
         22    1    1    2    0    0  0.11145584138E+04  0.60756963089E+02 -0.73007076489E+03  0.13337672916E+04  0.00000000000E+00 0.  1.
<mgrwt>
<rscale>  0 0.22432119E+04</rscale>
<asrwt>0</asrwt>
<pdfrwt beam="1">  1        1 0.34544214E+00 0.22432119E+04</pdfrwt>
<pdfrwt beam="2">  1       -1 0.86194302E-01 0.22432119E+04</pdfrwt>
<totfact> 0.24467039E+00</totfact>
</mgrwt>
</event>
<event>
 6    1  0.9512547E-007  0.2120953E+04  0.7818608E-02  0.8552069E-01
         -2   -1    0    0    0  501 -0.00000000000E+00  0.00000000000E+00  0.94226410937E+03  0.94226410937E+03  0.00000000000E+00 0.  1.
          2   -1    0    0  501    0  0.00000000000E+00 -0.00000000000E+00 -0.11935190962E+04  0.11935190962E+04  0.00000000000E+00 0. -1.
         23    2    1    2    0    0 -0.41557989887E+03 -0.96661482414E+03 -0.24253993809E+03  0.10835822634E+04  0.90961692229E+02 0.  0.
         13    1    3    3    0    0 -0.30881075456E+02 -0.15217192184E+03 -0.40630736307E+02  0.16050168644E+03  0.00000000000E+00 0. -1.
        -13    1    3    3    0    0 -0.38469882341E+03 -0.81444290230E+03 -0.20190920179E+03  0.92308057698E+03  0.00000000000E+00 0.  1.
         22    1    1    2    0    0  0.41557989887E+03  0.96661482414E+03 -0.87150487389E+01  0.10522009421E+04  0.00000000000E+00 0. -1.
<mgrwt>
<rscale>  0 0.21209528E+04</rscale>
<asrwt>0</asrwt>
<pdfrwt beam="1">  1        2 0.18361832E+00 0.21209528E+04</pdfrwt>
<pdfrwt beam="2">  1       -2 0.14496371E+00 0.21209528E+04</pdfrwt>
<totfact> 0.57654092E+00</totfact>
</mgrwt>
</event>
<event>
 6    1  0.9512547E-007  0.1149899E+04  0.7818608E-02  0.9157877E-01
         -1   -1    0    0    0  501 -0.00000000000E+00  0.00000000000E+00  0.32770705493E+03  0.32770705493E+03  0.00000000000E+00 0.  1.
          1   -1    0    0  501    0  0.00000000000E+00 -0.00000000000E+00 -0.10087260446E+04  0.10087260446E+04  0.00000000000E+00 0. -1.
         23    2    1    2    0    0 -0.43315525710E+03  0.37403318638E+03 -0.38541978898E+03  0.69230330773E+03  0.56667053011E+02 0.  0.
         11    1    3    3    0    0 -0.41690635156E+03  0.34229490423E+03 -0.36281682920E+03  0.65008673189E+03  0.00000000000E+00 0. -1.
        -11    1    3    3    0    0 -0.16248905538E+02  0.31738282144E+02 -0.22602959775E+02  0.42216575835E+02  0.00000000000E+00 0.  1.
         22    1    1    2    0    0  0.43315525710E+03 -0.37403318638E+03 -0.29559920074E+03  0.64412979184E+03  0.00000000000E+00 0. -1.
<mgrwt>
<rscale>  0 0.11498985E+04</rscale>
<asrwt>0</asrwt>
<pdfrwt beam="1">  1        1 0.15518862E+00 0.11498985E+04</pdfrwt>
<pdfrwt beam="2">  1       -1 0.50416471E-01 0.11498985E+04</pdfrwt>
<totfact> 0.58429398E+01</totfact>
</mgrwt>
</event>
<event>
 6    1  0.9512547E-007  0.1078697E+04  0.7818608E-02  0.9226207E-01
         -2   -1    0    0    0  501 -0.00000000000E+00  0.00000000000E+00  0.72250874784E+03  0.72250874784E+03  0.00000000000E+00 0.  1.
          2   -1    0    0  501    0  0.00000000000E+00 -0.00000000000E+00 -0.40262066478E+03  0.40262066478E+03  0.00000000000E+00 0. -1.
         23    2    1    2    0    0 -0.15315097001E+02 -0.53431454045E+03  0.12759316436E+03  0.55705906831E+03  0.91149381045E+02 0.  0.
         11    1    3    3    0    0  0.17130738742E+02 -0.18207048959E+03  0.81929946349E+02  0.20038872598E+03  0.00000000000E+00 0. -1.
        -11    1    3    3    0    0 -0.32445835743E+02 -0.35224405086E+03  0.45663218010E+02  0.35667034233E+03  0.00000000000E+00 0.  1.
         22    1    1    2    0    0  0.15315097001E+02  0.53431454045E+03  0.19229491869E+03  0.56807034431E+03  0.00000000000E+00 0.  1.
<mgrwt>
<rscale>  0 0.10786973E+04</rscale>
<asrwt>0</asrwt>
<pdfrwt beam="1">  1        2 0.61941641E-01 0.10786973E+04</pdfrwt>
<pdfrwt beam="2">  1       -2 0.11115519E+00 0.10786973E+04</pdfrwt>
<totfact> 0.50260106E+01</totfact>
</mgrwt>
</event>
<event>
 6    1  0.9512547E-007  0.1817368E+04  0.7818608E-02  0.8697117E-01
         -1   -1    0    0    0  501 -0.00000000000E+00  0.00000000000E+00  0.11918613914E+04  0.11918613914E+04  0.00000000000E+00 0.  1.
          1   -1    0    0  501    0  0.00000000000E+00 -0.00000000000E+00 -0.69278780385E+03  0.69278780385E+03  0.00000000000E+00 0. -1.
         23    2    1    2    0    0 -0.30818669337E+03 -0.84648131785E+03  0.14645129977E+03  0.91725468561E+03  0.91643415668E+02 0.  0.
         13    1    3    3    0    0 -0.22706779435E+03 -0.53631710042E+03  0.61828072914E+02  0.58567783468E+03  0.00000000000E+00 0.  1.
        -13    1    3    3    0    0 -0.81118899023E+02 -0.31016421743E+03  0.84623226854E+02  0.33157685093E+03  0.00000000000E+00 0. -1.
         22    1    1    2    0    0  0.30818669337E+03  0.84648131785E+03  0.35262228780E+03  0.96739450964E+03  0.00000000000E+00 0. -1.
<mgrwt>
<rscale>  0 0.18173685E+04</rscale>
<asrwt>0</asrwt>
<pdfrwt beam="1">  1        1 0.10658274E+00 0.18173685E+04</pdfrwt>
<pdfrwt beam="2">  1       -1 0.18336329E+00 0.18173685E+04</pdfrwt>
<totfact> 0.51336021E+00</totfact>
</mgrwt>
</event>
<event>
 6    1  0.9512547E-007  0.2636600E+04  0.7818608E-02  0.8355874E-01
         -2   -1    0    0    0  501 -0.00000000000E+00  0.00000000000E+00  0.74040091937E+03  0.74040091937E+03  0.00000000000E+00 0.  1.
          2   -1    0    0  501    0  0.00000000000E+00 -0.00000000000E+00 -0.23472623521E+04  0.23472623521E+04  0.00000000000E+00 0. -1.
         23    2    1    2    0    0 -0.11167992608E+04  0.51426507969E+03 -0.25182128492E+03  0.12579521021E+04  0.85559164909E+02 0.  0.
         13    1    3    3    0    0 -0.33003300438E+03  0.11062169078E+03 -0.79756862357E+02  0.35709956531E+03  0.00000000000E+00 0. -1.
        -13    1    3    3    0    0 -0.78676625638E+03  0.40364338891E+03 -0.17206442256E+03  0.90085253682E+03  0.00000000000E+00 0.  1.
         22    1    1    2    0    0  0.11167992608E+04 -0.51426507969E+03 -0.13550401478E+04  0.18297111693E+04  0.00000000000E+00 0. -1.
<mgrwt>
<rscale>  0 0.26366002E+04</rscale>
<asrwt>0</asrwt>
<pdfrwt beam="1">  1        2 0.36111728E+00 0.26366002E+04</pdfrwt>
<pdfrwt beam="2">  1       -2 0.11390783E+00 0.26366002E+04</pdfrwt>
<totfact> 0.22677951E+00</totfact>
</mgrwt>
</event>
<event>
 6    1  0.9512547E-007  0.2954951E+04  0.7818608E-02  0.8256713E-01
          1   -1    0    0  501    0  0.00000000000E+00  0.00000000000E+00  0.24965853797E+04  0.24965853797E+04  0.00000000000E+00 0. -1.
         -1   -1    0    0    0  501 -0.00000000000E+00 -0.00000000000E+00 -0.87436774546E+03  0.87436774546E+03  0.00000000000E+00 0.  1.
         23    2    1    2    0    0  0.54663846743E+02 -0.90217331306E+03  0.21431473429E+04  0.23277500843E+04  0.91842793629E+02 0.  0.
         11    1    3    3    0    0  0.36288769287E+02 -0.32546841399E+03  0.67366955834E+03  0.74905089087E+03  0.00000000000E+00 0. -1.
        -11    1    3    3    0    0  0.18375077456E+02 -0.57670489907E+03  0.14694777846E+04  0.15786991935E+04  0.00000000000E+00 0.  1.
         22    1    1    2    0    0 -0.54663846743E+02  0.90217331306E+03 -0.52092970870E+03  0.10432030408E+04  0.00000000000E+00 0.  1.
<mgrwt>
<rscale>  0 0.29549509E+04</rscale>
<asrwt>0</asrwt>
<pdfrwt beam="1">  1        1 0.38409006E+00 0.29549509E+04</pdfrwt>
<pdfrwt beam="2">  1       -1 0.13451812E+00 0.29549509E+04</pdfrwt>
<totfact> 0.54079076E-01</totfact>
</mgrwt>
</event>
<event>
 6    1  0.9512547E-007  0.7551868E+03  0.7818608E-02  0.9627248E-01
          2   -1    0    0  501    0  0.00000000000E+00  0.00000000000E+00  0.18902973881E+03  0.18902973881E+03  0.00000000000E+00 0. -1.
         -2   -1    0    0    0  501 -0.00000000000E+00 -0.00000000000E+00 -0.75425585606E+03  0.75425585606E+03  0.00000000000E+00 0.  1.
         23    2    1    2    0    0  0.29317913059E+03  0.18950520879E+03 -0.44769672500E+03  0.57493876807E+03  0.90862548302E+02 0.  0.
         11    1    3    3    0    0  0.57208495220E+02 -0.11722256455E+01 -0.65655947898E+02  0.87091271278E+02  0.00000000000E+00 0.  1.
        -11    1    3    3    0    0  0.23597063537E+03  0.19067743443E+03 -0.38204077710E+03  0.48784749679E+03  0.00000000000E+00 0. -1.
         22    1    1    2    0    0 -0.29317913059E+03 -0.18950520879E+03 -0.11752939225E+03  0.36834682680E+03  0.00000000000E+00 0. -1.
<mgrwt>
<rscale>  0 0.75518683E+03</rscale>
<asrwt>0</asrwt>
<pdfrwt beam="1">  1        2 0.29081498E-01 0.75518683E+03</pdfrwt>
<pdfrwt beam="2">  1       -2 0.11603936E+00 0.75518683E+03</pdfrwt>
<totfact> 0.10729263E+02</totfact>
</mgrwt>
</event>
<event>
 6    1  0.9512547E-007  0.2491958E+04  0.7818608E-02  0.8405856E-01
         -2   -1    0    0    0  501 -0.00000000000E+00  0.00000000000E+00  0.18375711889E+04  0.18375711889E+04  0.00000000000E+00 0.  1.
          2   -1    0    0  501    0  0.00000000000E+00 -0.00000000000E+00 -0.84484547435E+03  0.84484547435E+03  0.00000000000E+00 0. -1.
         23    2    1    2    0    0 -0.75997357065E+03 -0.57412334493E+03  0.13589629926E+04  0.16619720606E+04  0.90516693963E+02 0.  0.
         13    1    3    3    0    0 -0.32662137597E+03 -0.29488647559E+03  0.58483085374E+03  0.73189253597E+03  0.00000000000E+00 0.  1.
        -13    1    3    3    0    0 -0.43335219469E+03 -0.27923686934E+03  0.77413213882E+03  0.93007952466E+03  0.00000000000E+00 0. -1.
         22    1    1    2    0    0  0.75997357065E+03  0.57412334493E+03 -0.36623727798E+03  0.10204446026E+04  0.00000000000E+00 0. -1.
<mgrwt>
<rscale>  0 0.24919580E+04</rscale>
<asrwt>0</asrwt>
<pdfrwt beam="1">  1        2 0.12997623E+00 0.24919580E+04</pdfrwt>
<pdfrwt beam="2">  1       -2 0.28270326E+00 0.24919580E+04</pdfrwt>
<totfact> 0.11580673E+00</totfact>
</mgrwt>
</event>
<event>
 6    1  0.9512547E-007  0.3369972E+04  0.7818608E-02  0.8145316E-01
          1   -1    0    0  501    0  0.00000000000E+00  0.00000000000E+00  0.29301765227E+04  0.29301765227E+04  0.00000000000E+00 0. -1.
         -1   -1    0    0    0  501 -0.00000000000E+00 -0.00000000000E+00 -0.96894413365E+03  0.96894413365E+03  0.00000000000E+00 0.  1.
         23    2    1    2    0    0  0.12636953781E+04 -0.24635848578E+03  0.22367416682E+04  0.25824871177E+04  0.92778826316E+02 0.  0.
         11    1    3    3    0    0  0.61430343115E+03 -0.72606253418E+02  0.10768929728E+04  0.12419093560E+04  0.00000000000E+00 0.  1.
        -11    1    3    3    0    0  0.64939194698E+03 -0.17375223236E+03  0.11598486954E+04  0.13405777617E+04  0.00000000000E+00 0. -1.
         22    1    1    2    0    0 -0.12636953781E+04  0.24635848578E+03 -0.27550927915E+03  0.13166335387E+04  0.00000000000E+00 0.  1.
<mgrwt>
<rscale>  0 0.33699717E+04</rscale>
<asrwt>0</asrwt>
<pdfrwt beam="1">  1        1 0.45079638E+00 0.33699717E+04</pdfrwt>
<pdfrwt beam="2">  1       -1 0.14906833E+00 0.33699717E+04</pdfrwt>
<totfact> 0.19647476E-01</totfact>
</mgrwt>
</event>
<event>
 6    1  0.9512547E-007  0.7260658E+04  0.7818608E-02  0.7551135E-01
          2   -1    0    0  501    0  0.00000000000E+00  0.00000000000E+00  0.43972171002E+04  0.43972171002E+04  0.00000000000E+00 0. -1.
         -2   -1    0    0    0  501 -0.00000000000E+00 -0.00000000000E+00 -0.29971889321E+04  0.29971889321E+04  0.00000000000E+00 0.  1.
         23    2    1    2    0    0 -0.13297248467E+04 -0.66849669287E+03  0.40717132740E+04  0.43361455298E+04  0.90846427822E+02 0.  0.
         11    1    3    3    0    0 -0.60032058156E+03 -0.33049163786E+03  0.17655417312E+04  0.18938709375E+04  0.00000000000E+00 0. -1.
        -11    1    3    3    0    0 -0.72940426512E+03 -0.33800505501E+03  0.23061715428E+04  0.24422745923E+04  0.00000000000E+00 0.  1.
         22    1    1    2    0    0  0.13297248467E+04  0.66849669287E+03 -0.26716851059E+04  0.30582605026E+04  0.00000000000E+00 0.  1.
<mgrwt>
<rscale>  0 0.72606585E+04</rscale>
<asrwt>0</asrwt>
<pdfrwt beam="1">  1        2 0.67649494E+00 0.72606585E+04</pdfrwt>
<pdfrwt beam="2">  1       -2 0.46110599E+00 0.72606585E+04</pdfrwt>
<totfact> 0.27595586E-04</totfact>
</mgrwt>
</event>
<event>
 6    1  0.9512547E-007  0.8434752E+03  0.7818608E-02  0.9499136E-01
         -1   -1    0    0    0  501 -0.00000000000E+00  0.00000000000E+00  0.42325255166E+03  0.42325255166E+03  0.00000000000E+00 0.  1.
          1   -1    0    0  501    0  0.00000000000E+00 -0.00000000000E+00 -0.42022805049E+03  0.42022805049E+03  0.00000000000E+00 0. -1.
         23    2    1    2    0    0  0.80120275686E+02  0.40862245991E+03 -0.18709267440E+02  0.42651066316E+03  0.90386590759E+02 0.  0.
         11    1    3    3    0    0 -0.90633010497E+01  0.44139485416E+02 -0.24378929942E+02  0.51232507491E+02  0.00000000000E+00 0. -1.
        -11    1    3    3    0    0  0.89183576736E+02  0.36448297449E+03  0.56696625019E+01  0.37527815567E+03  0.00000000000E+00 0.  1.
         22    1    1    2    0    0 -0.80120275686E+02 -0.40862245991E+03  0.21733768607E+02  0.41696993898E+03  0.00000000000E+00 0. -1.
<mgrwt>
<rscale>  0 0.84347518E+03</rscale>
<asrwt>0</asrwt>
<pdfrwt beam="1">  1        1 0.64650469E-01 0.84347518E+03</pdfrwt>
<pdfrwt beam="2">  1       -1 0.65115777E-01 0.84347518E+03</pdfrwt>
<totfact> 0.13572593E+02</totfact>
</mgrwt>
</event>
<event>
 6    1  0.9512547E-007  0.1983594E+04  0.7818608E-02  0.8614329E-01
          1   -1    0    0  501    0  0.00000000000E+00  0.00000000000E+00  0.14107947589E+04  0.14107947589E+04  0.00000000000E+00 0. -1.
         -1   -1    0    0    0  501 -0.00000000000E+00 -0.00000000000E+00 -0.69723943530E+03  0.69723943530E+03  0.00000000000E+00 0.  1.
         23    2    1    2    0    0 -0.40586888473E+03  0.12713132838E+03 -0.59218056133E+03  0.73477597833E+03  0.91246889615E+02 0.  0.
         13    1    3    3    0    0 -0.35383461913E+03  0.77316282639E+02 -0.50954929549E+03  0.62515376491E+03  0.00000000000E+00 0. -1.
        -13    1    3    3    0    0 -0.52034265597E+02  0.49815045744E+02 -0.82631265843E+02  0.10962221341E+03  0.00000000000E+00 0.  1.
         22    1    1    2    0    0  0.40586888473E+03 -0.12713132838E+03  0.13057358849E+04  0.13732582158E+04  0.00000000000E+00 0. -1.
<mgrwt>
<rscale>  0 0.19835945E+04</rscale>
<asrwt>0</asrwt>
<pdfrwt beam="1">  1        1 0.21704535E+00 0.19835945E+04</pdfrwt>
<pdfrwt beam="2">  1       -1 0.10726761E+00 0.19835945E+04</pdfrwt>
<totfact> 0.56797320E+00</totfact>
</mgrwt>
</event>
<event>
 6    1  0.9512547E-007  0.1683686E+04  0.7818608E-02  0.8770724E-01
         -2   -1    0    0    0  501 -0.00000000000E+00  0.00000000000E+00  0.28948231006E+03  0.28948231006E+03  0.00000000000E+00 0.  1.
          2   -1    0    0  501    0  0.00000000000E+00 -0.00000000000E+00 -0.24481607778E+04  0.24481607778E+04  0.00000000000E+00 0. -1.
         23    2    1    2    0    0  0.74548584882E+02  0.64612042268E+03 -0.21763093655E+03  0.69052447615E+03  0.80198101637E+02 0.  0.
         13    1    3    3    0    0  0.43714811193E+02  0.11305517792E+03 -0.34300422604E+02  0.12597212773E+03  0.00000000000E+00 0.  1.
        -13    1    3    3    0    0  0.30833773689E+02  0.53306524476E+03 -0.18333051395E+03  0.56455234843E+03  0.00000000000E+00 0. -1.
         22    1    1    2    0    0 -0.74548584882E+02 -0.64612042268E+03 -0.19410475312E+04  0.20471186117E+04  0.00000000000E+00 0. -1.
<mgrwt>
<rscale>  0 0.16836855E+04</rscale>
<asrwt>0</asrwt>
<pdfrwt beam="1">  1        2 0.37664011E+00 0.16836855E+04</pdfrwt>
<pdfrwt beam="2">  1       -2 0.44535742E-01 0.16836855E+04</pdfrwt>
<totfact> 0.17016654E+01</totfact>
</mgrwt>
</event>
<event>
 6    1  0.9512547E-007  0.1946445E+04  0.7818608E-02  0.8632077E-01
         -2   -1    0    0    0  501 -0.00000000000E+00  0.00000000000E+00  0.40952328585E+03  0.40952328585E+03  0.00000000000E+00 0.  1.
          2   -1    0    0  501    0  0.00000000000E+00 -0.00000000000E+00 -0.23128414243E+04  0.23128414243E+04  0.00000000000E+00 0. -1.
         23    2    1    2    0    0  0.49225163410E+03 -0.42906074861E+03 -0.19590980561E+04  0.20669898583E+04  0.89314519642E+02 0.  0.
         13    1    3    3    0    0  0.44655422272E+03 -0.34950182852E+03 -0.17059264999E+04  0.17977061564E+04  0.00000000000E+00 0.  1.
        -13    1    3    3    0    0  0.45697411375E+02 -0.79558920085E+02 -0.25317155626E+03  0.26928370182E+03  0.00000000000E+00 0. -1.
         22    1    1    2    0    0 -0.49225163410E+03  0.42906074861E+03  0.55779917662E+02  0.65537485189E+03  0.00000000000E+00 0.  1.
<mgrwt>
<rscale>  0 0.19464454E+04</rscale>
<asrwt>0</asrwt>
<pdfrwt beam="1">  1        2 0.35582176E+00 0.19464454E+04</pdfrwt>
<pdfrwt beam="2">  1       -2 0.63003583E-01 0.19464454E+04</pdfrwt>
<totfact> 0.97125076E+00</totfact>
</mgrwt>
</event>
<event>
 6    1  0.9512547E-007  0.2046268E+04  0.7818608E-02  0.8585289E-01
         -2   -1    0    0    0  501 -0.00000000000E+00  0.00000000000E+00  0.48164258650E+03  0.48164258650E+03  0.00000000000E+00 0.  1.
          2   -1    0    0  501    0  0.00000000000E+00 -0.00000000000E+00 -0.21734019648E+04  0.21734019648E+04  0.00000000000E+00 0. -1.
         23    2    1    2    0    0 -0.46383988183E+03 -0.16414556252E+03 -0.20084817644E+04  0.20698913478E+04  0.91432991158E+02 0.  0.
         11    1    3    3    0    0 -0.21928614614E+03 -0.11778372277E+03 -0.11101178411E+04  0.11376823109E+04  0.00000000000E+00 0. -1.
        -11    1    3    3    0    0 -0.24455373569E+03 -0.46361839744E+02 -0.89836392328E+03  0.93220903690E+03  0.00000000000E+00 0.  1.
         22    1    1    2    0    0  0.46383988183E+03  0.16414556252E+03  0.31672238615E+03  0.58515320350E+03  0.00000000000E+00 0.  1.
<mgrwt>
<rscale>  0 0.20462678E+04</rscale>
<asrwt>0</asrwt>
<pdfrwt beam="1">  1        2 0.33436953E+00 0.20462678E+04</pdfrwt>
<pdfrwt beam="2">  1       -2 0.74098861E-01 0.20462678E+04</pdfrwt>
<totfact> 0.81137419E+00</totfact>
</mgrwt>
</event>
<event>
 6    1  0.9512547E-007  0.1438809E+04  0.7818608E-02  0.8926196E-01
          1   -1    0    0  501    0  0.00000000000E+00  0.00000000000E+00  0.27135121433E+04  0.27135121433E+04  0.00000000000E+00 0. -1.
         -1   -1    0    0    0  501 -0.00000000000E+00 -0.00000000000E+00 -0.19072800576E+03  0.19072800576E+03  0.00000000000E+00 0.  1.
         23    2    1    2    0    0 -0.21612193260E+03 -0.42856376755E+03  0.23404202476E+04  0.23907889041E+04  0.89045246815E+02 0.  0.
         11    1    3    3    0    0 -0.13578456094E+03 -0.35031381011E+03  0.17658887721E+04  0.18054141818E+04  0.00000000000E+00 0. -1.
        -11    1    3    3    0    0 -0.80337371667E+02 -0.78249957439E+02  0.57453147552E+03  0.58537472228E+03  0.00000000000E+00 0.  1.
         22    1    1    2    0    0  0.21612193260E+03  0.42856376755E+03  0.18236388996E+03  0.51345124498E+03  0.00000000000E+00 0.  1.
<mgrwt>
<rscale>  0 0.14388089E+04</rscale>
<asrwt>0</asrwt>
<pdfrwt beam="1">  1        1 0.41746338E+00 0.14388089E+04</pdfrwt>
<pdfrwt beam="2">  1       -1 0.29342772E-01 0.14388089E+04</pdfrwt>
<totfact> 0.99466209E+00</totfact>
</mgrwt>
</event>
<event>
 6    1  0.9512547E-007  0.7564681E+03  0.7818608E-02  0.9625257E-01
          2   -1    0    0  501    0  0.00000000000E+00  0.00000000000E+00  0.12717531284E+04  0.12717531284E+04  0.00000000000E+00 0. -1.
         -2   -1    0    0    0  501 -0.00000000000E+00 -0.00000000000E+00 -0.11249115675E+03  0.11249115675E+03  0.00000000000E+00 0.  1.
         23    2    1    2    0    0  0.21452954046E+03 -0.13211641601E+03  0.10910678451E+04  0.11232306648E+04  0.87979615182E+02 0.  0.
         11    1    3    3    0    0  0.17886159248E+03 -0.79670494762E+02  0.69255788293E+03  0.71970499387E+03  0.00000000000E+00 0. -1.
        -11    1    3    3    0    0  0.35667947980E+02 -0.52445921252E+02  0.39850996218E+03  0.40352567097E+03  0.00000000000E+00 0.  1.
         22    1    1    2    0    0 -0.21452954046E+03  0.13211641601E+03  0.68194126586E+02  0.26101362035E+03  0.00000000000E+00 0.  1.
<mgrwt>
<rscale>  0 0.75646806E+03</rscale>
<asrwt>0</asrwt>
<pdfrwt beam="1">  1        2 0.19565432E+00 0.75646806E+03</pdfrwt>
<pdfrwt beam="2">  1       -2 0.17306333E-01 0.75646806E+03</pdfrwt>
<totfact> 0.47528755E+02</totfact>
</mgrwt>
</event>
<event>
 6    1  0.9512547E-007  0.8011435E+03  0.7818608E-02  0.9558363E-01
         -2   -1    0    0    0  501 -0.00000000000E+00  0.00000000000E+00  0.84273169802E+02  0.84273169802E+02  0.00000000000E+00 0.  1.
          2   -1    0    0  501    0  0.00000000000E+00 -0.00000000000E+00 -0.19040189066E+04  0.19040189066E+04  0.00000000000E+00 0. -1.
         23    2    1    2    0    0  0.18790483612E+03 -0.22043487886E+03 -0.15895208061E+04  0.16182876414E+04  0.91535424038E+02 0.  0.
         11    1    3    3    0    0  0.20483534266E+02 -0.78463223773E+02 -0.54014278827E+03  0.54619619587E+03  0.00000000000E+00 0. -1.
        -11    1    3    3    0    0  0.16742130185E+03 -0.14197165509E+03 -0.10493780178E+04  0.10720914455E+04  0.00000000000E+00 0.  1.
         22    1    1    2    0    0 -0.18790483612E+03  0.22043487886E+03 -0.23022493073E+03  0.37000443508E+03  0.00000000000E+00 0.  1.
<mgrwt>
<rscale>  0 0.80114345E+03</rscale>
<asrwt>0</asrwt>
<pdfrwt beam="1">  1        2 0.29292598E+00 0.80114345E+03</pdfrwt>
<pdfrwt beam="2">  1       -2 0.12965103E-01 0.80114345E+03</pdfrwt>
<totfact> 0.34403675E+02</totfact>
</mgrwt>
</event>
<event>
 6    1  0.9512547E-007  0.3042701E+04  0.7818608E-02  0.8231641E-01
         -1   -1    0    0    0  501 -0.00000000000E+00  0.00000000000E+00  0.14516912755E+04  0.14516912755E+04  0.00000000000E+00 0.  1.
          1   -1    0    0  501    0  0.00000000000E+00 -0.00000000000E+00 -0.15943523119E+04  0.15943523119E+04  0.00000000000E+00 0. -1.
         23    2    1    2    0    0 -0.80531788598E+03  0.75010780969E+02  0.12170447890E+04  0.14639679109E+04  0.88546659586E+02 0.  0.
         13    1    3    3    0    0 -0.43384759823E+03  0.69050917680E+02  0.59847749486E+03  0.74240627663E+03  0.00000000000E+00 0. -1.
        -13    1    3    3    0    0 -0.37147028775E+03  0.59598632892E+01  0.61856729411E+03  0.72156163423E+03  0.00000000000E+00 0.  1.
         22    1    1    2    0    0  0.80531788598E+03 -0.75010780969E+02 -0.13597058254E+04  0.15820756766E+04  0.00000000000E+00 0. -1.
<mgrwt>
<rscale>  0 0.30427010E+04</rscale>
<asrwt>0</asrwt>
<pdfrwt beam="1">  1        1 0.24528497E+00 0.30427010E+04</pdfrwt>
<pdfrwt beam="2">  1       -1 0.22333712E+00 0.30427010E+04</pdfrwt>
<totfact> 0.49909860E-01</totfact>
</mgrwt>
</event>
<event>
 6    1  0.9512547E-007  0.5107173E+03  0.7818608E-02  0.1011019E+00
         -2   -1    0    0    0  501 -0.00000000000E+00  0.00000000000E+00  0.62415231666E+02  0.62415231666E+02  0.00000000000E+00 0.  1.
          2   -1    0    0  501    0  0.00000000000E+00 -0.00000000000E+00 -0.10447457437E+04  0.10447457437E+04  0.00000000000E+00 0. -1.
         23    2    1    2    0    0  0.72711507224E+01 -0.19179714412E+03 -0.17871269481E+03  0.28094029644E+03  0.10074824441E+03 0.  0.
         11    1    3    3    0    0  0.28065329983E+02 -0.11306703858E+03 -0.46028712360E+02  0.12526156762E+03  0.00000000000E+00 0.  1.
        -11    1    3    3    0    0 -0.20794179261E+02 -0.78730105544E+02 -0.13268398245E+03  0.15567872883E+03  0.00000000000E+00 0. -1.
         22    1    1    2    0    0 -0.72711507224E+01  0.19179714412E+03 -0.80361781727E+03  0.82622067897E+03  0.00000000000E+00 0. -1.
<mgrwt>
<rscale>  0 0.51071733E+03</rscale>
<asrwt>0</asrwt>
<pdfrwt beam="1">  1        2 0.16073012E+00 0.51071733E+03</pdfrwt>
<pdfrwt beam="2">  1       -2 0.96023432E-02 0.51071733E+03</pdfrwt>
<totfact> 0.17426503E+03</totfact>
</mgrwt>
</event>
<event>
 6    1  0.9512547E-007  0.1680844E+04  0.7818608E-02  0.8772366E-01
          2   -1    0    0  501    0  0.00000000000E+00  0.00000000000E+00  0.16383313491E+04  0.16383313491E+04  0.00000000000E+00 0. -1.
         -2   -1    0    0    0  501 -0.00000000000E+00 -0.00000000000E+00 -0.43111500884E+03  0.43111500884E+03  0.00000000000E+00 0.  1.
         23    2    1    2    0    0 -0.57640336953E+03 -0.18302615801E+03  0.13195992619E+04  0.14543290195E+04  0.89393881316E+02 0.  0.
         11    1    3    3    0    0 -0.35564880925E+03 -0.82334587073E+02  0.86883082062E+03  0.94240758412E+03  0.00000000000E+00 0.  1.
        -11    1    3    3    0    0 -0.22075456028E+03 -0.10069157093E+03  0.45076844130E+03  0.51192143540E+03  0.00000000000E+00 0. -1.
         22    1    1    2    0    0  0.57640336953E+03  0.18302615801E+03 -0.11238292169E+03  0.61511733841E+03  0.00000000000E+00 0.  1.
<mgrwt>
<rscale>  0 0.16808441E+04</rscale>
<asrwt>0</asrwt>
<pdfrwt beam="1">  1        2 0.25205097E+00 0.16808441E+04</pdfrwt>
<pdfrwt beam="2">  1       -2 0.66325387E-01 0.16808441E+04</pdfrwt>
<totfact> 0.21140830E+01</totfact>
</mgrwt>
</event>
<event>
 6    1  0.9512547E-007  0.3291749E+04  0.7818608E-02  0.8164998E-01
         -2   -1    0    0    0  501 -0.00000000000E+00  0.00000000000E+00  0.95163398069E+03  0.95163398069E+03  0.00000000000E+00 0.  1.
          2   -1    0    0  501    0  0.00000000000E+00 -0.00000000000E+00 -0.28465802116E+04  0.28465802116E+04  0.00000000000E+00 0. -1.
         23    2    1    2    0    0  0.11707443970E+04 -0.11314989870E+04 -0.12148502156E+04  0.20337134157E+04  0.95900002052E+02 0.  0.
         11    1    3    3    0    0  0.99534480722E+03 -0.10040296338E+04 -0.10381950720E+04  0.17540341497E+04  0.00000000000E+00 0.  1.
        -11    1    3    3    0    0  0.17539958973E+03 -0.12746935320E+03 -0.17665514359E+03  0.27967926602E+03  0.00000000000E+00 0. -1.
         22    1    1    2    0    0 -0.11707443970E+04  0.11314989870E+04 -0.68009601529E+03  0.17645007766E+04  0.00000000000E+00 0.  1.
<mgrwt>
<rscale>  0 0.32917487E+04</rscale>
<asrwt>0</asrwt>
<pdfrwt beam="1">  1        2 0.43793542E+00 0.32917487E+04</pdfrwt>
<pdfrwt beam="2">  1       -2 0.14640523E+00 0.32917487E+04</pdfrwt>
<totfact> 0.57813108E-01</totfact>
</mgrwt>
</event>
<event>
 6    1  0.9512547E-007  0.1286946E+04  0.7818608E-02  0.9039982E-01
         -1   -1    0    0    0  501 -0.00000000000E+00  0.00000000000E+00  0.66614618262E+03  0.66614618262E+03  0.00000000000E+00 0.  1.
          1   -1    0    0  501    0  0.00000000000E+00 -0.00000000000E+00 -0.62157135501E+03  0.62157135501E+03  0.00000000000E+00 0. -1.
         23    2    1    2    0    0  0.37529258088E+03 -0.28532056389E+02  0.54062619939E+03  0.66504140757E+03  0.91349804673E+02 0.  0.
         11    1    3    3    0    0  0.12539098631E+03 -0.63405232974E+01  0.25929796261E+03  0.28809466343E+03  0.00000000000E+00 0.  1.
        -11    1    3    3    0    0  0.24990159457E+03 -0.22191533092E+02  0.28132823678E+03  0.37694674414E+03  0.00000000000E+00 0. -1.
         22    1    1    2    0    0 -0.37529258088E+03  0.28532056389E+02 -0.49605137177E+03  0.62267613006E+03  0.00000000000E+00 0. -1.
<mgrwt>
<rscale>  0 0.12869458E+04</rscale>
<asrwt>0</asrwt>
<pdfrwt beam="1">  1        1 0.95626362E-01 0.12869458E+04</pdfrwt>
<pdfrwt beam="2">  1       -1 0.10248403E+00 0.12869458E+04</pdfrwt>
<totfact> 0.28832677E+01</totfact>
</mgrwt>
</event>
<event>
 6    1  0.9512547E-007  0.2221684E+04  0.7818608E-02  0.8509457E-01
          2   -1    0    0  501    0  0.00000000000E+00  0.00000000000E+00  0.23923711109E+04  0.23923711109E+04  0.00000000000E+00 0. -1.
         -2   -1    0    0    0  501 -0.00000000000E+00 -0.00000000000E+00 -0.51579364154E+03  0.51579364154E+03  0.00000000000E+00 0.  1.
         23    2    1    2    0    0  0.51628429985E+03  0.36276643682E+02  0.22237316713E+04  0.22849621264E+04  0.90575383441E+02 0.  0.
         13    1    3    3    0    0  0.31390096892E+03  0.36811898640E+02  0.11679054687E+04  0.12099140953E+04  0.00000000000E+00 0. -1.
        -13    1    3    3    0    0  0.20238333094E+03 -0.53525495795E+00  0.10558262025E+04  0.10750480311E+04  0.00000000000E+00 0.  1.
         22    1    1    2    0    0 -0.51628429985E+03 -0.36276643682E+02 -0.34715420194E+03  0.62320262602E+03  0.00000000000E+00 0.  1.
<mgrwt>
<rscale>  0 0.22216839E+04</rscale>
<asrwt>0</asrwt>
<pdfrwt beam="1">  1        2 0.36805709E+00 0.22216839E+04</pdfrwt>
<pdfrwt beam="2">  1       -2 0.79352869E-01 0.22216839E+04</pdfrwt>
<totfact> 0.51579014E+00</totfact>
</mgrwt>
</event>
<event>
 6    1  0.9512547E-007  0.1195071E+04  0.7818608E-02  0.9117181E-01
         -1   -1    0    0    0  501 -0.00000000000E+00  0.00000000000E+00  0.18651709252E+03  0.18651709252E+03  0.00000000000E+00 0.  1.
          1   -1    0    0  501    0  0.00000000000E+00 -0.00000000000E+00 -0.19142960712E+04  0.19142960712E+04  0.00000000000E+00 0. -1.
         23    2    1    2    0    0 -0.54200507739E+03 -0.12704592168E+03 -0.12341638440E+04  0.13567929548E+04  0.88411301063E+02 0.  0.
         11    1    3    3    0    0 -0.50039737742E+03 -0.10379889868E+03 -0.11710465853E+04  0.12777017851E+04  0.00000000000E+00 0. -1.
        -11    1    3    3    0    0 -0.41607699968E+02 -0.23247022996E+02 -0.63117258692E+02  0.79091169669E+02  0.00000000000E+00 0.  1.
         22    1    1    2    0    0  0.54200507739E+03  0.12704592168E+03 -0.49361513465E+03  0.74402020892E+03  0.00000000000E+00 0.  1.
<mgrwt>
<rscale>  0 0.11950714E+04</rscale>
<asrwt>0</asrwt>
<pdfrwt beam="1">  1        1 0.29450708E+00 0.11950714E+04</pdfrwt>
<pdfrwt beam="2">  1       -1 0.28694938E-01 0.11950714E+04</pdfrwt>
<totfact> 0.37263431E+01</totfact>
</mgrwt>
</event>
<event>
 6    1  0.9512547E-007  0.2559581E+04  0.7818608E-02  0.8382062E-01
          2   -1    0    0  501    0  0.00000000000E+00  0.00000000000E+00  0.14298523917E+04  0.14298523917E+04  0.00000000000E+00 0. -1.
         -2   -1    0    0    0  501 -0.00000000000E+00 -0.00000000000E+00 -0.11454776490E+04  0.11454776490E+04  0.00000000000E+00 0.  1.
         23    2    1    2    0    0  0.75475101125E+03 -0.90857093388E+03  0.63372064692E+03  0.13435862395E+04  0.92042891101E+02 0.  0.
         13    1    3    3    0    0  0.37573674177E+03 -0.47082459698E+03  0.27265875075E+03  0.66120851068E+03  0.00000000000E+00 0.  1.
        -13    1    3    3    0    0  0.37901426949E+03 -0.43774633690E+03  0.36106189618E+03  0.68237772884E+03  0.00000000000E+00 0. -1.
         22    1    1    2    0    0 -0.75475101125E+03  0.90857093388E+03 -0.34934590428E+03  0.12317438012E+04  0.00000000000E+00 0.  1.
<mgrwt>
<rscale>  0 0.25595812E+04</rscale>
<asrwt>0</asrwt>
<pdfrwt beam="1">  1        2 0.21997729E+00 0.25595812E+04</pdfrwt>
<pdfrwt beam="2">  1       -2 0.17622733E+00 0.25595812E+04</pdfrwt>
<totfact> 0.23788103E+00</totfact>
</mgrwt>
</event>
<event>
 6    1  0.9512547E-007  0.1527910E+04  0.7818608E-02  0.8866103E-01
          2   -1    0    0  501    0  0.00000000000E+00  0.00000000000E+00  0.11035905655E+04  0.11035905655E+04  0.00000000000E+00 0. -1.
         -2   -1    0    0    0  501 -0.00000000000E+00 -0.00000000000E+00 -0.52884379694E+03  0.52884379694E+03  0.00000000000E+00 0.  1.
         23    2    1    2    0    0  0.18306313282E+03 -0.47822019149E+03 -0.31341122045E+03  0.60723619838E+03  0.91118304263E+02 0.  0.
         13    1    3    3    0    0  0.54058262710E+02 -0.24253263267E+03 -0.18285165358E+03  0.30851110336E+03  0.00000000000E+00 0.  1.
        -13    1    3    3    0    0  0.12900487011E+03 -0.23568755882E+03 -0.13055956686E+03  0.29872509502E+03  0.00000000000E+00 0. -1.
         22    1    1    2    0    0 -0.18306313282E+03  0.47822019149E+03  0.88815798899E+03  0.10251981640E+04  0.00000000000E+00 0. -1.
<mgrwt>
<rscale>  0 0.15279097E+04</rscale>
<asrwt>0</asrwt>
<pdfrwt beam="1">  1        2 0.16978316E+00 0.15279097E+04</pdfrwt>
<pdfrwt beam="2">  1       -2 0.81360585E-01 0.15279097E+04</pdfrwt>
<totfact> 0.27815302E+01</totfact>
</mgrwt>
</event>
<event>
 6    1  0.9512547E-007  0.3256693E+04  0.7818608E-02  0.8174003E-01
          2   -1    0    0  501    0  0.00000000000E+00  0.00000000000E+00  0.19906861905E+04  0.19906861905E+04  0.00000000000E+00 0. -1.
         -2   -1    0    0    0  501 -0.00000000000E+00 -0.00000000000E+00 -0.13319590946E+04  0.13319590946E+04  0.00000000000E+00 0.  1.
         23    2    1    2    0    0  0.13274801014E+03  0.15077725583E+04  0.93848712456E+03  0.17834033304E+04  0.93644188909E+02 0.  0.
         11    1    3    3    0    0  0.91759863449E+02  0.53307648348E+03  0.33968760414E+03  0.63873161671E+03  0.00000000000E+00 0. -1.
        -11    1    3    3    0    0  0.40988146694E+02  0.97469607480E+03  0.59879952043E+03  0.11446717137E+04  0.00000000000E+00 0.  1.
         22    1    1    2    0    0 -0.13274801014E+03 -0.15077725583E+04 -0.27976002867E+03  0.15392419548E+04  0.00000000000E+00 0.  1.
<mgrwt>
<rscale>  0 0.32566932E+04</rscale>
<asrwt>0</asrwt>
<pdfrwt beam="1">  1        2 0.30625941E+00 0.32566932E+04</pdfrwt>
<pdfrwt beam="2">  1       -2 0.20491678E+00 0.32566932E+04</pdfrwt>
<totfact> 0.70002189E-01</totfact>
</mgrwt>
</event>
<event>
 6    1  0.9512547E-007  0.1393737E+04  0.7818608E-02  0.8958365E-01
         -2   -1    0    0    0  501 -0.00000000000E+00  0.00000000000E+00  0.27067847277E+03  0.27067847277E+03  0.00000000000E+00 0.  1.
          2   -1    0    0  501    0  0.00000000000E+00 -0.00000000000E+00 -0.17941049852E+04  0.17941049852E+04  0.00000000000E+00 0. -1.
         23    2    1    2    0    0 -0.24705417630E+03  0.47244500917E+03 -0.14226596465E+04  0.15222025755E+04  0.94340651128E+02 0.  0.
         11    1    3    3    0    0 -0.19674858220E+03  0.30545532625E+03 -0.87477738488E+03  0.94723198533E+03  0.00000000000E+00 0. -1.
        -11    1    3    3    0    0 -0.50305594102E+02  0.16698968293E+03 -0.54788226161E+03  0.57497059020E+03  0.00000000000E+00 0.  1.
         22    1    1    2    0    0  0.24705417630E+03 -0.47244500917E+03 -0.10076686592E+03  0.54258088244E+03  0.00000000000E+00 0. -1.
<mgrwt>
<rscale>  0 0.13937368E+04</rscale>
<asrwt>0</asrwt>
<pdfrwt beam="1">  1        2 0.27601615E+00 0.13937368E+04</pdfrwt>
<pdfrwt beam="2">  1       -2 0.41642842E-01 0.13937368E+04</pdfrwt>
<totfact> 0.46257909E+01</totfact>
</mgrwt>
</event>
<event>
 6    1  0.9512547E-007  0.2629260E+04  0.7818608E-02  0.8358330E-01
          2   -1    0    0  501    0  0.00000000000E+00  0.00000000000E+00  0.29912170753E+04  0.29912170753E+04  0.00000000000E+00 0. -1.
         -2   -1    0    0    0  501 -0.00000000000E+00 -0.00000000000E+00 -0.57777542731E+03  0.57777542731E+03  0.00000000000E+00 0.  1.
         23    2    1    2    0    0 -0.25682202059E+03  0.83290010988E+03  0.25412681588E+04  0.26880726651E+04  0.89502259704E+02 0.  0.
         13    1    3    3    0    0 -0.99384690640E+02  0.26266732269E+03  0.93843641157E+03  0.97955823599E+03  0.00000000000E+00 0. -1.
        -13    1    3    3    0    0 -0.15743732995E+03  0.57023278720E+03  0.16028317472E+04  0.17085144291E+04  0.00000000000E+00 0.  1.
         22    1    1    2    0    0  0.25682202059E+03 -0.83290010988E+03 -0.12782651081E+03  0.88091983754E+03  0.00000000000E+00 0.  1.
<mgrwt>
<rscale>  0 0.26292598E+04</rscale>
<asrwt>0</asrwt>
<pdfrwt beam="1">  1        2 0.46018723E+00 0.26292598E+04</pdfrwt>
<pdfrwt beam="2">  1       -2 0.88888529E-01 0.26292598E+04</pdfrwt>
<totfact> 0.16919857E+00</totfact>
</mgrwt>
</event>
<event>
 6    1  0.9512547E-007  0.3391390E+04  0.7818608E-02  0.8140023E-01
          2   -1    0    0  501    0  0.00000000000E+00  0.00000000000E+00  0.28629085752E+04  0.28629085752E+04  0.00000000000E+00 0. -1.
         -2   -1    0    0    0  501 -0.00000000000E+00 -0.00000000000E+00 -0.10043565875E+04  0.10043565875E+04  0.00000000000E+00 0.  1.
         23    2    1    2    0    0 -0.13434491525E+04  0.95995099095E+03  0.49542384320E+03  0.17261253100E+04  0.87762583870E+02 0.  0.
         11    1    3    3    0    0 -0.10355613322E+04  0.77111458189E+03  0.41400427487E+03  0.13558777640E+04  0.00000000000E+00 0. -1.
        -11    1    3    3    0    0 -0.30788782024E+03  0.18883640906E+03  0.81419568338E+02  0.37024754604E+03  0.00000000000E+00 0.  1.
         22    1    1    2    0    0  0.13434491525E+04 -0.95995099095E+03  0.13631281445E+04  0.21411398527E+04  0.00000000000E+00 0. -1.
<mgrwt>
<rscale>  0 0.33913897E+04</rscale>
<asrwt>0</asrwt>
<pdfrwt beam="1">  1        2 0.44044747E+00 0.33913897E+04</pdfrwt>
<pdfrwt beam="2">  1       -2 0.15451640E+00 0.33913897E+04</pdfrwt>
<totfact> 0.48564486E-01</totfact>
</mgrwt>
</event>
<event>
 6    1  0.9512547E-007  0.5985024E+04  0.7818608E-02  0.7692261E-01
         -2   -1    0    0    0  501 -0.00000000000E+00  0.00000000000E+00  0.24941566484E+04  0.24941566484E+04  0.00000000000E+00 0.  1.
          2   -1    0    0  501    0  0.00000000000E+00 -0.00000000000E+00 -0.35904437658E+04  0.35904437658E+04  0.00000000000E+00 0. -1.
         23    2    1    2    0    0  0.29977328226E+03 -0.11201781089E+04  0.22555848182E+04  0.25378119388E+04  0.90352355011E+02 0.  0.
         11    1    3    3    0    0  0.10962365822E+01 -0.56424121449E+02  0.14317344276E+03  0.15389450259E+03  0.00000000000E+00 0. -1.
        -11    1    3    3    0    0  0.29867704568E+03 -0.10637539875E+04  0.21124113755E+04  0.23839174362E+04  0.00000000000E+00 0.  1.
         22    1    1    2    0    0 -0.29977328226E+03  0.11201781089E+04 -0.33518719356E+04  0.35467884754E+04  0.00000000000E+00 0. -1.
<mgrwt>
<rscale>  0 0.59850244E+04</rscale>
<asrwt>0</asrwt>
<pdfrwt beam="1">  1        2 0.55237596E+00 0.59850244E+04</pdfrwt>
<pdfrwt beam="2">  1       -2 0.38371641E+00 0.59850244E+04</pdfrwt>
<totfact> 0.44693980E-03</totfact>
</mgrwt>
</event>
<event>
 6    1  0.9512547E-007  0.1118433E+04  0.7818608E-02  0.9187410E-01
         -1   -1    0    0    0  501 -0.00000000000E+00  0.00000000000E+00  0.23822601988E+03  0.23822601988E+03  0.00000000000E+00 0.  1.
          1   -1    0    0  501    0  0.00000000000E+00 -0.00000000000E+00 -0.13127165860E+04  0.13127165860E+04  0.00000000000E+00 0. -1.
         23    2    1    2    0    0 -0.65259878022E+02 -0.27266571727E+03  0.12421663396E+03  0.31988436331E+03  0.91053768087E+02 0.  0.
         13    1    3    3    0    0  0.90180864122E+01 -0.81809821097E+02  0.39889376237E+01  0.82401968022E+02  0.00000000000E+00 0.  1.
        -13    1    3    3    0    0 -0.74277964435E+02 -0.19085589617E+03  0.12022769634E+03  0.23748239529E+03  0.00000000000E+00 0. -1.
         22    1    1    2    0    0  0.65259878022E+02  0.27266571727E+03 -0.11987072001E+04  0.12310582425E+04  0.00000000000E+00 0. -1.
<mgrwt>
<rscale>  0 0.11184333E+04</rscale>
<asrwt>0</asrwt>
<pdfrwt beam="1">  1        1 0.20195641E+00 0.11184333E+04</pdfrwt>
<pdfrwt beam="2">  1       -1 0.36650155E-01 0.11184333E+04</pdfrwt>
<totfact> 0.62926502E+01</totfact>
</mgrwt>
</event>
<event>
 6    1  0.9512547E-007  0.7504723E+03  0.7818608E-02  0.9634610E-01
          2   -1    0    0  501    0  0.00000000000E+00  0.00000000000E+00  0.12187526423E+03  0.12187526423E+03  0.00000000000E+00 0. -1.
         -2   -1    0    0    0  501 -0.00000000000E+00 -0.00000000000E+00 -0.11552972879E+04  0.11552972879E+04  0.00000000000E+00 0.  1.
         23    2    1    2    0    0  0.11903902783E+03  0.30047692724E+03 -0.21875785959E+03  0.40073979704E+03  0.90998405756E+02 0.  0.
         13    1    3    3    0    0  0.78356361305E+02  0.82085636707E+02 -0.68610098635E+02  0.13260888637E+03  0.00000000000E+00 0. -1.
        -13    1    3    3    0    0  0.40682666529E+02  0.21839129053E+03 -0.15014776095E+03  0.26813091067E+03  0.00000000000E+00 0.  1.
         22    1    1    2    0    0 -0.11903902783E+03 -0.30047692724E+03 -0.81466416405E+03  0.87643275506E+03  0.00000000000E+00 0.  1.
<mgrwt>
<rscale>  0 0.75047228E+03</rscale>
<asrwt>0</asrwt>
<pdfrwt beam="1">  1        2 0.18750042E-01 0.75047228E+03</pdfrwt>
<pdfrwt beam="2">  1       -2 0.17773804E+00 0.75047228E+03</pdfrwt>
<totfact> 0.58449981E+01</totfact>
</mgrwt>
</event>
<event>
 6    1  0.9512547E-007  0.2627994E+04  0.7818608E-02  0.8358754E-01
         -2   -1    0    0    0  501 -0.00000000000E+00  0.00000000000E+00  0.57857665291E+03  0.57857665291E+03  0.00000000000E+00 0.  1.
          2   -1    0    0  501    0  0.00000000000E+00 -0.00000000000E+00 -0.29841994560E+04  0.29841994560E+04  0.00000000000E+00 0. -1.
         23    2    1    2    0    0 -0.10843348458E+04 -0.36972495551E+03 -0.20721481447E+04  0.23695938310E+04  0.93265158001E+02 0.  0.
         13    1    3    3    0    0 -0.67267938416E+03 -0.18137091602E+03 -0.12633259788E+04  0.14427007631E+04  0.00000000000E+00 0.  1.
        -13    1    3    3    0    0 -0.41165546162E+03 -0.18835403949E+03 -0.80882216594E+03  0.92689306793E+03  0.00000000000E+00 0. -1.
         22    1    1    2    0    0  0.10843348458E+04  0.36972495551E+03 -0.33347465834E+03  0.11931822779E+04  0.00000000000E+00 0.  1.
<mgrwt>
<rscale>  0 0.26279940E+04</rscale>
<asrwt>0</asrwt>
<pdfrwt beam="1">  1        2 0.45910761E+00 0.26279940E+04</pdfrwt>
<pdfrwt beam="2">  1       -2 0.89011792E-01 0.26279940E+04</pdfrwt>
<totfact> 0.17039122E+00</totfact>
</mgrwt>
</event>
<event>
 6    1  0.1060242E-006  0.2641581E+04  0.7818608E-02  0.8354213E-01
          1   -1    0    0  501    0  0.00000000000E+00  0.00000000000E+00  0.14015389882E+04  0.14015389882E+04  0.00000000000E+00 0. -1.
         -1   -1    0    0    0  501 -0.00000000000E+00 -0.00000000000E+00 -0.12446938055E+04  0.12446938055E+04  0.00000000000E+00 0.  1.
         23    2    1    2    0    0  0.11408933676E+04  0.24622705056E+03  0.69441962181E+03  0.13612223991E+04  0.91882381563E+02 0.  0.
         11    1    3    3    0    0  0.42471742576E+03  0.83478684013E+02  0.20726877396E+03  0.47991033234E+03  0.00000000000E+00 0. -1.
        -11    1    3    3    0    0  0.71617594185E+03  0.16274836654E+03  0.48715084785E+03  0.88131206678E+03  0.00000000000E+00 0.  1.
         22    1    1    2    0    0 -0.11408933676E+04 -0.24622705056E+03 -0.53757443914E+03  0.12850103946E+04  0.00000000000E+00 0.  1.
<mgrwt>
<rscale>  0 0.26415805E+04</rscale>
<asrwt>0</asrwt>
<pdfrwt beam="1">  1        1 0.21562138E+00 0.26415805E+04</pdfrwt>
<pdfrwt beam="2">  1       -1 0.19149135E+00 0.26415805E+04</pdfrwt>
<totfact> 0.11601619E+00</totfact>
</mgrwt>
</event>
<event>
 6    1  0.9512547E-007  0.1957131E+04  0.7818608E-02  0.8626930E-01
          1   -1    0    0  501    0  0.00000000000E+00  0.00000000000E+00  0.19268002878E+04  0.19268002878E+04  0.00000000000E+00 0. -1.
         -1   -1    0    0    0  501 -0.00000000000E+00 -0.00000000000E+00 -0.49698487660E+03  0.49698487660E+03  0.00000000000E+00 0.  1.
         23    2    1    2    0    0 -0.38038561007E+03  0.88516347914E+03  0.51977315005E+03  0.10984985862E+04  0.91254694552E+02 0.  0.
         13    1    3    3    0    0 -0.64765934418E+02  0.87074998638E+02  0.74510763832E+02  0.13163789567E+03  0.00000000000E+00 0. -1.
        -13    1    3    3    0    0 -0.31561967565E+03  0.79808848051E+03  0.44526238621E+03  0.96686069056E+03  0.00000000000E+00 0.  1.
         22    1    1    2    0    0  0.38038561007E+03 -0.88516347914E+03  0.91004226112E+03  0.13252865781E+04  0.00000000000E+00 0. -1.
<mgrwt>
<rscale>  0 0.19571312E+04</rscale>
<asrwt>0</asrwt>
<pdfrwt beam="1">  1        1 0.29643081E+00 0.19571312E+04</pdfrwt>
<pdfrwt beam="2">  1       -1 0.76459213E-01 0.19571312E+04</pdfrwt>
<totfact> 0.53408949E+00</totfact>
</mgrwt>
</event>
<event>
 6    1  0.9512547E-007  0.3262563E+04  0.7818608E-02  0.8172487E-01
         -2   -1    0    0    0  501 -0.00000000000E+00  0.00000000000E+00  0.97080168607E+03  0.97080168607E+03  0.00000000000E+00 0.  1.
          2   -1    0    0  501    0  0.00000000000E+00 -0.00000000000E+00 -0.27411144454E+04  0.27411144454E+04  0.00000000000E+00 0. -1.
         23    2    1    2    0    0  0.52456674900E+03 -0.66439549686E+03 -0.24707560174E+04  0.26131839494E+04  0.86622198194E+02 0.  0.
         13    1    3    3    0    0  0.28402319978E+03 -0.42244080715E+03 -0.15313707692E+04  0.16137601576E+04  0.00000000000E+00 0. -1.
        -13    1    3    3    0    0  0.24054354921E+03 -0.24195468971E+03 -0.93938524823E+03  0.99942379176E+03  0.00000000000E+00 0.  1.
         22    1    1    2    0    0 -0.52456674900E+03  0.66439549686E+03  0.70044325803E+03  0.10987321822E+04  0.00000000000E+00 0.  1.
<mgrwt>
<rscale>  0 0.32625625E+04</rscale>
<asrwt>0</asrwt>
<pdfrwt beam="1">  1        2 0.42170992E+00 0.32625625E+04</pdfrwt>
<pdfrwt beam="2">  1       -2 0.14935410E+00 0.32625625E+04</pdfrwt>
<totfact> 0.63684501E-01</totfact>
</mgrwt>
</event>
<event>
 6    1  0.9512547E-007  0.1649366E+04  0.7818608E-02  0.8790782E-01
         -1   -1    0    0    0  501 -0.00000000000E+00  0.00000000000E+00  0.45313617998E+03  0.45313617998E+03  0.00000000000E+00 0.  1.
          1   -1    0    0  501    0  0.00000000000E+00 -0.00000000000E+00 -0.15008780731E+04  0.15008780731E+04  0.00000000000E+00 0. -1.
         23    2    1    2    0    0  0.27923449275E+03 -0.25860327404E+03 -0.13888393847E+04  0.14429417983E+04  0.91425606583E+02 0.  0.
         11    1    3    3    0    0  0.10926569288E+03 -0.10161370894E+03 -0.38792208095E+03  0.41562949652E+03  0.00000000000E+00 0.  1.
        -11    1    3    3    0    0  0.16996879987E+03 -0.15698956510E+03 -0.10009173038E+04  0.10273123018E+04  0.00000000000E+00 0. -1.
         22    1    1    2    0    0 -0.27923449275E+03  0.25860327404E+03  0.34109749156E+03  0.51107245478E+03  0.00000000000E+00 0.  1.
<mgrwt>
<rscale>  0 0.16493661E+04</rscale>
<asrwt>0</asrwt>
<pdfrwt beam="1">  1        1 0.23090433E+00 0.16493661E+04</pdfrwt>
<pdfrwt beam="2">  1       -1 0.69713256E-01 0.16493661E+04</pdfrwt>
<totfact> 0.12988720E+01</totfact>
</mgrwt>
</event>
<event>
 6    1  0.9512547E-007  0.1915871E+04  0.7818608E-02  0.8646996E-01
         -2   -1    0    0    0  501 -0.00000000000E+00  0.00000000000E+00  0.58572517534E+03  0.58572517534E+03  0.00000000000E+00 0.  1.
          2   -1    0    0  501    0  0.00000000000E+00 -0.00000000000E+00 -0.15666743968E+04  0.15666743968E+04  0.00000000000E+00 0. -1.
         23    2    1    2    0    0 -0.45646472937E+03 -0.75398319960E+03 -0.90685232471E+03  0.12678991117E+04  0.91303363378E+02 0.  0.
         13    1    3    3    0    0 -0.17542740859E+03 -0.31552186289E+03 -0.31070912103E+03  0.47630765219E+03  0.00000000000E+00 0. -1.
        -13    1    3    3    0    0 -0.28103732079E+03 -0.43846133671E+03 -0.59614320369E+03  0.79159145951E+03  0.00000000000E+00 0.  1.
         22    1    1    2    0    0  0.45646472937E+03  0.75398319960E+03 -0.74096896760E+02  0.88450046045E+03  0.00000000000E+00 0.  1.
<mgrwt>
<rscale>  0 0.19158712E+04</rscale>
<asrwt>0</asrwt>
<pdfrwt beam="1">  1        2 0.24102683E+00 0.19158712E+04</pdfrwt>
<pdfrwt beam="2">  1       -2 0.90111564E-01 0.19158712E+04</pdfrwt>
<totfact> 0.11475945E+01</totfact>
</mgrwt>
</event>
<event>
 6    1  0.9512547E-007  0.8975006E+03  0.7818608E-02  0.9428711E-01
          1   -1    0    0  501    0  0.00000000000E+00  0.00000000000E+00  0.27666145820E+03  0.27666145820E+03  0.00000000000E+00 0. -1.
         -1   -1    0    0    0  501 -0.00000000000E+00 -0.00000000000E+00 -0.72788171470E+03  0.72788171470E+03  0.00000000000E+00 0.  1.
         23    2    1    2    0    0  0.31004777097E+03  0.22616440656E+03  0.16567523997E+02  0.39947675781E+03  0.10966876539E+03 0.  0.
         13    1    3    3    0    0  0.26594792919E+03  0.13589982565E+03  0.13790640467E+02  0.29897699814E+03  0.00000000000E+00 0.  1.
        -13    1    3    3    0    0  0.44099841780E+02  0.90264580912E+02  0.27768835300E+01  0.10049975967E+03  0.00000000000E+00 0. -1.
         22    1    1    2    0    0 -0.31004777097E+03 -0.22616440656E+03 -0.46778778050E+03  0.60506641508E+03  0.00000000000E+00 0.  1.
<mgrwt>
<rscale>  0 0.89750057E+03</rscale>
<asrwt>0</asrwt>
<pdfrwt beam="1">  1        1 0.42563301E-01 0.89750057E+03</pdfrwt>
<pdfrwt beam="2">  1       -1 0.11198180E+00 0.89750057E+03</pdfrwt>
<totfact> 0.71896548E+01</totfact>
</mgrwt>
</event>
<event>
 6    1  0.9512547E-007  0.3693573E+04  0.7818608E-02  0.8069388E-01
          1   -1    0    0  501    0  0.00000000000E+00  0.00000000000E+00  0.31860917664E+04  0.31860917664E+04  0.00000000000E+00 0. -1.
         -1   -1    0    0    0  501 -0.00000000000E+00 -0.00000000000E+00 -0.10704717334E+04  0.10704717334E+04  0.00000000000E+00 0.  1.
         23    2    1    2    0    0 -0.10531466195E+04  0.46192637017E+03  0.27222535016E+04  0.29563719990E+04  0.83531407709E+02 0.  0.
         11    1    3    3    0    0 -0.95456929402E+03  0.39166617377E+03  0.24519351058E+04  0.26601862137E+04  0.00000000000E+00 0.  1.
        -11    1    3    3    0    0 -0.98577325448E+02  0.70260196400E+02  0.27031839583E+03  0.29618578530E+03  0.00000000000E+00 0. -1.
         22    1    1    2    0    0  0.10531466195E+04 -0.46192637017E+03 -0.60663346861E+03  0.13001915008E+04  0.00000000000E+00 0.  1.
<mgrwt>
<rscale>  0 0.36935734E+04</rscale>
<asrwt>0</asrwt>
<pdfrwt beam="1">  1        1 0.49016796E+00 0.36935734E+04</pdfrwt>
<pdfrwt beam="2">  1       -1 0.16468796E+00 0.36935734E+04</pdfrwt>
<totfact> 0.94080610E-02</totfact>
</mgrwt>
</event>
<event>
 6    1  0.9512547E-007  0.7654347E+03  0.7818608E-02  0.9611442E-01
         -2   -1    0    0    0  501 -0.00000000000E+00  0.00000000000E+00  0.20428682054E+03  0.20428682054E+03  0.00000000000E+00 0.  1.
          2   -1    0    0  501    0  0.00000000000E+00 -0.00000000000E+00 -0.71699472668E+03  0.71699472668E+03  0.00000000000E+00 0. -1.
         23    2    1    2    0    0 -0.46894664769E+02  0.30394787533E+03 -0.12571575318E+01  0.32448569540E+03  0.10346963599E+03 0.  0.
         13    1    3    3    0    0 -0.27275733422E+01  0.25682933218E+03 -0.18895568261E+02  0.25753793512E+03  0.00000000000E+00 0. -1.
        -13    1    3    3    0    0 -0.44167091426E+02  0.47118543151E+02  0.17638410729E+02  0.66947760282E+02  0.00000000000E+00 0.  1.
         22    1    1    2    0    0  0.46894664769E+02 -0.30394787533E+03 -0.51145074861E+03  0.59679585183E+03  0.00000000000E+00 0. -1.
<mgrwt>
<rscale>  0 0.76543471E+03</rscale>
<asrwt>0</asrwt>
<pdfrwt beam="1">  1        2 0.11030688E+00 0.76543471E+03</pdfrwt>
<pdfrwt beam="2">  1       -2 0.31428742E-01 0.76543471E+03</pdfrwt>
<totfact> 0.37546360E+02</totfact>
</mgrwt>
</event>
<event>
 6    1  0.9512547E-007  0.4674171E+04  0.7818608E-02  0.7880834E-01
          2   -1    0    0  501    0  0.00000000000E+00  0.00000000000E+00  0.32874267184E+04  0.32874267184E+04  0.00000000000E+00 0. -1.
         -2   -1    0    0    0  501 -0.00000000000E+00 -0.00000000000E+00 -0.16614721097E+04  0.16614721097E+04  0.00000000000E+00 0.  1.
         23    2    1    2    0    0  0.14570334424E+04 -0.87601331310E+03  0.25098154508E+04  0.30327684137E+04  0.90359708427E+02 0.  0.
         11    1    3    3    0    0  0.79123978807E+03 -0.52772820075E+03  0.14112134265E+04  0.17017875282E+04  0.00000000000E+00 0. -1.
        -11    1    3    3    0    0  0.66579365438E+03 -0.34828511235E+03  0.10986020243E+04  0.13309808855E+04  0.00000000000E+00 0.  1.
         22    1    1    2    0    0 -0.14570334424E+04  0.87601331310E+03 -0.88386084206E+03  0.19161304145E+04  0.00000000000E+00 0.  1.
<mgrwt>
<rscale>  0 0.46741706E+04</rscale>
<asrwt>0</asrwt>
<pdfrwt beam="1">  1        2 0.50575796E+00 0.46741706E+04</pdfrwt>
<pdfrwt beam="2">  1       -2 0.25561109E+00 0.46741706E+04</pdfrwt>
<totfact> 0.50297952E-02</totfact>
</mgrwt>
</event>
<event>
 6    1  0.9512547E-007  0.3564826E+04  0.7818608E-02  0.8098597E-01
         -2   -1    0    0    0  501 -0.00000000000E+00  0.00000000000E+00  0.15122410669E+04  0.15122410669E+04  0.00000000000E+00 0.  1.
          2   -1    0    0  501    0  0.00000000000E+00 -0.00000000000E+00 -0.21008524752E+04  0.21008524752E+04  0.00000000000E+00 0. -1.
         23    2    1    2    0    0  0.10535936203E+04 -0.14312919499E+04 -0.17330438422E+03  0.17879535237E+04  0.89929031736E+02 0.  0.
         13    1    3    3    0    0  0.71435100615E+03 -0.10385450576E+04 -0.11643591929E+03  0.12658714468E+04  0.00000000000E+00 0. -1.
        -13    1    3    3    0    0  0.33924261417E+03 -0.39274689231E+03 -0.56868464930E+02  0.52208207688E+03  0.00000000000E+00 0.  1.
         22    1    1    2    0    0 -0.10535936203E+04  0.14312919499E+04 -0.41530702407E+03  0.18251400184E+04  0.00000000000E+00 0.  1.
<mgrwt>
<rscale>  0 0.35648256E+04</rscale>
<asrwt>0</asrwt>
<pdfrwt beam="1">  1        2 0.32320807E+00 0.35648256E+04</pdfrwt>
<pdfrwt beam="2">  1       -2 0.23265247E+00 0.35648256E+04</pdfrwt>
<totfact> 0.39483484E-01</totfact>
</mgrwt>
</event>
<event>
 6    1  0.9512547E-007  0.4849706E+04  0.7818608E-02  0.7852119E-01
          2   -1    0    0  501    0  0.00000000000E+00  0.00000000000E+00  0.32820405467E+04  0.32820405467E+04  0.00000000000E+00 0. -1.
         -2   -1    0    0    0  501 -0.00000000000E+00 -0.00000000000E+00 -0.17915412670E+04  0.17915412670E+04  0.00000000000E+00 0.  1.
         23    2    1    2    0    0  0.94287063936E+03  0.11148153783E+04 -0.12787423661E+04  0.19430039655E+04  0.90906550643E+02 0.  0.
         13    1    3    3    0    0  0.20159223933E+03  0.26459209720E+03 -0.33768183491E+03  0.47400150894E+03  0.00000000000E+00 0.  1.
        -13    1    3    3    0    0  0.74127840003E+03  0.85022328114E+03 -0.94106053117E+03  0.14690024566E+04  0.00000000000E+00 0. -1.
         22    1    1    2    0    0 -0.94287063936E+03 -0.11148153783E+04  0.27692416458E+04  0.31305778481E+04  0.00000000000E+00 0. -1.
<mgrwt>
<rscale>  0 0.48497056E+04</rscale>
<asrwt>0</asrwt>
<pdfrwt beam="1">  1        2 0.50492932E+00 0.48497056E+04</pdfrwt>
<pdfrwt beam="2">  1       -2 0.27562173E+00 0.48497056E+04</pdfrwt>
<totfact> 0.37732696E-02</totfact>
</mgrwt>
</event>
<event>
 6    1  0.9512547E-007  0.2835069E+04  0.7818608E-02  0.8292463E-01
         -2   -1    0    0    0  501 -0.00000000000E+00  0.00000000000E+00  0.87923971756E+03  0.87923971756E+03  0.00000000000E+00 0.  1.
          2   -1    0    0  501    0  0.00000000000E+00 -0.00000000000E+00 -0.22853881024E+04  0.22853881024E+04  0.00000000000E+00 0. -1.
         23    2    1    2    0    0  0.10946793275E+04 -0.17249474071E+03  0.27981541699E+03  0.11470671129E+04  0.96896998995E+02 0.  0.
         13    1    3    3    0    0  0.31363979505E+03 -0.56299253367E+02  0.36179432347E+02  0.32069998174E+03  0.00000000000E+00 0.  1.
        -13    1    3    3    0    0  0.78103953242E+03 -0.11619548734E+03  0.24363598464E+03  0.82636713118E+03  0.00000000000E+00 0. -1.
         22    1    1    2    0    0 -0.10946793275E+04  0.17249474071E+03 -0.16859638018E+04  0.20175607070E+04  0.00000000000E+00 0. -1.
<mgrwt>
<rscale>  0 0.28350690E+04</rscale>
<asrwt>0</asrwt>
<pdfrwt beam="1">  1        2 0.35159816E+00 0.28350690E+04</pdfrwt>
<pdfrwt beam="2">  1       -2 0.13526765E+00 0.28350690E+04</pdfrwt>
<totfact> 0.15736439E+00</totfact>
</mgrwt>
</event>
<event>
 6    1  0.9512547E-007  0.5369934E+03  0.7818608E-02  0.1004550E+00
          2   -1    0    0  501    0  0.00000000000E+00  0.00000000000E+00  0.21946862776E+03  0.21946862776E+03  0.00000000000E+00 0. -1.
         -2   -1    0    0    0  501 -0.00000000000E+00 -0.00000000000E+00 -0.32847734983E+03  0.32847734983E+03  0.00000000000E+00 0.  1.
         23    2    1    2    0    0  0.21305437186E+03  0.37169059046E+02  0.91891742883E+02  0.25276010202E+03  0.93112149840E+02 0.  0.
         13    1    3    3    0    0  0.89850651482E+02  0.62130221477E+02  0.51098065767E+02  0.12059981890E+03  0.00000000000E+00 0. -1.
        -13    1    3    3    0    0  0.12320372037E+03 -0.24961162431E+02  0.40793677116E+02  0.13216028313E+03  0.00000000000E+00 0.  1.
         22    1    1    2    0    0 -0.21305437186E+03 -0.37169059046E+02 -0.20090046495E+03  0.29518587557E+03  0.00000000000E+00 0.  1.
<mgrwt>
<rscale>  0 0.53699338E+03</rscale>
<asrwt>0</asrwt>
<pdfrwt beam="1">  1        2 0.33764404E-01 0.53699338E+03</pdfrwt>
<pdfrwt beam="2">  1       -2 0.50534977E-01 0.53699338E+03</pdfrwt>
<totfact> 0.58087500E+02</totfact>
</mgrwt>
</event>
<event>
 6    1  0.9512547E-007  0.6782807E+03  0.7818608E-02  0.9755113E-01
          2   -1    0    0  501    0  0.00000000000E+00  0.00000000000E+00  0.65437693424E+03  0.65437693424E+03  0.00000000000E+00 0. -1.
         -2   -1    0    0    0  501 -0.00000000000E+00 -0.00000000000E+00 -0.17576440224E+03  0.17576440224E+03  0.00000000000E+00 0.  1.
         23    2    1    2    0    0  0.12935176425E+03  0.21868438651E+03  0.50610742132E+03  0.57458173726E+03  0.97183903246E+02 0.  0.
         13    1    3    3    0    0  0.66805699138E+02  0.71875369409E+02  0.28851628804E+03  0.30474697477E+03  0.00000000000E+00 0.  1.
        -13    1    3    3    0    0  0.62546065115E+02  0.14680901710E+03  0.21759113328E+03  0.26983476249E+03  0.00000000000E+00 0. -1.
         22    1    1    2    0    0 -0.12935176425E+03 -0.21868438651E+03 -0.27494889325E+02  0.25555959923E+03  0.00000000000E+00 0.  1.
<mgrwt>
<rscale>  0 0.67828068E+03</rscale>
<asrwt>0</asrwt>
<pdfrwt beam="1">  1        2 0.10067337E+00 0.67828068E+03</pdfrwt>
<pdfrwt beam="2">  1       -2 0.27040678E-01 0.67828068E+03</pdfrwt>
<totfact> 0.55727034E+02</totfact>
</mgrwt>
</event>
<event>
 6    1  0.9512547E-007  0.1480459E+04  0.7818608E-02  0.8897553E-01
          2   -1    0    0  501    0  0.00000000000E+00  0.00000000000E+00  0.17418058941E+04  0.17418058941E+04  0.00000000000E+00 0. -1.
         -2   -1    0    0    0  501 -0.00000000000E+00 -0.00000000000E+00 -0.31458130507E+03  0.31458130507E+03  0.00000000000E+00 0.  1.
         23    2    1    2    0    0  0.74105419937E+01  0.45988651691E+03 -0.84429953462E+02  0.47630809342E+03  0.90501150539E+02 0.  0.
         13    1    3    3    0    0  0.39606330099E+02  0.11707093086E+03 -0.35035367706E+02  0.12845910333E+03  0.00000000000E+00 0. -1.
        -13    1    3    3    0    0 -0.32195788105E+02  0.34281558605E+03 -0.49394585756E+02  0.34784899010E+03  0.00000000000E+00 0.  1.
         22    1    1    2    0    0 -0.74105419937E+01 -0.45988651691E+03  0.15116545424E+04  0.15800791057E+04  0.00000000000E+00 0. -1.
<mgrwt>
<rscale>  0 0.14804588E+04</rscale>
<asrwt>0</asrwt>
<pdfrwt beam="1">  1        2 0.26797013E+00 0.14804588E+04</pdfrwt>
<pdfrwt beam="2">  1       -2 0.48397125E-01 0.14804588E+04</pdfrwt>
<totfact> 0.36369503E+01</totfact>
</mgrwt>
</event>
<event>
 6    1  0.9512547E-007  0.1336448E+04  0.7818608E-02  0.9001151E-01
          1   -1    0    0  501    0  0.00000000000E+00  0.00000000000E+00  0.17875040585E+04  0.17875040585E+04  0.00000000000E+00 0. -1.
         -1   -1    0    0    0  501 -0.00000000000E+00 -0.00000000000E+00 -0.24980259786E+03  0.24980259786E+03  0.00000000000E+00 0.  1.
         23    2    1    2    0    0 -0.43087630265E+03 -0.41694705404E+03  0.12113668492E+04  0.13546694813E+04  0.90667117899E+02 0.  0.
         13    1    3    3    0    0 -0.29681054028E+03 -0.29405377486E+03  0.93137488634E+03  0.10207954243E+04  0.00000000000E+00 0. -1.
        -13    1    3    3    0    0 -0.13406576237E+03 -0.12289327918E+03  0.27999196285E+03  0.33387405705E+03  0.00000000000E+00 0.  1.
         22    1    1    2    0    0  0.43087630265E+03  0.41694705404E+03  0.32633461141E+03  0.68263717498E+03  0.00000000000E+00 0.  1.
<mgrwt>
<rscale>  0 0.13364478E+04</rscale>
<asrwt>0</asrwt>
<pdfrwt beam="1">  1        1 0.27500062E+00 0.13364478E+04</pdfrwt>
<pdfrwt beam="2">  1       -1 0.38431170E-01 0.13364478E+04</pdfrwt>
<totfact> 0.26685408E+01</totfact>
</mgrwt>
</event>
<event>
 6    1  0.9512547E-007  0.6252584E+04  0.7818608E-02  0.7659850E-01
         -2   -1    0    0    0  501 -0.00000000000E+00  0.00000000000E+00  0.25757633308E+04  0.25757633308E+04  0.00000000000E+00 0.  1.
          2   -1    0    0  501    0  0.00000000000E+00 -0.00000000000E+00 -0.37944875114E+04  0.37944875114E+04  0.00000000000E+00 0. -1.
         23    2    1    2    0    0 -0.65977170055E+02  0.15506468800E+04  0.21545710387E+04  0.26570339929E+04  0.93779236378E+02 0.  0.
         13    1    3    3    0    0 -0.80095460176E+02  0.10778925921E+04  0.14532257588E+04  0.18111136985E+04  0.00000000000E+00 0.  1.
        -13    1    3    3    0    0  0.14118290121E+02  0.47275428799E+03  0.70134527985E+03  0.84592029441E+03  0.00000000000E+00 0. -1.
         22    1    1    2    0    0  0.65977170055E+02 -0.15506468800E+04 -0.33732952193E+04  0.37132168493E+04  0.00000000000E+00 0. -1.
<mgrwt>
<rscale>  0 0.62525840E+04</rscale>
<asrwt>0</asrwt>
<pdfrwt beam="1">  1        2 0.58376731E+00 0.62525840E+04</pdfrwt>
<pdfrwt beam="2">  1       -2 0.39627128E+00 0.62525840E+04</pdfrwt>
<totfact> 0.25631656E-03</totfact>
</mgrwt>
</event>
<event>
 6    1  0.9512547E-007  0.1010324E+04  0.7818608E-02  0.9297294E-01
         -2   -1    0    0    0  501 -0.00000000000E+00  0.00000000000E+00  0.53710786521E+03  0.53710786521E+03  0.00000000000E+00 0.  1.
          2   -1    0    0  501    0  0.00000000000E+00 -0.00000000000E+00 -0.47511618290E+03  0.47511618290E+03  0.00000000000E+00 0. -1.
         23    2    1    2    0    0 -0.45376996310E+03  0.24491115787E+02 -0.18029620738E+03  0.49723820787E+03  0.90731024470E+02 0.  0.
         13    1    3    3    0    0 -0.13013584787E+03  0.40615168742E+01 -0.97207786396E+02  0.16248442558E+03  0.00000000000E+00 0.  1.
        -13    1    3    3    0    0 -0.32363411523E+03  0.20429598913E+02 -0.83088420983E+02  0.33475378229E+03  0.00000000000E+00 0. -1.
         22    1    1    2    0    0  0.45376996310E+03 -0.24491115787E+02  0.24228788969E+03  0.51498584025E+03  0.00000000000E+00 0.  1.
<mgrwt>
<rscale>  0 0.10103240E+04</rscale>
<asrwt>0</asrwt>
<pdfrwt beam="1">  1        2 0.73094797E-01 0.10103240E+04</pdfrwt>
<pdfrwt beam="2">  1       -2 0.82631979E-01 0.10103240E+04</pdfrwt>
<totfact> 0.83822535E+01</totfact>
</mgrwt>
</event>
<event>
 6    1  0.9512547E-007  0.9525476E+03  0.7818608E-02  0.9362178E-01
         -1   -1    0    0    0  501 -0.00000000000E+00  0.00000000000E+00  0.24559443290E+03  0.24559443290E+03  0.00000000000E+00 0.  1.
          1   -1    0    0  501    0  0.00000000000E+00 -0.00000000000E+00 -0.92362333763E+03  0.92362333763E+03  0.00000000000E+00 0. -1.
         23    2    1    2    0    0 -0.29552066846E+03  0.28028420900E+03 -0.63378968367E+03  0.75952421191E+03  0.96415569494E+02 0.  0.
         11    1    3    3    0    0 -0.23654922956E+03  0.17499355224E+03 -0.49258740885E+03  0.57377751497E+03  0.00000000000E+00 0.  1.
        -11    1    3    3    0    0 -0.58971438907E+02  0.10529065676E+03 -0.14120227482E+03  0.18574669693E+03  0.00000000000E+00 0. -1.
         22    1    1    2    0    0  0.29552066846E+03 -0.28028420900E+03 -0.44239221055E+02  0.40969355863E+03  0.00000000000E+00 0.  1.
<mgrwt>
<rscale>  0 0.95254764E+03</rscale>
<asrwt>0</asrwt>
<pdfrwt beam="1">  1        1 0.14209590E+00 0.95254764E+03</pdfrwt>
<pdfrwt beam="2">  1       -1 0.37783758E-01 0.95254764E+03</pdfrwt>
<totfact> 0.11811587E+02</totfact>
</mgrwt>
</event>
<event>
 6    1  0.9512547E-007  0.2135487E+04  0.7818608E-02  0.8545770E-01
         -2   -1    0    0    0  501 -0.00000000000E+00  0.00000000000E+00  0.56779170670E+03  0.56779170670E+03  0.00000000000E+00 0.  1.
          2   -1    0    0  501    0  0.00000000000E+00 -0.00000000000E+00 -0.20079121112E+04  0.20079121112E+04  0.00000000000E+00 0. -1.
         23    2    1    2    0    0 -0.58183087198E+03  0.77605200632E+03 -0.12542513618E+04  0.15881152491E+04  0.90441615355E+02 0.  0.
         13    1    3    3    0    0 -0.32858043437E+03  0.45761873220E+03 -0.65721396048E+03  0.86562705350E+03  0.00000000000E+00 0.  1.
        -13    1    3    3    0    0 -0.25325043760E+03  0.31843327412E+03 -0.59703740136E+03  0.72248819564E+03  0.00000000000E+00 0. -1.
         22    1    1    2    0    0  0.58183087198E+03 -0.77605200632E+03 -0.18586904266E+03  0.98758856875E+03  0.00000000000E+00 0.  1.
<mgrwt>
<rscale>  0 0.21354867E+04</rscale>
<asrwt>0</asrwt>
<pdfrwt beam="1">  1        2 0.30890956E+00 0.21354867E+04</pdfrwt>
<pdfrwt beam="2">  1       -2 0.87352570E-01 0.21354867E+04</pdfrwt>
<totfact> 0.68788162E+00</totfact>
</mgrwt>
</event>
<event>
 6    1  0.9512547E-007  0.2619582E+04  0.7818608E-02  0.8361580E-01
         -2   -1    0    0    0  501 -0.00000000000E+00  0.00000000000E+00  0.17515593166E+04  0.17515593166E+04  0.00000000000E+00 0.  1.
          2   -1    0    0  501    0  0.00000000000E+00 -0.00000000000E+00 -0.97944295574E+03  0.97944295574E+03  0.00000000000E+00 0. -1.
         23    2    1    2    0    0  0.51795639066E+03  0.55298498103E+03  0.14983768887E+04  0.16814663911E+04  0.90137183600E+02 0.  0.
         13    1    3    3    0    0  0.30813849806E+03  0.39057053586E+03  0.99520631488E+03  0.11126231557E+04  0.00000000000E+00 0. -1.
        -13    1    3    3    0    0  0.20981789259E+03  0.16241444517E+03  0.50317057380E+03  0.56884323533E+03  0.00000000000E+00 0.  1.
         22    1    1    2    0    0 -0.51795639066E+03 -0.55298498103E+03 -0.72626052781E+03  0.10495358813E+04  0.00000000000E+00 0. -1.
<mgrwt>
<rscale>  0 0.26195820E+04</rscale>
<asrwt>0</asrwt>
<pdfrwt beam="1">  1        2 0.15068353E+00 0.26195820E+04</pdfrwt>
<pdfrwt beam="2">  1       -2 0.26947066E+00 0.26195820E+04</pdfrwt>
<totfact> 0.11199050E+00</totfact>
</mgrwt>
</event>
<event>
 6    1  0.1448984E-006  0.4803340E+04  0.7818608E-02  0.7859581E-01
         -2   -1    0    0    0  501 -0.00000000000E+00  0.00000000000E+00  0.19004895195E+04  0.19004895195E+04  0.00000000000E+00 0.  1.
          2   -1    0    0  501    0  0.00000000000E+00 -0.00000000000E+00 -0.30350171123E+04  0.30350171123E+04  0.00000000000E+00 0. -1.
         23    2    1    2    0    0  0.13758001116E+04  0.18138168371E+03  0.14455601254E+04  0.20059029221E+04  0.90979088248E+02 0.  0.
         13    1    3    3    0    0  0.50222709091E+03  0.62301858832E+02  0.59092469997E+03  0.77801386459E+03  0.00000000000E+00 0.  1.
        -13    1    3    3    0    0  0.87357302070E+03  0.11907982488E+03  0.85463542547E+03  0.12278890576E+04  0.00000000000E+00 0. -1.
         22    1    1    2    0    0 -0.13758001116E+04 -0.18138168371E+03 -0.25800877182E+04  0.29296037097E+04  0.00000000000E+00 0. -1.
<mgrwt>
<rscale>  0 0.48033398E+04</rscale>
<asrwt>0</asrwt>
<pdfrwt beam="1">  1        2 0.46692571E+00 0.48033398E+04</pdfrwt>
<pdfrwt beam="2">  1       -2 0.29238300E+00 0.48033398E+04</pdfrwt>
<totfact> 0.43277375E-02</totfact>
</mgrwt>
</event>
<event>
 6    1  0.9512547E-007  0.2054173E+04  0.7818608E-02  0.8581703E-01
          2   -1    0    0  501    0  0.00000000000E+00  0.00000000000E+00  0.75578983880E+03  0.75578983880E+03  0.00000000000E+00 0. -1.
         -2   -1    0    0    0  501 -0.00000000000E+00 -0.00000000000E+00 -0.13957677811E+04  0.13957677811E+04  0.00000000000E+00 0.  1.
         23    2    1    2    0    0  0.42570412166E+03  0.37778696332E+03 -0.12135702396E+04  0.13435012404E+04  0.91081652676E+02 0.  0.
         11    1    3    3    0    0  0.24356435787E+03  0.27463144362E+03 -0.77021087192E+03  0.85321205657E+03  0.00000000000E+00 0. -1.
        -11    1    3    3    0    0  0.18213976379E+03  0.10315551970E+03 -0.44335936773E+03  0.49028918380E+03  0.00000000000E+00 0.  1.
         22    1    1    2    0    0 -0.42570412166E+03 -0.37778696332E+03  0.57359229738E+03  0.80805637951E+03  0.00000000000E+00 0. -1.
<mgrwt>
<rscale>  0 0.20541734E+04</rscale>
<asrwt>0</asrwt>
<pdfrwt beam="1">  1        2 0.11627536E+00 0.20541734E+04</pdfrwt>
<pdfrwt beam="2">  1       -2 0.21473350E+00 0.20541734E+04</pdfrwt>
<totfact> 0.36647796E+00</totfact>
</mgrwt>
</event>
<event>
 6    1  0.9512547E-007  0.5411767E+04  0.7818608E-02  0.7767948E-01
         -2   -1    0    0    0  501 -0.00000000000E+00  0.00000000000E+00  0.22954761839E+04  0.22954761839E+04  0.00000000000E+00 0.  1.
          2   -1    0    0  501    0  0.00000000000E+00 -0.00000000000E+00 -0.31896674362E+04  0.31896674362E+04  0.00000000000E+00 0. -1.
         23    2    1    2    0    0  0.31369162658E+02  0.24473507661E+04 -0.16149118906E+04  0.29336836389E+04  0.89718904006E+02 0.  0.
         11    1    3    3    0    0  0.15620501139E+02  0.41369154751E+03 -0.23542179219E+03  0.47624375773E+03  0.00000000000E+00 0.  1.
        -11    1    3    3    0    0  0.15748661519E+02  0.20336592186E+04 -0.13794900985E+04  0.24574398812E+04  0.00000000000E+00 0. -1.
         22    1    1    2    0    0 -0.31369162658E+02 -0.24473507661E+04  0.72072063836E+03  0.25514599812E+04  0.00000000000E+00 0.  1.
<mgrwt>
<rscale>  0 0.54117670E+04</rscale>
<asrwt>0</asrwt>
<pdfrwt beam="1">  1        2 0.49071807E+00 0.54117670E+04</pdfrwt>
<pdfrwt beam="2">  1       -2 0.35315018E+00 0.54117670E+04</pdfrwt>
<totfact> 0.13782633E-02</totfact>
</mgrwt>
</event>
<event>
 6    1  0.9512547E-007  0.1817543E+04  0.7818608E-02  0.8697026E-01
          3   -1    0    0  501    0  0.00000000000E+00  0.00000000000E+00  0.69953783422E+03  0.69953783422E+03  0.00000000000E+00 0. -1.
         -3   -1    0    0    0  501 -0.00000000000E+00 -0.00000000000E+00 -0.11805868967E+04  0.11805868967E+04  0.00000000000E+00 0.  1.
         23    2    1    2    0    0  0.61647581805E+02 -0.18958947892E+03  0.67360619673E+03  0.70838527077E+03  0.91212875860E+02 0.  0.
         11    1    3    3    0    0  0.17302000062E+02  0.62807791373E+01  0.57328226390E+02  0.60210737695E+02  0.00000000000E+00 0.  1.
        -11    1    3    3    0    0  0.44345581743E+02 -0.19587025805E+03  0.61627797034E+03  0.64817453308E+03  0.00000000000E+00 0. -1.
         22    1    1    2    0    0 -0.61647581805E+02  0.18958947892E+03 -0.11546552592E+04  0.11717394601E+04  0.00000000000E+00 0.  1.
<mgrwt>
<rscale>  0 0.18175425E+04</rscale>
<asrwt>0</asrwt>
<pdfrwt beam="1">  1        3 0.10762121E+00 0.18175425E+04</pdfrwt>
<pdfrwt beam="2">  1       -3 0.18162875E+00 0.18175425E+04</pdfrwt>
<totfact> 0.34964061E-01</totfact>
</mgrwt>
</event>
<event>
 6    1  0.9512547E-007  0.1588743E+04  0.7818608E-02  0.8827494E-01
         -1   -1    0    0    0  501 -0.00000000000E+00  0.00000000000E+00  0.61570198293E+03  0.61570198293E+03  0.00000000000E+00 0.  1.
          1   -1    0    0  501    0  0.00000000000E+00 -0.00000000000E+00 -0.10248883204E+04  0.10248883204E+04  0.00000000000E+00 0. -1.
         23    2    1    2    0    0  0.46720249673E+03  0.17313506362E+03  0.43020306404E+03  0.66446096223E+03  0.90442085405E+02 0.  0.
         11    1    3    3    0    0  0.31356287091E+03  0.91914910078E+02  0.23133035719E+03  0.40035454146E+03  0.00000000000E+00 0.  1.
        -11    1    3    3    0    0  0.15363962582E+03  0.81220153543E+02  0.19887270685E+03  0.26410642077E+03  0.00000000000E+00 0. -1.
         22    1    1    2    0    0 -0.46720249673E+03 -0.17313506362E+03 -0.83938940149E+03  0.97612934109E+03  0.00000000000E+00 0. -1.
<mgrwt>
<rscale>  0 0.15887426E+04</rscale>
<asrwt>0</asrwt>
<pdfrwt beam="1">  1        1 0.15767512E+00 0.15887426E+04</pdfrwt>
<pdfrwt beam="2">  1       -1 0.94723383E-01 0.15887426E+04</pdfrwt>
<totfact> 0.14982205E+01</totfact>
</mgrwt>
</event>
<event>
 6    1  0.9512547E-007  0.1570389E+04  0.7818608E-02  0.8838948E-01
         -1   -1    0    0    0  501 -0.00000000000E+00  0.00000000000E+00  0.21883718284E+04  0.21883718284E+04  0.00000000000E+00 0.  1.
          1   -1    0    0  501    0  0.00000000000E+00 -0.00000000000E+00 -0.28173020657E+03  0.28173020657E+03  0.00000000000E+00 0. -1.
         23    2    1    2    0    0  0.62019502129E+03 -0.46116955776E+03  0.11491424490E+04  0.13879171052E+04  0.92012484464E+02 0.  0.
         13    1    3    3    0    0  0.33603103829E+03 -0.24121191034E+03  0.69527440074E+03  0.80901578273E+03  0.00000000000E+00 0.  1.
        -13    1    3    3    0    0  0.28416398299E+03 -0.21995764742E+03  0.45386804827E+03  0.57890132245E+03  0.00000000000E+00 0. -1.
         22    1    1    2    0    0 -0.62019502129E+03  0.46116955776E+03  0.75749917281E+03  0.10821849298E+04  0.00000000000E+00 0.  1.
<mgrwt>
<rscale>  0 0.15703891E+04</rscale>
<asrwt>0</asrwt>
<pdfrwt beam="1">  1        1 0.43343110E-01 0.15703891E+04</pdfrwt>
<pdfrwt beam="2">  1       -1 0.33667258E+00 0.15703891E+04</pdfrwt>
<totfact> 0.17485648E+00</totfact>
</mgrwt>
</event>
<event>
 6    1  0.9512547E-007  0.7352279E+03  0.7818608E-02  0.9658815E-01
          2   -1    0    0  501    0  0.00000000000E+00  0.00000000000E+00  0.10737148757E+04  0.10737148757E+04  0.00000000000E+00 0. -1.
         -2   -1    0    0    0  501 -0.00000000000E+00 -0.00000000000E+00 -0.12586211276E+03  0.12586211276E+03  0.00000000000E+00 0.  1.
         23    2    1    2    0    0  0.43778739173E+02 -0.33591100490E+03  0.26934102964E+03  0.44120310083E+03  0.85806787145E+02 0.  0.
         11    1    3    3    0    0  0.48913505002E+02 -0.10727865798E+03  0.65626443257E+02  0.13493728723E+03  0.00000000000E+00 0. -1.
        -11    1    3    3    0    0 -0.51347658287E+01 -0.22863234691E+03  0.20371458638E+03  0.30626581360E+03  0.00000000000E+00 0.  1.
         22    1    1    2    0    0 -0.43778739173E+02  0.33591100490E+03  0.67851173325E+03  0.75837388759E+03  0.00000000000E+00 0. -1.
<mgrwt>
<rscale>  0 0.73522792E+03</rscale>
<asrwt>0</asrwt>
<pdfrwt beam="1">  1        2 0.16518690E+00 0.73522792E+03</pdfrwt>
<pdfrwt beam="2">  1       -2 0.19363403E-01 0.73522792E+03</pdfrwt>
<totfact> 0.51440571E+02</totfact>
</mgrwt>
</event>
<event>
 6    1  0.9512547E-007  0.4297715E+04  0.7818608E-02  0.7947041E-01
         -2   -1    0    0    0  501 -0.00000000000E+00  0.00000000000E+00  0.12942065909E+04  0.12942065909E+04  0.00000000000E+00 0.  1.
          2   -1    0    0  501    0  0.00000000000E+00 -0.00000000000E+00 -0.35678914474E+04  0.35678914474E+04  0.00000000000E+00 0. -1.
         23    2    1    2    0    0 -0.10307430846E+04 -0.18828904427E+04 -0.12219263867E+04  0.24717207449E+04  0.92690993143E+02 0.  0.
         11    1    3    3    0    0 -0.41178556892E+03 -0.84651020990E+03 -0.54466526300E+03  0.10875693720E+04  0.00000000000E+00 0.  1.
        -11    1    3    3    0    0 -0.61895751571E+03 -0.10363802328E+04 -0.67726112370E+03  0.13841513728E+04  0.00000000000E+00 0. -1.
         22    1    1    2    0    0  0.10307430846E+04  0.18828904427E+04 -0.10517584698E+04  0.23903772934E+04  0.00000000000E+00 0. -1.
<mgrwt>
<rscale>  0 0.42977150E+04</rscale>
<asrwt>0</asrwt>
<pdfrwt beam="1">  1        2 0.54890637E+00 0.42977150E+04</pdfrwt>
<pdfrwt beam="2">  1       -2 0.19910871E+00 0.42977150E+04</pdfrwt>
<totfact> 0.75418892E-02</totfact>
</mgrwt>
</event>
<event>
 6    1  0.9512547E-007  0.1984903E+04  0.7818608E-02  0.8613712E-01
         -2   -1    0    0    0  501 -0.00000000000E+00  0.00000000000E+00  0.63503293311E+03  0.63503293311E+03  0.00000000000E+00 0.  1.
          2   -1    0    0  501    0  0.00000000000E+00 -0.00000000000E+00 -0.15510381380E+04  0.15510381380E+04  0.00000000000E+00 0. -1.
         23    2    1    2    0    0 -0.70575530662E+03 -0.16194708955E+03 -0.12030974595E+04  0.14071363015E+04  0.90948674207E+02 0.  0.
         13    1    3    3    0    0 -0.21886036517E+03 -0.43088616336E+02 -0.29408418646E+03  0.36910973575E+03  0.00000000000E+00 0.  1.
        -13    1    3    3    0    0 -0.48689494145E+03 -0.11885847321E+03 -0.90901327300E+03  0.10380265657E+04  0.00000000000E+00 0. -1.
         22    1    1    2    0    0  0.70575530662E+03  0.16194708955E+03  0.28709225461E+03  0.77893476960E+03  0.00000000000E+00 0.  1.
<mgrwt>
<rscale>  0 0.19849033E+04</rscale>
<asrwt>0</asrwt>
<pdfrwt beam="1">  1        2 0.23862125E+00 0.19849033E+04</pdfrwt>
<pdfrwt beam="2">  1       -2 0.97697376E-01 0.19849033E+04</pdfrwt>
<totfact> 0.96452104E+00</totfact>
</mgrwt>
</event>
<event>
 6    1  0.9512547E-007  0.1196860E+04  0.7818608E-02  0.9115609E-01
         -2   -1    0    0    0  501 -0.00000000000E+00  0.00000000000E+00  0.27992138719E+03  0.27992138719E+03  0.00000000000E+00 0.  1.
          2   -1    0    0  501    0  0.00000000000E+00 -0.00000000000E+00 -0.12793536998E+04  0.12793536998E+04  0.00000000000E+00 0. -1.
         23    2    1    2    0    0 -0.68303711901E+02 -0.33699818136E+03  0.12959092302E+03  0.37905195644E+03  0.93023690793E+02 0.  0.
         11    1    3    3    0    0 -0.21951807081E+02 -0.80661626347E+02  0.76262975623E+02  0.11315573892E+03  0.00000000000E+00 0. -1.
        -11    1    3    3    0    0 -0.46351904820E+02 -0.25633655502E+03  0.53327947396E+02  0.26589621752E+03  0.00000000000E+00 0.  1.
         22    1    1    2    0    0  0.68303711901E+02  0.33699818136E+03 -0.11290232356E+04  0.11802231305E+04  0.00000000000E+00 0. -1.
<mgrwt>
<rscale>  0 0.11968600E+04</rscale>
<asrwt>0</asrwt>
<pdfrwt beam="1">  1        2 0.19682365E+00 0.11968600E+04</pdfrwt>
<pdfrwt beam="2">  1       -2 0.43064828E-01 0.11968600E+04</pdfrwt>
<totfact> 0.85717670E+01</totfact>
</mgrwt>
</event>
<event>
 6    1  0.9512547E-007  0.4035423E+04  0.7818608E-02  0.7997439E-01
         -2   -1    0    0    0  501 -0.00000000000E+00  0.00000000000E+00  0.16118108414E+04  0.16118108414E+04  0.00000000000E+00 0.  1.
          2   -1    0    0  501    0  0.00000000000E+00 -0.00000000000E+00 -0.25258296119E+04  0.25258296119E+04  0.00000000000E+00 0. -1.
         23    2    1    2    0    0 -0.16874272636E+04  0.10765254140E+04 -0.71005143075E+03  0.21256960176E+04  0.89959923534E+02 0.  0.
         13    1    3    3    0    0 -0.14550108434E+04  0.89119050216E+03 -0.61176019533E+03  0.18126024391E+04  0.00000000000E+00 0.  1.
        -13    1    3    3    0    0 -0.23241642015E+03  0.18533491188E+03 -0.98291235423E+02  0.31309357847E+03  0.00000000000E+00 0. -1.
         22    1    1    2    0    0  0.16874272636E+04 -0.10765254140E+04 -0.20396733971E+03  0.20119444358E+04  0.00000000000E+00 0.  1.
<mgrwt>
<rscale>  0 0.40354229E+04</rscale>
<asrwt>0</asrwt>
<pdfrwt beam="1">  1        2 0.38858917E+00 0.40354229E+04</pdfrwt>
<pdfrwt beam="2">  1       -2 0.24797090E+00 0.40354229E+04</pdfrwt>
<totfact> 0.17495635E-01</totfact>
</mgrwt>
</event>
<event>
 6    1  0.9512547E-007  0.1567009E+04  0.7818608E-02  0.8841076E-01
          2   -1    0    0  501    0  0.00000000000E+00  0.00000000000E+00  0.89277617457E+03  0.89277617457E+03  0.00000000000E+00 0. -1.
         -2   -1    0    0    0  501 -0.00000000000E+00 -0.00000000000E+00 -0.68760725550E+03  0.68760725550E+03  0.00000000000E+00 0.  1.
         23    2    1    2    0    0 -0.46208485789E+03  0.40633319341E+03  0.58796206295E+03  0.85570441771E+03  0.88890849134E+02 0.  0.
         11    1    3    3    0    0 -0.16185442715E+03  0.17927371852E+03  0.27647395611E+03  0.36711547249E+03  0.00000000000E+00 0.  1.
        -11    1    3    3    0    0 -0.30023043074E+03  0.22705947490E+03  0.31148810684E+03  0.48858894522E+03  0.00000000000E+00 0. -1.
         22    1    1    2    0    0  0.46208485789E+03 -0.40633319341E+03 -0.38279314387E+03  0.72467901236E+03  0.00000000000E+00 0.  1.
<mgrwt>
<rscale>  0 0.15670091E+04</rscale>
<asrwt>0</asrwt>
<pdfrwt beam="1">  1        2 0.13735018E+00 0.15670091E+04</pdfrwt>
<pdfrwt beam="2">  1       -2 0.10578573E+00 0.15670091E+04</pdfrwt>
<totfact> 0.20586805E+01</totfact>
</mgrwt>
</event>
<event>
 6    1  0.9512547E-007  0.1166276E+04  0.7818608E-02  0.9142899E-01
          4   -1    0    0  501    0  0.00000000000E+00  0.00000000000E+00  0.36888110571E+03  0.36888110571E+03  0.00000000000E+00 0. -1.
         -4   -1    0    0    0  501 -0.00000000000E+00 -0.00000000000E+00 -0.92184095323E+03  0.92184095323E+03  0.00000000000E+00 0.  1.
         23    2    1    2    0    0 -0.21168239026E+03 -0.53104954748E+03 -0.17252659438E+03  0.60402524351E+03  0.90873608956E+02 0.  0.
         11    1    3    3    0    0 -0.17480791013E+03 -0.32034080438E+03 -0.10646987114E+03  0.38014716868E+03  0.00000000000E+00 0.  1.
        -11    1    3    3    0    0 -0.36874480123E+02 -0.21070874311E+03 -0.66056723241E+02  0.22387807483E+03  0.00000000000E+00 0. -1.
         22    1    1    2    0    0  0.21168239026E+03  0.53104954748E+03 -0.38043325314E+03  0.68669681543E+03  0.00000000000E+00 0.  1.
<mgrwt>
<rscale>  0 0.11662756E+04</rscale>
<asrwt>0</asrwt>
<pdfrwt beam="1">  1        4 0.56750940E-01 0.11662756E+04</pdfrwt>
<pdfrwt beam="2">  1       -4 0.14182168E+00 0.11662756E+04</pdfrwt>
<totfact> 0.20117769E+00</totfact>
</mgrwt>
</event>
<event>
 6    1  0.9512547E-007  0.3474382E+04  0.7818608E-02  0.8119888E-01
          2   -1    0    0  501    0  0.00000000000E+00  0.00000000000E+00  0.27540847798E+04  0.27540847798E+04  0.00000000000E+00 0. -1.
         -2   -1    0    0    0  501 -0.00000000000E+00 -0.00000000000E+00 -0.10957660904E+04  0.10957660904E+04  0.00000000000E+00 0.  1.
         23    2    1    2    0    0  0.72673989408E+03 -0.49569829484E+03  0.24881104882E+04  0.26405444151E+04  0.88956920541E+02 0.  0.
         11    1    3    3    0    0  0.26339066812E+03 -0.16910283613E+03  0.10131215467E+04  0.10603705398E+04  0.00000000000E+00 0.  1.
        -11    1    3    3    0    0  0.46334922596E+03 -0.32659545870E+03  0.14749889414E+04  0.15801738753E+04  0.00000000000E+00 0. -1.
         22    1    1    2    0    0 -0.72673989408E+03  0.49569829484E+03 -0.82979179875E+03  0.12093064551E+04  0.00000000000E+00 0.  1.
<mgrwt>
<rscale>  0 0.34743821E+04</rscale>
<asrwt>0</asrwt>
<pdfrwt beam="1">  1        2 0.42370535E+00 0.34743821E+04</pdfrwt>
<pdfrwt beam="2">  1       -2 0.16857940E+00 0.34743821E+04</pdfrwt>
<totfact> 0.44261525E-01</totfact>
</mgrwt>
</event>
<event>
 6    1  0.9512547E-007  0.2384014E+04  0.7818608E-02  0.8445513E-01
          1   -1    0    0  501    0  0.00000000000E+00  0.00000000000E+00  0.19608788731E+04  0.19608788731E+04  0.00000000000E+00 0. -1.
         -1   -1    0    0    0  501 -0.00000000000E+00 -0.00000000000E+00 -0.72461409081E+03  0.72461409081E+03  0.00000000000E+00 0.  1.
         23    2    1    2    0    0  0.10361824712E+04  0.52890265335E+03  0.90304428199E+03  0.14753491575E+04  0.88056976243E+02 0.  0.
         13    1    3    3    0    0  0.61539285487E+02  0.35337654154E+02  0.30753188965E+02  0.77340753105E+02  0.00000000000E+00 0. -1.
        -13    1    3    3    0    0  0.97464318568E+03  0.49356499919E+03  0.87229109303E+03  0.13980084044E+04  0.00000000000E+00 0.  1.
         22    1    1    2    0    0 -0.10361824712E+04 -0.52890265335E+03  0.33322050026E+03  0.12101438064E+04  0.00000000000E+00 0.  1.
<mgrwt>
<rscale>  0 0.23840138E+04</rscale>
<asrwt>0</asrwt>
<pdfrwt beam="1">  1        1 0.30167367E+00 0.23840138E+04</pdfrwt>
<pdfrwt beam="2">  1       -1 0.11147909E+00 0.23840138E+04</pdfrwt>
<totfact> 0.21014603E+00</totfact>
</mgrwt>
</event>
<event>
 6    1  0.9647629E-007  0.1807707E+04  0.7818608E-02  0.8702212E-01
         -2   -1    0    0    0  501 -0.00000000000E+00  0.00000000000E+00  0.10268933664E+04  0.10268933664E+04  0.00000000000E+00 0.  1.
          2   -1    0    0  501    0  0.00000000000E+00 -0.00000000000E+00 -0.79555620240E+03  0.79555620240E+03  0.00000000000E+00 0. -1.
         23    2    1    2    0    0  0.24241964803E+03  0.37933688973E+01  0.99139754124E+03  0.10246567058E+04  0.90942863799E+02 0.  0.
         13    1    3    3    0    0  0.86118366680E+02 -0.10223116877E+02  0.53620381986E+03  0.54317163184E+03  0.00000000000E+00 0. -1.
        -13    1    3    3    0    0  0.15630128135E+03  0.14016485774E+02  0.45519372138E+03  0.48148507392E+03  0.00000000000E+00 0.  1.
         22    1    1    2    0    0 -0.24241964803E+03 -0.37933688973E+01 -0.76006037720E+03  0.79779286309E+03  0.00000000000E+00 0. -1.
<mgrwt>
<rscale>  0 0.18077073E+04</rscale>
<asrwt>0</asrwt>
<pdfrwt beam="1">  1        2 0.12239326E+00 0.18077073E+04</pdfrwt>
<pdfrwt beam="2">  1       -2 0.15798360E+00 0.18077073E+04</pdfrwt>
<totfact> 0.85328952E+00</totfact>
</mgrwt>
</event>
<event>
 6    1  0.9512547E-007  0.1792395E+04  0.7818608E-02  0.8710354E-01
         -1   -1    0    0    0  501 -0.00000000000E+00  0.00000000000E+00  0.36301461824E+03  0.36301461824E+03  0.00000000000E+00 0.  1.
          1   -1    0    0  501    0  0.00000000000E+00 -0.00000000000E+00 -0.22124996573E+04  0.22124996573E+04  0.00000000000E+00 0. -1.
         23    2    1    2    0    0 -0.63788121958E+03 -0.46211663129E+03 -0.15349064684E+04  0.17273374613E+04  0.85513782713E+02 0.  0.
         13    1    3    3    0    0 -0.26291211864E+03 -0.16780072228E+03 -0.69051242320E+03  0.75768546978E+03  0.00000000000E+00 0.  1.
        -13    1    3    3    0    0 -0.37496910094E+03 -0.29431590901E+03 -0.84439404523E+03  0.96965199147E+03  0.00000000000E+00 0. -1.
         22    1    1    2    0    0  0.63788121958E+03  0.46211663129E+03 -0.31457857064E+03  0.84817681430E+03  0.00000000000E+00 0.  1.
<mgrwt>
<rscale>  0 0.17923947E+04</rscale>
<asrwt>0</asrwt>
<pdfrwt beam="1">  1        1 0.34038457E+00 0.17923947E+04</pdfrwt>
<pdfrwt beam="2">  1       -1 0.55848401E-01 0.17923947E+04</pdfrwt>
<totfact> 0.65439908E+00</totfact>
</mgrwt>
</event>
<event>
 6    1  0.9512547E-007  0.3574546E+04  0.7818608E-02  0.8096347E-01
          1   -1    0    0  501    0  0.00000000000E+00  0.00000000000E+00  0.17986002123E+04  0.17986002123E+04  0.00000000000E+00 0. -1.
         -1   -1    0    0    0  501 -0.00000000000E+00 -0.00000000000E+00 -0.17760169524E+04  0.17760169524E+04  0.00000000000E+00 0.  1.
         23    2    1    2    0    0 -0.86764309879E+03  0.14295448012E+04 -0.61621913334E+03  0.17845134294E+04  0.91429066094E+02 0.  0.
         13    1    3    3    0    0 -0.63254876083E+03  0.11137953790E+04 -0.48307293717E+03  0.13689476045E+04  0.00000000000E+00 0. -1.
        -13    1    3    3    0    0 -0.23509433796E+03  0.31574942214E+03 -0.13314619617E+03  0.41556582496E+03  0.00000000000E+00 0.  1.
         22    1    1    2    0    0  0.86764309879E+03 -0.14295448012E+04  0.63880239315E+03  0.17901037352E+04  0.00000000000E+00 0. -1.
<mgrwt>
<rscale>  0 0.35745458E+04</rscale>
<asrwt>0</asrwt>
<pdfrwt beam="1">  1        1 0.27670773E+00 0.35745458E+04</pdfrwt>
<pdfrwt beam="2">  1       -1 0.27323337E+00 0.35745458E+04</pdfrwt>
<totfact> 0.16298162E-01</totfact>
</mgrwt>
</event>
<event>
 6    1  0.9512547E-007  0.2880792E+04  0.7818608E-02  0.8278615E-01
         -2   -1    0    0    0  501 -0.00000000000E+00  0.00000000000E+00  0.23270142158E+04  0.23270142158E+04  0.00000000000E+00 0.  1.
          2   -1    0    0  501    0  0.00000000000E+00 -0.00000000000E+00 -0.89158915015E+03  0.89158915015E+03  0.00000000000E+00 0. -1.
         23    2    1    2    0    0 -0.61365722215E+03  0.63643826876E+03  0.19868810566E+04  0.21766184495E+04  0.91338300790E+02 0.  0.
         13    1    3    3    0    0 -0.35181269590E+03  0.42618146217E+03  0.12057498995E+04  0.13263618028E+04  0.00000000000E+00 0. -1.
        -13    1    3    3    0    0 -0.26184452625E+03  0.21025680659E+03  0.78113115713E+03  0.85025664672E+03  0.00000000000E+00 0.  1.
         22    1    1    2    0    0  0.61365722215E+03 -0.63643826876E+03 -0.55145599096E+03  0.10419849165E+04  0.00000000000E+00 0. -1.
<mgrwt>
<rscale>  0 0.28807920E+04</rscale>
<asrwt>0</asrwt>
<pdfrwt beam="1">  1        2 0.13716756E+00 0.28807920E+04</pdfrwt>
<pdfrwt beam="2">  1       -2 0.35800219E+00 0.28807920E+04</pdfrwt>
<totfact> 0.35553626E-01</totfact>
</mgrwt>
</event>
<event>
 6    1  0.9512547E-007  0.3382423E+04  0.7818608E-02  0.8142234E-01
         -2   -1    0    0    0  501 -0.00000000000E+00  0.00000000000E+00  0.12234454219E+04  0.12234454219E+04  0.00000000000E+00 0.  1.
          2   -1    0    0  501    0  0.00000000000E+00 -0.00000000000E+00 -0.23378204558E+04  0.23378204558E+04  0.00000000000E+00 0. -1.
         23    2    1    2    0    0 -0.77563948631E+03 -0.38403395560E+03  0.97078657704E+03  0.13036127521E+04  0.88774644218E+02 0.  0.
         13    1    3    3    0    0 -0.11027056798E+03 -0.68855336368E+02  0.19230388526E+03  0.23212375965E+03  0.00000000000E+00 0.  1.
        -13    1    3    3    0    0 -0.66536891833E+03 -0.31517861924E+03  0.77848269178E+03  0.10714889924E+04  0.00000000000E+00 0. -1.
         22    1    1    2    0    0  0.77563948631E+03  0.38403395560E+03 -0.20851616110E+04  0.22576531256E+04  0.00000000000E+00 0. -1.
<mgrwt>
<rscale>  0 0.33824226E+04</rscale>
<asrwt>0</asrwt>
<pdfrwt beam="1">  1        2 0.35966468E+00 0.33824226E+04</pdfrwt>
<pdfrwt beam="2">  1       -2 0.18822237E+00 0.33824226E+04</pdfrwt>
<totfact> 0.57029328E-01</totfact>
</mgrwt>
</event>
<event>
 6    1  0.9512547E-007  0.4008410E+04  0.7818608E-02  0.8002852E-01
         -1   -1    0    0    0  501 -0.00000000000E+00  0.00000000000E+00  0.33490637377E+04  0.33490637377E+04  0.00000000000E+00 0.  1.
          1   -1    0    0  501    0  0.00000000000E+00 -0.00000000000E+00 -0.11993912627E+04  0.11993912627E+04  0.00000000000E+00 0. -1.
         23    2    1    2    0    0  0.19536411875E+04  0.40554412319E+03  0.12761789455E+04  0.23703432330E+04  0.93351035670E+02 0.  0.
         13    1    3    3    0    0  0.11474813461E+04  0.20104172713E+03  0.71106301523E+03  0.13648230022E+04  0.00000000000E+00 0.  1.
        -13    1    3    3    0    0  0.80615984144E+03  0.20450239606E+03  0.56511593029E+03  0.10055202308E+04  0.00000000000E+00 0. -1.
         22    1    1    2    0    0 -0.19536411875E+04 -0.40554412319E+03  0.87349352951E+03  0.21781117674E+04  0.00000000000E+00 0. -1.
<mgrwt>
<rscale>  0 0.40084101E+04</rscale>
<asrwt>0</asrwt>
<pdfrwt beam="1">  1        1 0.18452173E+00 0.40084101E+04</pdfrwt>
<pdfrwt beam="2">  1       -1 0.51524057E+00 0.40084101E+04</pdfrwt>
<totfact> 0.99953427E-03</totfact>
</mgrwt>
</event>
<event>
 6    1  0.9512547E-007  0.1311856E+04  0.7818608E-02  0.9020216E-01
         -2   -1    0    0    0  501 -0.00000000000E+00  0.00000000000E+00  0.22245566136E+03  0.22245566136E+03  0.00000000000E+00 0.  1.
          2   -1    0    0  501    0  0.00000000000E+00 -0.00000000000E+00 -0.19340547316E+04  0.19340547316E+04  0.00000000000E+00 0. -1.
         23    2    1    2    0    0 -0.17473325276E+03  0.72459246296E+01 -0.18925437565E+04  0.19048654198E+04  0.12730351198E+03 0.  0.
         11    1    3    3    0    0 -0.12788724162E+03  0.60820691451E+02 -0.10873874564E+04  0.10965700085E+04  0.00000000000E+00 0. -1.
        -11    1    3    3    0    0 -0.46846011141E+02 -0.53574766822E+02 -0.80515630006E+03  0.80829541130E+03  0.00000000000E+00 0.  1.
         22    1    1    2    0    0  0.17473325276E+03 -0.72459246296E+01  0.18094468626E+03  0.25164497319E+03  0.00000000000E+00 0.  1.
<mgrwt>
<rscale>  0 0.13118558E+04</rscale>
<asrwt>0</asrwt>
<pdfrwt beam="1">  1        2 0.29754688E+00 0.13118558E+04</pdfrwt>
<pdfrwt beam="2">  1       -2 0.34223948E-01 0.13118558E+04</pdfrwt>
<totfact> 0.56965345E+01</totfact>
</mgrwt>
</event>
<event>
 6    1  0.9512547E-007  0.1578492E+04  0.7818608E-02  0.8833871E-01
         -1   -1    0    0    0  501 -0.00000000000E+00  0.00000000000E+00  0.87206900822E+03  0.87206900822E+03  0.00000000000E+00 0.  1.
          1   -1    0    0  501    0  0.00000000000E+00 -0.00000000000E+00 -0.71428911386E+03  0.71428911386E+03  0.00000000000E+00 0. -1.
         23    2    1    2    0    0 -0.58297241360E+03  0.27811091518E+03  0.53017329908E+03  0.84078494389E+03  0.92914361955E+02 0.  0.
         11    1    3    3    0    0 -0.14623960785E+03  0.28030202416E+02  0.13348500038E+03  0.19997489962E+03  0.00000000000E+00 0.  1.
        -11    1    3    3    0    0 -0.43673280575E+03  0.25008071276E+03  0.39668829870E+03  0.64081004427E+03  0.00000000000E+00 0. -1.
         22    1    1    2    0    0  0.58297241360E+03 -0.27811091518E+03 -0.37239340471E+03  0.74557317819E+03  0.00000000000E+00 0. -1.
<mgrwt>
<rscale>  0 0.15784922E+04</rscale>
<asrwt>0</asrwt>
<pdfrwt beam="1">  1        1 0.10989063E+00 0.15784922E+04</pdfrwt>
<pdfrwt beam="2">  1       -1 0.13416446E+00 0.15784922E+04</pdfrwt>
<totfact> 0.11886086E+01</totfact>
</mgrwt>
</event>
<event>
 6    1  0.9512547E-007  0.8733292E+03  0.7818608E-02  0.9459549E-01
          1   -1    0    0  501    0  0.00000000000E+00  0.00000000000E+00  0.23862952788E+03  0.23862952788E+03  0.00000000000E+00 0. -1.
         -1   -1    0    0    0  501 -0.00000000000E+00 -0.00000000000E+00 -0.79904606802E+03  0.79904606802E+03  0.00000000000E+00 0.  1.
         23    2    1    2    0    0  0.39560038336E+03 -0.15573454095E+03 -0.37468219969E+03  0.57372499963E+03  0.89558438334E+02 0.  0.
         13    1    3    3    0    0  0.28323998871E+02 -0.40505571027E+02 -0.38321568926E+02  0.62541928666E+02  0.00000000000E+00 0. -1.
        -13    1    3    3    0    0  0.36727638449E+03 -0.11522896992E+03 -0.33636063076E+03  0.51118307096E+03  0.00000000000E+00 0.  1.
         22    1    1    2    0    0 -0.39560038336E+03  0.15573454095E+03 -0.18573434045E+03  0.46395059627E+03  0.00000000000E+00 0. -1.
<mgrwt>
<rscale>  0 0.87332923E+03</rscale>
<asrwt>0</asrwt>
<pdfrwt beam="1">  1        1 0.36712235E-01 0.87332923E+03</pdfrwt>
<pdfrwt beam="2">  1       -1 0.12293016E+00 0.87332923E+03</pdfrwt>
<totfact> 0.69603143E+01</totfact>
</mgrwt>
</event>
<event>
 6    1  0.9512547E-007  0.2694530E+04  0.7818608E-02  0.8336782E-01
          1   -1    0    0  501    0  0.00000000000E+00  0.00000000000E+00  0.14737135744E+04  0.14737135744E+04  0.00000000000E+00 0. -1.
         -1   -1    0    0    0  501 -0.00000000000E+00 -0.00000000000E+00 -0.12316658431E+04  0.12316658431E+04  0.00000000000E+00 0.  1.
         23    2    1    2    0    0 -0.77456029736E+02 -0.71362244579E+03 -0.10214310550E+04  0.12522328059E+04  0.97514965108E+02 0.  0.
         11    1    3    3    0    0 -0.17759711706E+02 -0.25855207655E+03 -0.45012169617E+03  0.51939784849E+03  0.00000000000E+00 0. -1.
        -11    1    3    3    0    0 -0.59696318031E+02 -0.45507036924E+03 -0.57130935880E+03  0.73283495740E+03  0.00000000000E+00 0.  1.
         22    1    1    2    0    0  0.77456029736E+02  0.71362244579E+03  0.12634787862E+04  0.14531466116E+04  0.00000000000E+00 0. -1.
<mgrwt>
<rscale>  0 0.26945298E+04</rscale>
<asrwt>0</asrwt>
<pdfrwt beam="1">  1        1 0.22672517E+00 0.26945298E+04</pdfrwt>
<pdfrwt beam="2">  1       -1 0.18948705E+00 0.26945298E+04</pdfrwt>
<totfact> 0.10619804E+00</totfact>
</mgrwt>
</event>
<event>
 6    1  0.9512547E-007  0.1133581E+04  0.7818608E-02  0.9173066E-01
          2   -1    0    0  501    0  0.00000000000E+00  0.00000000000E+00  0.38139372104E+03  0.38139372104E+03  0.00000000000E+00 0. -1.
         -2   -1    0    0    0  501 -0.00000000000E+00 -0.00000000000E+00 -0.84230973117E+03  0.84230973117E+03  0.00000000000E+00 0.  1.
         23    2    1    2    0    0 -0.13825467623E+03 -0.54466526760E+03 -0.27247158736E+03  0.63100967824E+03  0.90320755587E+02 0.  0.
         11    1    3    3    0    0  0.21177765459E+01 -0.12341266121E+03 -0.39621534042E+02  0.12963423886E+03  0.00000000000E+00 0. -1.
        -11    1    3    3    0    0 -0.14037245278E+03 -0.42125260638E+03 -0.23285005332E+03  0.50137543938E+03  0.00000000000E+00 0.  1.
         22    1    1    2    0    0  0.13825467623E+03  0.54466526760E+03 -0.18844442277E+03  0.59269377396E+03  0.00000000000E+00 0. -1.
<mgrwt>
<rscale>  0 0.11335813E+04</rscale>
<asrwt>0</asrwt>
<pdfrwt beam="1">  1        2 0.58675958E-01 0.11335813E+04</pdfrwt>
<pdfrwt beam="2">  1       -2 0.12958611E+00 0.11335813E+04</pdfrwt>
<totfact> 0.36377530E+01</totfact>
</mgrwt>
</event>
<event>
 6    1  0.9512547E-007  0.2924493E+04  0.7818608E-02  0.8265627E-01
          1   -1    0    0  501    0  0.00000000000E+00  0.00000000000E+00  0.15066177741E+04  0.15066177741E+04  0.00000000000E+00 0. -1.
         -1   -1    0    0    0  501 -0.00000000000E+00 -0.00000000000E+00 -0.14191818721E+04  0.14191818721E+04  0.00000000000E+00 0.  1.
         23    2    1    2    0    0  0.41059132145E+03  0.13947333574E+04 -0.98190706734E+02  0.14600835723E+04  0.91303075614E+02 0.  0.
         13    1    3    3    0    0  0.15781667838E+03  0.62938466731E+03 -0.80843766136E+02  0.65388598237E+03  0.00000000000E+00 0. -1.
        -13    1    3    3    0    0  0.25277464307E+03  0.76534869010E+03 -0.17346940598E+02  0.80619758990E+03  0.00000000000E+00 0.  1.
         22    1    1    2    0    0 -0.41059132145E+03 -0.13947333574E+04  0.18562660866E+03  0.14657160739E+04  0.00000000000E+00 0. -1.
<mgrwt>
<rscale>  0 0.29244929E+04</rscale>
<asrwt>0</asrwt>
<pdfrwt beam="1">  1        1 0.23178735E+00 0.29244929E+04</pdfrwt>
<pdfrwt beam="2">  1       -1 0.21833567E+00 0.29244929E+04</pdfrwt>
<totfact> 0.62609296E-01</totfact>
</mgrwt>
</event>
<event>
 6    1  0.9512547E-007  0.3204012E+04  0.7818608E-02  0.8187758E-01
         -2   -1    0    0    0  501 -0.00000000000E+00  0.00000000000E+00  0.72219023927E+03  0.72219023927E+03  0.00000000000E+00 0.  1.
          2   -1    0    0  501    0  0.00000000000E+00 -0.00000000000E+00 -0.35536659362E+04  0.35536659362E+04  0.00000000000E+00 0. -1.
         23    2    1    2    0    0  0.72774884236E+03 -0.12614216684E+04 -0.23037333869E+04  0.27268839521E+04  0.88913256126E+02 0.  0.
         13    1    3    3    0    0  0.44909540261E+03 -0.83935374736E+03 -0.14488692493E+04  0.17336157288E+04  0.00000000000E+00 0. -1.
        -13    1    3    3    0    0  0.27865343976E+03 -0.42206792102E+03 -0.85486413765E+03  0.99326822323E+03  0.00000000000E+00 0.  1.
         22    1    1    2    0    0 -0.72774884236E+03  0.12614216684E+04 -0.52774231002E+03  0.15489722234E+04  0.00000000000E+00 0.  1.
<mgrwt>
<rscale>  0 0.32040118E+04</rscale>
<asrwt>0</asrwt>
<pdfrwt beam="1">  1        2 0.54671783E+00 0.32040118E+04</pdfrwt>
<pdfrwt beam="2">  1       -2 0.11110619E+00 0.32040118E+04</pdfrwt>
<totfact> 0.40166950E-01</totfact>
</mgrwt>
</event>
<event>
 6    1  0.9512547E-007  0.3885143E+04  0.7818608E-02  0.8028126E-01
         -2   -1    0    0    0  501 -0.00000000000E+00  0.00000000000E+00  0.15341121852E+04  0.15341121852E+04  0.00000000000E+00 0.  1.
          2   -1    0    0  501    0  0.00000000000E+00 -0.00000000000E+00 -0.24597842171E+04  0.24597842171E+04  0.00000000000E+00 0. -1.
         23    2    1    2    0    0 -0.10487288528E+03 -0.99149734085E+03 -0.21756815512E+04  0.23949626646E+04  0.90502230386E+02 0.  0.
         11    1    3    3    0    0 -0.81413587390E+01 -0.20913505749E+03 -0.37909060708E+03  0.43302822352E+03  0.00000000000E+00 0.  1.
        -11    1    3    3    0    0 -0.96731526546E+02 -0.78236228336E+03 -0.17965909441E+04  0.19619344411E+04  0.00000000000E+00 0. -1.
         22    1    1    2    0    0  0.10487288528E+03  0.99149734085E+03  0.12500095194E+04  0.15989337377E+04  0.00000000000E+00 0.  1.
<mgrwt>
<rscale>  0 0.38851435E+04</rscale>
<asrwt>0</asrwt>
<pdfrwt beam="1">  1        2 0.37842834E+00 0.38851435E+04</pdfrwt>
<pdfrwt beam="2">  1       -2 0.23601726E+00 0.38851435E+04</pdfrwt>
<totfact> 0.22931996E-01</totfact>
</mgrwt>
</event>
<event>
 6    1  0.9512547E-007  0.5605443E+04  0.7818608E-02  0.7741345E-01
         -2   -1    0    0    0  501 -0.00000000000E+00  0.00000000000E+00  0.20810613683E+04  0.20810613683E+04  0.00000000000E+00 0.  1.
          2   -1    0    0  501    0  0.00000000000E+00 -0.00000000000E+00 -0.37746357186E+04  0.37746357186E+04  0.00000000000E+00 0. -1.
         23    2    1    2    0    0  0.10313190725E+04  0.14438879547E+04  0.14183838605E+04  0.22734191300E+04  0.90500331223E+02 0.  0.
         13    1    3    3    0    0  0.30931455240E+03  0.44454767760E+03  0.38094902277E+03  0.66213313459E+03  0.00000000000E+00 0. -1.
        -13    1    3    3    0    0  0.72200452010E+03  0.99934027711E+03  0.10374348377E+04  0.16112859954E+04  0.00000000000E+00 0.  1.
         22    1    1    2    0    0 -0.10313190725E+04 -0.14438879547E+04 -0.31119582108E+04  0.35822779569E+04  0.00000000000E+00 0. -1.
<mgrwt>
<rscale>  0 0.56054433E+04</rscale>
<asrwt>0</asrwt>
<pdfrwt beam="1">  1        2 0.58071318E+00 0.56054433E+04</pdfrwt>
<pdfrwt beam="2">  1       -2 0.32016329E+00 0.56054433E+04</pdfrwt>
<totfact> 0.84807023E-03</totfact>
</mgrwt>
</event>
<event>
 6    1  0.9512547E-007  0.3520790E+04  0.7818608E-02  0.8108881E-01
          2   -1    0    0  501    0  0.00000000000E+00  0.00000000000E+00  0.24505709060E+04  0.24505709060E+04  0.00000000000E+00 0. -1.
         -2   -1    0    0    0  501 -0.00000000000E+00 -0.00000000000E+00 -0.12645993845E+04  0.12645993845E+04  0.00000000000E+00 0.  1.
         23    2    1    2    0    0 -0.36543606306E+03  0.21369921182E+03  0.23951801142E+04  0.24340003994E+04  0.90880665338E+02 0.  0.
         11    1    3    3    0    0 -0.11236428084E+03  0.97744338057E+02  0.65679244775E+03  0.67346566850E+03  0.00000000000E+00 0. -1.
        -11    1    3    3    0    0 -0.25307178223E+03  0.11595487376E+03  0.17383876665E+04  0.17605347309E+04  0.00000000000E+00 0.  1.
         22    1    1    2    0    0  0.36543606306E+03 -0.21369921182E+03 -0.12092085927E+04  0.12811698911E+04  0.00000000000E+00 0.  1.
<mgrwt>
<rscale>  0 0.35207899E+04</rscale>
<asrwt>0</asrwt>
<pdfrwt beam="1">  1        2 0.37701091E+00 0.35207899E+04</pdfrwt>
<pdfrwt beam="2">  1       -2 0.19455375E+00 0.35207899E+04</pdfrwt>
<totfact> 0.44069192E-01</totfact>
</mgrwt>
</event>
<event>
 6    1  0.9512547E-007  0.1746353E+04  0.7818608E-02  0.8735360E-01
          3   -1    0    0  501    0  0.00000000000E+00  0.00000000000E+00  0.32424014711E+03  0.32424014711E+03  0.00000000000E+00 0. -1.
         -3   -1    0    0    0  501 -0.00000000000E+00 -0.00000000000E+00 -0.23514590874E+04  0.23514590874E+04  0.00000000000E+00 0.  1.
         23    2    1    2    0    0 -0.52150481481E+03 -0.60851142211E+03 -0.49461700040E+03  0.94621314644E+03  0.91760114994E+02 0.  0.
         11    1    3    3    0    0 -0.26586576173E+03 -0.29525591631E+03 -0.29776246882E+03  0.49651097391E+03  0.00000000000E+00 0.  1.
        -11    1    3    3    0    0 -0.25563905308E+03 -0.31325550580E+03 -0.19685453158E+03  0.44970217253E+03  0.00000000000E+00 0. -1.
         22    1    1    2    0    0  0.52150481481E+03  0.60851142211E+03 -0.15326019399E+04  0.17294860881E+04  0.00000000000E+00 0.  1.
<mgrwt>
<rscale>  0 0.17463533E+04</rscale>
<asrwt>0</asrwt>
<pdfrwt beam="1">  1        3 0.49883098E-01 0.17463533E+04</pdfrwt>
<pdfrwt beam="2">  1       -3 0.36176295E+00 0.17463533E+04</pdfrwt>
<totfact> 0.17112685E-01</totfact>
</mgrwt>
</event>
<event>
 6    1  0.9512547E-007  0.9478895E+03  0.7818608E-02  0.9367621E-01
          1   -1    0    0  501    0  0.00000000000E+00  0.00000000000E+00  0.93118158571E+03  0.93118158571E+03  0.00000000000E+00 0. -1.
         -1   -1    0    0    0  501 -0.00000000000E+00 -0.00000000000E+00 -0.24122429983E+03  0.24122429983E+03  0.00000000000E+00 0.  1.
         23    2    1    2    0    0 -0.32703574498E+02 -0.43590247496E+03  0.55955198413E+03  0.71624140404E+03  0.93929944441E+02 0.  0.
         11    1    3    3    0    0  0.19474182946E+02 -0.29474030984E+03  0.34511980596E+03  0.45426729412E+03  0.00000000000E+00 0.  1.
        -11    1    3    3    0    0 -0.52177757445E+02 -0.14116216512E+03  0.21443217817E+03  0.26197410992E+03  0.00000000000E+00 0. -1.
         22    1    1    2    0    0  0.32703574498E+02  0.43590247496E+03  0.13040530174E+03  0.45616448150E+03  0.00000000000E+00 0.  1.
<mgrwt>
<rscale>  0 0.94788950E+03</rscale>
<asrwt>0</asrwt>
<pdfrwt beam="1">  1        1 0.14325870E+00 0.94788950E+03</pdfrwt>
<pdfrwt beam="2">  1       -1 0.37111431E-01 0.94788950E+03</pdfrwt>
<totfact> 0.12034062E+02</totfact>
</mgrwt>
</event>
<event>
 6    1  0.9512547E-007  0.1646142E+04  0.7818608E-02  0.8792692E-01
         -1   -1    0    0    0  501 -0.00000000000E+00  0.00000000000E+00  0.10846237284E+04  0.10846237284E+04  0.00000000000E+00 0.  1.
          1   -1    0    0  501    0  0.00000000000E+00 -0.00000000000E+00 -0.62459053511E+03  0.62459053511E+03  0.00000000000E+00 0. -1.
         23    2    1    2    0    0  0.10985068746E+03 -0.79133455595E+03  0.42776330933E+03  0.90964006538E+03  0.78651425709E+02 0.  0.
         13    1    3    3    0    0  0.51482972041E+01 -0.57396186123E+02  0.94468351930E+01  0.58395803280E+02  0.00000000000E+00 0. -1.
        -13    1    3    3    0    0  0.10470239026E+03 -0.73393836982E+03  0.41831647413E+03  0.85124426210E+03  0.00000000000E+00 0.  1.
         22    1    1    2    0    0 -0.10985068746E+03  0.79133455595E+03  0.32269884002E+02  0.79957419817E+03  0.00000000000E+00 0. -1.
<mgrwt>
<rscale>  0 0.16461418E+04</rscale>
<asrwt>0</asrwt>
<pdfrwt beam="1">  1        1 0.96090852E-01 0.16461418E+04</pdfrwt>
<pdfrwt beam="2">  1       -1 0.16686519E+00 0.16461418E+04</pdfrwt>
<totfact> 0.80136894E+00</totfact>
</mgrwt>
</event>
<event>
 6    1  0.9512547E-007  0.2884629E+04  0.7818608E-02  0.8277466E-01
          1   -1    0    0  501    0  0.00000000000E+00  0.00000000000E+00  0.16501602618E+04  0.16501602618E+04  0.00000000000E+00 0. -1.
         -1   -1    0    0    0  501 -0.00000000000E+00 -0.00000000000E+00 -0.12606479760E+04  0.12606479760E+04  0.00000000000E+00 0.  1.
         23    2    1    2    0    0  0.10698785466E+04  0.10766279158E+03 -0.77288467115E+03  0.13273316619E+04  0.90704158900E+02 0.  0.
         13    1    3    3    0    0  0.75726123774E+03  0.10762577143E+03 -0.51523165968E+03  0.92222098870E+03  0.00000000000E+00 0.  1.
        -13    1    3    3    0    0  0.31261730889E+03  0.37020152162E-01 -0.25765301147E+03  0.40511067316E+03  0.00000000000E+00 0. -1.
         22    1    1    2    0    0 -0.10698785466E+04 -0.10766279158E+03  0.11623969569E+04  0.15834765760E+04  0.00000000000E+00 0. -1.
<mgrwt>
<rscale>  0 0.28846291E+04</rscale>
<asrwt>0</asrwt>
<pdfrwt beam="1">  1        1 0.25387081E+00 0.28846291E+04</pdfrwt>
<pdfrwt beam="2">  1       -1 0.19394584E+00 0.28846291E+04</pdfrwt>
<totfact> 0.73466039E-01</totfact>
</mgrwt>
</event>
<event>
 6    1  0.9512547E-007  0.2076143E+04  0.7818608E-02  0.8571826E-01
          2   -1    0    0  501    0  0.00000000000E+00  0.00000000000E+00  0.25938303781E+04  0.25938303781E+04  0.00000000000E+00 0. -1.
         -2   -1    0    0    0  501 -0.00000000000E+00 -0.00000000000E+00 -0.41544446411E+03  0.41544446411E+03  0.00000000000E+00 0.  1.
         23    2    1    2    0    0  0.93913372808E+03 -0.60341798753E+02  0.46267900046E+03  0.10524244379E+04  0.88949693883E+02 0.  0.
         11    1    3    3    0    0  0.55519381397E+03 -0.56052826179E+02  0.23070839088E+03  0.60382816431E+03  0.00000000000E+00 0.  1.
        -11    1    3    3    0    0  0.38393991411E+03 -0.42889725745E+01  0.23197060958E+03  0.44859627355E+03  0.00000000000E+00 0. -1.
         22    1    1    2    0    0 -0.93913372808E+03  0.60341798753E+02  0.17157069136E+04  0.19568504044E+04  0.00000000000E+00 0. -1.
<mgrwt>
<rscale>  0 0.20761430E+04</rscale>
<asrwt>0</asrwt>
<pdfrwt beam="1">  1        2 0.39905082E+00 0.20761430E+04</pdfrwt>
<pdfrwt beam="2">  1       -2 0.63914535E-01 0.20761430E+04</pdfrwt>
<totfact> 0.64175080E+00</totfact>
</mgrwt>
</event>
<event>
 6    1  0.9512547E-007  0.1974687E+04  0.7818608E-02  0.8618547E-01
          1   -1    0    0  501    0  0.00000000000E+00  0.00000000000E+00  0.11842801657E+04  0.11842801657E+04  0.00000000000E+00 0. -1.
         -1   -1    0    0    0  501 -0.00000000000E+00 -0.00000000000E+00 -0.82315603694E+03  0.82315603694E+03  0.00000000000E+00 0.  1.
         23    2    1    2    0    0  0.94002974709E+03 -0.16520579573E+03 -0.67294365630E+02  0.96125682667E+03  0.92397374543E+02 0.  0.
         11    1    3    3    0    0  0.56366694070E+03 -0.74640879112E+02 -0.14396234747E+01  0.56858926598E+03  0.00000000000E+00 0.  1.
        -11    1    3    3    0    0  0.37636280639E+03 -0.90564916613E+02 -0.65854742155E+02  0.39266756069E+03  0.00000000000E+00 0. -1.
         22    1    1    2    0    0 -0.94002974709E+03  0.16520579573E+03  0.42841849439E+03  0.10461793760E+04  0.00000000000E+00 0. -1.
<mgrwt>
<rscale>  0 0.19746872E+04</rscale>
<asrwt>0</asrwt>
<pdfrwt beam="1">  1        1 0.18219695E+00 0.19746872E+04</pdfrwt>
<pdfrwt beam="2">  1       -1 0.12663939E+00 0.19746872E+04</pdfrwt>
<totfact> 0.55267434E+00</totfact>
</mgrwt>
</event>
<event>
 6    1  0.9512547E-007  0.9036218E+03  0.7818608E-02  0.9421065E-01
          2   -1    0    0  501    0  0.00000000000E+00  0.00000000000E+00  0.12031961064E+03  0.12031961064E+03  0.00000000000E+00 0. -1.
         -2   -1    0    0    0  501 -0.00000000000E+00 -0.00000000000E+00 -0.16965902053E+04  0.16965902053E+04  0.00000000000E+00 0.  1.
         23    2    1    2    0    0 -0.23786737386E+03 -0.29832614526E+02 -0.15552636981E+04  0.15762603569E+04  0.90998183844E+02 0.  0.
         11    1    3    3    0    0 -0.21685214001E+03 -0.54836747427E+02 -0.13698542232E+04  0.13879958617E+04  0.00000000000E+00 0. -1.
        -11    1    3    3    0    0 -0.21015233847E+02  0.25004132901E+02 -0.18540947498E+03  0.18826449514E+03  0.00000000000E+00 0.  1.
         22    1    1    2    0    0  0.23786737386E+03  0.29832614526E+02 -0.21006896501E+02  0.24064945904E+03  0.00000000000E+00 0. -1.
<mgrwt>
<rscale>  0 0.90362176E+03</rscale>
<asrwt>0</asrwt>
<pdfrwt beam="1">  1        2 0.18510709E-01 0.90362176E+03</pdfrwt>
<pdfrwt beam="2">  1       -2 0.26101388E+00 0.90362176E+03</pdfrwt>
<totfact> 0.17412445E+01</totfact>
</mgrwt>
</event>
<event>
 6    1  0.9512547E-007  0.2217731E+04  0.7818608E-02  0.8511084E-01
         -1   -1    0    0    0  501 -0.00000000000E+00  0.00000000000E+00  0.11212329347E+04  0.11212329347E+04  0.00000000000E+00 0.  1.
          1   -1    0    0  501    0  0.00000000000E+00 -0.00000000000E+00 -0.10966341411E+04  0.10966341411E+04  0.00000000000E+00 0. -1.
         23    2    1    2    0    0  0.60037203274E+03  0.87439534564E+03  0.32931427703E+03  0.11142977195E+04  0.90541242213E+02 0.  0.
         13    1    3    3    0    0  0.29921453318E+03  0.43832717493E+03  0.21213798041E+03  0.57154402444E+03  0.00000000000E+00 0. -1.
        -13    1    3    3    0    0  0.30115749956E+03  0.43606817071E+03  0.11717629662E+03  0.54275369510E+03  0.00000000000E+00 0.  1.
         22    1    1    2    0    0 -0.60037203274E+03 -0.87439534564E+03 -0.30471548339E+03  0.11035693562E+04  0.00000000000E+00 0. -1.
<mgrwt>
<rscale>  0 0.22177307E+04</rscale>
<asrwt>0</asrwt>
<pdfrwt beam="1">  1        1 0.16871294E+00 0.22177307E+04</pdfrwt>
<pdfrwt beam="2">  1       -1 0.17249738E+00 0.22177307E+04</pdfrwt>
<totfact> 0.27387929E+00</totfact>
</mgrwt>
</event>
<event>
 6    1  0.9512547E-007  0.1972426E+04  0.7818608E-02  0.8619622E-01
          1   -1    0    0  501    0  0.00000000000E+00  0.00000000000E+00  0.11629724175E+04  0.11629724175E+04  0.00000000000E+00 0. -1.
         -1   -1    0    0    0  501 -0.00000000000E+00 -0.00000000000E+00 -0.83631933747E+03  0.83631933747E+03  0.00000000000E+00 0.  1.
         23    2    1    2    0    0  0.90795032100E+03  0.26375841099E+03  0.44070106477E+03  0.10469529352E+04  0.89166895257E+02 0.  0.
         13    1    3    3    0    0  0.40658688609E+03  0.13848117380E+03  0.15624159012E+03  0.45705728953E+03  0.00000000000E+00 0. -1.
        -13    1    3    3    0    0  0.50136343491E+03  0.12527723720E+03  0.28445947465E+03  0.58989564564E+03  0.00000000000E+00 0.  1.
         22    1    1    2    0    0 -0.90795032100E+03 -0.26375841099E+03 -0.11404798478E+03  0.95233881975E+03  0.00000000000E+00 0.  1.
<mgrwt>
<rscale>  0 0.19724262E+04</rscale>
<asrwt>0</asrwt>
<pdfrwt beam="1">  1        1 0.17891884E+00 0.19724262E+04</pdfrwt>
<pdfrwt beam="2">  1       -1 0.12866451E+00 0.19724262E+04</pdfrwt>
<totfact> 0.55075937E+00</totfact>
</mgrwt>
</event>
<event>
 6    1  0.9512547E-007  0.1609507E+04  0.7818608E-02  0.8814729E-01
          1   -1    0    0  501    0  0.00000000000E+00  0.00000000000E+00  0.21797178021E+04  0.21797178021E+04  0.00000000000E+00 0. -1.
         -1   -1    0    0    0  501 -0.00000000000E+00 -0.00000000000E+00 -0.29711566128E+03  0.29711566128E+03  0.00000000000E+00 0.  1.
         23    2    1    2    0    0 -0.32739146536E+03 -0.34551826715E+03 -0.53823647574E+02  0.48276403668E+03  0.59967370675E+02 0.  0.
         11    1    3    3    0    0 -0.26791313084E+03 -0.25719952877E+03 -0.23882650220E+02  0.37215510780E+03  0.00000000000E+00 0.  1.
        -11    1    3    3    0    0 -0.59478334527E+02 -0.88318738378E+02 -0.29940997354E+02  0.11060892889E+03  0.00000000000E+00 0. -1.
         22    1    1    2    0    0  0.32739146536E+03  0.34551826715E+03  0.19364257884E+04  0.19940694267E+04  0.00000000000E+00 0. -1.
<mgrwt>
<rscale>  0 0.16095071E+04</rscale>
<asrwt>0</asrwt>
<pdfrwt beam="1">  1        1 0.33534119E+00 0.16095071E+04</pdfrwt>
<pdfrwt beam="2">  1       -1 0.45710103E-01 0.16095071E+04</pdfrwt>
<totfact> 0.10263976E+01</totfact>
</mgrwt>
</event>
<event>
 6    1  0.9512547E-007  0.2928455E+04  0.7818608E-02  0.8264461E-01
         -2   -1    0    0    0  501 -0.00000000000E+00  0.00000000000E+00  0.14897709882E+04  0.14897709882E+04  0.00000000000E+00 0.  1.
          2   -1    0    0  501    0  0.00000000000E+00 -0.00000000000E+00 -0.14391215811E+04  0.14391215811E+04  0.00000000000E+00 0. -1.
         23    2    1    2    0    0 -0.11332346743E+04 -0.48523149771E+03 -0.76216571508E+03  0.14522955166E+04  0.92710607211E+02 0.  0.
         13    1    3    3    0    0 -0.52220697016E+03 -0.27266911511E+03 -0.37554162763E+03  0.69862728268E+03  0.00000000000E+00 0. -1.
        -13    1    3    3    0    0 -0.61102770417E+03 -0.21256238260E+03 -0.38662408746E+03  0.75366823388E+03  0.00000000000E+00 0.  1.
         22    1    1    2    0    0  0.11332346743E+04  0.48523149771E+03  0.81281512213E+03  0.14765970528E+04  0.00000000000E+00 0.  1.
<mgrwt>
<rscale>  0 0.29284546E+04</rscale>
<asrwt>0</asrwt>
<pdfrwt beam="1">  1        2 0.22140332E+00 0.29284546E+04</pdfrwt>
<pdfrwt beam="2">  1       -2 0.22919554E+00 0.29284546E+04</pdfrwt>
<totfact> 0.10237370E+00</totfact>
</mgrwt>
</event>
<event>
 6    1  0.9512547E-007  0.1651641E+04  0.7818608E-02  0.8789436E-01
          2   -1    0    0  501    0  0.00000000000E+00  0.00000000000E+00  0.13858179442E+04  0.13858179442E+04  0.00000000000E+00 0. -1.
         -2   -1    0    0    0  501 -0.00000000000E+00 -0.00000000000E+00 -0.49211318863E+03  0.49211318863E+03  0.00000000000E+00 0.  1.
         23    2    1    2    0    0 -0.30304333204E+03 -0.16642623006E+03  0.12978227014E+04  0.13461000832E+04  0.90048424318E+02 0.  0.
         11    1    3    3    0    0 -0.90221950828E+02 -0.33934573548E+02  0.52054938765E+03  0.52939892395E+03  0.00000000000E+00 0. -1.
        -11    1    3    3    0    0 -0.21282138121E+03 -0.13249165652E+03  0.77727331373E+03  0.81670115929E+03  0.00000000000E+00 0.  1.
         22    1    1    2    0    0  0.30304333204E+03  0.16642623006E+03 -0.40411794583E+03  0.53183104957E+03  0.00000000000E+00 0.  1.
<mgrwt>
<rscale>  0 0.16516407E+04</rscale>
<asrwt>0</asrwt>
<pdfrwt beam="1">  1        2 0.21320276E+00 0.16516407E+04</pdfrwt>
<pdfrwt beam="2">  1       -2 0.75709722E-01 0.16516407E+04</pdfrwt>
<totfact> 0.22022126E+01</totfact>
</mgrwt>
</event>
<event>
 6    1  0.9512547E-007  0.2393978E+04  0.7818608E-02  0.8441762E-01
         -2   -1    0    0    0  501 -0.00000000000E+00  0.00000000000E+00  0.64895957930E+03  0.64895957930E+03  0.00000000000E+00 0.  1.
          2   -1    0    0  501    0  0.00000000000E+00 -0.00000000000E+00 -0.22078146071E+04  0.22078146071E+04  0.00000000000E+00 0. -1.
         23    2    1    2    0    0  0.35603151567E+03  0.10841054143E+04 -0.12050981087E+04  0.16621248874E+04  0.91404050311E+02 0.  0.
         13    1    3    3    0    0  0.22218524297E+03  0.69264859488E+03 -0.83055348396E+03  0.11040595310E+04  0.00000000000E+00 0. -1.
        -13    1    3    3    0    0  0.13384627270E+03  0.39145681946E+03 -0.37454462470E+03  0.55806535649E+03  0.00000000000E+00 0.  1.
         22    1    1    2    0    0 -0.35603151567E+03 -0.10841054143E+04 -0.35375691909E+03  0.11946492989E+04  0.00000000000E+00 0.  1.
<mgrwt>
<rscale>  0 0.23939778E+04</rscale>
<asrwt>0</asrwt>
<pdfrwt beam="1">  1        2 0.33966379E+00 0.23939778E+04</pdfrwt>
<pdfrwt beam="2">  1       -2 0.99839934E-01 0.23939778E+04</pdfrwt>
<totfact> 0.38127390E+00</totfact>
</mgrwt>
</event>
<event>
 6    1  0.9512547E-007  0.5436850E+04  0.7818608E-02  0.7764439E-01
         -2   -1    0    0    0  501 -0.00000000000E+00  0.00000000000E+00  0.18619668092E+04  0.18619668092E+04  0.00000000000E+00 0.  1.
          2   -1    0    0  501    0  0.00000000000E+00 -0.00000000000E+00 -0.39688326448E+04  0.39688326448E+04  0.00000000000E+00 0. -1.
         23    2    1    2    0    0 -0.22666106781E+04  0.37521832427E+03  0.50316736904E+03  0.23536474460E+04  0.90366707435E+02 0.  0.
         11    1    3    3    0    0 -0.53282868130E+03  0.55516501933E+02  0.13827934476E+03  0.55327178023E+03  0.00000000000E+00 0. -1.
        -11    1    3    3    0    0 -0.17337819968E+04  0.31970182233E+03  0.36488802428E+03  0.18003756658E+04  0.00000000000E+00 0.  1.
         22    1    1    2    0    0  0.22666106781E+04 -0.37521832427E+03 -0.26100332047E+04  0.34771520080E+04  0.00000000000E+00 0. -1.
<mgrwt>
<rscale>  0 0.54368501E+04</rscale>
<asrwt>0</asrwt>
<pdfrwt beam="1">  1        2 0.61058963E+00 0.54368501E+04</pdfrwt>
<pdfrwt beam="2">  1       -2 0.28645644E+00 0.54368501E+04</pdfrwt>
<totfact> 0.97582830E-03</totfact>
</mgrwt>
</event>
<event>
 6    1  0.9512547E-007  0.1284519E+04  0.7818608E-02  0.9041933E-01
         -2   -1    0    0    0  501 -0.00000000000E+00  0.00000000000E+00  0.67206105594E+03  0.67206105594E+03  0.00000000000E+00 0.  1.
          2   -1    0    0  501    0  0.00000000000E+00 -0.00000000000E+00 -0.61377938015E+03  0.61377938015E+03  0.00000000000E+00 0. -1.
         23    2    1    2    0    0 -0.50581772582E+03 -0.17079198745E+03 -0.32265397955E+03  0.62999483823E+03  0.88127356366E+02 0.  0.
         11    1    3    3    0    0 -0.24764032285E+03 -0.40044211279E+02 -0.16740530950E+03  0.30158548706E+03  0.00000000000E+00 0. -1.
        -11    1    3    3    0    0 -0.25817740297E+03 -0.13074777618E+03 -0.15524867005E+03  0.32840935117E+03  0.00000000000E+00 0.  1.
         22    1    1    2    0    0  0.50581772582E+03  0.17079198745E+03  0.38093565534E+03  0.65584559787E+03  0.00000000000E+00 0.  1.
<mgrwt>
<rscale>  0 0.12845189E+04</rscale>
<asrwt>0</asrwt>
<pdfrwt beam="1">  1        2 0.94427597E-01 0.12845189E+04</pdfrwt>
<pdfrwt beam="2">  1       -2 0.10339401E+00 0.12845189E+04</pdfrwt>
<totfact> 0.36115614E+01</totfact>
</mgrwt>
</event>
<event>
 6    1  0.9512547E-007  0.4330179E+04  0.7818608E-02  0.7941061E-01
         -1   -1    0    0    0  501 -0.00000000000E+00  0.00000000000E+00  0.25248885532E+04  0.25248885532E+04  0.00000000000E+00 0.  1.
          1   -1    0    0  501    0  0.00000000000E+00 -0.00000000000E+00 -0.18565619386E+04  0.18565619386E+04  0.00000000000E+00 0. -1.
         23    2    1    2    0    0 -0.53778481811E+03  0.79147157301E+03 -0.16297494852E+04  0.18921145318E+04  0.91510959207E+02 0.  0.
         13    1    3    3    0    0 -0.25415104176E+03  0.29577891319E+03 -0.67939325968E+03  0.78336014630E+03  0.00000000000E+00 0. -1.
        -13    1    3    3    0    0 -0.28363377635E+03  0.49569265983E+03 -0.95035622548E+03  0.11087543855E+04  0.00000000000E+00 0.  1.
         22    1    1    2    0    0  0.53778481811E+03 -0.79147157301E+03  0.22980760997E+04  0.24893359600E+04  0.00000000000E+00 0.  1.
<mgrwt>
<rscale>  0 0.43301787E+04</rscale>
<asrwt>0</asrwt>
<pdfrwt beam="1">  1        1 0.28562491E+00 0.43301787E+04</pdfrwt>
<pdfrwt beam="2">  1       -1 0.38844439E+00 0.43301787E+04</pdfrwt>
<totfact> 0.24355728E-02</totfact>
</mgrwt>
</event>
<event>
 6    1  0.9512547E-007  0.6737773E+03  0.7818608E-02  0.9763158E-01
          2   -1    0    0  501    0  0.00000000000E+00  0.00000000000E+00  0.93376394965E+03  0.93376394965E+03  0.00000000000E+00 0. -1.
         -2   -1    0    0    0  501 -0.00000000000E+00 -0.00000000000E+00 -0.12154460014E+03  0.12154460014E+03  0.00000000000E+00 0.  1.
         23    2    1    2    0    0  0.74006804108E+02  0.57168293293E+01  0.91826048787E+03  0.92586971397E+03  0.92318548996E+02 0.  0.
         13    1    3    3    0    0  0.47872006212E+02 -0.40463894119E+02  0.59374648531E+03  0.59704601541E+03  0.00000000000E+00 0. -1.
        -13    1    3    3    0    0  0.26134797896E+02  0.46180723449E+02  0.32451400256E+03  0.32882369856E+03  0.00000000000E+00 0.  1.
         22    1    1    2    0    0 -0.74006804108E+02 -0.57168293293E+01 -0.10604113836E+03  0.12943883582E+03  0.00000000000E+00 0.  1.
<mgrwt>
<rscale>  0 0.67377731E+03</rscale>
<asrwt>0</asrwt>
<pdfrwt beam="1">  1        2 0.14365599E+00 0.67377731E+03</pdfrwt>
<pdfrwt beam="2">  1       -2 0.18699170E-01 0.67377731E+03</pdfrwt>
<totfact> 0.67250386E+02</totfact>
</mgrwt>
</event>
<event>
 6    1  0.9512547E-007  0.2531993E+04  0.7818608E-02  0.8391676E-01
          1   -1    0    0  501    0  0.00000000000E+00  0.00000000000E+00  0.97645397491E+03  0.97645397491E+03  0.00000000000E+00 0. -1.
         -1   -1    0    0    0  501 -0.00000000000E+00 -0.00000000000E+00 -0.16413958967E+04  0.16413958967E+04  0.00000000000E+00 0.  1.
         23    2    1    2    0    0  0.66171662464E+03 -0.51068784615E+03  0.64785250961E+03  0.10615400738E+04  0.92105844706E+02 0.  0.
         13    1    3    3    0    0  0.19767109671E+03 -0.10320199911E+03  0.15805013558E+03  0.27332098429E+03  0.00000000000E+00 0. -1.
        -13    1    3    3    0    0  0.46404552793E+03 -0.40748584704E+03  0.48980237403E+03  0.78821908955E+03  0.00000000000E+00 0.  1.
         22    1    1    2    0    0 -0.66171662464E+03  0.51068784615E+03 -0.13127944314E+04  0.15563097978E+04  0.00000000000E+00 0.  1.
<mgrwt>
<rscale>  0 0.25319933E+04</rscale>
<asrwt>0</asrwt>
<pdfrwt beam="1">  1        1 0.15022369E+00 0.25319933E+04</pdfrwt>
<pdfrwt beam="2">  1       -1 0.25252245E+00 0.25319933E+04</pdfrwt>
<totfact> 0.93897800E-01</totfact>
</mgrwt>
</event>
<event>
 6    1  0.9512547E-007  0.2705130E+04  0.7818608E-02  0.8333343E-01
         -2   -1    0    0    0  501 -0.00000000000E+00  0.00000000000E+00  0.61749998012E+03  0.61749998012E+03  0.00000000000E+00 0.  1.
          2   -1    0    0  501    0  0.00000000000E+00 -0.00000000000E+00 -0.29626420513E+04  0.29626420513E+04  0.00000000000E+00 0. -1.
         23    2    1    2    0    0 -0.13273747915E+04  0.19378523591E+03 -0.96174073059E+03  0.16531558291E+04  0.92208500030E+02 0.  0.
         13    1    3    3    0    0 -0.85094643569E+03  0.11213871029E+03 -0.66707235318E+03  0.10870466647E+04  0.00000000000E+00 0. -1.
        -13    1    3    3    0    0 -0.47642835584E+03  0.81646525619E+02 -0.29466837741E+03  0.56610916442E+03  0.00000000000E+00 0.  1.
         22    1    1    2    0    0  0.13273747915E+04 -0.19378523591E+03 -0.13834013406E+04  0.19269862023E+04  0.00000000000E+00 0.  1.
<mgrwt>
<rscale>  0 0.27051295E+04</rscale>
<asrwt>0</asrwt>
<pdfrwt beam="1">  1        2 0.45579109E+00 0.27051295E+04</pdfrwt>
<pdfrwt beam="2">  1       -2 0.94999996E-01 0.27051295E+04</pdfrwt>
<totfact> 0.15012177E+00</totfact>
</mgrwt>
</event>
<event>
 6    1  0.9512547E-007  0.2616122E+04  0.7818608E-02  0.8362745E-01
         -2   -1    0    0    0  501 -0.00000000000E+00  0.00000000000E+00  0.94928164453E+03  0.94928164453E+03  0.00000000000E+00 0.  1.
          2   -1    0    0  501    0  0.00000000000E+00 -0.00000000000E+00 -0.18024406452E+04  0.18024406452E+04  0.00000000000E+00 0. -1.
         23    2    1    2    0    0  0.82799727530E+03 -0.81487725966E+03 -0.10557691028E+04  0.15724618055E+04  0.91560336659E+02 0.  0.
         11    1    3    3    0    0  0.65602490296E+03 -0.64300364726E+03 -0.88319544397E+03  0.12743063038E+04  0.00000000000E+00 0. -1.
        -11    1    3    3    0    0  0.17197237233E+03 -0.17187361240E+03 -0.17257365881E+03  0.29815550171E+03  0.00000000000E+00 0.  1.
         22    1    1    2    0    0 -0.82799727530E+03  0.81487725966E+03  0.20261010207E+03  0.11792604842E+04  0.00000000000E+00 0.  1.
<mgrwt>
<rscale>  0 0.26161222E+04</rscale>
<asrwt>0</asrwt>
<pdfrwt beam="1">  1        2 0.27729856E+00 0.26161222E+04</pdfrwt>
<pdfrwt beam="2">  1       -2 0.14604333E+00 0.26161222E+04</pdfrwt>
<totfact> 0.24437646E+00</totfact>
</mgrwt>
</event>
<event>
 6    1  0.9512547E-007  0.2562866E+04  0.7818608E-02  0.8380925E-01
         -2   -1    0    0    0  501 -0.00000000000E+00  0.00000000000E+00  0.11700198207E+04  0.11700198207E+04  0.00000000000E+00 0.  1.
          2   -1    0    0  501    0  0.00000000000E+00 -0.00000000000E+00 -0.14034554412E+04  0.14034554412E+04  0.00000000000E+00 0. -1.
         23    2    1    2    0    0  0.50372130711E+03 -0.11143407181E+04  0.26249494260E+03  0.12538398901E+04  0.87866284563E+02 0.  0.
         13    1    3    3    0    0  0.16151837747E+03 -0.45641022365E+03  0.11735585284E+03  0.49816751672E+03  0.00000000000E+00 0.  1.
        -13    1    3    3    0    0  0.34220292964E+03 -0.65793049441E+03  0.14513908976E+03  0.75567237339E+03  0.00000000000E+00 0. -1.
         22    1    1    2    0    0 -0.50372130711E+03  0.11143407181E+04 -0.49593056307E+03  0.13196353718E+04  0.00000000000E+00 0.  1.
<mgrwt>
<rscale>  0 0.25628661E+04</rscale>
<asrwt>0</asrwt>
<pdfrwt beam="1">  1        2 0.21591622E+00 0.25628661E+04</pdfrwt>
<pdfrwt beam="2">  1       -2 0.18000305E+00 0.25628661E+04</pdfrwt>
<totfact> 0.23177042E+00</totfact>
</mgrwt>
</event>
<event>
 6    1  0.9512547E-007  0.2450488E+04  0.7818608E-02  0.8420840E-01
         -2   -1    0    0    0  501 -0.00000000000E+00  0.00000000000E+00  0.59009202741E+03  0.59009202741E+03  0.00000000000E+00 0.  1.
          2   -1    0    0  501    0  0.00000000000E+00 -0.00000000000E+00 -0.25440481352E+04  0.25440481352E+04  0.00000000000E+00 0. -1.
         23    2    1    2    0    0  0.10183403789E+04 -0.75184012876E+02 -0.18409868543E+04  0.21067980505E+04  0.81827041263E+02 0.  0.
         13    1    3    3    0    0  0.23067096024E+03 -0.75063518436E+01 -0.35126938241E+03  0.42030419488E+03  0.00000000000E+00 0.  1.
        -13    1    3    3    0    0  0.78766941866E+03 -0.67677661033E+02 -0.14897174719E+04  0.16864938556E+04  0.00000000000E+00 0. -1.
         22    1    1    2    0    0 -0.10183403789E+04  0.75184012876E+02 -0.11296925346E+03  0.10273421121E+04  0.00000000000E+00 0.  1.
<mgrwt>
<rscale>  0 0.24504877E+04</rscale>
<asrwt>0</asrwt>
<pdfrwt beam="1">  1        2 0.39139202E+00 0.24504877E+04</pdfrwt>
<pdfrwt beam="2">  1       -2 0.90783388E-01 0.24504877E+04</pdfrwt>
<totfact> 0.30437227E+00</totfact>
</mgrwt>
</event>
<event>
 6    1  0.9512547E-007  0.1533381E+04  0.7818608E-02  0.8862553E-01
          2   -1    0    0  501    0  0.00000000000E+00  0.00000000000E+00  0.10785674648E+04  0.10785674648E+04  0.00000000000E+00 0. -1.
         -2   -1    0    0    0  501 -0.00000000000E+00 -0.00000000000E+00 -0.54499573781E+03  0.54499573781E+03  0.00000000000E+00 0.  1.
         23    2    1    2    0    0 -0.83511853333E+02  0.16644714458E+03  0.10519557661E+04  0.10727448174E+04  0.97424985780E+02 0.  0.
         13    1    3    3    0    0 -0.79784045296E+02  0.88013379857E+02  0.43933113271E+03  0.45510844102E+03  0.00000000000E+00 0.  1.
        -13    1    3    3    0    0 -0.37278080367E+01  0.78433764721E+02  0.61262463337E+03  0.61763637637E+03  0.00000000000E+00 0. -1.
         22    1    1    2    0    0  0.83511853333E+02 -0.16644714458E+03 -0.51838403906E+03  0.55081838526E+03  0.00000000000E+00 0.  1.
<mgrwt>
<rscale>  0 0.15333815E+04</rscale>
<asrwt>0</asrwt>
<pdfrwt beam="1">  1        2 0.16593346E+00 0.15333815E+04</pdfrwt>
<pdfrwt beam="2">  1       -2 0.83845498E-01 0.15333815E+04</pdfrwt>
<totfact> 0.26916336E+01</totfact>
</mgrwt>
</event>
<event>
 6    1  0.9512547E-007  0.9708955E+03  0.7818608E-02  0.9341055E-01
          2   -1    0    0  501    0  0.00000000000E+00  0.00000000000E+00  0.21596693700E+03  0.21596693700E+03  0.00000000000E+00 0. -1.
         -2   -1    0    0    0  501 -0.00000000000E+00 -0.00000000000E+00 -0.10911833363E+04  0.10911833363E+04  0.00000000000E+00 0.  1.
         23    2    1    2    0    0  0.25637854131E+03  0.40697829168E+03 -0.45588760000E+03  0.66902965127E+03  0.91683608700E+02 0.  0.
         13    1    3    3    0    0  0.61665584483E+02  0.15986549312E+03 -0.12247622508E+03  0.21061824686E+03  0.00000000000E+00 0. -1.
        -13    1    3    3    0    0  0.19471295683E+03  0.24711279856E+03 -0.33341137492E+03  0.45841140441E+03  0.00000000000E+00 0.  1.
         22    1    1    2    0    0 -0.25637854131E+03 -0.40697829168E+03 -0.41932879933E+03  0.63812062206E+03  0.00000000000E+00 0.  1.
<mgrwt>
<rscale>  0 0.97089551E+03</rscale>
<asrwt>0</asrwt>
<pdfrwt beam="1">  1        2 0.33225682E-01 0.97089551E+03</pdfrwt>
<pdfrwt beam="2">  1       -2 0.16787436E+00 0.97089551E+03</pdfrwt>
<totfact> 0.34995026E+01</totfact>
</mgrwt>
</event>
<event>
 6    1  0.9512547E-007  0.4231600E+04  0.7818608E-02  0.7959388E-01
          2   -1    0    0  501    0  0.00000000000E+00  0.00000000000E+00  0.19236282682E+04  0.19236282682E+04  0.00000000000E+00 0. -1.
         -2   -1    0    0    0  501 -0.00000000000E+00 -0.00000000000E+00 -0.23271700968E+04  0.23271700968E+04  0.00000000000E+00 0.  1.
         23    2    1    2    0    0 -0.77573843397E+03 -0.31462250614E+03  0.17490506355E+04  0.19411638147E+04  0.90451039729E+02 0.  0.
         11    1    3    3    0    0 -0.25235962603E+03 -0.61412111972E+02  0.50050247372E+03  0.56387902474E+03  0.00000000000E+00 0.  1.
        -11    1    3    3    0    0 -0.52337880794E+03 -0.25321039416E+03  0.12485481618E+04  0.13772847900E+04  0.00000000000E+00 0. -1.
         22    1    1    2    0    0  0.77573843397E+03  0.31462250614E+03 -0.21525924642E+04  0.23096345503E+04  0.00000000000E+00 0.  1.
<mgrwt>
<rscale>  0 0.42316003E+04</rscale>
<asrwt>0</asrwt>
<pdfrwt beam="1">  1        2 0.29594281E+00 0.42316003E+04</pdfrwt>
<pdfrwt beam="2">  1       -2 0.35802617E+00 0.42316003E+04</pdfrwt>
<totfact> 0.78945876E-02</totfact>
</mgrwt>
</event>
<event>
 6    1  0.1115958E-006  0.2083615E+04  0.7818608E-02  0.8568496E-01
         -2   -1    0    0    0  501 -0.00000000000E+00  0.00000000000E+00  0.14795843643E+04  0.14795843643E+04  0.00000000000E+00 0.  1.
          2   -1    0    0  501    0  0.00000000000E+00 -0.00000000000E+00 -0.73355895172E+03  0.73355895172E+03  0.00000000000E+00 0. -1.
         23    2    1    2    0    0  0.96763492124E+03  0.10624178158E+02  0.77724881788E+03  0.12449464791E+04  0.96673662036E+02 0.  0.
         11    1    3    3    0    0  0.51759106591E+03  0.53545377598E+02  0.42339814830E+03  0.67084544491E+03  0.00000000000E+00 0.  1.
        -11    1    3    3    0    0  0.45004385533E+03 -0.42921199441E+02  0.35385066958E+03  0.57410103418E+03  0.00000000000E+00 0. -1.
         22    1    1    2    0    0 -0.96763492124E+03 -0.10624178158E+02 -0.31223405328E+02  0.96819683691E+03  0.00000000000E+00 0. -1.
<mgrwt>
<rscale>  0 0.20836145E+04</rscale>
<asrwt>0</asrwt>
<pdfrwt beam="1">  1        2 0.11285522E+00 0.20836145E+04</pdfrwt>
<pdfrwt beam="2">  1       -2 0.22762836E+00 0.20836145E+04</pdfrwt>
<totfact> 0.31494060E+00</totfact>
</mgrwt>
</event>
<event>
 6    1  0.9512547E-007  0.1340505E+04  0.7818608E-02  0.8998047E-01
         -2   -1    0    0    0  501 -0.00000000000E+00  0.00000000000E+00  0.30304212861E+03  0.30304212861E+03  0.00000000000E+00 0.  1.
          2   -1    0    0  501    0  0.00000000000E+00 -0.00000000000E+00 -0.14824287679E+04  0.14824287679E+04  0.00000000000E+00 0. -1.
         23    2    1    2    0    0  0.61444058548E+03  0.18417242376E+03 -0.83746081618E+03  0.10585802697E+04  0.88288470675E+02 0.  0.
         13    1    3    3    0    0  0.44903704614E+03  0.17467612840E+03 -0.62133500137E+03  0.78625899204E+03  0.00000000000E+00 0.  1.
        -13    1    3    3    0    0  0.16540353934E+03  0.94962953637E+01 -0.21612581481E+03  0.27232127768E+03  0.00000000000E+00 0. -1.
         22    1    1    2    0    0 -0.61444058548E+03 -0.18417242376E+03 -0.34192582307E+03  0.72689062674E+03  0.00000000000E+00 0.  1.
<mgrwt>
<rscale>  0 0.13405049E+04</rscale>
<asrwt>0</asrwt>
<pdfrwt beam="1">  1        2 0.22806597E+00 0.13405049E+04</pdfrwt>
<pdfrwt beam="2">  1       -2 0.46621865E-01 0.13405049E+04</pdfrwt>
<totfact> 0.55351220E+01</totfact>
</mgrwt>
</event>
<event>
 6    1  0.9512547E-007  0.4667536E+04  0.7818608E-02  0.7881945E-01
         -1   -1    0    0    0  501 -0.00000000000E+00  0.00000000000E+00  0.19953209490E+04  0.19953209490E+04  0.00000000000E+00 0.  1.
          1   -1    0    0  501    0  0.00000000000E+00 -0.00000000000E+00 -0.27296227562E+04  0.27296227562E+04  0.00000000000E+00 0. -1.
         23    2    1    2    0    0  0.34149203039E+03 -0.20204530567E+04 -0.14961586935E+04  0.25387887985E+04  0.90057571940E+02 0.  0.
         11    1    3    3    0    0  0.17344716052E+03 -0.11608059972E+04 -0.80896145134E+03  0.14254729427E+04  0.00000000000E+00 0.  1.
        -11    1    3    3    0    0  0.16804486987E+03 -0.85964705945E+03 -0.68719724219E+03  0.11133158558E+04  0.00000000000E+00 0. -1.
         22    1    1    2    0    0 -0.34149203039E+03  0.20204530567E+04  0.76185688634E+03  0.21861549068E+04  0.00000000000E+00 0. -1.
<mgrwt>
<rscale>  0 0.46675362E+04</rscale>
<asrwt>0</asrwt>
<pdfrwt beam="1">  1        1 0.41994196E+00 0.46675362E+04</pdfrwt>
<pdfrwt beam="2">  1       -1 0.30697246E+00 0.46675362E+04</pdfrwt>
<totfact> 0.20628021E-02</totfact>
</mgrwt>
</event>
<event>
 6    1  0.9512547E-007  0.1965492E+04  0.7818608E-02  0.8622926E-01
         -2   -1    0    0    0  501 -0.00000000000E+00  0.00000000000E+00  0.27263378773E+04  0.27263378773E+04  0.00000000000E+00 0.  1.
          2   -1    0    0  501    0  0.00000000000E+00 -0.00000000000E+00 -0.35424446025E+03  0.35424446025E+03  0.00000000000E+00 0. -1.
         23    2    1    2    0    0 -0.72652222946E+03 -0.11425941507E+03  0.22051617494E+04  0.23264232393E+04  0.92827707220E+02 0.  0.
         11    1    3    3    0    0 -0.27171330762E+03 -0.48282976523E+02  0.97168524361E+03  0.10101146371E+04  0.00000000000E+00 0. -1.
        -11    1    3    3    0    0 -0.45480892185E+03 -0.65976438549E+02  0.12334765058E+04  0.13163086022E+04  0.00000000000E+00 0.  1.
         22    1    1    2    0    0  0.72652222946E+03  0.11425941507E+03  0.16693166759E+03  0.75415909826E+03  0.00000000000E+00 0. -1.
<mgrwt>
<rscale>  0 0.19654924E+04</rscale>
<asrwt>0</asrwt>
<pdfrwt beam="1">  1        2 0.54499150E-01 0.19654924E+04</pdfrwt>
<pdfrwt beam="2">  1       -2 0.41943658E+00 0.19654924E+04</pdfrwt>
<totfact> 0.47113134E-01</totfact>
</mgrwt>
</event>
<event>
 6    1  0.9512547E-007  0.1371469E+04  0.7818608E-02  0.8974734E-01
          2   -1    0    0  501    0  0.00000000000E+00  0.00000000000E+00  0.17413743472E+04  0.17413743472E+04  0.00000000000E+00 0. -1.
         -2   -1    0    0    0  501 -0.00000000000E+00 -0.00000000000E+00 -0.27003491607E+03  0.27003491607E+03  0.00000000000E+00 0.  1.
         23    2    1    2    0    0 -0.14100685321E+01  0.34218189576E+03  0.16054105890E+04  0.16438966602E+04  0.89233581976E+02 0.  0.
         13    1    3    3    0    0 -0.23841457053E+02  0.30735507652E+03  0.13215867778E+04  0.13570656467E+04  0.00000000000E+00 0. -1.
        -13    1    3    3    0    0  0.22431388521E+02  0.34826819234E+02  0.28382381118E+03  0.28683101352E+03  0.00000000000E+00 0.  1.
         22    1    1    2    0    0  0.14100685321E+01 -0.34218189576E+03 -0.13407115782E+03  0.36751260310E+03  0.00000000000E+00 0.  1.
<mgrwt>
<rscale>  0 0.13714691E+04</rscale>
<asrwt>0</asrwt>
<pdfrwt beam="1">  1        2 0.26790374E+00 0.13714691E+04</pdfrwt>
<pdfrwt beam="2">  1       -2 0.41543834E-01 0.13714691E+04</pdfrwt>
<totfact> 0.49793204E+01</totfact>
</mgrwt>
</event>
<event>
 6    1  0.9512547E-007  0.2273998E+04  0.7818608E-02  0.8488245E-01
         -1   -1    0    0    0  501 -0.00000000000E+00  0.00000000000E+00  0.21360438697E+04  0.21360438697E+04  0.00000000000E+00 0.  1.
          1   -1    0    0  501    0  0.00000000000E+00 -0.00000000000E+00 -0.60521534869E+03  0.60521534869E+03  0.00000000000E+00 0. -1.
         23    2    1    2    0    0 -0.62960416054E+03  0.99087241376E+02  0.18990119372E+04  0.20052030328E+04  0.91505107245E+02 0.  0.
         11    1    3    3    0    0 -0.37456983856E+03  0.46867966673E+02  0.98557268709E+03  0.10553921981E+04  0.00000000000E+00 0.  1.
        -11    1    3    3    0    0 -0.25503432198E+03  0.52219274703E+02  0.91343925013E+03  0.94981083470E+03  0.00000000000E+00 0. -1.
         22    1    1    2    0    0  0.62960416054E+03 -0.99087241376E+02 -0.36818341621E+03  0.73605618559E+03  0.00000000000E+00 0. -1.
<mgrwt>
<rscale>  0 0.22739978E+04</rscale>
<asrwt>0</asrwt>
<pdfrwt beam="1">  1        1 0.93110055E-01 0.22739978E+04</pdfrwt>
<pdfrwt beam="2">  1       -1 0.32862213E+00 0.22739978E+04</pdfrwt>
<totfact> 0.65892113E-01</totfact>
</mgrwt>
</event>
<event>
 6    1  0.9512547E-007  0.3887615E+04  0.7818608E-02  0.8027610E-01
         -1   -1    0    0    0  501 -0.00000000000E+00  0.00000000000E+00  0.19927554559E+04  0.19927554559E+04  0.00000000000E+00 0.  1.
          1   -1    0    0  501    0  0.00000000000E+00 -0.00000000000E+00 -0.18960614211E+04  0.18960614211E+04  0.00000000000E+00 0. -1.
         23    2    1    2    0    0 -0.13147145891E+04 -0.14192190059E+04 -0.12887287301E+03  0.19411163180E+04  0.93098361236E+02 0.  0.
         13    1    3    3    0    0 -0.66531445240E+03 -0.71818629215E+03 -0.18565290178E+02  0.97917288606E+03  0.00000000000E+00 0. -1.
        -13    1    3    3    0    0 -0.64940013671E+03 -0.70103271379E+03 -0.11030758283E+03  0.96194343191E+03  0.00000000000E+00 0.  1.
         22    1    1    2    0    0  0.13147145891E+04  0.14192190059E+04  0.22556690783E+03  0.19477005590E+04  0.00000000000E+00 0.  1.
<mgrwt>
<rscale>  0 0.38876146E+04</rscale>
<asrwt>0</asrwt>
<pdfrwt beam="1">  1        1 0.29170176E+00 0.38876146E+04</pdfrwt>
<pdfrwt beam="2">  1       -1 0.30657776E+00 0.38876146E+04</pdfrwt>
<totfact> 0.82875919E-02</totfact>
</mgrwt>
</event>
<event>
 6    1  0.9512547E-007  0.2285471E+04  0.7818608E-02  0.8483672E-01
          2   -1    0    0  501    0  0.00000000000E+00  0.00000000000E+00  0.14049772553E+04  0.14049772553E+04  0.00000000000E+00 0. -1.
         -2   -1    0    0    0  501 -0.00000000000E+00 -0.00000000000E+00 -0.92944189089E+03  0.92944189089E+03  0.00000000000E+00 0.  1.
         23    2    1    2    0    0 -0.72531752920E+03  0.82146977908E+03 -0.86191655172E+02  0.11029828463E+04  0.90796705544E+02 0.  0.
         13    1    3    3    0    0 -0.23811209576E+03  0.33369404987E+03 -0.20632205677E+02  0.41045679063E+03  0.00000000000E+00 0. -1.
        -13    1    3    3    0    0 -0.48720543344E+03  0.48777572921E+03 -0.65559449496E+02  0.69252605569E+03  0.00000000000E+00 0.  1.
         22    1    1    2    0    0  0.72531752920E+03 -0.82146977908E+03  0.56172701958E+03  0.12314362999E+04  0.00000000000E+00 0. -1.
<mgrwt>
<rscale>  0 0.22854713E+04</rscale>
<asrwt>0</asrwt>
<pdfrwt beam="1">  1        2 0.21615035E+00 0.22854713E+04</pdfrwt>
<pdfrwt beam="2">  1       -2 0.14299106E+00 0.22854713E+04</pdfrwt>
<totfact> 0.44359066E+00</totfact>
</mgrwt>
</event>
<event>
 6    1  0.9512547E-007  0.1476329E+04  0.7818608E-02  0.8900348E-01
          1   -1    0    0  501    0  0.00000000000E+00  0.00000000000E+00  0.60505390430E+03  0.60505390430E+03  0.00000000000E+00 0. -1.
         -1   -1    0    0    0  501 -0.00000000000E+00 -0.00000000000E+00 -0.90055934372E+03  0.90055934372E+03  0.00000000000E+00 0.  1.
         23    2    1    2    0    0  0.67356110911E+02  0.29416242210E+03 -0.83211943395E+03  0.88996484561E+03  0.92446188754E+02 0.  0.
         11    1    3    3    0    0  0.68827485650E+02  0.11201072686E+03 -0.30037875245E+03  0.32788873210E+03  0.00000000000E+00 0.  1.
        -11    1    3    3    0    0 -0.14713747395E+01  0.18215169524E+03 -0.53174068150E+03  0.56207611351E+03  0.00000000000E+00 0. -1.
         22    1    1    2    0    0 -0.67356110911E+02 -0.29416242210E+03  0.53661399453E+03  0.61564840240E+03  0.00000000000E+00 0. -1.
<mgrwt>
<rscale>  0 0.14763292E+04</rscale>
<asrwt>0</asrwt>
<pdfrwt beam="1">  1        1 0.93085215E-01 0.14763292E+04</pdfrwt>
<pdfrwt beam="2">  1       -1 0.13854759E+00 0.14763292E+04</pdfrwt>
<totfact> 0.14127392E+01</totfact>
</mgrwt>
</event>
<event>
 6    1  0.9512547E-007  0.2852072E+04  0.7818608E-02  0.8287282E-01
         -2   -1    0    0    0  501 -0.00000000000E+00  0.00000000000E+00  0.37956329928E+03  0.37956329928E+03  0.00000000000E+00 0.  1.
          2   -1    0    0  501    0  0.00000000000E+00 -0.00000000000E+00 -0.53576815001E+04  0.53576815001E+04  0.00000000000E+00 0. -1.
         23    2    1    2    0    0 -0.52024147092E+03  0.10308131515E+04 -0.41700076113E+04  0.43278940033E+04  0.92065654468E+02 0.  0.
         13    1    3    3    0    0 -0.41390256459E+03  0.74579509688E+03 -0.29865473192E+04  0.31059604874E+04  0.00000000000E+00 0.  1.
        -13    1    3    3    0    0 -0.10633890633E+03  0.28501805460E+03 -0.11834602920E+04  0.12219335159E+04  0.00000000000E+00 0. -1.
         22    1    1    2    0    0  0.52024147092E+03 -0.10308131515E+04 -0.80811058953E+03  0.14093507960E+04  0.00000000000E+00 0.  1.
<mgrwt>
<rscale>  0 0.28520724E+04</rscale>
<asrwt>0</asrwt>
<pdfrwt beam="1">  1        2 0.82425864E+00 0.28520724E+04</pdfrwt>
<pdfrwt beam="2">  1       -2 0.58394358E-01 0.28520724E+04</pdfrwt>
<totfact> 0.25178294E-02</totfact>
</mgrwt>
</event>
<event>
 6    1  0.9512547E-007  0.1938128E+04  0.7818608E-02  0.8636107E-01
          2   -1    0    0  501    0  0.00000000000E+00  0.00000000000E+00  0.19247892780E+04  0.19247892780E+04  0.00000000000E+00 0. -1.
         -2   -1    0    0    0  501 -0.00000000000E+00 -0.00000000000E+00 -0.48789004141E+03  0.48789004141E+03  0.00000000000E+00 0.  1.
         23    2    1    2    0    0 -0.14615323679E+03 -0.26188719863E+03  0.18646686449E+04  0.18902500514E+04  0.78169227848E+02 0.  0.
         13    1    3    3    0    0 -0.13639041132E+03 -0.19572124105E+03  0.13078210934E+04  0.13294003012E+04  0.00000000000E+00 0. -1.
        -13    1    3    3    0    0 -0.97628254668E+01 -0.66165957581E+02  0.55684755152E+03  0.56084975024E+03  0.00000000000E+00 0.  1.
         22    1    1    2    0    0  0.14615323679E+03  0.26188719863E+03 -0.42776940827E+03  0.52242926802E+03  0.00000000000E+00 0.  1.
<mgrwt>
<rscale>  0 0.19381285E+04</rscale>
<asrwt>0</asrwt>
<pdfrwt beam="1">  1        2 0.29612142E+00 0.19381285E+04</pdfrwt>
<pdfrwt beam="2">  1       -2 0.75060007E-01 0.19381285E+04</pdfrwt>
<totfact> 0.10947748E+01</totfact>
</mgrwt>
</event>
<event>
 6    1  0.9512547E-007  0.3790377E+04  0.7818608E-02  0.8048223E-01
          2   -1    0    0  501    0  0.00000000000E+00  0.00000000000E+00  0.26442187137E+04  0.26442187137E+04  0.00000000000E+00 0. -1.
         -2   -1    0    0    0  501 -0.00000000000E+00 -0.00000000000E+00 -0.13583368163E+04  0.13583368163E+04  0.00000000000E+00 0.  1.
         23    2    1    2    0    0  0.77603382447E+03  0.32379071173E+03  0.24355222352E+04  0.25782164454E+04  0.91447030422E+02 0.  0.
         11    1    3    3    0    0  0.51927501159E+03  0.17746878183E+03  0.16559424119E+04  0.17445019283E+04  0.00000000000E+00 0. -1.
        -11    1    3    3    0    0  0.25675881289E+03  0.14632192990E+03  0.77957982328E+03  0.83371451710E+03  0.00000000000E+00 0.  1.
         22    1    1    2    0    0 -0.77603382447E+03 -0.32379071173E+03 -0.11496403378E+04  0.14243390846E+04  0.00000000000E+00 0.  1.
<mgrwt>
<rscale>  0 0.37903771E+04</rscale>
<asrwt>0</asrwt>
<pdfrwt beam="1">  1        2 0.40680288E+00 0.37903771E+04</pdfrwt>
<pdfrwt beam="2">  1       -2 0.20897490E+00 0.37903771E+04</pdfrwt>
<totfact> 0.26733769E-01</totfact>
</mgrwt>
</event>
<event>
 6    1  0.9512547E-007  0.8375970E+03  0.7818608E-02  0.9507137E-01
          2   -1    0    0  501    0  0.00000000000E+00  0.00000000000E+00  0.14033136113E+04  0.14033136113E+04  0.00000000000E+00 0. -1.
         -2   -1    0    0    0  501 -0.00000000000E+00 -0.00000000000E+00 -0.12498431067E+03  0.12498431067E+03  0.00000000000E+00 0.  1.
         23    2    1    2    0    0 -0.30729008293E+03 -0.13699971043E+03  0.10866599557E+04  0.11410857663E+04  0.89725976890E+02 0.  0.
         13    1    3    3    0    0 -0.89454071943E+02 -0.84825623502E+02  0.34669213780E+03  0.36795768208E+03  0.00000000000E+00 0.  1.
        -13    1    3    3    0    0 -0.21783601099E+03 -0.52174086929E+02  0.73996781790E+03  0.77312808419E+03  0.00000000000E+00 0. -1.
         22    1    1    2    0    0  0.30729008293E+03  0.13699971043E+03  0.19166934489E+03  0.38721215566E+03  0.00000000000E+00 0.  1.
<mgrwt>
<rscale>  0 0.83759700E+03</rscale>
<asrwt>0</asrwt>
<pdfrwt beam="1">  1        2 0.21589439E+00 0.83759700E+03</pdfrwt>
<pdfrwt beam="2">  1       -2 0.19228356E-01 0.83759700E+03</pdfrwt>
<totfact> 0.33150513E+02</totfact>
</mgrwt>
</event>
<event>
 6    1  0.9512547E-007  0.6947508E+04  0.7818608E-02  0.7582873E-01
          2   -1    0    0  501    0  0.00000000000E+00  0.00000000000E+00  0.51933811856E+04  0.51933811856E+04  0.00000000000E+00 0. -1.
         -2   -1    0    0    0  501 -0.00000000000E+00 -0.00000000000E+00 -0.23235278478E+04  0.23235278478E+04  0.00000000000E+00 0.  1.
         23    2    1    2    0    0  0.16607550471E+04  0.14123479134E+04 -0.14900037037E+04  0.26423641955E+04  0.95621910363E+02 0.  0.
         11    1    3    3    0    0  0.24077578927E+03  0.17368844225E+03 -0.23077586876E+03  0.37602946330E+03  0.00000000000E+00 0.  1.
        -11    1    3    3    0    0  0.14199792578E+04  0.12386594712E+04 -0.12592278349E+04  0.22663347322E+04  0.00000000000E+00 0. -1.
         22    1    1    2    0    0 -0.16607550471E+04 -0.14123479134E+04  0.43598570414E+04  0.48745448379E+04  0.00000000000E+00 0. -1.
<mgrwt>
<rscale>  0 0.69475077E+04</rscale>
<asrwt>0</asrwt>
<pdfrwt beam="1">  1        2 0.79898172E+00 0.69475077E+04</pdfrwt>
<pdfrwt beam="2">  1       -2 0.35746582E+00 0.69475077E+04</pdfrwt>
<totfact> 0.15972394E-04</totfact>
</mgrwt>
</event>
<event>
 6    1  0.9512547E-007  0.1575818E+04  0.7818608E-02  0.8835543E-01
          1   -1    0    0  501    0  0.00000000000E+00  0.00000000000E+00  0.82705768382E+03  0.82705768382E+03  0.00000000000E+00 0. -1.
         -1   -1    0    0    0  501 -0.00000000000E+00 -0.00000000000E+00 -0.75061343104E+03  0.75061343104E+03  0.00000000000E+00 0.  1.
         23    2    1    2    0    0 -0.59842013589E+03 -0.31779846609E+03  0.43587342799E+03  0.81066925301E+03  0.89980378166E+02 0.  0.
         13    1    3    3    0    0 -0.29716814904E+03 -0.16159818297E+03  0.27080885314E+03  0.43331318522E+03  0.00000000000E+00 0.  1.
        -13    1    3    3    0    0 -0.30125198685E+03 -0.15620028312E+03  0.16506457485E+03  0.37735606779E+03  0.00000000000E+00 0. -1.
         22    1    1    2    0    0  0.59842013589E+03  0.31779846609E+03 -0.35942917522E+03  0.76700186185E+03  0.00000000000E+00 0.  1.
<mgrwt>
<rscale>  0 0.15758180E+04</rscale>
<asrwt>0</asrwt>
<pdfrwt beam="1">  1        1 0.12723964E+00 0.15758180E+04</pdfrwt>
<pdfrwt beam="2">  1       -1 0.11547899E+00 0.15758180E+04</pdfrwt>
<totfact> 0.13691296E+01</totfact>
</mgrwt>
</event>
<event>
 6    1  0.9512547E-007  0.1854512E+04  0.7818608E-02  0.8677836E-01
          1   -1    0    0  501    0  0.00000000000E+00  0.00000000000E+00  0.16206294452E+04  0.16206294452E+04  0.00000000000E+00 0. -1.
         -1   -1    0    0    0  501 -0.00000000000E+00 -0.00000000000E+00 -0.53053662624E+03  0.53053662624E+03  0.00000000000E+00 0.  1.
         23    2    1    2    0    0  0.12895500092E+03  0.77336979979E+03 -0.23164634691E+02  0.78952280040E+03  0.89885552545E+02 0.  0.
         13    1    3    3    0    0  0.11406480999E+03  0.43968746028E+03 -0.32243968623E+02  0.45538502075E+03  0.00000000000E+00 0. -1.
        -13    1    3    3    0    0  0.14890190930E+02  0.33368233951E+03  0.90793339322E+01  0.33413777965E+03  0.00000000000E+00 0.  1.
         22    1    1    2    0    0 -0.12895500092E+03 -0.77336979979E+03  0.11132574537E+04  0.13616432711E+04  0.00000000000E+00 0. -1.
<mgrwt>
<rscale>  0 0.18545116E+04</rscale>
<asrwt>0</asrwt>
<pdfrwt beam="1">  1        1 0.24932760E+00 0.18545116E+04</pdfrwt>
<pdfrwt beam="2">  1       -1 0.81621020E-01 0.18545116E+04</pdfrwt>
<totfact> 0.75801009E+00</totfact>
</mgrwt>
</event>
<event>
 6    1  0.9512547E-007  0.4390460E+04  0.7818608E-02  0.7930100E-01
         -2   -1    0    0    0  501 -0.00000000000E+00  0.00000000000E+00  0.19107557340E+04  0.19107557340E+04  0.00000000000E+00 0.  1.
          2   -1    0    0  501    0  0.00000000000E+00 -0.00000000000E+00 -0.25220570868E+04  0.25220570868E+04  0.00000000000E+00 0. -1.
         23    2    1    2    0    0 -0.20043031023E+04 -0.42507402062E+03 -0.10987925883E+04  0.23267343433E+04  0.91807969351E+02 0.  0.
         13    1    3    3    0    0 -0.13232865015E+04 -0.27829082083E+03 -0.67555828097E+03  0.15115925169E+04  0.00000000000E+00 0. -1.
        -13    1    3    3    0    0 -0.68101660075E+03 -0.14678319979E+03 -0.42323430731E+03  0.81514182638E+03  0.00000000000E+00 0.  1.
         22    1    1    2    0    0  0.20043031023E+04  0.42507402062E+03  0.48749123544E+03  0.21060784775E+04  0.00000000000E+00 0.  1.
<mgrwt>
<rscale>  0 0.43904601E+04</rscale>
<asrwt>0</asrwt>
<pdfrwt beam="1">  1        2 0.38800878E+00 0.43904601E+04</pdfrwt>
<pdfrwt beam="2">  1       -2 0.29396242E+00 0.43904601E+04</pdfrwt>
<totfact> 0.89410210E-02</totfact>
</mgrwt>
</event>
<event>
 6    1  0.9710824E-007  0.3836802E+04  0.7818608E-02  0.8038303E-01
          2   -1    0    0  501    0  0.00000000000E+00  0.00000000000E+00  0.16059194628E+04  0.16059194628E+04  0.00000000000E+00 0. -1.
         -2   -1    0    0    0  501 -0.00000000000E+00 -0.00000000000E+00 -0.22916859530E+04  0.22916859530E+04  0.00000000000E+00 0.  1.
         23    2    1    2    0    0 -0.18549528202E+04 -0.10894506106E+03  0.13739923552E+03  0.18652863455E+04  0.87724620808E+02 0.  0.
         11    1    3    3    0    0 -0.38870866685E+03  0.12645117720E+02  0.32862980700E+02  0.39030027183E+03  0.00000000000E+00 0.  1.
        -11    1    3    3    0    0 -0.14662441534E+04 -0.12159017878E+03  0.10453625482E+03  0.14749860737E+04  0.00000000000E+00 0. -1.
         22    1    1    2    0    0  0.18549528202E+04  0.10894506106E+03 -0.82316572575E+03  0.20323190703E+04  0.00000000000E+00 0.  1.
<mgrwt>
<rscale>  0 0.38368024E+04</rscale>
<asrwt>0</asrwt>
<pdfrwt beam="1">  1        2 0.24706453E+00 0.38368024E+04</pdfrwt>
<pdfrwt beam="2">  1       -2 0.35256707E+00 0.38368024E+04</pdfrwt>
<totfact> 0.13255599E-01</totfact>
</mgrwt>
</event>
<event>
 6    1  0.9512547E-007  0.2344876E+04  0.7818608E-02  0.8460434E-01
         -2   -1    0    0    0  501 -0.00000000000E+00  0.00000000000E+00  0.20843093188E+04  0.20843093188E+04  0.00000000000E+00 0.  1.
          2   -1    0    0  501    0  0.00000000000E+00 -0.00000000000E+00 -0.65950451690E+03  0.65950451690E+03  0.00000000000E+00 0. -1.
         23    2    1    2    0    0  0.11663993552E+04  0.88754200114E+02  0.76807358281E+03  0.14022995204E+04  0.90233876351E+02 0.  0.
         13    1    3    3    0    0  0.78929237297E+03  0.63659940099E+02  0.56939916423E+03  0.97532068892E+03  0.00000000000E+00 0. -1.
        -13    1    3    3    0    0  0.37710698226E+03  0.25094260015E+02  0.19867441858E+03  0.42697883150E+03  0.00000000000E+00 0.  1.
         22    1    1    2    0    0 -0.11663993552E+04 -0.88754200114E+02  0.65673121906E+03  0.13415143152E+04  0.00000000000E+00 0. -1.
<mgrwt>
<rscale>  0 0.23448765E+04</rscale>
<asrwt>0</asrwt>
<pdfrwt beam="1">  1        2 0.10146223E+00 0.23448765E+04</pdfrwt>
<pdfrwt beam="2">  1       -2 0.32066297E+00 0.23448765E+04</pdfrwt>
<totfact> 0.94670472E-01</totfact>
</mgrwt>
</event>
<event>
 6    1  0.9512547E-007  0.1900308E+04  0.7818608E-02  0.8654703E-01
          2   -1    0    0  501    0  0.00000000000E+00  0.00000000000E+00  0.18445394562E+04  0.18445394562E+04  0.00000000000E+00 0. -1.
         -2   -1    0    0    0  501 -0.00000000000E+00 -0.00000000000E+00 -0.48944092063E+03  0.48944092063E+03  0.00000000000E+00 0.  1.
         23    2    1    2    0    0  0.56886727805E+03 -0.40977690866E+03 -0.10463444874E+03  0.71461399444E+03  0.90541141321E+02 0.  0.
         11    1    3    3    0    0  0.11732686437E+03 -0.12098782312E+03 -0.15668626896E+00  0.16853388680E+03  0.00000000000E+00 0.  1.
        -11    1    3    3    0    0  0.45154041368E+03 -0.28878908554E+03 -0.10447776247E+03  0.54608010764E+03  0.00000000000E+00 0. -1.
         22    1    1    2    0    0 -0.56886727805E+03  0.40977690866E+03  0.14597329843E+04  0.16193663823E+04  0.00000000000E+00 0. -1.
<mgrwt>
<rscale>  0 0.19003085E+04</rscale>
<asrwt>0</asrwt>
<pdfrwt beam="1">  1        2 0.28377530E+00 0.19003085E+04</pdfrwt>
<pdfrwt beam="2">  1       -2 0.75298604E-01 0.19003085E+04</pdfrwt>
<totfact> 0.12081785E+01</totfact>
</mgrwt>
</event>
<event>
 6    1  0.9512547E-007  0.2083008E+04  0.7818608E-02  0.8568766E-01
          2   -1    0    0  501    0  0.00000000000E+00  0.00000000000E+00  0.19456469732E+04  0.19456469732E+04  0.00000000000E+00 0. -1.
         -2   -1    0    0    0  501 -0.00000000000E+00 -0.00000000000E+00 -0.55751645319E+03  0.55751645319E+03  0.00000000000E+00 0.  1.
         23    2    1    2    0    0  0.74501042336E+03  0.17223324705E+03  0.15412051430E+04  0.17233322508E+04  0.99277044861E+02 0.  0.
         11    1    3    3    0    0  0.48834822661E+03  0.68871041734E+02  0.10328080823E+04  0.11445172544E+04  0.00000000000E+00 0.  1.
        -11    1    3    3    0    0  0.25666219675E+03  0.10336220532E+03  0.50839706065E+03  0.57881499636E+03  0.00000000000E+00 0. -1.
         22    1    1    2    0    0 -0.74501042336E+03 -0.17223324705E+03 -0.15307462291E+03  0.77983117563E+03  0.00000000000E+00 0.  1.
<mgrwt>
<rscale>  0 0.20830076E+04</rscale>
<asrwt>0</asrwt>
<pdfrwt beam="1">  1        2 0.29933030E+00 0.20830076E+04</pdfrwt>
<pdfrwt beam="2">  1       -2 0.85771763E-01 0.20830076E+04</pdfrwt>
<totfact> 0.78012634E+00</totfact>
</mgrwt>
</event>
<event>
 6    1  0.9512547E-007  0.1868972E+04  0.7818608E-02  0.8670457E-01
          3   -1    0    0  501    0  0.00000000000E+00  0.00000000000E+00  0.13317936447E+04  0.13317936447E+04  0.00000000000E+00 0. -1.
         -3   -1    0    0    0  501 -0.00000000000E+00 -0.00000000000E+00 -0.65570531571E+03  0.65570531571E+03  0.00000000000E+00 0.  1.
         23    2    1    2    0    0 -0.80836138490E+03 -0.16000846895E+03  0.80247708198E+03  0.11538173931E+04  0.90963019251E+02 0.  0.
         11    1    3    3    0    0 -0.26558760103E+03 -0.10221561263E+02  0.26934240059E+03  0.37840003025E+03  0.00000000000E+00 0.  1.
        -11    1    3    3    0    0 -0.54277378387E+03 -0.14978690769E+03  0.53313468139E+03  0.77541736289E+03  0.00000000000E+00 0. -1.
         22    1    1    2    0    0  0.80836138490E+03  0.16000846895E+03 -0.12638875298E+03  0.83368156728E+03  0.00000000000E+00 0.  1.
<mgrwt>
<rscale>  0 0.18689721E+04</rscale>
<asrwt>0</asrwt>
<pdfrwt beam="1">  1        3 0.20489133E+00 0.18689721E+04</pdfrwt>
<pdfrwt beam="2">  1       -3 0.10087774E+00 0.18689721E+04</pdfrwt>
<totfact> 0.28851815E-01</totfact>
</mgrwt>
</event>
<event>
 6    1  0.9512547E-007  0.4069304E+04  0.7818608E-02  0.7990710E-01
          1   -1    0    0  501    0  0.00000000000E+00  0.00000000000E+00  0.18805606030E+04  0.18805606030E+04  0.00000000000E+00 0. -1.
         -1   -1    0    0    0  501 -0.00000000000E+00 -0.00000000000E+00 -0.22013698447E+04  0.22013698447E+04  0.00000000000E+00 0.  1.
         23    2    1    2    0    0 -0.82871141334E+03  0.63491212240E+03 -0.19111154146E+04  0.21795767126E+04  0.91194892576E+02 0.  0.
         11    1    3    3    0    0 -0.42429528724E+03  0.26924752511E+03 -0.93863660180E+03  0.10646874616E+04  0.00000000000E+00 0. -1.
        -11    1    3    3    0    0 -0.40441612610E+03  0.36566459729E+03 -0.97247881284E+03  0.11148892511E+04  0.00000000000E+00 0.  1.
         22    1    1    2    0    0  0.82871141334E+03 -0.63491212240E+03  0.15903061729E+04  0.19023537351E+04  0.00000000000E+00 0. -1.
<mgrwt>
<rscale>  0 0.40693043E+04</rscale>
<asrwt>0</asrwt>
<pdfrwt beam="1">  1        1 0.28931702E+00 0.40693043E+04</pdfrwt>
<pdfrwt beam="2">  1       -1 0.33867228E+00 0.40693043E+04</pdfrwt>
<totfact> 0.51591800E-02</totfact>
</mgrwt>
</event>
<event>
 6    1  0.9512547E-007  0.2080178E+04  0.7818608E-02  0.8570026E-01
         -1   -1    0    0    0  501 -0.00000000000E+00  0.00000000000E+00  0.63673802008E+03  0.63673802008E+03  0.00000000000E+00 0.  1.
          1   -1    0    0  501    0  0.00000000000E+00 -0.00000000000E+00 -0.16989485331E+04  0.16989485331E+04  0.00000000000E+00 0. -1.
         23    2    1    2    0    0 -0.74713922379E+03 -0.28865811440E+02  0.27648132468E+03  0.80234181337E+03  0.90885685327E+02 0.  0.
         13    1    3    3    0    0 -0.46691095595E+03 -0.41972485692E+02  0.13328051696E+03  0.48737175394E+03  0.00000000000E+00 0. -1.
        -13    1    3    3    0    0 -0.28022826784E+03  0.13106674253E+02  0.14320080772E+03  0.31497005943E+03  0.00000000000E+00 0.  1.
         22    1    1    2    0    0  0.74713922379E+03  0.28865811440E+02 -0.13386918377E+04  0.15333447398E+04  0.00000000000E+00 0. -1.
<mgrwt>
<rscale>  0 0.20801780E+04</rscale>
<asrwt>0</asrwt>
<pdfrwt beam="1">  1        1 0.26137669E+00 0.20801780E+04</pdfrwt>
<pdfrwt beam="2">  1       -1 0.97959697E-01 0.20801780E+04</pdfrwt>
<totfact> 0.43931684E+00</totfact>
</mgrwt>
</event>
<event>
 6    1  0.9512547E-007  0.3566687E+04  0.7818608E-02  0.8098165E-01
          1   -1    0    0  501    0  0.00000000000E+00  0.00000000000E+00  0.15811424376E+04  0.15811424376E+04  0.00000000000E+00 0. -1.
         -1   -1    0    0    0  501 -0.00000000000E+00 -0.00000000000E+00 -0.20114023190E+04  0.20114023190E+04  0.00000000000E+00 0.  1.
         23    2    1    2    0    0  0.81845248668E+03  0.11430360665E+04 -0.13185376051E+04  0.19295855758E+04  0.91450294078E+02 0.  0.
         13    1    3    3    0    0  0.44369442165E+03  0.64565305183E+03 -0.67564081338E+03  0.10345158828E+04  0.00000000000E+00 0. -1.
        -13    1    3    3    0    0  0.37475806503E+03  0.49738301465E+03 -0.64289679170E+03  0.89506969301E+03  0.00000000000E+00 0.  1.
         22    1    1    2    0    0 -0.81845248668E+03 -0.11430360665E+04  0.88827772368E+03  0.16629591807E+04  0.00000000000E+00 0. -1.
<mgrwt>
<rscale>  0 0.35666867E+04</rscale>
<asrwt>0</asrwt>
<pdfrwt beam="1">  1        1 0.24325268E+00 0.35666867E+04</pdfrwt>
<pdfrwt beam="2">  1       -1 0.30944651E+00 0.35666867E+04</pdfrwt>
<totfact> 0.13372246E-01</totfact>
</mgrwt>
</event>
<event>
 6    1  0.9512547E-007  0.1346247E+04  0.7818608E-02  0.8993674E-01
         -2   -1    0    0    0  501 -0.00000000000E+00  0.00000000000E+00  0.13178771543E+03  0.13178771543E+03  0.00000000000E+00 0.  1.
          2   -1    0    0  501    0  0.00000000000E+00 -0.00000000000E+00 -0.34380674930E+04  0.34380674930E+04  0.00000000000E+00 0. -1.
         23    2    1    2    0    0 -0.14916853419E+03 -0.45939509491E+03 -0.42895719418E+03  0.65227395786E+03  0.90343438312E+02 0.  0.
         13    1    3    3    0    0 -0.59460097223E+02 -0.10573773987E+03 -0.68141696652E+02  0.13913757083E+03  0.00000000000E+00 0.  1.
        -13    1    3    3    0    0 -0.89708436962E+02 -0.35365735504E+03 -0.36081549752E+03  0.51313638703E+03  0.00000000000E+00 0. -1.
         22    1    1    2    0    0  0.14916853419E+03  0.45939509491E+03 -0.28773225834E+04  0.29175812506E+04  0.00000000000E+00 0. -1.
<mgrwt>
<rscale>  0 0.13462467E+04</rscale>
<asrwt>0</asrwt>
<pdfrwt beam="1">  1        2 0.52893342E+00 0.13462467E+04</pdfrwt>
<pdfrwt beam="2">  1       -2 0.20275035E-01 0.13462467E+04</pdfrwt>
<totfact> 0.18632268E+01</totfact>
</mgrwt>
</event>
<event>
 6    1  0.9512547E-007  0.4209359E+04  0.7818608E-02  0.7963594E-01
         -1   -1    0    0    0  501 -0.00000000000E+00  0.00000000000E+00  0.23080033637E+04  0.23080033637E+04  0.00000000000E+00 0.  1.
          1   -1    0    0  501    0  0.00000000000E+00 -0.00000000000E+00 -0.19192672224E+04  0.19192672224E+04  0.00000000000E+00 0. -1.
         23    2    1    2    0    0  0.17655356697E+04 -0.19134485362E+03  0.13268668913E+04  0.22188337915E+04  0.94438303240E+02 0.  0.
         11    1    3    3    0    0  0.69210656041E+03 -0.62595255037E+02  0.46414393122E+03  0.83567891310E+03  0.00000000000E+00 0.  1.
        -11    1    3    3    0    0  0.10734291093E+04 -0.12874959858E+03  0.86272296010E+03  0.13831548784E+04  0.00000000000E+00 0. -1.
         22    1    1    2    0    0 -0.17655356697E+04  0.19134485362E+03 -0.93813075002E+03  0.20084367947E+04  0.00000000000E+00 0.  1.
<mgrwt>
<rscale>  0 0.42093587E+04</rscale>
<asrwt>0</asrwt>
<pdfrwt beam="1">  1        1 0.29527188E+00 0.42093587E+04</pdfrwt>
<pdfrwt beam="2">  1       -1 0.35507744E+00 0.42093587E+04</pdfrwt>
<totfact> 0.37385657E-02</totfact>
</mgrwt>
</event>
<event>
 6    1  0.9512547E-007  0.5826025E+03  0.7818608E-02  0.9942173E-01
         -1   -1    0    0    0  501 -0.00000000000E+00  0.00000000000E+00  0.75483961992E+03  0.75483961992E+03  0.00000000000E+00 0.  1.
          1   -1    0    0  501    0  0.00000000000E+00 -0.00000000000E+00 -0.11241648070E+03  0.11241648070E+03  0.00000000000E+00 0. -1.
         23    2    1    2    0    0  0.14780482254E+02  0.28194711373E+03  0.27337646385E+03  0.40259699310E+03  0.87389989518E+02 0.  0.
         11    1    3    3    0    0  0.86358757138E+01  0.12400350670E+03  0.18083155445E+03  0.21943449845E+03  0.00000000000E+00 0.  1.
        -11    1    3    3    0    0  0.61446065398E+01  0.15794360703E+03  0.92544909401E+02  0.18316249465E+03  0.00000000000E+00 0. -1.
         22    1    1    2    0    0 -0.14780482254E+02 -0.28194711373E+03  0.36904667537E+03  0.46465910751E+03  0.00000000000E+00 0.  1.
<mgrwt>
<rscale>  0 0.58260248E+03</rscale>
<asrwt>0</asrwt>
<pdfrwt beam="1">  1        1 0.17294844E-01 0.58260248E+03</pdfrwt>
<pdfrwt beam="2">  1       -1 0.11612917E+00 0.58260248E+03</pdfrwt>
<totfact> 0.21769873E+02</totfact>
</mgrwt>
</event>
<event>
 6    1  0.9512547E-007  0.5740692E+03  0.7818608E-02  0.9960714E-01
         -1   -1    0    0    0  501 -0.00000000000E+00  0.00000000000E+00  0.14687192292E+03  0.14687192292E+03  0.00000000000E+00 0.  1.
          1   -1    0    0  501    0  0.00000000000E+00 -0.00000000000E+00 -0.56095728534E+03  0.56095728534E+03  0.00000000000E+00 0. -1.
         23    2    1    2    0    0  0.77985562998E+02 -0.17790641917E+03 -0.46094570771E+03  0.50800845363E+03  0.88708519805E+02 0.  0.
         11    1    3    3    0    0  0.62508079155E+02 -0.15011120463E+03 -0.27593464193E+03  0.32028200126E+03  0.00000000000E+00 0.  1.
        -11    1    3    3    0    0  0.15477483843E+02 -0.27795214538E+02 -0.18501106579E+03  0.18772645237E+03  0.00000000000E+00 0. -1.
         22    1    1    2    0    0 -0.77985562998E+02  0.17790641917E+03  0.46860345295E+02  0.19982075463E+03  0.00000000000E+00 0.  1.
<mgrwt>
<rscale>  0 0.57406925E+03</rscale>
<asrwt>0</asrwt>
<pdfrwt beam="1">  1        1 0.86301120E-01 0.57406925E+03</pdfrwt>
<pdfrwt beam="2">  1       -1 0.22595681E-01 0.57406925E+03</pdfrwt>
<totfact> 0.63340975E+02</totfact>
</mgrwt>
</event>
<event>
 6    1  0.9512547E-007  0.2293305E+04  0.7818608E-02  0.8480565E-01
         -1   -1    0    0    0  501 -0.00000000000E+00  0.00000000000E+00  0.85684075169E+03  0.85684075169E+03  0.00000000000E+00 0.  1.
          1   -1    0    0  501    0  0.00000000000E+00 -0.00000000000E+00 -0.15344882802E+04  0.15344882802E+04  0.00000000000E+00 0. -1.
         23    2    1    2    0    0  0.27072994380E+03  0.86426714102E+03 -0.10695958069E+04  0.14044775505E+04  0.90937374896E+02 0.  0.
         11    1    3    3    0    0  0.94279375893E+02  0.43304859870E+03 -0.55621554719E+03  0.71119295869E+03  0.00000000000E+00 0.  1.
        -11    1    3    3    0    0  0.17645056791E+03  0.43121854232E+03 -0.51338025969E+03  0.69328459177E+03  0.00000000000E+00 0. -1.
         22    1    1    2    0    0 -0.27072994380E+03 -0.86426714102E+03  0.39194827835E+03  0.98685148144E+03  0.00000000000E+00 0.  1.
<mgrwt>
<rscale>  0 0.22933051E+04</rscale>
<asrwt>0</asrwt>
<pdfrwt beam="1">  1        1 0.23607512E+00 0.22933051E+04</pdfrwt>
<pdfrwt beam="2">  1       -1 0.13182166E+00 0.22933051E+04</pdfrwt>
<totfact> 0.27413775E+00</totfact>
</mgrwt>
</event>
<event>
 6    1  0.9512547E-007  0.2458240E+04  0.7818608E-02  0.8418015E-01
          2   -1    0    0  501    0  0.00000000000E+00  0.00000000000E+00  0.33066594103E+04  0.33066594103E+04  0.00000000000E+00 0. -1.
         -2   -1    0    0    0  501 -0.00000000000E+00 -0.00000000000E+00 -0.45687697943E+03  0.45687697943E+03  0.00000000000E+00 0.  1.
         23    2    1    2    0    0  0.50578232701E+03 -0.33789626936E+03 -0.20519991997E+03  0.64858746317E+03  0.92569104269E+02 0.  0.
         13    1    3    3    0    0  0.34592739784E+03 -0.27440115195E+03 -0.12562060511E+03  0.45906676333E+03  0.00000000000E+00 0. -1.
        -13    1    3    3    0    0  0.15985492917E+03 -0.63495117412E+02 -0.79579314854E+02  0.18952069984E+03  0.00000000000E+00 0.  1.
         22    1    1    2    0    0 -0.50578232701E+03  0.33789626936E+03  0.30549823508E+04  0.31149489266E+04  0.00000000000E+00 0. -1.
<mgrwt>
<rscale>  0 0.24582405E+04</rscale>
<asrwt>0</asrwt>
<pdfrwt beam="1">  1        2 0.50871682E+00 0.24582405E+04</pdfrwt>
<pdfrwt beam="2">  1       -2 0.70288768E-01 0.24582405E+04</pdfrwt>
<totfact> 0.18194512E+00</totfact>
</mgrwt>
</event>
<event>
 6    1  0.9512547E-007  0.1444791E+04  0.7818608E-02  0.8922020E-01
         -2   -1    0    0    0  501 -0.00000000000E+00  0.00000000000E+00  0.27009345302E+03  0.27009345302E+03  0.00000000000E+00 0.  1.
          2   -1    0    0  501    0  0.00000000000E+00 -0.00000000000E+00 -0.19321282588E+04  0.19321282588E+04  0.00000000000E+00 0. -1.
         23    2    1    2    0    0  0.24616095458E+03 -0.67492356784E+03 -0.89838208245E+03  0.11537549647E+04  0.89124152204E+02 0.  0.
         13    1    3    3    0    0  0.19891939980E+03 -0.42376695332E+03 -0.59486558146E+03  0.75697583736E+03  0.00000000000E+00 0.  1.
        -13    1    3    3    0    0  0.47241554783E+02 -0.25115661452E+03 -0.30351650099E+03  0.39677912733E+03  0.00000000000E+00 0. -1.
         22    1    1    2    0    0 -0.24616095458E+03  0.67492356784E+03 -0.76365272335E+03  0.10484667471E+04  0.00000000000E+00 0. -1.
<mgrwt>
<rscale>  0 0.14447909E+04</rscale>
<asrwt>0</asrwt>
<pdfrwt beam="1">  1        2 0.29725050E+00 0.14447909E+04</pdfrwt>
<pdfrwt beam="2">  1       -2 0.41552840E-01 0.14447909E+04</pdfrwt>
<totfact> 0.38808236E+01</totfact>
</mgrwt>
</event>
<event>
 6    1  0.1079002E-006  0.5605073E+04  0.7818608E-02  0.7741394E-01
          2   -1    0    0  501    0  0.00000000000E+00  0.00000000000E+00  0.22923899584E+04  0.22923899584E+04  0.00000000000E+00 0. -1.
         -2   -1    0    0    0  501 -0.00000000000E+00 -0.00000000000E+00 -0.34262108079E+04  0.34262108079E+04  0.00000000000E+00 0.  1.
         23    2    1    2    0    0  0.22922857847E+04 -0.76953768646E+03 -0.20112068427E+04  0.31463316220E+04  0.87677489463E+02 0.  0.
         13    1    3    3    0    0  0.95537058853E+03 -0.34194447073E+03 -0.89386706056E+03  0.13522785602E+04  0.00000000000E+00 0.  1.
        -13    1    3    3    0    0  0.13369151961E+04 -0.42759321574E+03 -0.11173397822E+04  0.17940530618E+04  0.00000000000E+00 0. -1.
         22    1    1    2    0    0 -0.22922857847E+04  0.76953768646E+03  0.87738599325E+03  0.25722691443E+04  0.00000000000E+00 0. -1.
<mgrwt>
<rscale>  0 0.56050731E+04</rscale>
<asrwt>0</asrwt>
<pdfrwt beam="1">  1        2 0.35267538E+00 0.56050731E+04</pdfrwt>
<pdfrwt beam="2">  1       -2 0.52710935E+00 0.56050731E+04</pdfrwt>
<totfact> 0.36595812E-03</totfact>
</mgrwt>
</event>
<event>
 6    1  0.9512547E-007  0.2986444E+04  0.7818608E-02  0.8247613E-01
          2   -1    0    0  501    0  0.00000000000E+00  0.00000000000E+00  0.15971345086E+04  0.15971345086E+04  0.00000000000E+00 0. -1.
         -2   -1    0    0    0  501 -0.00000000000E+00 -0.00000000000E+00 -0.13960699568E+04  0.13960699568E+04  0.00000000000E+00 0.  1.
         23    2    1    2    0    0  0.43969297429E+03  0.36601983707E+01  0.15296737530E+04  0.15937239480E+04  0.81920224202E+02 0.  0.
         11    1    3    3    0    0  0.37141738990E+03  0.10020110862E+02  0.13790485632E+04  0.14282248492E+04  0.00000000000E+00 0. -1.
        -11    1    3    3    0    0  0.68275584390E+02 -0.63599124917E+01  0.15062518982E+03  0.16549909884E+03  0.00000000000E+00 0.  1.
         22    1    1    2    0    0 -0.43969297429E+03 -0.36601983707E+01 -0.13286092013E+04  0.13994805173E+04  0.00000000000E+00 0.  1.
<mgrwt>
<rscale>  0 0.29864437E+04</rscale>
<asrwt>0</asrwt>
<pdfrwt beam="1">  1        2 0.24571300E+00 0.29864437E+04</pdfrwt>
<pdfrwt beam="2">  1       -2 0.21477999E+00 0.29864437E+04</pdfrwt>
<totfact> 0.10235418E+00</totfact>
</mgrwt>
</event>
<event>
 6    1  0.9512547E-007  0.2772102E+04  0.7818608E-02  0.8311982E-01
          2   -1    0    0  501    0  0.00000000000E+00  0.00000000000E+00  0.24266742096E+04  0.24266742096E+04  0.00000000000E+00 0. -1.
         -2   -1    0    0    0  501 -0.00000000000E+00 -0.00000000000E+00 -0.79167503437E+03  0.79167503437E+03  0.00000000000E+00 0.  1.
         23    2    1    2    0    0 -0.12725997622E+04  0.37139620017E+03  0.35563158910E+03  0.13760065200E+04  0.97338705463E+02 0.  0.
         11    1    3    3    0    0 -0.91990013977E+02  0.44076195510E+01  0.37191741783E+02  0.99321777262E+02  0.00000000000E+00 0. -1.
        -11    1    3    3    0    0 -0.11806097482E+04  0.36698858061E+03  0.31843984731E+03  0.12766847427E+04  0.00000000000E+00 0.  1.
         22    1    1    2    0    0  0.12725997622E+04 -0.37139620017E+03  0.12793675862E+04  0.18423427240E+04  0.00000000000E+00 0. -1.
<mgrwt>
<rscale>  0 0.27721020E+04</rscale>
<asrwt>0</asrwt>
<pdfrwt beam="1">  1        2 0.37333449E+00 0.27721020E+04</pdfrwt>
<pdfrwt beam="2">  1       -2 0.12179616E+00 0.27721020E+04</pdfrwt>
<totfact> 0.17123432E+00</totfact>
</mgrwt>
</event>
<event>
 6    1  0.9512547E-007  0.3514296E+04  0.7818608E-02  0.8110410E-01
         -2   -1    0    0    0  501 -0.00000000000E+00  0.00000000000E+00  0.82001666429E+03  0.82001666429E+03  0.00000000000E+00 0.  1.
          2   -1    0    0  501    0  0.00000000000E+00 -0.00000000000E+00 -0.37652524300E+04  0.37652524300E+04  0.00000000000E+00 0. -1.
         23    2    1    2    0    0 -0.12828209234E+04 -0.26965045498E+03  0.50650244553E+02  0.13151507668E+04  0.93355250441E+02 0.  0.
         11    1    3    3    0    0 -0.12669756502E+04 -0.27572409885E+03  0.45546223025E+02  0.12974303586E+04  0.00000000000E+00 0.  1.
        -11    1    3    3    0    0 -0.15845273177E+02  0.60736438711E+01  0.51040215283E+01  0.17720408226E+02  0.00000000000E+00 0. -1.
         22    1    1    2    0    0  0.12828209234E+04  0.26965045498E+03 -0.29958860103E+04  0.32701183275E+04  0.00000000000E+00 0. -1.
<mgrwt>
<rscale>  0 0.35142964E+04</rscale>
<asrwt>0</asrwt>
<pdfrwt beam="1">  1        2 0.57926961E+00 0.35142964E+04</pdfrwt>
<pdfrwt beam="2">  1       -2 0.12615641E+00 0.35142964E+04</pdfrwt>
<totfact> 0.20020827E-01</totfact>
</mgrwt>
</event>
<event>
 6    1  0.9512547E-007  0.1395909E+04  0.7818608E-02  0.8956785E-01
          2   -1    0    0  501    0  0.00000000000E+00  0.00000000000E+00  0.15899241873E+04  0.15899241873E+04  0.00000000000E+00 0. -1.
         -2   -1    0    0    0  501 -0.00000000000E+00 -0.00000000000E+00 -0.30639229916E+03  0.30639229916E+03  0.00000000000E+00 0.  1.
         23    2    1    2    0    0 -0.35384942109E+03 -0.47938363268E+03  0.11306669858E+04  0.12811858024E+04  0.89505013335E+02 0.  0.
         13    1    3    3    0    0 -0.18881864751E+03 -0.22384368932E+03  0.64093824087E+03  0.70467035379E+03  0.00000000000E+00 0.  1.
        -13    1    3    3    0    0 -0.16503077358E+03 -0.25553994336E+03  0.48972874490E+03  0.57651544859E+03  0.00000000000E+00 0. -1.
         22    1    1    2    0    0  0.35384942109E+03  0.47938363268E+03  0.15286490233E+03  0.61513068404E+03  0.00000000000E+00 0.  1.
<mgrwt>
<rscale>  0 0.13959091E+04</rscale>
<asrwt>0</asrwt>
<pdfrwt beam="1">  1        2 0.24460372E+00 0.13959091E+04</pdfrwt>
<pdfrwt beam="2">  1       -2 0.47137278E-01 0.13959091E+04</pdfrwt>
<totfact> 0.46911488E+01</totfact>
</mgrwt>
</event>
<event>
 6    1  0.9512547E-007  0.2333774E+04  0.7818608E-02  0.8464722E-01
         -1   -1    0    0    0  501 -0.00000000000E+00  0.00000000000E+00  0.12486428099E+04  0.12486428099E+04  0.00000000000E+00 0.  1.
          1   -1    0    0  501    0  0.00000000000E+00 -0.00000000000E+00 -0.10904839216E+04  0.10904839216E+04  0.00000000000E+00 0. -1.
         23    2    1    2    0    0 -0.82436551237E+03  0.35802520974E+03 -0.66385035657E+03  0.11211531081E+04  0.92338762135E+02 0.  0.
         11    1    3    3    0    0 -0.34822936204E+03  0.17499864293E+03 -0.23795510513E+03  0.45662987821E+03  0.00000000000E+00 0. -1.
        -11    1    3    3    0    0 -0.47613615033E+03  0.18302656681E+03 -0.42589525144E+03  0.66452322985E+03  0.00000000000E+00 0.  1.
         22    1    1    2    0    0  0.82436551237E+03 -0.35802520974E+03  0.82200924480E+03  0.12179736234E+04  0.00000000000E+00 0.  1.
<mgrwt>
<rscale>  0 0.23337737E+04</rscale>
<asrwt>0</asrwt>
<pdfrwt beam="1">  1        1 0.16776676E+00 0.23337737E+04</pdfrwt>
<pdfrwt beam="2">  1       -1 0.19209889E+00 0.23337737E+04</pdfrwt>
<totfact> 0.19844212E+00</totfact>
</mgrwt>
</event>
<event>
 6    1  0.9512547E-007  0.2079830E+04  0.7818608E-02  0.8570181E-01
          2   -1    0    0  501    0  0.00000000000E+00  0.00000000000E+00  0.15277420628E+04  0.15277420628E+04  0.00000000000E+00 0. -1.
         -2   -1    0    0    0  501 -0.00000000000E+00 -0.00000000000E+00 -0.70785722866E+03  0.70785722866E+03  0.00000000000E+00 0.  1.
         23    2    1    2    0    0  0.27101088308E+03 -0.10009067868E+04  0.46076252744E+03  0.11382250956E+04  0.89403394007E+02 0.  0.
         13    1    3    3    0    0  0.94887565825E+02 -0.23075033882E+03  0.13478677252E+03  0.28357863646E+03  0.00000000000E+00 0. -1.
        -13    1    3    3    0    0  0.17612331725E+03 -0.77015644798E+03  0.32597575493E+03  0.85464645909E+03  0.00000000000E+00 0.  1.
         22    1    1    2    0    0 -0.27101088308E+03  0.10009067868E+04  0.35912230665E+03  0.10973741959E+04  0.00000000000E+00 0.  1.
<mgrwt>
<rscale>  0 0.20798301E+04</rscale>
<asrwt>0</asrwt>
<pdfrwt beam="1">  1        2 0.23503724E+00 0.20798301E+04</pdfrwt>
<pdfrwt beam="2">  1       -2 0.10890111E+00 0.20798301E+04</pdfrwt>
<totfact> 0.76095879E+00</totfact>
</mgrwt>
</event>
<event>
 6    1  0.9512547E-007  0.2365092E+04  0.7818608E-02  0.8452689E-01
          2   -1    0    0  501    0  0.00000000000E+00  0.00000000000E+00  0.17472647827E+04  0.17472647827E+04  0.00000000000E+00 0. -1.
         -2   -1    0    0    0  501 -0.00000000000E+00 -0.00000000000E+00 -0.80034518268E+03  0.80034518268E+03  0.00000000000E+00 0.  1.
         23    2    1    2    0    0 -0.44419486051E+03  0.90942250743E+03  0.11295341194E+04  0.15191614086E+04  0.87439621270E+02 0.  0.
         13    1    3    3    0    0 -0.29681338838E+03  0.67490958176E+03  0.78224071567E+03  0.10749426349E+04  0.00000000000E+00 0. -1.
        -13    1    3    3    0    0 -0.14738147214E+03  0.23451292567E+03  0.34729340374E+03  0.44421877371E+03  0.00000000000E+00 0.  1.
         22    1    1    2    0    0  0.44419486051E+03 -0.90942250743E+03 -0.18261451943E+03  0.10284485567E+04  0.00000000000E+00 0.  1.
<mgrwt>
<rscale>  0 0.23650919E+04</rscale>
<asrwt>0</asrwt>
<pdfrwt beam="1">  1        2 0.26880997E+00 0.23650919E+04</pdfrwt>
<pdfrwt beam="2">  1       -2 0.12313003E+00 0.23650919E+04</pdfrwt>
<totfact> 0.41456134E+00</totfact>
</mgrwt>
</event>
<event>
 6    1  0.9512547E-007  0.2007411E+04  0.7818608E-02  0.8603164E-01
          2   -1    0    0  501    0  0.00000000000E+00  0.00000000000E+00  0.10745934115E+04  0.10745934115E+04  0.00000000000E+00 0. -1.
         -2   -1    0    0    0  501 -0.00000000000E+00 -0.00000000000E+00 -0.93749368412E+03  0.93749368412E+03  0.00000000000E+00 0.  1.
         23    2    1    2    0    0 -0.49335836856E+03  0.21693158210E+03  0.91499278732E+03  0.10657365242E+04  0.90115188136E+02 0.  0.
         11    1    3    3    0    0 -0.47729331991E+03  0.18763428958E+03  0.85252581115E+03  0.99489486808E+03  0.00000000000E+00 0.  1.
        -11    1    3    3    0    0 -0.16065048651E+02  0.29297292517E+02  0.62466976165E+02  0.70841656165E+02  0.00000000000E+00 0. -1.
         22    1    1    2    0    0  0.49335836856E+03 -0.21693158210E+03 -0.77789305996E+03  0.94635057134E+03  0.00000000000E+00 0.  1.
<mgrwt>
<rscale>  0 0.20074108E+04</rscale>
<asrwt>0</asrwt>
<pdfrwt beam="1">  1        2 0.16532206E+00 0.20074108E+04</pdfrwt>
<pdfrwt beam="2">  1       -2 0.14422980E+00 0.20074108E+04</pdfrwt>
<totfact> 0.69704065E+00</totfact>
</mgrwt>
</event>
<event>
 6    1  0.9512547E-007  0.2638973E+04  0.7818608E-02  0.8355082E-01
         -2   -1    0    0    0  501 -0.00000000000E+00  0.00000000000E+00  0.54626066011E+03  0.54626066011E+03  0.00000000000E+00 0.  1.
          2   -1    0    0  501    0  0.00000000000E+00 -0.00000000000E+00 -0.31872058964E+04  0.31872058964E+04  0.00000000000E+00 0. -1.
         23    2    1    2    0    0 -0.24005754875E+03 -0.12114677343E+04 -0.19728346405E+04  0.23293107724E+04  0.91271341632E+02 0.  0.
         11    1    3    3    0    0 -0.15506810905E+03 -0.90663670694E+03 -0.14065256180E+04  0.16805804209E+04  0.00000000000E+00 0.  1.
        -11    1    3    3    0    0 -0.84989439701E+02 -0.30483102733E+03 -0.56630902243E+03  0.64873035151E+03  0.00000000000E+00 0. -1.
         22    1    1    2    0    0  0.24005754875E+03  0.12114677343E+04 -0.66811059584E+03  0.14041557842E+04  0.00000000000E+00 0.  1.
<mgrwt>
<rscale>  0 0.26389734E+04</rscale>
<asrwt>0</asrwt>
<pdfrwt beam="1">  1        2 0.49033936E+00 0.26389734E+04</pdfrwt>
<pdfrwt beam="2">  1       -2 0.84040102E-01 0.26389734E+04</pdfrwt>
<totfact> 0.14411822E+00</totfact>
</mgrwt>
</event>
<event>
 6    1  0.9512547E-007  0.9885588E+03  0.7818608E-02  0.9321183E-01
          1   -1    0    0  501    0  0.00000000000E+00  0.00000000000E+00  0.20982361446E+04  0.20982361446E+04  0.00000000000E+00 0. -1.
         -1   -1    0    0    0  501 -0.00000000000E+00 -0.00000000000E+00 -0.11643689911E+03  0.11643689911E+03  0.00000000000E+00 0.  1.
         23    2    1    2    0    0  0.35162886930E+03  0.80236846473E+02  0.17421460850E+04  0.17816436560E+04  0.95395609537E+02 0.  0.
         13    1    3    3    0    0  0.66853063952E+02  0.41083184858E+02  0.53621625512E+03  0.54192714685E+03  0.00000000000E+00 0.  1.
        -13    1    3    3    0    0  0.28477580535E+03  0.39153661615E+02  0.12059298299E+04  0.12397165092E+04  0.00000000000E+00 0. -1.
         22    1    1    2    0    0 -0.35162886930E+03 -0.80236846473E+02  0.23965316046E+03  0.43302938765E+03  0.00000000000E+00 0.  1.
<mgrwt>
<rscale>  0 0.98855877E+03</rscale>
<asrwt>0</asrwt>
<pdfrwt beam="1">  1        1 0.32280553E+00 0.98855877E+03</pdfrwt>
<pdfrwt beam="2">  1       -1 0.17913371E-01 0.98855877E+03</pdfrwt>
<totfact> 0.63424342E+01</totfact>
</mgrwt>
</event>
<event>
 6    1  0.9512547E-007  0.2492089E+04  0.7818608E-02  0.8405809E-01
          1   -1    0    0  501    0  0.00000000000E+00  0.00000000000E+00  0.78827174526E+03  0.78827174526E+03  0.00000000000E+00 0. -1.
         -1   -1    0    0    0  501 -0.00000000000E+00 -0.00000000000E+00 -0.19696597100E+04  0.19696597100E+04  0.00000000000E+00 0.  1.
         23    2    1    2    0    0  0.10457531463E+04  0.52141087483E+03 -0.11803367458E+03  0.11779975042E+04  0.90979273123E+02 0.  0.
         11    1    3    3    0    0  0.69820750918E+03  0.30093254496E+03 -0.86692021277E+02  0.76522521459E+03  0.00000000000E+00 0. -1.
        -11    1    3    3    0    0  0.34754563711E+03  0.22047832987E+03 -0.31341653308E+02  0.41277228959E+03  0.00000000000E+00 0.  1.
         22    1    1    2    0    0 -0.10457531463E+04 -0.52141087483E+03 -0.10633542901E+04  0.15799339511E+04  0.00000000000E+00 0. -1.
<mgrwt>
<rscale>  0 0.24920892E+04</rscale>
<asrwt>0</asrwt>
<pdfrwt beam="1">  1        1 0.12127258E+00 0.24920892E+04</pdfrwt>
<pdfrwt beam="2">  1       -1 0.30302457E+00 0.24920892E+04</pdfrwt>
<totfact> 0.63539257E-01</totfact>
</mgrwt>
</event>
<event>
 6    1  0.9512547E-007  0.3267797E+04  0.7818608E-02  0.8171138E-01
         -2   -1    0    0    0  501 -0.00000000000E+00  0.00000000000E+00  0.63097674352E+03  0.63097674352E+03  0.00000000000E+00 0.  1.
          2   -1    0    0  501    0  0.00000000000E+00 -0.00000000000E+00 -0.42309392540E+04  0.42309392540E+04  0.00000000000E+00 0. -1.
         23    2    1    2    0    0 -0.57614262607E+03  0.62597796007E+03  0.27164483801E+03  0.89793665942E+03  0.93330564317E+02 0.  0.
         13    1    3    3    0    0 -0.22059959354E+03  0.29680476403E+03  0.14422606914E+03  0.39693627655E+03  0.00000000000E+00 0. -1.
        -13    1    3    3    0    0 -0.35554303253E+03  0.32917319604E+03  0.12741876887E+03  0.50100038287E+03  0.00000000000E+00 0.  1.
         22    1    1    2    0    0  0.57614262607E+03 -0.62597796007E+03 -0.38716073485E+04  0.39639793381E+04  0.00000000000E+00 0. -1.
<mgrwt>
<rscale>  0 0.32677970E+04</rscale>
<asrwt>0</asrwt>
<pdfrwt beam="1">  1        2 0.65091371E+00 0.32677970E+04</pdfrwt>
<pdfrwt beam="2">  1       -2 0.97073348E-01 0.32677970E+04</pdfrwt>
<totfact> 0.16171894E-01</totfact>
</mgrwt>
</event>
<event>
 6    1  0.9512547E-007  0.9651920E+03  0.7818608E-02  0.9347568E-01
          1   -1    0    0  501    0  0.00000000000E+00  0.00000000000E+00  0.50466175389E+03  0.50466175389E+03  0.00000000000E+00 0. -1.
         -1   -1    0    0    0  501 -0.00000000000E+00 -0.00000000000E+00 -0.46149500618E+03  0.46149500618E+03  0.00000000000E+00 0.  1.
         23    2    1    2    0    0 -0.43373394853E+03 -0.52819826644E+02  0.21615899159E+03  0.49621911673E+03  0.92701833651E+02 0.  0.
         13    1    3    3    0    0 -0.27207847884E+03  0.69889478158E+01  0.15570916543E+03  0.31356161793E+03  0.00000000000E+00 0.  1.
        -13    1    3    3    0    0 -0.16165546969E+03 -0.59808774460E+02  0.60449826163E+02  0.18265749880E+03  0.00000000000E+00 0. -1.
         22    1    1    2    0    0  0.43373394853E+03  0.52819826644E+02 -0.17299224388E+03  0.46993764335E+03  0.00000000000E+00 0.  1.
<mgrwt>
<rscale>  0 0.96519196E+03</rscale>
<asrwt>0</asrwt>
<pdfrwt beam="1">  1        1 0.77640269E-01 0.96519196E+03</pdfrwt>
<pdfrwt beam="2">  1       -1 0.70999232E-01 0.96519196E+03</pdfrwt>
<totfact> 0.88124011E+01</totfact>
</mgrwt>
</event>
<event>
 6    1  0.9512547E-007  0.7110717E+03  0.7818608E-02  0.9698483E-01
         -2   -1    0    0    0  501 -0.00000000000E+00  0.00000000000E+00  0.10970661997E+03  0.10970661997E+03  0.00000000000E+00 0.  1.
          2   -1    0    0  501    0  0.00000000000E+00 -0.00000000000E+00 -0.11522160037E+04  0.11522160037E+04  0.00000000000E+00 0. -1.
         23    2    1    2    0    0 -0.12474450839E+03 -0.23913534720E+03 -0.92068063564E+03  0.96596798100E+03  0.11266943156E+03 0.  0.
         11    1    3    3    0    0 -0.47686096882E+02 -0.88524484936E+01 -0.18465697317E+03  0.19092021219E+03  0.00000000000E+00 0.  1.
        -11    1    3    3    0    0 -0.77058411507E+02 -0.23028289871E+03 -0.73602366247E+03  0.77504776881E+03  0.00000000000E+00 0. -1.
         22    1    1    2    0    0  0.12474450839E+03  0.23913534720E+03 -0.12182874807E+03  0.29595464266E+03  0.00000000000E+00 0.  1.
<mgrwt>
<rscale>  0 0.71107165E+03</rscale>
<asrwt>0</asrwt>
<pdfrwt beam="1">  1        2 0.17726400E+00 0.71107165E+03</pdfrwt>
<pdfrwt beam="2">  1       -2 0.16877942E-01 0.71107165E+03</pdfrwt>
<totfact> 0.58481103E+02</totfact>
</mgrwt>
</event>
<event>
 6    1  0.9512547E-007  0.2428915E+04  0.7818608E-02  0.8428757E-01
         -2   -1    0    0    0  501 -0.00000000000E+00  0.00000000000E+00  0.86004245165E+03  0.86004245165E+03  0.00000000000E+00 0.  1.
          2   -1    0    0  501    0  0.00000000000E+00 -0.00000000000E+00 -0.17149236882E+04  0.17149236882E+04  0.00000000000E+00 0. -1.
         23    2    1    2    0    0 -0.55835497356E+03 -0.78431314374E+02  0.71034689668E+03  0.91128021498E+03  0.89034650690E+02 0.  0.
         11    1    3    3    0    0 -0.58688104343E+02 -0.35136138950E+02  0.10257645242E+03  0.12329140458E+03  0.00000000000E+00 0. -1.
        -11    1    3    3    0    0 -0.49966686921E+03 -0.43295175424E+02  0.60777044426E+03  0.78798881040E+03  0.00000000000E+00 0.  1.
         22    1    1    2    0    0  0.55835497356E+03  0.78431314374E+02 -0.15652281332E+04  0.16636859249E+04  0.00000000000E+00 0. -1.
<mgrwt>
<rscale>  0 0.24289151E+04</rscale>
<asrwt>0</asrwt>
<pdfrwt beam="1">  1        2 0.26383441E+00 0.24289151E+04</pdfrwt>
<pdfrwt beam="2">  1       -2 0.13231422E+00 0.24289151E+04</pdfrwt>
<totfact> 0.35847227E+00</totfact>
</mgrwt>
</event>
<event>
 6    1  0.9512547E-007  0.2885183E+04  0.7818608E-02  0.8277300E-01
          2   -1    0    0  501    0  0.00000000000E+00  0.00000000000E+00  0.18430068469E+04  0.18430068469E+04  0.00000000000E+00 0. -1.
         -2   -1    0    0    0  501 -0.00000000000E+00 -0.00000000000E+00 -0.11291709640E+04  0.11291709640E+04  0.00000000000E+00 0.  1.
         23    2    1    2    0    0 -0.42485607920E+03  0.62499198518E+03 -0.90691095004E+03  0.11838998778E+04  0.89519717277E+02 0.  0.
         13    1    3    3    0    0 -0.25650327043E+03  0.45091480082E+03 -0.61063981490E+03  0.80124844392E+03  0.00000000000E+00 0. -1.
        -13    1    3    3    0    0 -0.16835280877E+03  0.17407718436E+03 -0.29627113514E+03  0.38265143388E+03  0.00000000000E+00 0.  1.
         22    1    1    2    0    0  0.42485607920E+03 -0.62499198518E+03  0.16207468330E+04  0.17882779331E+04  0.00000000000E+00 0. -1.
<mgrwt>
<rscale>  0 0.28851827E+04</rscale>
<asrwt>0</asrwt>
<pdfrwt beam="1">  1        2 0.28353952E+00 0.28851827E+04</pdfrwt>
<pdfrwt beam="2">  1       -2 0.17371861E+00 0.28851827E+04</pdfrwt>
<totfact> 0.14159237E+00</totfact>
</mgrwt>
</event>
<event>
 6    1  0.9512547E-007  0.1346879E+04  0.7818608E-02  0.8993194E-01
         -1   -1    0    0    0  501 -0.00000000000E+00  0.00000000000E+00  0.37462110470E+03  0.37462110470E+03  0.00000000000E+00 0.  1.
          1   -1    0    0  501    0  0.00000000000E+00 -0.00000000000E+00 -0.12106110663E+04  0.12106110663E+04  0.00000000000E+00 0. -1.
         23    2    1    2    0    0 -0.28808948874E+03  0.20514655646E+03  0.24961861776E+03  0.44346746200E+03  0.96297831572E+02 0.  0.
         13    1    3    3    0    0 -0.10872999257E+03  0.11518497065E+03  0.66417172608E+02  0.17175863753E+03  0.00000000000E+00 0. -1.
        -13    1    3    3    0    0 -0.17935949618E+03  0.89961585814E+02  0.18320144515E+03  0.27170882447E+03  0.00000000000E+00 0.  1.
         22    1    1    2    0    0  0.28808948874E+03 -0.20514655646E+03 -0.10856085793E+04  0.11417647090E+04  0.00000000000E+00 0. -1.
<mgrwt>
<rscale>  0 0.13468785E+04</rscale>
<asrwt>0</asrwt>
<pdfrwt beam="1">  1        1 0.18624786E+00 0.13468785E+04</pdfrwt>
<pdfrwt beam="2">  1       -1 0.57634016E-01 0.13468785E+04</pdfrwt>
<totfact> 0.31333999E+01</totfact>
</mgrwt>
</event>
<event>
 6    1  0.9512547E-007  0.7913397E+03  0.7818608E-02  0.9572638E-01
          1   -1    0    0  501    0  0.00000000000E+00  0.00000000000E+00  0.15158283498E+04  0.15158283498E+04  0.00000000000E+00 0. -1.
         -1   -1    0    0    0  501 -0.00000000000E+00 -0.00000000000E+00 -0.10327993252E+03  0.10327993252E+03  0.00000000000E+00 0.  1.
         23    2    1    2    0    0  0.32338098319E+01  0.16464722885E+03  0.14398874110E+04  0.14521753974E+04  0.91752171531E+02 0.  0.
         13    1    3    3    0    0 -0.24532446946E+02  0.11257412399E+03  0.11829675745E+04  0.11885651251E+04  0.00000000000E+00 0.  1.
        -13    1    3    3    0    0  0.27766256778E+02  0.52073104854E+02  0.25691983651E+03  0.26361027229E+03  0.00000000000E+00 0. -1.
         22    1    1    2    0    0 -0.32338098319E+01 -0.16464722885E+03 -0.27338993714E+02  0.16693288493E+03  0.00000000000E+00 0.  1.
<mgrwt>
<rscale>  0 0.79133975E+03</rscale>
<asrwt>0</asrwt>
<pdfrwt beam="1">  1        1 0.23320435E+00 0.79133975E+03</pdfrwt>
<pdfrwt beam="2">  1       -1 0.15889222E-01 0.79133975E+03</pdfrwt>
<totfact> 0.19403606E+02</totfact>
</mgrwt>
</event>
<event>
 6    1  0.9512547E-007  0.2614236E+04  0.7818608E-02  0.8363381E-01
         -1   -1    0    0    0  501 -0.00000000000E+00  0.00000000000E+00  0.45031489323E+03  0.45031489323E+03  0.00000000000E+00 0.  1.
          1   -1    0    0  501    0  0.00000000000E+00 -0.00000000000E+00 -0.37941404172E+04  0.37941404172E+04  0.00000000000E+00 0. -1.
         23    2    1    2    0    0  0.20679297188E+03  0.12884641022E+04 -0.17377289266E+04  0.21750473381E+04  0.90697435577E+02 0.  0.
         11    1    3    3    0    0  0.48684209467E+02  0.12853857196E+03 -0.18220717906E+03  0.22823622157E+03  0.00000000000E+00 0. -1.
        -11    1    3    3    0    0  0.15810876241E+03  0.11599255302E+04 -0.15555217476E+04  0.19468111166E+04  0.00000000000E+00 0.  1.
         22    1    1    2    0    0 -0.20679297188E+03 -0.12884641022E+04 -0.16060965973E+04  0.20694079723E+04  0.00000000000E+00 0. -1.
<mgrwt>
<rscale>  0 0.26142364E+04</rscale>
<asrwt>0</asrwt>
<pdfrwt beam="1">  1        1 0.58371392E+00 0.26142364E+04</pdfrwt>
<pdfrwt beam="2">  1       -1 0.69279213E-01 0.26142364E+04</pdfrwt>
<totfact> 0.26751499E-01</totfact>
</mgrwt>
</event>
<event>
 6    1  0.9512547E-007  0.6896285E+04  0.7818608E-02  0.7588227E-01
          2   -1    0    0  501    0  0.00000000000E+00  0.00000000000E+00  0.29904566885E+04  0.29904566885E+04  0.00000000000E+00 0. -1.
         -2   -1    0    0    0  501 -0.00000000000E+00 -0.00000000000E+00 -0.39758762906E+04  0.39758762906E+04  0.00000000000E+00 0.  1.
         23    2    1    2    0    0 -0.13024728554E+04  0.28774506575E+04  0.90309075328E+03  0.32863018395E+04  0.89716475442E+02 0.  0.
         11    1    3    3    0    0 -0.11012439727E+04  0.24571316675E+04  0.73819643807E+03  0.27919828617E+04  0.00000000000E+00 0. -1.
        -11    1    3    3    0    0 -0.20122888263E+03  0.42031899008E+03  0.16489431521E+03  0.49431897780E+03  0.00000000000E+00 0.  1.
         22    1    1    2    0    0  0.13024728554E+04 -0.28774506575E+04 -0.18885103554E+04  0.36800311395E+04  0.00000000000E+00 0.  1.
<mgrwt>
<rscale>  0 0.68962848E+04</rscale>
<asrwt>0</asrwt>
<pdfrwt beam="1">  1        2 0.46007026E+00 0.68962848E+04</pdfrwt>
<pdfrwt beam="2">  1       -2 0.61167327E+00 0.68962848E+04</pdfrwt>
<totfact> 0.52276156E-04</totfact>
</mgrwt>
</event>
<event>
 6    1  0.9512547E-007  0.3287131E+04  0.7818608E-02  0.8166178E-01
          2   -1    0    0  501    0  0.00000000000E+00  0.00000000000E+00  0.18906828611E+04  0.18906828611E+04  0.00000000000E+00 0. -1.
         -2   -1    0    0    0  501 -0.00000000000E+00 -0.00000000000E+00 -0.14287469940E+04  0.14287469940E+04  0.00000000000E+00 0.  1.
         23    2    1    2    0    0  0.91638783914E+03 -0.91411441515E+02  0.16041768786E+04  0.18521748493E+04  0.95107787432E+02 0.  0.
         11    1    3    3    0    0  0.29037045171E+03 -0.29742369170E+02  0.42295151729E+03  0.51389453560E+03  0.00000000000E+00 0. -1.
        -11    1    3    3    0    0  0.62601738744E+03 -0.61669072345E+02  0.11812253613E+04  0.13382803137E+04  0.00000000000E+00 0.  1.
         22    1    1    2    0    0 -0.91638783914E+03  0.91411441515E+02 -0.11422410115E+04  0.14672550057E+04  0.00000000000E+00 0.  1.
<mgrwt>
<rscale>  0 0.32871309E+04</rscale>
<asrwt>0</asrwt>
<pdfrwt beam="1">  1        2 0.29087429E+00 0.32871309E+04</pdfrwt>
<pdfrwt beam="2">  1       -2 0.21980723E+00 0.32871309E+04</pdfrwt>
<totfact> 0.63684015E-01</totfact>
</mgrwt>
</event>
<event>
 6    1  0.9512547E-007  0.1974457E+04  0.7818608E-02  0.8618657E-01
          2   -1    0    0  501    0  0.00000000000E+00  0.00000000000E+00  0.17745455056E+04  0.17745455056E+04  0.00000000000E+00 0. -1.
         -2   -1    0    0    0  501 -0.00000000000E+00 -0.00000000000E+00 -0.54922218736E+03  0.54922218736E+03  0.00000000000E+00 0.  1.
         23    2    1    2    0    0 -0.56337882881E+03 -0.73709358954E+03  0.22255310931E+03  0.95765980688E+03  0.82944287109E+02 0.  0.
         13    1    3    3    0    0 -0.18699064130E+03 -0.27958395228E+03  0.11547726808E+03  0.35562295447E+03  0.00000000000E+00 0. -1.
        -13    1    3    3    0    0 -0.37638818751E+03 -0.45750963726E+03  0.10707584123E+03  0.60203685241E+03  0.00000000000E+00 0.  1.
         22    1    1    2    0    0  0.56337882881E+03  0.73709358954E+03  0.10027702090E+04  0.13661078861E+04  0.00000000000E+00 0. -1.
<mgrwt>
<rscale>  0 0.19744566E+04</rscale>
<asrwt>0</asrwt>
<pdfrwt beam="1">  1        2 0.27300700E+00 0.19744566E+04</pdfrwt>
<pdfrwt beam="2">  1       -2 0.84495722E-01 0.19744566E+04</pdfrwt>
<totfact> 0.10135446E+01</totfact>
</mgrwt>
</event>
<event>
 6    1  0.9512547E-007  0.2635922E+04  0.7818608E-02  0.8356101E-01
         -2   -1    0    0    0  501 -0.00000000000E+00  0.00000000000E+00  0.68226726519E+03  0.68226726519E+03  0.00000000000E+00 0.  1.
          2   -1    0    0  501    0  0.00000000000E+00 -0.00000000000E+00 -0.25459548704E+04  0.25459548704E+04  0.00000000000E+00 0. -1.
         23    2    1    2    0    0 -0.97527818389E+03 -0.67024246671E+03 -0.16388250426E+04  0.20236659218E+04  0.95308670191E+02 0.  0.
         11    1    3    3    0    0 -0.58652192499E+03 -0.41870488883E+03 -0.10728732904E+04  0.12924313714E+04  0.00000000000E+00 0. -1.
        -11    1    3    3    0    0 -0.38875625890E+03 -0.25153757788E+03 -0.56595175213E+03  0.73123455038E+03  0.00000000000E+00 0.  1.
         22    1    1    2    0    0  0.97527818389E+03  0.67024246671E+03 -0.22486256262E+03  0.12045562138E+04  0.00000000000E+00 0. -1.
<mgrwt>
<rscale>  0 0.26359224E+04</rscale>
<asrwt>0</asrwt>
<pdfrwt beam="1">  1        2 0.39168537E+00 0.26359224E+04</pdfrwt>
<pdfrwt beam="2">  1       -2 0.10496419E+00 0.26359224E+04</pdfrwt>
<totfact> 0.21232893E+00</totfact>
</mgrwt>
</event>
<event>
 6    1  0.9512547E-007  0.1243281E+04  0.7818608E-02  0.9075794E-01
          1   -1    0    0  501    0  0.00000000000E+00  0.00000000000E+00  0.11706559254E+04  0.11706559254E+04  0.00000000000E+00 0. -1.
         -1   -1    0    0    0  501 -0.00000000000E+00 -0.00000000000E+00 -0.33010288362E+03  0.33010288362E+03  0.00000000000E+00 0.  1.
         23    2    1    2    0    0  0.14771328049E+03  0.76892514058E+01  0.11471778803E+04  0.11603221343E+04  0.91934914059E+02 0.  0.
         11    1    3    3    0    0  0.11984976246E+02  0.20585993038E+02  0.40671224780E+03  0.40740922335E+03  0.00000000000E+00 0. -1.
        -11    1    3    3    0    0  0.13572830425E+03 -0.12896741632E+02  0.74046563253E+03  0.75291291095E+03  0.00000000000E+00 0.  1.
         22    1    1    2    0    0 -0.14771328049E+03 -0.76892514058E+01 -0.30662483859E+03  0.34043667467E+03  0.00000000000E+00 0.  1.
<mgrwt>
<rscale>  0 0.12432810E+04</rscale>
<asrwt>0</asrwt>
<pdfrwt beam="1">  1        1 0.18010091E+00 0.12432810E+04</pdfrwt>
<pdfrwt beam="2">  1       -1 0.50785060E-01 0.12432810E+04</pdfrwt>
<totfact> 0.43159030E+01</totfact>
</mgrwt>
</event>
<event>
 6    1  0.9512547E-007  0.1709726E+04  0.7818608E-02  0.8755837E-01
         -2   -1    0    0    0  501 -0.00000000000E+00  0.00000000000E+00  0.32945963989E+03  0.32945963989E+03  0.00000000000E+00 0.  1.
          2   -1    0    0  501    0  0.00000000000E+00 -0.00000000000E+00 -0.22181500659E+04  0.22181500659E+04  0.00000000000E+00 0. -1.
         23    2    1    2    0    0 -0.35870695278E+03  0.24589305084E+03 -0.20394657557E+04  0.20873192861E+04  0.91362810649E+02 0.  0.
         11    1    3    3    0    0 -0.18060919816E+03  0.75510657790E+02 -0.10059500086E+04  0.10248204534E+04  0.00000000000E+00 0. -1.
        -11    1    3    3    0    0 -0.17809775462E+03  0.17038239305E+03 -0.10335157471E+04  0.10624988327E+04  0.00000000000E+00 0.  1.
         22    1    1    2    0    0  0.35870695278E+03 -0.24589305084E+03  0.15077532965E+03  0.46029041969E+03  0.00000000000E+00 0.  1.
<mgrwt>
<rscale>  0 0.17097262E+04</rscale>
<asrwt>0</asrwt>
<pdfrwt beam="1">  1        2 0.34125387E+00 0.17097262E+04</pdfrwt>
<pdfrwt beam="2">  1       -2 0.50686097E-01 0.17097262E+04</pdfrwt>
<totfact> 0.17658481E+01</totfact>
</mgrwt>
</event>
<event>
 6    1  0.9512547E-007  0.2220493E+04  0.7818608E-02  0.8509946E-01
         -2   -1    0    0    0  501 -0.00000000000E+00  0.00000000000E+00  0.71140378427E+03  0.71140378427E+03  0.00000000000E+00 0.  1.
          2   -1    0    0  501    0  0.00000000000E+00 -0.00000000000E+00 -0.17326975233E+04  0.17326975233E+04  0.00000000000E+00 0. -1.
         23    2    1    2    0    0 -0.43840811499E+03  0.10038840514E+04 -0.32552765930E+03  0.11463820384E+04  0.90767048912E+02 0.  0.
         13    1    3    3    0    0 -0.10739967513E+03  0.34568612390E+03 -0.12293322136E+03  0.38229067918E+03  0.00000000000E+00 0. -1.
        -13    1    3    3    0    0 -0.33100843986E+03  0.65819792745E+03 -0.20259443794E+03  0.76409135923E+03  0.00000000000E+00 0.  1.
         22    1    1    2    0    0  0.43840811499E+03 -0.10038840514E+04 -0.69576607972E+03  0.12977192692E+04  0.00000000000E+00 0. -1.
<mgrwt>
<rscale>  0 0.22204933E+04</rscale>
<asrwt>0</asrwt>
<pdfrwt beam="1">  1        2 0.26656885E+00 0.22204933E+04</pdfrwt>
<pdfrwt beam="2">  1       -2 0.10944674E+00 0.22204933E+04</pdfrwt>
<totfact> 0.57080304E+00</totfact>
</mgrwt>
</event>
<event>
 6    1  0.9512547E-007  0.1670521E+04  0.7818608E-02  0.8778358E-01
         -2   -1    0    0    0  501 -0.00000000000E+00  0.00000000000E+00  0.27084471790E+03  0.27084471790E+03  0.00000000000E+00 0.  1.
          2   -1    0    0  501    0  0.00000000000E+00 -0.00000000000E+00 -0.25758678374E+04  0.25758678374E+04  0.00000000000E+00 0. -1.
         23    2    1    2    0    0  0.46356823953E+02 -0.62164529636E+03 -0.21515962250E+03  0.66585922101E+03  0.92103254150E+02 0.  0.
         11    1    3    3    0    0  0.23796721013E+02 -0.37422065481E+03 -0.17642453254E+03  0.41440680267E+03  0.00000000000E+00 0.  1.
        -11    1    3    3    0    0  0.22560102940E+02 -0.24742464155E+03 -0.38735089965E+02  0.25145241834E+03  0.00000000000E+00 0. -1.
         22    1    1    2    0    0 -0.46356823953E+02  0.62164529636E+03 -0.20898634970E+04  0.21808533343E+04  0.00000000000E+00 0.  1.
<mgrwt>
<rscale>  0 0.16705211E+04</rscale>
<asrwt>0</asrwt>
<pdfrwt beam="1">  1        2 0.39628737E+00 0.16705211E+04</pdfrwt>
<pdfrwt beam="2">  1       -2 0.41668417E-01 0.16705211E+04</pdfrwt>
<totfact> 0.16400165E+01</totfact>
</mgrwt>
</event>
<event>
 6    1  0.9512547E-007  0.2525100E+04  0.7818608E-02  0.8394098E-01
         -1   -1    0    0    0  501 -0.00000000000E+00  0.00000000000E+00  0.74700417041E+03  0.74700417041E+03  0.00000000000E+00 0.  1.
          1   -1    0    0  501    0  0.00000000000E+00 -0.00000000000E+00 -0.21339003754E+04  0.21339003754E+04  0.00000000000E+00 0. -1.
         23    2    1    2    0    0  0.93271987229E+03  0.44919218445E+03  0.12689097252E+03  0.10469766308E+04  0.91207278896E+02 0.  0.
         13    1    3    3    0    0  0.76450147714E+03  0.33507696433E+03  0.81338954206E+02  0.83866268907E+03  0.00000000000E+00 0.  1.
        -13    1    3    3    0    0  0.16821839515E+03  0.11411522013E+03  0.45552018312E+02  0.20831394169E+03  0.00000000000E+00 0. -1.
         22    1    1    2    0    0 -0.93271987229E+03 -0.44919218445E+03 -0.15137871775E+04  0.18339279150E+04  0.00000000000E+00 0. -1.
<mgrwt>
<rscale>  0 0.25251000E+04</rscale>
<asrwt>0</asrwt>
<pdfrwt beam="1">  1        1 0.32829236E+00 0.25251000E+04</pdfrwt>
<pdfrwt beam="2">  1       -1 0.11492372E+00 0.25251000E+04</pdfrwt>
<totfact> 0.14724659E+00</totfact>
</mgrwt>
</event>
<event>
 6    1  0.9512547E-007  0.2705090E+03  0.7818608E-02  0.1100989E+00
         -1   -1    0    0    0  501 -0.00000000000E+00  0.00000000000E+00  0.50977275128E+03  0.50977275128E+03  0.00000000000E+00 0.  1.
          1   -1    0    0  501    0  0.00000000000E+00 -0.00000000000E+00 -0.35886154666E+02  0.35886154666E+02  0.00000000000E+00 0. -1.
         23    2    1    2    0    0 -0.26688420716E+02 -0.10393040385E+03  0.17793386963E+03  0.23085449483E+03  0.10059590041E+03 0.  0.
         13    1    3    3    0    0 -0.41439680854E+02 -0.82630390082E+02  0.18247192281E+03  0.20455080329E+03  0.00000000000E+00 0.  1.
        -13    1    3    3    0    0  0.14751260138E+02 -0.21300013767E+02 -0.45380531797E+01  0.26303691542E+02  0.00000000000E+00 0. -1.
         22    1    1    2    0    0  0.26688420716E+02  0.10393040385E+03  0.29595272699E+03  0.31480441111E+03  0.00000000000E+00 0.  1.
<mgrwt>
<rscale>  0 0.27050903E+03</rscale>
<asrwt>0</asrwt>
<pdfrwt beam="1">  1        1 0.55209473E-02 0.27050903E+03</pdfrwt>
<pdfrwt beam="2">  1       -1 0.78426572E-01 0.27050903E+03</pdfrwt>
<totfact> 0.24590380E+03</totfact>
</mgrwt>
</event>
<event>
 6    1  0.9512547E-007  0.2481886E+04  0.7818608E-02  0.8409467E-01
          2   -1    0    0  501    0  0.00000000000E+00  0.00000000000E+00  0.24521229147E+04  0.24521229147E+04  0.00000000000E+00 0. -1.
         -2   -1    0    0    0  501 -0.00000000000E+00 -0.00000000000E+00 -0.62800247106E+03  0.62800247106E+03  0.00000000000E+00 0.  1.
         23    2    1    2    0    0 -0.34474939922E+03 -0.41101476949E+03  0.22997524016E+04  0.23631797474E+04  0.89286733317E+02 0.  0.
         13    1    3    3    0    0 -0.20281939463E+03 -0.30651655079E+03  0.15681658891E+04  0.16106620870E+04  0.00000000000E+00 0. -1.
        -13    1    3    3    0    0 -0.14193000460E+03 -0.10449821870E+03  0.73158651250E+03  0.75251766038E+03  0.00000000000E+00 0.  1.
         22    1    1    2    0    0  0.34474939922E+03  0.41101476949E+03 -0.47563195794E+03  0.71694563840E+03  0.00000000000E+00 0.  1.
<mgrwt>
<rscale>  0 0.24818858E+04</rscale>
<asrwt>0</asrwt>
<pdfrwt beam="1">  1        2 0.37724967E+00 0.24818858E+04</pdfrwt>
<pdfrwt beam="2">  1       -2 0.96615766E-01 0.24818858E+04</pdfrwt>
<totfact> 0.29685591E+00</totfact>
</mgrwt>
</event>
<event>
 6    1  0.9512547E-007  0.3477686E+04  0.7818608E-02  0.8119098E-01
          2   -1    0    0  501    0  0.00000000000E+00  0.00000000000E+00  0.85165550786E+03  0.85165550786E+03  0.00000000000E+00 0. -1.
         -2   -1    0    0    0  501 -0.00000000000E+00 -0.00000000000E+00 -0.35502327908E+04  0.35502327908E+04  0.00000000000E+00 0.  1.
         23    2    1    2    0    0 -0.14459032555E+04 -0.32764333754E+03 -0.24973813777E+04  0.29057378472E+04  0.91718645132E+02 0.  0.
         11    1    3    3    0    0 -0.66802341102E+03 -0.19823636575E+03 -0.11666578908E+04  0.13589126420E+04  0.00000000000E+00 0.  1.
        -11    1    3    3    0    0 -0.77787984451E+03 -0.12940697178E+03 -0.13307234870E+04  0.15468252053E+04  0.00000000000E+00 0. -1.
         22    1    1    2    0    0  0.14459032555E+04  0.32764333754E+03 -0.20119590516E+03  0.14961504514E+04  0.00000000000E+00 0. -1.
<mgrwt>
<rscale>  0 0.34776862E+04</rscale>
<asrwt>0</asrwt>
<pdfrwt beam="1">  1        2 0.13102393E+00 0.34776862E+04</pdfrwt>
<pdfrwt beam="2">  1       -2 0.54618966E+00 0.34776862E+04</pdfrwt>
<totfact> 0.23200348E-02</totfact>
</mgrwt>
</event>
<event>
 6    1  0.9512547E-007  0.2032974E+04  0.7818608E-02  0.8591358E-01
          2   -1    0    0  501    0  0.00000000000E+00  0.00000000000E+00  0.18560884812E+04  0.18560884812E+04  0.00000000000E+00 0. -1.
         -2   -1    0    0    0  501 -0.00000000000E+00 -0.00000000000E+00 -0.55667924106E+03  0.55667924106E+03  0.00000000000E+00 0.  1.
         23    2    1    2    0    0 -0.79792496308E+03 -0.11122420735E+03  0.13826843034E+04  0.16028357454E+04  0.90617177060E+02 0.  0.
         11    1    3    3    0    0 -0.31525402591E+03 -0.36632113598E+01  0.50116898460E+03  0.59208856693E+03  0.00000000000E+00 0. -1.
        -11    1    3    3    0    0 -0.48267093717E+03 -0.10756099599E+03  0.88151531878E+03  0.10107471784E+04  0.00000000000E+00 0.  1.
         22    1    1    2    0    0  0.79792496308E+03  0.11122420735E+03 -0.83275063268E+02  0.80993197688E+03  0.00000000000E+00 0.  1.
<mgrwt>
<rscale>  0 0.20329741E+04</rscale>
<asrwt>0</asrwt>
<pdfrwt beam="1">  1        2 0.28555207E+00 0.20329741E+04</pdfrwt>
<pdfrwt beam="2">  1       -2 0.85642961E-01 0.20329741E+04</pdfrwt>
<totfact> 0.88137227E+00</totfact>
</mgrwt>
</event>
<event>
 6    1  0.9512547E-007  0.2215940E+04  0.7818608E-02  0.8511823E-01
         -1   -1    0    0    0  501 -0.00000000000E+00  0.00000000000E+00  0.86789410433E+03  0.86789410433E+03  0.00000000000E+00 0.  1.
          1   -1    0    0  501    0  0.00000000000E+00 -0.00000000000E+00 -0.14144552826E+04  0.14144552826E+04  0.00000000000E+00 0. -1.
         23    2    1    2    0    0 -0.46618844012E+03  0.95695380168E+03 -0.58337843248E+03  0.12172448144E+04  0.90897208003E+02 0.  0.
         13    1    3    3    0    0 -0.36353318716E+02  0.37160886870E+02 -0.17094766584E+02  0.54724092859E+02  0.00000000000E+00 0.  1.
        -13    1    3    3    0    0 -0.42983512140E+03  0.91979291481E+03 -0.56628366590E+03  0.11625207215E+04  0.00000000000E+00 0. -1.
         22    1    1    2    0    0  0.46618844012E+03 -0.95695380168E+03  0.36817254207E+02  0.10651045725E+04  0.00000000000E+00 0. -1.
<mgrwt>
<rscale>  0 0.22159399E+04</rscale>
<asrwt>0</asrwt>
<pdfrwt beam="1">  1        1 0.21760850E+00 0.22159399E+04</pdfrwt>
<pdfrwt beam="2">  1       -1 0.13352217E+00 0.22159399E+04</pdfrwt>
<totfact> 0.32378430E+00</totfact>
</mgrwt>
</event>
<event>
 6    1  0.9512547E-007  0.2892678E+04  0.7818608E-02  0.8275059E-01
         -2   -1    0    0    0  501 -0.00000000000E+00  0.00000000000E+00  0.88034651598E+03  0.88034651598E+03  0.00000000000E+00 0.  1.
          2   -1    0    0  501    0  0.00000000000E+00 -0.00000000000E+00 -0.23762188799E+04  0.23762188799E+04  0.00000000000E+00 0. -1.
         23    2    1    2    0    0 -0.88993359336E+03 -0.80169970233E+03  0.16119889342E+03  0.12119164369E+04  0.89733793001E+02 0.  0.
         11    1    3    3    0    0 -0.37612861763E+03 -0.39447725859E+03  0.90274772397E+02  0.55248038796E+03  0.00000000000E+00 0.  1.
        -11    1    3    3    0    0 -0.51380497573E+03 -0.40722244373E+03  0.70924121021E+02  0.65943604899E+03  0.00000000000E+00 0. -1.
         22    1    1    2    0    0  0.88993359336E+03  0.80169970233E+03 -0.16570712573E+04  0.20446489589E+04  0.00000000000E+00 0.  1.
<mgrwt>
<rscale>  0 0.28926777E+04</rscale>
<asrwt>0</asrwt>
<pdfrwt beam="1">  1        2 0.36557213E+00 0.28926777E+04</pdfrwt>
<pdfrwt beam="2">  1       -2 0.13543793E+00 0.28926777E+04</pdfrwt>
<totfact> 0.13858534E+00</totfact>
</mgrwt>
</event>
<event>
 6    1  0.9512547E-007  0.3348733E+04  0.7818608E-02  0.8150605E-01
          2   -1    0    0  501    0  0.00000000000E+00  0.00000000000E+00  0.39110535030E+04  0.39110535030E+04  0.00000000000E+00 0. -1.
         -2   -1    0    0    0  501 -0.00000000000E+00 -0.00000000000E+00 -0.71681518305E+03  0.71681518305E+03  0.00000000000E+00 0.  1.
         23    2    1    2    0    0  0.12441659253E+03 -0.13979832393E+04  0.28569173236E+04  0.31843929917E+04  0.92441904571E+02 0.  0.
         11    1    3    3    0    0  0.74002084996E+02 -0.72748035121E+03  0.15905357756E+04  0.17505736270E+04  0.00000000000E+00 0. -1.
        -11    1    3    3    0    0  0.50414507535E+02 -0.67050288805E+03  0.12663815480E+04  0.14338193647E+04  0.00000000000E+00 0.  1.
         22    1    1    2    0    0 -0.12441659253E+03  0.13979832393E+04  0.33732099635E+03  0.14434756944E+04  0.00000000000E+00 0.  1.
<mgrwt>
<rscale>  0 0.33487326E+04</rscale>
<asrwt>0</asrwt>
<pdfrwt beam="1">  1        2 0.60170053E+00 0.33487326E+04</pdfrwt>
<pdfrwt beam="2">  1       -2 0.11027926E+00 0.33487326E+04</pdfrwt>
<totfact> 0.21842173E-01</totfact>
</mgrwt>
</event>
<event>
 6    1  0.9512547E-007  0.2288096E+04  0.7818608E-02  0.8482630E-01
          2   -1    0    0  501    0  0.00000000000E+00  0.00000000000E+00  0.57322648502E+03  0.57322648502E+03  0.00000000000E+00 0. -1.
         -2   -1    0    0    0  501 -0.00000000000E+00 -0.00000000000E+00 -0.22832957593E+04  0.22832957593E+04  0.00000000000E+00 0.  1.
         23    2    1    2    0    0 -0.25762665395E+03  0.37049979399E+03 -0.21663355012E+04  0.22147898546E+04  0.92967768572E+02 0.  0.
         13    1    3    3    0    0 -0.18058582927E+03  0.25346098531E+03 -0.16839356365E+04  0.17124523178E+04  0.00000000000E+00 0. -1.
        -13    1    3    3    0    0 -0.77040824686E+02  0.11703880868E+03 -0.48239986465E+03  0.50233753674E+03  0.00000000000E+00 0.  1.
         22    1    1    2    0    0  0.25762665395E+03 -0.37049979399E+03  0.45626622694E+03  0.64173238972E+03  0.00000000000E+00 0. -1.
<mgrwt>
<rscale>  0 0.22880958E+04</rscale>
<asrwt>0</asrwt>
<pdfrwt beam="1">  1        2 0.88188689E-01 0.22880958E+04</pdfrwt>
<pdfrwt beam="2">  1       -2 0.35127627E+00 0.22880958E+04</pdfrwt>
<totfact> 0.72706474E-01</totfact>
</mgrwt>
</event>
<event>
 6    1  0.9512547E-007  0.2576559E+04  0.7818608E-02  0.8376207E-01
         -1   -1    0    0    0  501 -0.00000000000E+00  0.00000000000E+00  0.11485649103E+04  0.11485649103E+04  0.00000000000E+00 0.  1.
          1   -1    0    0  501    0  0.00000000000E+00 -0.00000000000E+00 -0.14449891950E+04  0.14449891950E+04  0.00000000000E+00 0. -1.
         23    2    1    2    0    0 -0.10827746149E+03  0.43325858374E+03  0.10660516248E+04  0.11597557886E+04  0.95553196782E+02 0.  0.
         13    1    3    3    0    0 -0.10275355939E+03  0.39279329047E+03  0.87814902185E+03  0.96746605501E+03  0.00000000000E+00 0. -1.
        -13    1    3    3    0    0 -0.55239021015E+01  0.40465293266E+02  0.18790260295E+03  0.19228973360E+03  0.00000000000E+00 0.  1.
         22    1    1    2    0    0  0.10827746149E+03 -0.43325858374E+03 -0.13624759095E+04  0.14337983167E+04  0.00000000000E+00 0. -1.
<mgrwt>
<rscale>  0 0.25765589E+04</rscale>
<asrwt>0</asrwt>
<pdfrwt beam="1">  1        1 0.22230603E+00 0.25765589E+04</pdfrwt>
<pdfrwt beam="2">  1       -1 0.17670229E+00 0.25765589E+04</pdfrwt>
<totfact> 0.13862724E+00</totfact>
</mgrwt>
</event>
<event>
 6    1  0.9512547E-007  0.1819200E+04  0.7818608E-02  0.8696155E-01
          2   -1    0    0  501    0  0.00000000000E+00  0.00000000000E+00  0.48443821027E+03  0.48443821027E+03  0.00000000000E+00 0. -1.
         -2   -1    0    0    0  501 -0.00000000000E+00 -0.00000000000E+00 -0.17079011641E+04  0.17079011641E+04  0.00000000000E+00 0.  1.
         23    2    1    2    0    0 -0.67322789870E+03 -0.46836951010E+03 -0.10810326794E+04  0.13599379179E+04  0.90518976032E+02 0.  0.
         11    1    3    3    0    0 -0.99905612652E+02 -0.89017987693E+02 -0.13097986531E+03  0.18724598444E+03  0.00000000000E+00 0. -1.
        -11    1    3    3    0    0 -0.57332228605E+03 -0.37935152241E+03 -0.95005281413E+03  0.11726919335E+04  0.00000000000E+00 0.  1.
         22    1    1    2    0    0  0.67322789870E+03  0.46836951010E+03 -0.14243027435E+03  0.83240145641E+03  0.00000000000E+00 0. -1.
<mgrwt>
<rscale>  0 0.18192005E+04</rscale>
<asrwt>0</asrwt>
<pdfrwt beam="1">  1        2 0.74528956E-01 0.18192005E+04</pdfrwt>
<pdfrwt beam="2">  1       -2 0.26275402E+00 0.18192005E+04</pdfrwt>
<totfact> 0.32328108E+00</totfact>
</mgrwt>
</event>
<event>
 6    1  0.9512547E-007  0.1348862E+04  0.7818608E-02  0.8991690E-01
         -1   -1    0    0    0  501 -0.00000000000E+00  0.00000000000E+00  0.71868788392E+03  0.71868788392E+03  0.00000000000E+00 0.  1.
          1   -1    0    0  501    0  0.00000000000E+00 -0.00000000000E+00 -0.63289947335E+03  0.63289947335E+03  0.00000000000E+00 0. -1.
         23    2    1    2    0    0 -0.41401680754E+03 -0.50588690356E+03  0.20001627882E+03  0.68797641552E+03  0.77288811639E+02 0.  0.
         13    1    3    3    0    0 -0.16489981093E+03 -0.24059288894E+03  0.11976194896E+03  0.31530907102E+03  0.00000000000E+00 0. -1.
        -13    1    3    3    0    0 -0.24911699661E+03 -0.26529401463E+03  0.80254329863E+02  0.37266734450E+03  0.00000000000E+00 0.  1.
         22    1    1    2    0    0  0.41401680754E+03  0.50588690356E+03 -0.11422786825E+03  0.66361094174E+03  0.00000000000E+00 0. -1.
<mgrwt>
<rscale>  0 0.13488620E+04</rscale>
<asrwt>0</asrwt>
<pdfrwt beam="1">  1        1 0.97369150E-01 0.13488620E+04</pdfrwt>
<pdfrwt beam="2">  1       -1 0.11056737E+00 0.13488620E+04</pdfrwt>
<totfact> 0.23391929E+01</totfact>
</mgrwt>
</event>
<event>
 6    1  0.9512547E-007  0.3241730E+04  0.7818608E-02  0.8177882E-01
         -1   -1    0    0    0  501 -0.00000000000E+00  0.00000000000E+00  0.12924320289E+04  0.12924320289E+04  0.00000000000E+00 0.  1.
          1   -1    0    0  501    0  0.00000000000E+00 -0.00000000000E+00 -0.20327600038E+04  0.20327600038E+04  0.00000000000E+00 0. -1.
         23    2    1    2    0    0 -0.94460440800E+03  0.13161589969E+04 -0.39288563727E+03  0.16683069519E+04  0.65855669400E+02 0.  0.
         11    1    3    3    0    0 -0.38128796961E+03  0.50227298766E+03 -0.12485833511E+03  0.64284389531E+03  0.00000000000E+00 0.  1.
        -11    1    3    3    0    0 -0.56331643840E+03  0.81388600924E+03 -0.26802730215E+03  0.10254630566E+04  0.00000000000E+00 0. -1.
         22    1    1    2    0    0  0.94460440800E+03 -0.13161589969E+04 -0.34744233763E+03  0.16568850807E+04  0.00000000000E+00 0. -1.
<mgrwt>
<rscale>  0 0.32417305E+04</rscale>
<asrwt>0</asrwt>
<pdfrwt beam="1">  1        1 0.31273231E+00 0.32417305E+04</pdfrwt>
<pdfrwt beam="2">  1       -1 0.19883570E+00 0.32417305E+04</pdfrwt>
<totfact> 0.36189700E-01</totfact>
</mgrwt>
</event>
<event>
 6    1  0.9512547E-007  0.1482862E+04  0.7818608E-02  0.8895930E-01
         -1   -1    0    0    0  501 -0.00000000000E+00  0.00000000000E+00  0.90639584839E+03  0.90639584839E+03  0.00000000000E+00 0.  1.
          1   -1    0    0  501    0  0.00000000000E+00 -0.00000000000E+00 -0.60648968377E+03  0.60648968377E+03  0.00000000000E+00 0. -1.
         23    2    1    2    0    0  0.67624753933E+02 -0.53052778335E+03  0.67033771370E+03  0.86230704434E+03  0.90487303309E+02 0.  0.
         11    1    3    3    0    0  0.69434093939E+02 -0.37904440433E+03  0.53382198488E+03  0.65837805659E+03  0.00000000000E+00 0.  1.
        -11    1    3    3    0    0 -0.18093400067E+01 -0.15148337902E+03  0.13651572882E+03  0.20392898775E+03  0.00000000000E+00 0. -1.
         22    1    1    2    0    0 -0.67624753933E+02  0.53052778335E+03 -0.37043154909E+03  0.65057848781E+03  0.00000000000E+00 0. -1.
<mgrwt>
<rscale>  0 0.14828617E+04</rscale>
<asrwt>0</asrwt>
<pdfrwt beam="1">  1        1 0.93306105E-01 0.14828617E+04</pdfrwt>
<pdfrwt beam="2">  1       -1 0.13944552E+00 0.14828617E+04</pdfrwt>
<totfact> 0.13835985E+01</totfact>
</mgrwt>
</event>
<event>
 6    1  0.9512547E-007  0.2461823E+04  0.7818608E-02  0.8416714E-01
         -1   -1    0    0    0  501 -0.00000000000E+00  0.00000000000E+00  0.16158152863E+04  0.16158152863E+04  0.00000000000E+00 0.  1.
          1   -1    0    0  501    0  0.00000000000E+00 -0.00000000000E+00 -0.93769567359E+03  0.93769567359E+03  0.00000000000E+00 0. -1.
         23    2    1    2    0    0 -0.21614042683E+03  0.56029567784E+03 -0.77296354716E+03  0.98306826193E+03  0.91118777819E+02 0.  0.
         13    1    3    3    0    0 -0.11687469071E+03  0.32574138403E+03 -0.51566708810E+03  0.62103114926E+03  0.00000000000E+00 0. -1.
        -13    1    3    3    0    0 -0.99265736121E+02  0.23455429380E+03 -0.25729645906E+03  0.36203711267E+03  0.00000000000E+00 0.  1.
         22    1    1    2    0    0  0.21614042683E+03 -0.56029567784E+03  0.14510831598E+04  0.15704426979E+04  0.00000000000E+00 0.  1.
<mgrwt>
<rscale>  0 0.24618229E+04</rscale>
<asrwt>0</asrwt>
<pdfrwt beam="1">  1        1 0.14426087E+00 0.24618229E+04</pdfrwt>
<pdfrwt beam="2">  1       -1 0.24858697E+00 0.24618229E+04</pdfrwt>
<totfact> 0.10763303E+00</totfact>
</mgrwt>
</event>
<event>
 6    1  0.9512547E-007  0.3405049E+04  0.7818608E-02  0.8136668E-01
         -1   -1    0    0    0  501 -0.00000000000E+00  0.00000000000E+00  0.96565197903E+03  0.96565197903E+03  0.00000000000E+00 0.  1.
          1   -1    0    0  501    0  0.00000000000E+00 -0.00000000000E+00 -0.30016912307E+04  0.30016912307E+04  0.00000000000E+00 0. -1.
         23    2    1    2    0    0  0.49508722187E+03  0.57030746701E+02 -0.29140545851E+04  0.29577518125E+04  0.90652060717E+02 0.  0.
         11    1    3    3    0    0  0.19388054662E+03  0.51741652208E+02 -0.13656419192E+04  0.13803060228E+04  0.00000000000E+00 0. -1.
        -11    1    3    3    0    0  0.30120667525E+03  0.52890944929E+01 -0.15484126659E+04  0.15774457897E+04  0.00000000000E+00 0.  1.
         22    1    1    2    0    0 -0.49508722187E+03 -0.57030746701E+02  0.87801533350E+03  0.10095913971E+04  0.00000000000E+00 0.  1.
<mgrwt>
<rscale>  0 0.34050487E+04</rscale>
<asrwt>0</asrwt>
<pdfrwt beam="1">  1        1 0.46179865E+00 0.34050487E+04</pdfrwt>
<pdfrwt beam="2">  1       -1 0.14856184E+00 0.34050487E+04</pdfrwt>
<totfact> 0.17537249E-01</totfact>
</mgrwt>
</event>
<event>
 6    1  0.9512547E-007  0.3773592E+04  0.7818608E-02  0.8051846E-01
         -2   -1    0    0    0  501 -0.00000000000E+00  0.00000000000E+00  0.14518145165E+04  0.14518145165E+04  0.00000000000E+00 0.  1.
          2   -1    0    0  501    0  0.00000000000E+00 -0.00000000000E+00 -0.24521035965E+04  0.24521035965E+04  0.00000000000E+00 0. -1.
         23    2    1    2    0    0 -0.75867068910E+03  0.17003460733E+04 -0.19208561339E+03  0.18741519129E+04  0.93757807712E+02 0.  0.
         13    1    3    3    0    0 -0.64219531016E+03  0.14546794299E+04 -0.13115119222E+03  0.15955274035E+04  0.00000000000E+00 0.  1.
        -13    1    3    3    0    0 -0.11647537894E+03  0.24566664339E+03 -0.60934421170E+02  0.27862450943E+03  0.00000000000E+00 0. -1.
         22    1    1    2    0    0  0.75867068910E+03 -0.17003460733E+04 -0.80820346658E+03  0.20297662000E+04  0.00000000000E+00 0.  1.
<mgrwt>
<rscale>  0 0.37735922E+04</rscale>
<asrwt>0</asrwt>
<pdfrwt beam="1">  1        2 0.37724670E+00 0.37735922E+04</pdfrwt>
<pdfrwt beam="2">  1       -2 0.22335608E+00 0.37735922E+04</pdfrwt>
<totfact> 0.28062122E-01</totfact>
</mgrwt>
</event>
<event>
 6    1  0.9512547E-007  0.1107573E+04  0.7818608E-02  0.9197842E-01
         -1   -1    0    0    0  501 -0.00000000000E+00  0.00000000000E+00  0.32463367377E+03  0.32463367377E+03  0.00000000000E+00 0.  1.
          1   -1    0    0  501    0  0.00000000000E+00 -0.00000000000E+00 -0.94469460095E+03  0.94469460095E+03  0.00000000000E+00 0. -1.
         23    2    1    2    0    0 -0.21284781139E+02  0.50045646743E+03 -0.57247626874E+03  0.76616426824E+03  0.91481637225E+02 0.  0.
         11    1    3    3    0    0  0.30445735873E+02  0.18183834632E+03 -0.24165763816E+03  0.30395812394E+03  0.00000000000E+00 0. -1.
        -11    1    3    3    0    0 -0.51730517012E+02  0.31861812111E+03 -0.33081863058E+03  0.46220614430E+03  0.00000000000E+00 0.  1.
         22    1    1    2    0    0  0.21284781139E+02 -0.50045646743E+03 -0.47584658436E+02  0.50316400648E+03  0.00000000000E+00 0.  1.
<mgrwt>
<rscale>  0 0.11075733E+04</rscale>
<asrwt>0</asrwt>
<pdfrwt beam="1">  1        1 0.14533763E+00 0.11075733E+04</pdfrwt>
<pdfrwt beam="2">  1       -1 0.49943642E-01 0.11075733E+04</pdfrwt>
<totfact> 0.67035554E+01</totfact>
</mgrwt>
</event>
<event>
 6    1  0.9512547E-007  0.6028232E+04  0.7818608E-02  0.7686911E-01
          1   -1    0    0  501    0  0.00000000000E+00  0.00000000000E+00  0.33410943592E+04  0.33410943592E+04  0.00000000000E+00 0. -1.
         -1   -1    0    0    0  501 -0.00000000000E+00 -0.00000000000E+00 -0.27191380097E+04  0.27191380097E+04  0.00000000000E+00 0.  1.
         23    2    1    2    0    0 -0.75018366477E+03 -0.12785339503E+04 -0.23264890191E+04  0.27601180247E+04  0.90971211683E+02 0.  0.
         11    1    3    3    0    0 -0.84138588576E+02 -0.20542239247E+03 -0.36277567925E+03  0.42530442611E+03  0.00000000000E+00 0. -1.
        -11    1    3    3    0    0 -0.66604507619E+03 -0.10731115578E+04 -0.19637133399E+04  0.23348135986E+04  0.00000000000E+00 0.  1.
         22    1    1    2    0    0  0.75018366477E+03  0.12785339503E+04  0.29484453686E+04  0.33001143442E+04  0.00000000000E+00 0. -1.
<mgrwt>
<rscale>  0 0.60282325E+04</rscale>
<asrwt>0</asrwt>
<pdfrwt beam="1">  1        1 0.51401452E+00 0.60282325E+04</pdfrwt>
<pdfrwt beam="2">  1       -1 0.41832892E+00 0.60282325E+04</pdfrwt>
<totfact> 0.11868379E-03</totfact>
</mgrwt>
</event>
<event>
 6    1  0.9512547E-007  0.4475212E+04  0.7818608E-02  0.7914991E-01
         -1   -1    0    0    0  501 -0.00000000000E+00  0.00000000000E+00  0.33898295956E+04  0.33898295956E+04  0.00000000000E+00 0.  1.
          1   -1    0    0  501    0  0.00000000000E+00 -0.00000000000E+00 -0.14770300904E+04  0.14770300904E+04  0.00000000000E+00 0. -1.
         23    2    1    2    0    0  0.18738308113E+04 -0.12147545713E+04  0.82227277308E+03  0.23816797868E+04  0.96930468435E+02 0.  0.
         13    1    3    3    0    0  0.11373157579E+04 -0.77488224900E+03  0.46909410814E+03  0.14539528586E+04  0.00000000000E+00 0. -1.
        -13    1    3    3    0    0  0.73651505347E+03 -0.43987232225E+03  0.35317866493E+03  0.92772692816E+03  0.00000000000E+00 0.  1.
         22    1    1    2    0    0 -0.18738308113E+04  0.12147545713E+04  0.10905267321E+04  0.24851798992E+04  0.00000000000E+00 0. -1.
<mgrwt>
<rscale>  0 0.44752119E+04</rscale>
<asrwt>0</asrwt>
<pdfrwt beam="1">  1        1 0.22723540E+00 0.44752119E+04</pdfrwt>
<pdfrwt beam="2">  1       -1 0.52151224E+00 0.44752119E+04</pdfrwt>
<totfact> 0.56051260E-03</totfact>
</mgrwt>
</event>
<event>
 6    1  0.9512547E-007  0.1626990E+04  0.7818608E-02  0.8804137E-01
         -2   -1    0    0    0  501 -0.00000000000E+00  0.00000000000E+00  0.44810233295E+03  0.44810233295E+03  0.00000000000E+00 0.  1.
          2   -1    0    0  501    0  0.00000000000E+00 -0.00000000000E+00 -0.14768364324E+04  0.14768364324E+04  0.00000000000E+00 0. -1.
         23    2    1    2    0    0  0.34620776656E+02  0.81060363275E+03 -0.49803617037E+03  0.95544552682E+03  0.80989382723E+02 0.  0.
         13    1    3    3    0    0  0.34752315776E+02  0.12641880574E+03 -0.75160709318E+02  0.15112435317E+03  0.00000000000E+00 0.  1.
        -13    1    3    3    0    0 -0.13153911955E+00  0.68418482701E+03 -0.42287546105E+03  0.80432117365E+03  0.00000000000E+00 0. -1.
         22    1    1    2    0    0 -0.34620776656E+02 -0.81060363275E+03 -0.53069792904E+03  0.96949323849E+03  0.00000000000E+00 0.  1.
<mgrwt>
<rscale>  0 0.16269897E+04</rscale>
<asrwt>0</asrwt>
<pdfrwt beam="1">  1        2 0.22720561E+00 0.16269897E+04</pdfrwt>
<pdfrwt beam="2">  1       -2 0.68938820E-01 0.16269897E+04</pdfrwt>
<totfact> 0.24060733E+01</totfact>
</mgrwt>
</event>
<event>
 6    1  0.9512547E-007  0.3147110E+04  0.7818608E-02  0.8202927E-01
         -2   -1    0    0    0  501 -0.00000000000E+00  0.00000000000E+00  0.17529926632E+04  0.17529926632E+04  0.00000000000E+00 0.  1.
          2   -1    0    0  501    0  0.00000000000E+00 -0.00000000000E+00 -0.14124846399E+04  0.14124846399E+04  0.00000000000E+00 0. -1.
         23    2    1    2    0    0  0.54649387795E+03 -0.83442824716E+03 -0.10506516047E+04  0.14536796606E+04  0.11995708815E+03 0.  0.
         13    1    3    3    0    0  0.18357721099E+03 -0.23314436856E+03 -0.24441066073E+03  0.38443915002E+03  0.00000000000E+00 0.  1.
        -13    1    3    3    0    0  0.36291666696E+03 -0.60128387860E+03 -0.80624094395E+03  0.10692405106E+04  0.00000000000E+00 0. -1.
         22    1    1    2    0    0 -0.54649387795E+03  0.83442824716E+03  0.13911596280E+04  0.17117976425E+04  0.00000000000E+00 0.  1.
<mgrwt>
<rscale>  0 0.31471099E+04</rscale>
<asrwt>0</asrwt>
<pdfrwt beam="1">  1        2 0.21730533E+00 0.31471099E+04</pdfrwt>
<pdfrwt beam="2">  1       -2 0.26969118E+00 0.31471099E+04</pdfrwt>
<totfact> 0.58600116E-01</totfact>
</mgrwt>
</event>
<event>
 6    1  0.9512547E-007  0.5865358E+03  0.7818608E-02  0.9933741E-01
         -2   -1    0    0    0  501 -0.00000000000E+00  0.00000000000E+00  0.29834289337E+03  0.29834289337E+03  0.00000000000E+00 0.  1.
          2   -1    0    0  501    0  0.00000000000E+00 -0.00000000000E+00 -0.28827921964E+03  0.28827921964E+03  0.00000000000E+00 0. -1.
         23    2    1    2    0    0  0.52488023436E+02 -0.42278590999E+02  0.28407604814E+03  0.30444264319E+03  0.86276590111E+02 0.  0.
         11    1    3    3    0    0 -0.94499816023E+01 -0.31746424978E+02  0.17881914364E+03  0.18186100127E+03  0.00000000000E+00 0.  1.
        -11    1    3    3    0    0  0.61938005039E+02 -0.10532166021E+02  0.10525690450E+03  0.12258164192E+03  0.00000000000E+00 0. -1.
         22    1    1    2    0    0 -0.52488023436E+02  0.42278590999E+02 -0.27401237441E+03  0.28217946983E+03  0.00000000000E+00 0. -1.
<mgrwt>
<rscale>  0 0.58653578E+03</rscale>
<asrwt>0</asrwt>
<pdfrwt beam="1">  1        2 0.44350649E-01 0.58653578E+03</pdfrwt>
<pdfrwt beam="2">  1       -2 0.45898907E-01 0.58653578E+03</pdfrwt>
<totfact> 0.52082309E+02</totfact>
</mgrwt>
</event>
<event>
 6    1  0.9512547E-007  0.1676071E+04  0.7818608E-02  0.8775131E-01
         -1   -1    0    0    0  501 -0.00000000000E+00  0.00000000000E+00  0.31417320252E+03  0.31417320252E+03  0.00000000000E+00 0.  1.
          1   -1    0    0  501    0  0.00000000000E+00 -0.00000000000E+00 -0.22354012326E+04  0.22354012326E+04  0.00000000000E+00 0. -1.
         23    2    1    2    0    0 -0.70103565773E+03 -0.33516072684E+03 -0.14306822782E+04  0.16306517828E+04  0.91595574815E+02 0.  0.
         13    1    3    3    0    0 -0.20882244694E+03 -0.12187838437E+03 -0.52547726156E+03  0.57843539599E+03  0.00000000000E+00 0. -1.
        -13    1    3    3    0    0 -0.49221321079E+03 -0.21328234247E+03 -0.90520501667E+03  0.10522163868E+04  0.00000000000E+00 0.  1.
         22    1    1    2    0    0  0.70103565773E+03  0.33516072684E+03 -0.49054575183E+03  0.91892265228E+03  0.00000000000E+00 0.  1.
<mgrwt>
<rscale>  0 0.16760706E+04</rscale>
<asrwt>0</asrwt>
<pdfrwt beam="1">  1        1 0.34390787E+00 0.16760706E+04</pdfrwt>
<pdfrwt beam="2">  1       -1 0.48334341E-01 0.16760706E+04</pdfrwt>
<totfact> 0.84178419E+00</totfact>
</mgrwt>
</event>
<event>
 6    1  0.9512547E-007  0.2025905E+04  0.7818608E-02  0.8594604E-01
          1   -1    0    0  501    0  0.00000000000E+00  0.00000000000E+00  0.99232408500E+03  0.99232408500E+03  0.00000000000E+00 0. -1.
         -1   -1    0    0    0  501 -0.00000000000E+00 -0.00000000000E+00 -0.10340096623E+04  0.10340096623E+04  0.00000000000E+00 0.  1.
         23    2    1    2    0    0 -0.41842479267E+03 -0.39105709648E+03 -0.85403137058E+03  0.10323968038E+04  0.92025098539E+02 0.  0.
         11    1    3    3    0    0 -0.25101603608E+03 -0.26676180156E+03 -0.60888129315E+03  0.71056832063E+03  0.00000000000E+00 0. -1.
        -11    1    3    3    0    0 -0.16740875658E+03 -0.12429529492E+03 -0.24515007744E+03  0.32182848318E+03  0.00000000000E+00 0.  1.
         22    1    1    2    0    0  0.41842479267E+03  0.39105709648E+03  0.81234579327E+03  0.99393694350E+03  0.00000000000E+00 0. -1.
<mgrwt>
<rscale>  0 0.20259049E+04</rscale>
<asrwt>0</asrwt>
<pdfrwt beam="1">  1        1 0.15266524E+00 0.20259049E+04</pdfrwt>
<pdfrwt beam="2">  1       -1 0.15907841E+00 0.20259049E+04</pdfrwt>
<totfact> 0.42176108E+00</totfact>
</mgrwt>
</event>
<event>
 6    1  0.9512547E-007  0.2259551E+04  0.7818608E-02  0.8494043E-01
         -1   -1    0    0    0  501 -0.00000000000E+00  0.00000000000E+00  0.10492022117E+04  0.10492022117E+04  0.00000000000E+00 0.  1.
          1   -1    0    0  501    0  0.00000000000E+00 -0.00000000000E+00 -0.12165360490E+04  0.12165360490E+04  0.00000000000E+00 0. -1.
         23    2    1    2    0    0  0.32237385983E+03 -0.71835134997E+03 -0.89334407884E+03  0.11947366554E+04  0.96842476005E+02 0.  0.
         11    1    3    3    0    0  0.20170014579E+03 -0.46434838099E+03 -0.64177781784E+03  0.81742347361E+03  0.00000000000E+00 0.  1.
        -11    1    3    3    0    0  0.12067371404E+03 -0.25400296899E+03 -0.25156626100E+03  0.37731318184E+03  0.00000000000E+00 0. -1.
         22    1    1    2    0    0 -0.32237385983E+03  0.71835134997E+03  0.72601024161E+03  0.10710016052E+04  0.00000000000E+00 0.  1.
<mgrwt>
<rscale>  0 0.22595507E+04</rscale>
<asrwt>0</asrwt>
<pdfrwt beam="1">  1        1 0.18715939E+00 0.22595507E+04</pdfrwt>
<pdfrwt beam="2">  1       -1 0.16141572E+00 0.22595507E+04</pdfrwt>
<totfact> 0.26878371E+00</totfact>
</mgrwt>
</event>
<event>
 6    1  0.9512547E-007  0.2808714E+04  0.7818608E-02  0.8300568E-01
          1   -1    0    0  501    0  0.00000000000E+00  0.00000000000E+00  0.15422344556E+04  0.15422344556E+04  0.00000000000E+00 0. -1.
         -1   -1    0    0    0  501 -0.00000000000E+00 -0.00000000000E+00 -0.12788060033E+04  0.12788060033E+04  0.00000000000E+00 0.  1.
         23    2    1    2    0    0 -0.72315579370E+03 -0.11117896537E+04  0.59113598452E+03  0.14548696193E+04  0.90406421576E+02 0.  0.
         13    1    3    3    0    0 -0.45435898112E+03 -0.61674609001E+03  0.34347709067E+03  0.83952030058E+03  0.00000000000E+00 0.  1.
        -13    1    3    3    0    0 -0.26879681258E+03 -0.49504356369E+03  0.24765889385E+03  0.61534931877E+03  0.00000000000E+00 0. -1.
         22    1    1    2    0    0  0.72315579370E+03  0.11117896537E+04 -0.32770753225E+03  0.13661708395E+04  0.00000000000E+00 0. -1.
<mgrwt>
<rscale>  0 0.28087141E+04</rscale>
<asrwt>0</asrwt>
<pdfrwt beam="1">  1        1 0.23726684E+00 0.28087141E+04</pdfrwt>
<pdfrwt beam="2">  1       -1 0.19673939E+00 0.28087141E+04</pdfrwt>
<totfact> 0.83879668E-01</totfact>
</mgrwt>
</event>
<event>
 6    1  0.9512547E-007  0.1549581E+04  0.7818608E-02  0.8852135E-01
         -2   -1    0    0    0  501 -0.00000000000E+00  0.00000000000E+00  0.40545887848E+03  0.40545887848E+03  0.00000000000E+00 0.  1.
          2   -1    0    0  501    0  0.00000000000E+00 -0.00000000000E+00 -0.14805458764E+04  0.14805458764E+04  0.00000000000E+00 0. -1.
         23    2    1    2    0    0 -0.16496178656E+03  0.47179078923E+03 -0.12558144682E+04  0.13545338165E+04  0.88842229320E+02 0.  0.
         13    1    3    3    0    0 -0.69849213644E+02  0.16690714239E+03 -0.34884175154E+03  0.39297261284E+03  0.00000000000E+00 0.  1.
        -13    1    3    3    0    0 -0.95112572911E+02  0.30488364684E+03 -0.90697271666E+03  0.96156120367E+03  0.00000000000E+00 0. -1.
         22    1    1    2    0    0  0.16496178656E+03 -0.47179078923E+03  0.18072747027E+03  0.53147093838E+03  0.00000000000E+00 0.  1.
<mgrwt>
<rscale>  0 0.15495812E+04</rscale>
<asrwt>0</asrwt>
<pdfrwt beam="1">  1        2 0.22777629E+00 0.15495812E+04</pdfrwt>
<pdfrwt beam="2">  1       -2 0.62378289E-01 0.15495812E+04</pdfrwt>
<totfact> 0.29881783E+01</totfact>
</mgrwt>
</event>
<event>
 6    1  0.9512547E-007  0.8497750E+03  0.7818608E-02  0.9490639E-01
         -2   -1    0    0    0  501 -0.00000000000E+00  0.00000000000E+00  0.49340192383E+03  0.49340192383E+03  0.00000000000E+00 0.  1.
          2   -1    0    0  501    0  0.00000000000E+00 -0.00000000000E+00 -0.36588705704E+03  0.36588705704E+03  0.00000000000E+00 0. -1.
         23    2    1    2    0    0  0.35740124739E+03 -0.11047198194E+03 -0.12928225658E+03  0.40554403819E+03  0.88387525212E+02 0.  0.
         11    1    3    3    0    0  0.26235867552E+03 -0.76801185361E+02 -0.51450853986E+02  0.27816845089E+03  0.00000000000E+00 0. -1.
        -11    1    3    3    0    0  0.95042571873E+02 -0.33670796578E+02 -0.77831402598E+02  0.12737558730E+03  0.00000000000E+00 0.  1.
         22    1    1    2    0    0 -0.35740124739E+03  0.11047198194E+03  0.25679712338E+03  0.45374494268E+03  0.00000000000E+00 0.  1.
<mgrwt>
<rscale>  0 0.84977498E+03</rscale>
<asrwt>0</asrwt>
<pdfrwt beam="1">  1        2 0.56290317E-01 0.84977498E+03</pdfrwt>
<pdfrwt beam="2">  1       -2 0.75907988E-01 0.84977498E+03</pdfrwt>
<totfact> 0.13750625E+02</totfact>
</mgrwt>
</event>
<event>
 6    1  0.9512547E-007  0.2873522E+04  0.7818608E-02  0.8280799E-01
         -2   -1    0    0    0  501 -0.00000000000E+00  0.00000000000E+00  0.20925085632E+04  0.20925085632E+04  0.00000000000E+00 0.  1.
          2   -1    0    0  501    0  0.00000000000E+00 -0.00000000000E+00 -0.98651072740E+03  0.98651072740E+03  0.00000000000E+00 0. -1.
         23    2    1    2    0    0  0.50623697460E+02 -0.63961178267E+03 -0.82211579865E+03  0.10469542871E+04  0.92589964586E+02 0.  0.
         13    1    3    3    0    0  0.48608099923E+02 -0.60653255933E+03 -0.73770226666E+03  0.95626833428E+03  0.00000000000E+00 0.  1.
        -13    1    3    3    0    0  0.20155975367E+01 -0.33079223339E+02 -0.84413531992E+02  0.90685952790E+02  0.00000000000E+00 0. -1.
         22    1    1    2    0    0 -0.50623697460E+02  0.63961178267E+03  0.19281136345E+04  0.20320650036E+04  0.00000000000E+00 0.  1.
<mgrwt>
<rscale>  0 0.28735220E+04</rscale>
<asrwt>0</asrwt>
<pdfrwt beam="1">  1        2 0.15177088E+00 0.28735220E+04</pdfrwt>
<pdfrwt beam="2">  1       -2 0.32192439E+00 0.28735220E+04</pdfrwt>
<totfact> 0.51780667E-01</totfact>
</mgrwt>
</event>
<event>
 6    1  0.9512547E-007  0.1332969E+04  0.7818608E-02  0.9003822E-01
         -1   -1    0    0    0  501 -0.00000000000E+00  0.00000000000E+00  0.53631638679E+03  0.53631638679E+03  0.00000000000E+00 0.  1.
          1   -1    0    0  501    0  0.00000000000E+00 -0.00000000000E+00 -0.82824506651E+03  0.82824506651E+03  0.00000000000E+00 0. -1.
         23    2    1    2    0    0 -0.59853293968E+03 -0.20302014865E+03 -0.35294553860E+03  0.72959537726E+03  0.90994508954E+02 0.  0.
         13    1    3    3    0    0 -0.20366638964E+03 -0.51293500302E+02 -0.16317599213E+03  0.26596508389E+03  0.00000000000E+00 0.  1.
        -13    1    3    3    0    0 -0.39486655005E+03 -0.15172664835E+03 -0.18976954647E+03  0.46363029337E+03  0.00000000000E+00 0. -1.
         22    1    1    2    0    0  0.59853293968E+03  0.20302014865E+03  0.61016858887E+02  0.63496607603E+03  0.00000000000E+00 0.  1.
<mgrwt>
<rscale>  0 0.13329687E+04</rscale>
<asrwt>0</asrwt>
<pdfrwt beam="1">  1        1 0.12742232E+00 0.13329687E+04</pdfrwt>
<pdfrwt beam="2">  1       -1 0.82510213E-01 0.13329687E+04</pdfrwt>
<totfact> 0.29917930E+01</totfact>
</mgrwt>
</event>
<event>
 6    1  0.9512547E-007  0.1286219E+04  0.7818608E-02  0.9040566E-01
         -2   -1    0    0    0  501 -0.00000000000E+00  0.00000000000E+00  0.33438008113E+03  0.33438008113E+03  0.00000000000E+00 0.  1.
          2   -1    0    0  501    0  0.00000000000E+00 -0.00000000000E+00 -0.12368854617E+04  0.12368854617E+04  0.00000000000E+00 0. -1.
         23    2    1    2    0    0 -0.36887003999E+03  0.92239440428E+02 -0.10821052686E+04  0.11507547338E+04  0.93335010377E+02 0.  0.
         13    1    3    3    0    0 -0.16031272298E+03  0.19215770718E+02 -0.33892872560E+03  0.37542255664E+03  0.00000000000E+00 0. -1.
        -13    1    3    3    0    0 -0.20855731701E+03  0.73023669710E+02 -0.74317654301E+03  0.77533217714E+03  0.00000000000E+00 0.  1.
         22    1    1    2    0    0  0.36887003999E+03 -0.92239440428E+02  0.17959988802E+03  0.42051080908E+03  0.00000000000E+00 0.  1.
<mgrwt>
<rscale>  0 0.12862190E+04</rscale>
<asrwt>0</asrwt>
<pdfrwt beam="1">  1        2 0.19029007E+00 0.12862190E+04</pdfrwt>
<pdfrwt beam="2">  1       -2 0.51443090E-01 0.12862190E+04</pdfrwt>
<totfact> 0.63053678E+01</totfact>
</mgrwt>
</event>
<event>
 6    1  0.9512547E-007  0.1341290E+04  0.7818608E-02  0.8997448E-01
         -2   -1    0    0    0  501 -0.00000000000E+00  0.00000000000E+00  0.38699443312E+03  0.38699443312E+03  0.00000000000E+00 0.  1.
          2   -1    0    0  501    0  0.00000000000E+00 -0.00000000000E+00 -0.11621995970E+04  0.11621995970E+04  0.00000000000E+00 0. -1.
         23    2    1    2    0    0  0.33591327731E+03 -0.13733062908E+03  0.25731761442E+03  0.45475320519E+03  0.94290462829E+02 0.  0.
         13    1    3    3    0    0  0.23563547751E+03 -0.12866310144E+03  0.22105161551E+03  0.34776729095E+03  0.00000000000E+00 0.  1.
        -13    1    3    3    0    0  0.10027779981E+03 -0.86675276320E+01  0.36265998911E+02  0.10698591424E+03  0.00000000000E+00 0. -1.
         22    1    1    2    0    0 -0.33591327731E+03  0.13733062908E+03 -0.10325227783E+04  0.10944408249E+04  0.00000000000E+00 0. -1.
<mgrwt>
<rscale>  0 0.13412901E+04</rscale>
<asrwt>0</asrwt>
<pdfrwt beam="1">  1        2 0.17879994E+00 0.13412901E+04</pdfrwt>
<pdfrwt beam="2">  1       -2 0.59537606E-01 0.13412901E+04</pdfrwt>
<totfact> 0.51357967E+01</totfact>
</mgrwt>
</event>
<event>
 6    1  0.9512547E-007  0.2344624E+04  0.7818608E-02  0.8460531E-01
          2   -1    0    0  501    0  0.00000000000E+00  0.00000000000E+00  0.28981260744E+04  0.28981260744E+04  0.00000000000E+00 0. -1.
         -2   -1    0    0    0  501 -0.00000000000E+00 -0.00000000000E+00 -0.47420821864E+03  0.47420821864E+03  0.00000000000E+00 0.  1.
         23    2    1    2    0    0  0.74558205067E+03 -0.79699235217E+03  0.60478352709E+03  0.12509340221E+04  0.89349926564E+02 0.  0.
         11    1    3    3    0    0  0.54950640681E+03 -0.53016998705E+03  0.43596516517E+03  0.87926283416E+03  0.00000000000E+00 0.  1.
        -11    1    3    3    0    0  0.19607564386E+03 -0.26682236512E+03  0.16881836192E+03  0.37167118797E+03  0.00000000000E+00 0. -1.
         22    1    1    2    0    0 -0.74558205067E+03  0.79699235217E+03  0.18191343286E+04  0.21214002709E+04  0.00000000000E+00 0. -1.
<mgrwt>
<rscale>  0 0.23446238E+04</rscale>
<asrwt>0</asrwt>
<pdfrwt beam="1">  1        2 0.44586554E+00 0.23446238E+04</pdfrwt>
<pdfrwt beam="2">  1       -2 0.72955112E-01 0.23446238E+04</pdfrwt>
<totfact> 0.30902511E+00</totfact>
</mgrwt>
</event>
<event>
 6    1  0.9512547E-007  0.2800393E+04  0.7818608E-02  0.8303146E-01
         -1   -1    0    0    0  501 -0.00000000000E+00  0.00000000000E+00  0.23391577449E+04  0.23391577449E+04  0.00000000000E+00 0.  1.
          1   -1    0    0  501    0  0.00000000000E+00 -0.00000000000E+00 -0.83814354309E+03  0.83814354309E+03  0.00000000000E+00 0. -1.
         23    2    1    2    0    0  0.77605106639E+03 -0.11263568464E+04  0.41974037476E+03  0.14337164486E+04  0.91792535506E+02 0.  0.
         11    1    3    3    0    0  0.61868103832E+03 -0.95784827566E+03  0.35379629563E+03  0.11939059281E+04  0.00000000000E+00 0.  1.
        -11    1    3    3    0    0  0.15737002807E+03 -0.16850857077E+03  0.65944079139E+02  0.23981052048E+03  0.00000000000E+00 0. -1.
         22    1    1    2    0    0 -0.77605106639E+03  0.11263568464E+04  0.10812738271E+04  0.17435848394E+04  0.00000000000E+00 0.  1.
<mgrwt>
<rscale>  0 0.28003928E+04</rscale>
<asrwt>0</asrwt>
<pdfrwt beam="1">  1        1 0.12894516E+00 0.28003928E+04</pdfrwt>
<pdfrwt beam="2">  1       -1 0.35987042E+00 0.28003928E+04</pdfrwt>
<totfact> 0.23697858E-01</totfact>
</mgrwt>
</event>
<event>
 6    1  0.9512547E-007  0.2839284E+04  0.7818608E-02  0.8291175E-01
         -2   -1    0    0    0  501 -0.00000000000E+00  0.00000000000E+00  0.76675638469E+03  0.76675638469E+03  0.00000000000E+00 0.  1.
          2   -1    0    0  501    0  0.00000000000E+00 -0.00000000000E+00 -0.26284535500E+04  0.26284535500E+04  0.00000000000E+00 0. -1.
         23    2    1    2    0    0  0.28627623977E+03 -0.73649206832E+03  0.47636234517E+03  0.92723567902E+03  0.92034061073E+02 0.  0.
         13    1    3    3    0    0  0.94200543838E+02 -0.29029101909E+03  0.23256857728E+03  0.38370660845E+03  0.00000000000E+00 0.  1.
        -13    1    3    3    0    0  0.19207569593E+03 -0.44620104922E+03  0.24379376788E+03  0.54352907057E+03  0.00000000000E+00 0. -1.
         22    1    1    2    0    0 -0.28627623977E+03  0.73649206832E+03 -0.23380595105E+04  0.24679742557E+04  0.00000000000E+00 0. -1.
<mgrwt>
<rscale>  0 0.28392841E+04</rscale>
<asrwt>0</asrwt>
<pdfrwt beam="1">  1        2 0.40437746E+00 0.28392841E+04</pdfrwt>
<pdfrwt beam="2">  1       -2 0.11796252E+00 0.28392841E+04</pdfrwt>
<totfact> 0.14066338E+00</totfact>
</mgrwt>
</event>
<event>
 6    1  0.9512547E-007  0.2586544E+04  0.7818608E-02  0.8372786E-01
          2   -1    0    0  501    0  0.00000000000E+00  0.00000000000E+00  0.23197656825E+04  0.23197656825E+04  0.00000000000E+00 0. -1.
         -2   -1    0    0    0  501 -0.00000000000E+00 -0.00000000000E+00 -0.72100036128E+03  0.72100036128E+03  0.00000000000E+00 0.  1.
         23    2    1    2    0    0  0.11447457436E+04 -0.59509603017E+03  0.72311347253E+03  0.14814879214E+04  0.85622803767E+02 0.  0.
         11    1    3    3    0    0  0.17502534072E+03 -0.72199082158E+02  0.13583663968E+03  0.23301967736E+03  0.00000000000E+00 0. -1.
        -11    1    3    3    0    0  0.96972040291E+03 -0.52289694801E+03  0.58727683285E+03  0.12484682441E+04  0.00000000000E+00 0.  1.
         22    1    1    2    0    0 -0.11447457436E+04  0.59509603017E+03  0.87565184866E+03  0.15592781223E+04  0.00000000000E+00 0. -1.
<mgrwt>
<rscale>  0 0.25865436E+04</rscale>
<asrwt>0</asrwt>
<pdfrwt beam="1">  1        2 0.35688703E+00 0.25865436E+04</pdfrwt>
<pdfrwt beam="2">  1       -2 0.11092313E+00 0.25865436E+04</pdfrwt>
<totfact> 0.25183941E+00</totfact>
</mgrwt>
</event>
<event>
 6    1  0.9512547E-007  0.1466539E+04  0.7818608E-02  0.8907014E-01
          1   -1    0    0  501    0  0.00000000000E+00  0.00000000000E+00  0.69201543509E+03  0.69201543509E+03  0.00000000000E+00 0. -1.
         -1   -1    0    0    0  501 -0.00000000000E+00 -0.00000000000E+00 -0.77698331176E+03  0.77698331176E+03  0.00000000000E+00 0.  1.
         23    2    1    2    0    0 -0.68231903206E+03 -0.15401438395E+03 -0.25326084503E+03  0.74955297740E+03  0.91700154517E+02 0.  0.
         13    1    3    3    0    0 -0.10229735140E+03 -0.57199849557E+02 -0.49131322652E+02  0.12708445128E+03  0.00000000000E+00 0. -1.
        -13    1    3    3    0    0 -0.58002168066E+03 -0.96814534392E+02 -0.20412952238E+03  0.62246852612E+03  0.00000000000E+00 0.  1.
         22    1    1    2    0    0  0.68231903206E+03  0.15401438395E+03  0.16829296836E+03  0.71944576944E+03  0.00000000000E+00 0. -1.
<mgrwt>
<rscale>  0 0.14665394E+04</rscale>
<asrwt>0</asrwt>
<pdfrwt beam="1">  1        1 0.10646391E+00 0.14665394E+04</pdfrwt>
<pdfrwt beam="2">  1       -1 0.11953589E+00 0.14665394E+04</pdfrwt>
<totfact> 0.16811934E+01</totfact>
</mgrwt>
</event>
<event>
 6    1  0.9512547E-007  0.1041429E+04  0.7818608E-02  0.9264238E-01
          2   -1    0    0  501    0  0.00000000000E+00  0.00000000000E+00  0.77933654089E+03  0.77933654089E+03  0.00000000000E+00 0. -1.
         -2   -1    0    0    0  501 -0.00000000000E+00 -0.00000000000E+00 -0.34791567602E+03  0.34791567602E+03  0.00000000000E+00 0.  1.
         23    2    1    2    0    0  0.89531765375E+02 -0.50809998119E+03  0.18938521330E+03  0.55737259407E+03  0.92821989338E+02 0.  0.
         13    1    3    3    0    0  0.23195199807E+02 -0.19975273535E+03  0.12083588697E+03  0.23460708462E+03  0.00000000000E+00 0. -1.
        -13    1    3    3    0    0  0.66336565568E+02 -0.30834724584E+03  0.68549326329E+02  0.32276550945E+03  0.00000000000E+00 0.  1.
         22    1    1    2    0    0 -0.89531765375E+02  0.50809998119E+03  0.24203565158E+03  0.56987962284E+03  0.00000000000E+00 0. -1.
<mgrwt>
<rscale>  0 0.10414286E+04</rscale>
<asrwt>0</asrwt>
<pdfrwt beam="1">  1        2 0.11989793E+00 0.10414286E+04</pdfrwt>
<pdfrwt beam="2">  1       -2 0.53525489E-01 0.10414286E+04</pdfrwt>
<totfact> 0.11688264E+02</totfact>
</mgrwt>
</event>
<event>
 6    1  0.9512547E-007  0.1946052E+04  0.7818608E-02  0.8632267E-01
         -1   -1    0    0    0  501 -0.00000000000E+00  0.00000000000E+00  0.34985591966E+03  0.34985591966E+03  0.00000000000E+00 0.  1.
          1   -1    0    0  501    0  0.00000000000E+00 -0.00000000000E+00 -0.27061985352E+04  0.27061985352E+04  0.00000000000E+00 0. -1.
         23    2    1    2    0    0 -0.32693498400E+03 -0.45498099005E+03 -0.24259604338E+04  0.24914830903E+04  0.91157982850E+02 0.  0.
         11    1    3    3    0    0 -0.91040279289E+02 -0.66065157694E+02 -0.45048685841E+03  0.46431815291E+03  0.00000000000E+00 0. -1.
        -11    1    3    3    0    0 -0.23589470471E+03 -0.38891583235E+03 -0.19754735753E+04  0.20271649374E+04  0.00000000000E+00 0.  1.
         22    1    1    2    0    0  0.32693498400E+03  0.45498099005E+03  0.69617818253E+02  0.56457136456E+03  0.00000000000E+00 0.  1.
<mgrwt>
<rscale>  0 0.19460520E+04</rscale>
<asrwt>0</asrwt>
<pdfrwt beam="1">  1        1 0.41633824E+00 0.19460520E+04</pdfrwt>
<pdfrwt beam="2">  1       -1 0.53823987E-01 0.19460520E+04</pdfrwt>
<totfact> 0.31582072E+00</totfact>
</mgrwt>
</event>
<event>
 6    1  0.9512547E-007  0.2232622E+04  0.7818608E-02  0.8504972E-01
         -2   -1    0    0    0  501 -0.00000000000E+00  0.00000000000E+00  0.11447114522E+04  0.11447114522E+04  0.00000000000E+00 0.  1.
          2   -1    0    0  501    0  0.00000000000E+00 -0.00000000000E+00 -0.10886151589E+04  0.10886151589E+04  0.00000000000E+00 0. -1.
         23    2    1    2    0    0  0.42908379617E+03 -0.38693139801E+03 -0.92514634395E+03  0.10946142136E+04  0.91954923322E+02 0.  0.
         13    1    3    3    0    0  0.29497201596E+03 -0.22950001024E+03 -0.52857289073E+03  0.64735465219E+03  0.00000000000E+00 0.  1.
        -13    1    3    3    0    0  0.13411178022E+03 -0.15743138778E+03 -0.39657345322E+03  0.44725956138E+03  0.00000000000E+00 0. -1.
         22    1    1    2    0    0 -0.42908379617E+03  0.38693139801E+03  0.98124263725E+03  0.11387123974E+04  0.00000000000E+00 0.  1.
<mgrwt>
<rscale>  0 0.22326220E+04</rscale>
<asrwt>0</asrwt>
<pdfrwt beam="1">  1        2 0.16747925E+00 0.22326220E+04</pdfrwt>
<pdfrwt beam="2">  1       -2 0.17610945E+00 0.22326220E+04</pdfrwt>
<totfact> 0.38952164E+00</totfact>
</mgrwt>
</event>
<event>
 6    1  0.9512547E-007  0.9759389E+03  0.7818608E-02  0.9335335E-01
          2   -1    0    0  501    0  0.00000000000E+00  0.00000000000E+00  0.13888943605E+04  0.13888943605E+04  0.00000000000E+00 0. -1.
         -2   -1    0    0    0  501 -0.00000000000E+00 -0.00000000000E+00 -0.17144154368E+03  0.17144154368E+03  0.00000000000E+00 0.  1.
         23    2    1    2    0    0 -0.15395607307E+03 -0.45133595753E+03  0.74537324696E+03  0.88931746980E+03  0.88868812346E+02 0.  0.
         13    1    3    3    0    0 -0.52126475755E+02 -0.15017250698E+03  0.17568164570E+03  0.23692402150E+03  0.00000000000E+00 0. -1.
        -13    1    3    3    0    0 -0.10182959731E+03 -0.30116345055E+03  0.56969160126E+03  0.65239344829E+03  0.00000000000E+00 0.  1.
         22    1    1    2    0    0  0.15395607307E+03  0.45133595753E+03  0.47207956983E+03  0.67101843435E+03  0.00000000000E+00 0. -1.
<mgrwt>
<rscale>  0 0.97593892E+03</rscale>
<asrwt>0</asrwt>
<pdfrwt beam="1">  1        2 0.21367605E+00 0.97593892E+03</pdfrwt>
<pdfrwt beam="2">  1       -2 0.26375623E-01 0.97593892E+03</pdfrwt>
<totfact> 0.19074473E+02</totfact>
</mgrwt>
</event>
<event>
 6    1  0.9512547E-007  0.1868067E+04  0.7818608E-02  0.8670917E-01
          2   -1    0    0  501    0  0.00000000000E+00  0.00000000000E+00  0.75787283669E+03  0.75787283669E+03  0.00000000000E+00 0. -1.
         -2   -1    0    0    0  501 -0.00000000000E+00 -0.00000000000E+00 -0.11511415293E+04  0.11511415293E+04  0.00000000000E+00 0.  1.
         23    2    1    2    0    0 -0.78691508332E+03 -0.37045144437E+03 -0.53863805645E+03  0.10271969966E+04  0.92374741830E+02 0.  0.
         11    1    3    3    0    0 -0.22034043649E+03 -0.14625136037E+03 -0.18419014140E+03  0.32228151754E+03  0.00000000000E+00 0.  1.
        -11    1    3    3    0    0 -0.56657464682E+03 -0.22420008400E+03 -0.35444791506E+03  0.70491547903E+03  0.00000000000E+00 0. -1.
         22    1    1    2    0    0  0.78691508332E+03  0.37045144437E+03  0.14536936388E+03  0.88181736938E+03  0.00000000000E+00 0. -1.
<mgrwt>
<rscale>  0 0.18680673E+04</rscale>
<asrwt>0</asrwt>
<pdfrwt beam="1">  1        2 0.11659582E+00 0.18680673E+04</pdfrwt>
<pdfrwt beam="2">  1       -2 0.17709870E+00 0.18680673E+04</pdfrwt>
<totfact> 0.65937146E+00</totfact>
</mgrwt>
</event>
<event>
 6    1  0.9512547E-007  0.4645672E+04  0.7818608E-02  0.7885619E-01
          1   -1    0    0  501    0  0.00000000000E+00  0.00000000000E+00  0.15884264122E+04  0.15884264122E+04  0.00000000000E+00 0. -1.
         -1   -1    0    0    0  501 -0.00000000000E+00 -0.00000000000E+00 -0.33968008568E+04  0.33968008568E+04  0.00000000000E+00 0.  1.
         23    2    1    2    0    0  0.11159909975E+03 -0.16672329246E+04 -0.26345924594E+04  0.31211574765E+04  0.91796416704E+02 0.  0.
         11    1    3    3    0    0  0.40638341963E+02 -0.17945303029E+03 -0.29385932345E+03  0.34671049436E+03  0.00000000000E+00 0. -1.
        -11    1    3    3    0    0  0.70960757788E+02 -0.14877798943E+04 -0.23407331359E+04  0.27744469821E+04  0.00000000000E+00 0.  1.
         22    1    1    2    0    0 -0.11159909975E+03  0.16672329246E+04  0.82621801472E+03  0.18640697926E+04  0.00000000000E+00 0.  1.
<mgrwt>
<rscale>  0 0.46456725E+04</rscale>
<asrwt>0</asrwt>
<pdfrwt beam="1">  1        1 0.24437330E+00 0.46456725E+04</pdfrwt>
<pdfrwt beam="2">  1       -1 0.52258474E+00 0.46456725E+04</pdfrwt>
<totfact> 0.45661739E-03</totfact>
</mgrwt>
</event>
<event>
 6    1  0.9512547E-007  0.1507338E+04  0.7818608E-02  0.8879588E-01
          1   -1    0    0  501    0  0.00000000000E+00  0.00000000000E+00  0.48823070819E+03  0.48823070819E+03  0.00000000000E+00 0. -1.
         -1   -1    0    0    0  501 -0.00000000000E+00 -0.00000000000E+00 -0.11634198739E+04  0.11634198739E+04  0.00000000000E+00 0.  1.
         23    2    1    2    0    0  0.31373239068E+03 -0.40946169611E+03 -0.93690600405E+03  0.10732194306E+04  0.88995462156E+02 0.  0.
         13    1    3    3    0    0  0.13416113310E+03 -0.21568595859E+03 -0.53531869057E+03  0.59252488795E+03  0.00000000000E+00 0.  1.
        -13    1    3    3    0    0  0.17957125758E+03 -0.19377573752E+03 -0.40158731348E+03  0.48069454266E+03  0.00000000000E+00 0. -1.
         22    1    1    2    0    0 -0.31373239068E+03  0.40946169611E+03  0.26171683833E+03  0.57843115149E+03  0.00000000000E+00 0. -1.
<mgrwt>
<rscale>  0 0.15073385E+04</rscale>
<asrwt>0</asrwt>
<pdfrwt beam="1">  1        1 0.75112417E-01 0.15073385E+04</pdfrwt>
<pdfrwt beam="2">  1       -1 0.17898767E+00 0.15073385E+04</pdfrwt>
<totfact> 0.93702081E+00</totfact>
</mgrwt>
</event>
<event>
 6    1  0.9512547E-007  0.2602519E+04  0.7818608E-02  0.8367346E-01
          1   -1    0    0  501    0  0.00000000000E+00  0.00000000000E+00  0.24074185270E+04  0.24074185270E+04  0.00000000000E+00 0. -1.
         -1   -1    0    0    0  501 -0.00000000000E+00 -0.00000000000E+00 -0.70335770493E+03  0.70335770493E+03  0.00000000000E+00 0.  1.
         23    2    1    2    0    0 -0.11308881493E+04 -0.79561886156E+02  0.93532228300E+02  0.11412482552E+04  0.91984794259E+02 0.  0.
         13    1    3    3    0    0 -0.54679926225E+03 -0.39131984551E+02  0.91356021431E+02  0.55575774224E+03  0.00000000000E+00 0.  1.
        -13    1    3    3    0    0 -0.58408888701E+03 -0.40429901605E+02  0.21762068697E+01  0.58549051294E+03  0.00000000000E+00 0. -1.
         22    1    1    2    0    0  0.11308881493E+04  0.79561886156E+02  0.16105285938E+04  0.19695279768E+04  0.00000000000E+00 0. -1.
<mgrwt>
<rscale>  0 0.26025191E+04</rscale>
<asrwt>0</asrwt>
<pdfrwt beam="1">  1        1 0.37037208E+00 0.26025191E+04</pdfrwt>
<pdfrwt beam="2">  1       -1 0.10820888E+00 0.26025191E+04</pdfrwt>
<totfact> 0.10964347E+00</totfact>
</mgrwt>
</event>
<event>
 6    1  0.9512547E-007  0.1078242E+04  0.7818608E-02  0.9226662E-01
          1   -1    0    0  501    0  0.00000000000E+00  0.00000000000E+00  0.22955315154E+03  0.22955315154E+03  0.00000000000E+00 0. -1.
         -1   -1    0    0    0  501 -0.00000000000E+00 -0.00000000000E+00 -0.12661618151E+04  0.12661618151E+04  0.00000000000E+00 0.  1.
         23    2    1    2    0    0 -0.30621067656E+03 -0.37464703261E+03 -0.83922065106E+03  0.97313731215E+03  0.92625858507E+02 0.  0.
         11    1    3    3    0    0 -0.27686757831E+03 -0.28103411216E+03 -0.66710548458E+03  0.77502616451E+03  0.00000000000E+00 0. -1.
        -11    1    3    3    0    0 -0.29343098248E+02 -0.93612920447E+02 -0.17211516647E+03  0.19811114764E+03  0.00000000000E+00 0.  1.
         22    1    1    2    0    0  0.30621067656E+03  0.37464703261E+03 -0.19738801249E+03  0.52257765447E+03  0.00000000000E+00 0. -1.
<mgrwt>
<rscale>  0 0.10782420E+04</rscale>
<asrwt>0</asrwt>
<pdfrwt beam="1">  1        1 0.35315870E-01 0.10782420E+04</pdfrwt>
<pdfrwt beam="2">  1       -1 0.19479412E+00 0.10782420E+04</pdfrwt>
<totfact> 0.20302466E+01</totfact>
</mgrwt>
</event>
<event>
 6    1  0.9512547E-007  0.2746948E+04  0.7818608E-02  0.8319931E-01
         -2   -1    0    0    0  501 -0.00000000000E+00  0.00000000000E+00  0.64121637300E+03  0.64121637300E+03  0.00000000000E+00 0.  1.
          2   -1    0    0  501    0  0.00000000000E+00 -0.00000000000E+00 -0.29419559924E+04  0.29419559924E+04  0.00000000000E+00 0. -1.
         23    2    1    2    0    0 -0.12271973072E+04 -0.35903552697E+03 -0.50344581117E+03  0.13774559798E+04  0.94908119217E+02 0.  0.
         11    1    3    3    0    0 -0.93659252157E+03 -0.29049949973E+03 -0.42498935058E+03  0.10687429340E+04  0.00000000000E+00 0. -1.
        -11    1    3    3    0    0 -0.29060478564E+03 -0.68536027236E+02 -0.78456460594E+02  0.30871304585E+03  0.00000000000E+00 0.  1.
         22    1    1    2    0    0  0.12271973072E+04  0.35903552697E+03 -0.17972938082E+04  0.22057163855E+04  0.00000000000E+00 0.  1.
<mgrwt>
<rscale>  0 0.27469477E+04</rscale>
<asrwt>0</asrwt>
<pdfrwt beam="1">  1        2 0.45260861E+00 0.27469477E+04</pdfrwt>
<pdfrwt beam="2">  1       -2 0.98648673E-01 0.27469477E+04</pdfrwt>
<totfact> 0.14103959E+00</totfact>
</mgrwt>
</event>
<event>
 6    1  0.9512547E-007  0.1669598E+04  0.7818608E-02  0.8778896E-01
          1   -1    0    0  501    0  0.00000000000E+00  0.00000000000E+00  0.71900014426E+03  0.71900014426E+03  0.00000000000E+00 0. -1.
         -1   -1    0    0    0  501 -0.00000000000E+00 -0.00000000000E+00 -0.96924780045E+03  0.96924780045E+03  0.00000000000E+00 0.  1.
         23    2    1    2    0    0 -0.11229600222E+03 -0.24700725308E+03  0.67045031433E+03  0.72840018172E+03  0.86256742141E+02 0.  0.
         11    1    3    3    0    0  0.42959244237E+01 -0.83127263549E+02  0.18004792088E+03  0.19835788547E+03  0.00000000000E+00 0. -1.
        -11    1    3    3    0    0 -0.11659192664E+03 -0.16387998953E+03  0.49040239344E+03  0.53004229626E+03  0.00000000000E+00 0.  1.
         22    1    1    2    0    0  0.11229600222E+03  0.24700725308E+03 -0.92069797052E+03  0.95984776299E+03  0.00000000000E+00 0.  1.
<mgrwt>
<rscale>  0 0.16695979E+04</rscale>
<asrwt>0</asrwt>
<pdfrwt beam="1">  1        1 0.11061541E+00 0.16695979E+04</pdfrwt>
<pdfrwt beam="2">  1       -1 0.14911505E+00 0.16695979E+04</pdfrwt>
<totfact> 0.88449576E+00</totfact>
</mgrwt>
</event>
<event>
 6    1  0.9512547E-007  0.1110171E+04  0.7818608E-02  0.9195335E-01
         -1   -1    0    0    0  501 -0.00000000000E+00  0.00000000000E+00  0.15873399992E+04  0.15873399992E+04  0.00000000000E+00 0.  1.
          1   -1    0    0  501    0  0.00000000000E+00 -0.00000000000E+00 -0.19411077744E+03  0.19411077744E+03  0.00000000000E+00 0. -1.
         23    2    1    2    0    0 -0.27772599584E+03 -0.12659849579E+02  0.14651406428E+04  0.14942866196E+04  0.94675222649E+02 0.  0.
         11    1    3    3    0    0 -0.11282291634E+03  0.17551211838E+02  0.81129989780E+03  0.81929517248E+03  0.00000000000E+00 0. -1.
        -11    1    3    3    0    0 -0.16490307949E+03 -0.30211061417E+02  0.65384074504E+03  0.67499144715E+03  0.00000000000E+00 0.  1.
         22    1    1    2    0    0  0.27772599584E+03  0.12659849579E+02 -0.71911421113E+02  0.28716415696E+03  0.00000000000E+00 0. -1.
<mgrwt>
<rscale>  0 0.11101708E+04</rscale>
<asrwt>0</asrwt>
<pdfrwt beam="1">  1        1 0.29863198E-01 0.11101708E+04</pdfrwt>
<pdfrwt beam="2">  1       -1 0.24420615E+00 0.11101708E+04</pdfrwt>
<totfact> 0.11759551E+01</totfact>
</mgrwt>
</event>
<event>
 6    1  0.9512547E-007  0.2109558E+04  0.7818608E-02  0.8557044E-01
          1   -1    0    0  501    0  0.00000000000E+00  0.00000000000E+00  0.78260951818E+03  0.78260951818E+03  0.00000000000E+00 0. -1.
         -1   -1    0    0    0  501 -0.00000000000E+00 -0.00000000000E+00 -0.14216019631E+04  0.14216019631E+04  0.00000000000E+00 0.  1.
         23    2    1    2    0    0  0.85903861461E+03 -0.31705635561E+03 -0.86316224940E+03  0.12614897963E+04  0.88517588444E+02 0.  0.
         11    1    3    3    0    0  0.25437901028E+03 -0.12846386201E+03 -0.23415662875E+03  0.36883732390E+03  0.00000000000E+00 0.  1.
        -11    1    3    3    0    0  0.60465960433E+03 -0.18859249360E+03 -0.62900562065E+03  0.89265247244E+03  0.00000000000E+00 0. -1.
         22    1    1    2    0    0 -0.85903861461E+03  0.31705635561E+03  0.22416980448E+03  0.94272168494E+03  0.00000000000E+00 0.  1.
<mgrwt>
<rscale>  0 0.21095585E+04</rscale>
<asrwt>0</asrwt>
<pdfrwt beam="1">  1        1 0.12040147E+00 0.21095585E+04</pdfrwt>
<pdfrwt beam="2">  1       -1 0.21870799E+00 0.21095585E+04</pdfrwt>
<totfact> 0.23623887E+00</totfact>
</mgrwt>
</event>
<event>
 6    1  0.9512547E-007  0.1709045E+04  0.7818608E-02  0.8756223E-01
          1   -1    0    0  501    0  0.00000000000E+00  0.00000000000E+00  0.10387043459E+04  0.10387043459E+04  0.00000000000E+00 0. -1.
         -1   -1    0    0    0  501 -0.00000000000E+00 -0.00000000000E+00 -0.70299932503E+03  0.70299932503E+03  0.00000000000E+00 0.  1.
         23    2    1    2    0    0  0.37815016054E+03 -0.29295706492E+03 -0.55030785630E+03  0.73480734839E+03  0.91003938061E+02 0.  0.
         13    1    3    3    0    0  0.35134734272E+02 -0.22810450308E+01 -0.59939905271E+02  0.69515789304E+02  0.00000000000E+00 0.  1.
        -13    1    3    3    0    0  0.34301542627E+03 -0.29067601989E+03 -0.49036795103E+03  0.66529155909E+03  0.00000000000E+00 0. -1.
         22    1    1    2    0    0 -0.37815016054E+03  0.29295706492E+03  0.88601287715E+03  0.10068963225E+04  0.00000000000E+00 0. -1.
<mgrwt>
<rscale>  0 0.17090447E+04</rscale>
<asrwt>0</asrwt>
<pdfrwt beam="1">  1        1 0.15980067E+00 0.17090447E+04</pdfrwt>
<pdfrwt beam="2">  1       -1 0.10815374E+00 0.17090447E+04</pdfrwt>
<totfact> 0.10666037E+01</totfact>
</mgrwt>
</event>
<event>
 6    1  0.9512547E-007  0.7773273E+03  0.7818608E-02  0.9593427E-01
         -2   -1    0    0    0  501 -0.00000000000E+00  0.00000000000E+00  0.65249108447E+02  0.65249108447E+02  0.00000000000E+00 0.  1.
          2   -1    0    0  501    0  0.00000000000E+00 -0.00000000000E+00 -0.23151185116E+04  0.23151185116E+04  0.00000000000E+00 0. -1.
         23    2    1    2    0    0  0.17575158537E+02 -0.34211518161E+03 -0.16645706688E+04  0.17021889621E+04  0.96436857478E+02 0.  0.
         11    1    3    3    0    0 -0.23988906065E+02 -0.20393143547E+02 -0.14680253759E+03  0.15014104356E+03  0.00000000000E+00 0. -1.
        -11    1    3    3    0    0  0.41564064602E+02 -0.32172203807E+03 -0.15177681312E+04  0.15520479185E+04  0.00000000000E+00 0.  1.
         22    1    1    2    0    0 -0.17575158537E+02  0.34211518161E+03 -0.58529873429E+03  0.67817865791E+03  0.00000000000E+00 0.  1.
<mgrwt>
<rscale>  0 0.77732726E+03</rscale>
<asrwt>0</asrwt>
<pdfrwt beam="1">  1        2 0.35617203E+00 0.77732726E+03</pdfrwt>
<pdfrwt beam="2">  1       -2 0.10038326E-01 0.77732726E+03</pdfrwt>
<totfact> 0.31224657E+02</totfact>
</mgrwt>
</event>
<event>
 6    1  0.9512547E-007  0.3237481E+04  0.7818608E-02  0.8178988E-01
         -2   -1    0    0    0  501 -0.00000000000E+00  0.00000000000E+00  0.75090242904E+03  0.75090242904E+03  0.00000000000E+00 0.  1.
          2   -1    0    0  501    0  0.00000000000E+00 -0.00000000000E+00 -0.34895613957E+04  0.34895613957E+04  0.00000000000E+00 0. -1.
         23    2    1    2    0    0 -0.55756261253E+03 -0.82666820538E+03 -0.30384973201E+04  0.31992340582E+04  0.91521616685E+02 0.  0.
         11    1    3    3    0    0 -0.29197315758E+03 -0.50498388284E+03 -0.17063688313E+04  0.18033168427E+04  0.00000000000E+00 0.  1.
        -11    1    3    3    0    0 -0.26558945494E+03 -0.32168432254E+03 -0.13321284887E+04  0.13959172155E+04  0.00000000000E+00 0. -1.
         22    1    1    2    0    0  0.55756261253E+03  0.82666820538E+03  0.29983835337E+03  0.10412297666E+04  0.00000000000E+00 0.  1.
<mgrwt>
<rscale>  0 0.32374806E+04</rscale>
<asrwt>0</asrwt>
<pdfrwt beam="1">  1        2 0.53685561E+00 0.32374806E+04</pdfrwt>
<pdfrwt beam="2">  1       -2 0.11552345E+00 0.32374806E+04</pdfrwt>
<totfact> 0.40418189E-01</totfact>
</mgrwt>
</event>
<event>
 6    1  0.9512547E-007  0.4153069E+04  0.7818608E-02  0.7974360E-01
          2   -1    0    0  501    0  0.00000000000E+00  0.00000000000E+00  0.19565322079E+04  0.19565322079E+04  0.00000000000E+00 0. -1.
         -2   -1    0    0    0  501 -0.00000000000E+00 -0.00000000000E+00 -0.22038972790E+04  0.22038972790E+04  0.00000000000E+00 0.  1.
         23    2    1    2    0    0 -0.57132388170E+03 -0.11351600997E+03 -0.21195826367E+04  0.21996909843E+04  0.81932961013E+02 0.  0.
         11    1    3    3    0    0 -0.88325393083E+02 -0.48802986664E+02 -0.36282787163E+03  0.37659948354E+03  0.00000000000E+00 0.  1.
        -11    1    3    3    0    0 -0.48299848862E+03 -0.64713023302E+02 -0.17567547651E+04  0.18230915008E+04  0.00000000000E+00 0. -1.
         22    1    1    2    0    0  0.57132388170E+03  0.11351600997E+03  0.18722175657E+04  0.19607385026E+04  0.00000000000E+00 0. -1.
<mgrwt>
<rscale>  0 0.41530692E+04</rscale>
<asrwt>0</asrwt>
<pdfrwt beam="1">  1        2 0.30100496E+00 0.41530692E+04</pdfrwt>
<pdfrwt beam="2">  1       -2 0.33906112E+00 0.41530692E+04</pdfrwt>
<totfact> 0.10030557E-01</totfact>
</mgrwt>
</event>
<event>
 6    1  0.9512547E-007  0.3408000E+04  0.7818608E-02  0.8135946E-01
         -1   -1    0    0    0  501 -0.00000000000E+00  0.00000000000E+00  0.90023587202E+03  0.90023587202E+03  0.00000000000E+00 0.  1.
          1   -1    0    0  501    0  0.00000000000E+00 -0.00000000000E+00 -0.32253938024E+04  0.32253938024E+04  0.00000000000E+00 0. -1.
         23    2    1    2    0    0 -0.31759538226E+03  0.16309408112E+04 -0.71267508481E+03  0.18102602258E+04  0.91112852282E+02 0.  0.
         13    1    3    3    0    0 -0.76453356531E+02  0.53787566704E+03 -0.26842860878E+03  0.60597794261E+03  0.00000000000E+00 0. -1.
        -13    1    3    3    0    0 -0.24114202572E+03  0.10930651442E+04 -0.44424647603E+03  0.12042822831E+04  0.00000000000E+00 0.  1.
         22    1    1    2    0    0  0.31759538226E+03 -0.16309408112E+04 -0.16124828456E+04  0.23153694487E+04  0.00000000000E+00 0. -1.
<mgrwt>
<rscale>  0 0.34079995E+04</rscale>
<asrwt>0</asrwt>
<pdfrwt beam="1">  1        1 0.49621443E+00 0.34079995E+04</pdfrwt>
<pdfrwt beam="2">  1       -1 0.13849783E+00 0.34079995E+04</pdfrwt>
<totfact> 0.14403431E-01</totfact>
</mgrwt>
</event>
<event>
 6    1  0.9512547E-007  0.2053492E+04  0.7818608E-02  0.8582012E-01
         -2   -1    0    0    0  501 -0.00000000000E+00  0.00000000000E+00  0.21051569793E+04  0.21051569793E+04  0.00000000000E+00 0.  1.
          2   -1    0    0  501    0  0.00000000000E+00 -0.00000000000E+00 -0.50077353685E+03  0.50077353685E+03  0.00000000000E+00 0. -1.
         23    2    1    2    0    0 -0.58529172820E+03  0.32206223070E+03 -0.18224259532E+03  0.69849163472E+03  0.91584456576E+02 0.  0.
         13    1    3    3    0    0 -0.47540810528E+03  0.22770897503E+03 -0.11867834816E+03  0.54032286107E+03  0.00000000000E+00 0.  1.
        -13    1    3    3    0    0 -0.10988362292E+03  0.94353255665E+02 -0.63564247162E+02  0.15816877365E+03  0.00000000000E+00 0. -1.
         22    1    1    2    0    0  0.58529172820E+03 -0.32206223070E+03  0.17866260377E+04  0.19074388814E+04  0.00000000000E+00 0.  1.
<mgrwt>
<rscale>  0 0.20534916E+04</rscale>
<asrwt>0</asrwt>
<pdfrwt beam="1">  1        2 0.77042084E-01 0.20534916E+04</pdfrwt>
<pdfrwt beam="2">  1       -2 0.32387030E+00 0.20534916E+04</pdfrwt>
<totfact> 0.12903841E+00</totfact>
</mgrwt>
</event>
<event>
 6    1  0.9512547E-007  0.1725432E+04  0.7818608E-02  0.8746991E-01
          2   -1    0    0  501    0  0.00000000000E+00  0.00000000000E+00  0.26711253009E+04  0.26711253009E+04  0.00000000000E+00 0. -1.
         -2   -1    0    0    0  501 -0.00000000000E+00 -0.00000000000E+00 -0.27863885503E+03  0.27863885503E+03  0.00000000000E+00 0.  1.
         23    2    1    2    0    0 -0.73043195346E+03  0.18032919103E+03  0.19119862614E+04  0.20570548622E+04  0.98659954332E+02 0.  0.
         13    1    3    3    0    0 -0.27577497707E+03  0.88406523771E+02  0.61935390044E+03  0.68371544184E+03  0.00000000000E+00 0.  1.
        -13    1    3    3    0    0 -0.45465697639E+03  0.91922667260E+02  0.12926323610E+04  0.13733394204E+04  0.00000000000E+00 0. -1.
         22    1    1    2    0    0  0.73043195346E+03 -0.18032919103E+03  0.48050018444E+03  0.89270929368E+03  0.00000000000E+00 0.  1.
<mgrwt>
<rscale>  0 0.17254325E+04</rscale>
<asrwt>0</asrwt>
<pdfrwt beam="1">  1        2 0.41094234E+00 0.17254325E+04</pdfrwt>
<pdfrwt beam="2">  1       -2 0.42867518E-01 0.17254325E+04</pdfrwt>
<totfact> 0.13567676E+01</totfact>
</mgrwt>
</event>
<event>
 6    1  0.9512547E-007  0.2460491E+04  0.7818608E-02  0.8417197E-01
          1   -1    0    0  501    0  0.00000000000E+00  0.00000000000E+00  0.16683336475E+04  0.16683336475E+04  0.00000000000E+00 0. -1.
         -1   -1    0    0    0  501 -0.00000000000E+00 -0.00000000000E+00 -0.90719519844E+03  0.90719519844E+03  0.00000000000E+00 0.  1.
         23    2    1    2    0    0  0.91266042136E+03  0.15599480430E+03 -0.46437243413E+03  0.10395730040E+04  0.88243126139E+02 0.  0.
         13    1    3    3    0    0  0.65367555262E+03  0.72709669434E+02 -0.31568392342E+03  0.72954421636E+03  0.00000000000E+00 0. -1.
        -13    1    3    3    0    0  0.25898486873E+03  0.83285134863E+02 -0.14868851072E+03  0.31002878760E+03  0.00000000000E+00 0.  1.
         22    1    1    2    0    0 -0.91266042136E+03 -0.15599480430E+03  0.12255108832E+04  0.15359558420E+04  0.00000000000E+00 0. -1.
<mgrwt>
<rscale>  0 0.24604912E+04</rscale>
<asrwt>0</asrwt>
<pdfrwt beam="1">  1        1 0.25666671E+00 0.24604912E+04</pdfrwt>
<pdfrwt beam="2">  1       -1 0.13956849E+00 0.24604912E+04</pdfrwt>
<totfact> 0.18869983E+00</totfact>
</mgrwt>
</event>
<event>
 6    1  0.9512547E-007  0.1350134E+04  0.7818608E-02  0.8990727E-01
         -2   -1    0    0    0  501 -0.00000000000E+00  0.00000000000E+00  0.23041002609E+03  0.23041002609E+03  0.00000000000E+00 0.  1.
          2   -1    0    0  501    0  0.00000000000E+00 -0.00000000000E+00 -0.19778454204E+04  0.19778454204E+04  0.00000000000E+00 0. -1.
         23    2    1    2    0    0  0.35503878621E+03  0.15323622039E+01  0.55589800813E+02  0.37060620301E+03  0.90575073300E+02 0.  0.
         11    1    3    3    0    0  0.24912013410E+03 -0.33259567280E+02  0.14360962559E+02  0.25174049590E+03  0.00000000000E+00 0. -1.
        -11    1    3    3    0    0  0.10591865211E+03  0.34791929483E+02  0.41228838254E+02  0.11886570711E+03  0.00000000000E+00 0.  1.
         22    1    1    2    0    0 -0.35503878621E+03 -0.15323622039E+01 -0.18030251951E+04  0.18376492435E+04  0.00000000000E+00 0. -1.
<mgrwt>
<rscale>  0 0.13501339E+04</rscale>
<asrwt>0</asrwt>
<pdfrwt beam="1">  1        2 0.30428392E+00 0.13501339E+04</pdfrwt>
<pdfrwt beam="2">  1       -2 0.35447696E-01 0.13501339E+04</pdfrwt>
<totfact> 0.50227726E+01</totfact>
</mgrwt>
</event>
<event>
 6    1  0.9512547E-007  0.1952831E+04  0.7818608E-02  0.8628997E-01
         -1   -1    0    0    0  501 -0.00000000000E+00  0.00000000000E+00  0.73786408833E+03  0.73786408833E+03  0.00000000000E+00 0.  1.
          1   -1    0    0  501    0  0.00000000000E+00 -0.00000000000E+00 -0.12920910408E+04  0.12920910408E+04  0.00000000000E+00 0. -1.
         23    2    1    2    0    0 -0.39008639581E+03 -0.85494914648E+03 -0.11460927612E+02  0.94473607427E+03  0.96381833852E+02 0.  0.
         13    1    3    3    0    0 -0.33602513932E+03 -0.66515843672E+03 -0.34746991512E+02  0.74602680489E+03  0.00000000000E+00 0.  1.
        -13    1    3    3    0    0 -0.54061256488E+02 -0.18979070976E+03  0.23286063900E+02  0.19870926937E+03  0.00000000000E+00 0. -1.
         22    1    1    2    0    0  0.39008639581E+03  0.85494914648E+03 -0.54276602482E+03  0.10852190548E+04  0.00000000000E+00 0. -1.
<mgrwt>
<rscale>  0 0.19528314E+04</rscale>
<asrwt>0</asrwt>
<pdfrwt beam="1">  1        1 0.19878323E+00 0.19528314E+04</pdfrwt>
<pdfrwt beam="2">  1       -1 0.11351755E+00 0.19528314E+04</pdfrwt>
<totfact> 0.60445028E+00</totfact>
</mgrwt>
</event>
<event>
 6    1  0.9512547E-007  0.1492486E+04  0.7818608E-02  0.8889465E-01
          2   -1    0    0  501    0  0.00000000000E+00  0.00000000000E+00  0.43415929281E+03  0.43415929281E+03  0.00000000000E+00 0. -1.
         -2   -1    0    0    0  501 -0.00000000000E+00 -0.00000000000E+00 -0.12826600126E+04  0.12826600126E+04  0.00000000000E+00 0.  1.
         23    2    1    2    0    0 -0.45141646370E+03 -0.24413021950E+03  0.19305283767E+03  0.55569476392E+03  0.90282250391E+02 0.  0.
         13    1    3    3    0    0 -0.18790441856E+03 -0.64309419844E+02  0.43278332542E+02  0.20326530954E+03  0.00000000000E+00 0.  1.
        -13    1    3    3    0    0 -0.26351204514E+03 -0.17982079966E+03  0.14977450513E+03  0.35242945438E+03  0.00000000000E+00 0. -1.
         22    1    1    2    0    0  0.45141646370E+03  0.24413021950E+03 -0.10415535575E+04  0.11611245415E+04  0.00000000000E+00 0.  1.
<mgrwt>
<rscale>  0 0.14924862E+04</rscale>
<asrwt>0</asrwt>
<pdfrwt beam="1">  1        2 0.66793737E-01 0.14924862E+04</pdfrwt>
<pdfrwt beam="2">  1       -2 0.19733231E+00 0.14924862E+04</pdfrwt>
<totfact> 0.96909824E+00</totfact>
</mgrwt>
</event>
<event>
 6    1  0.1728631E-006  0.2648970E+04  0.7818608E-02  0.8351755E-01
          1   -1    0    0  501    0  0.00000000000E+00  0.00000000000E+00  0.17787659354E+04  0.17787659354E+04  0.00000000000E+00 0. -1.
         -1   -1    0    0    0  501 -0.00000000000E+00 -0.00000000000E+00 -0.98622369158E+03  0.98622369158E+03  0.00000000000E+00 0.  1.
         23    2    1    2    0    0  0.12165357643E+04 -0.26474185166E+03 -0.70301824200E+02  0.12502132739E+04  0.89684836651E+02 0.  0.
         11    1    3    3    0    0  0.62118067648E+03 -0.15894788129E+03 -0.74575853394E+02  0.64551639771E+03  0.00000000000E+00 0.  1.
        -11    1    3    3    0    0  0.59535508786E+03 -0.10579397037E+03  0.42740291940E+01  0.60469687624E+03  0.00000000000E+00 0. -1.
         22    1    1    2    0    0 -0.12165357643E+04  0.26474185166E+03  0.86284406800E+03  0.15147763530E+04  0.00000000000E+00 0. -1.
<mgrwt>
<rscale>  0 0.26489704E+04</rscale>
<asrwt>0</asrwt>
<pdfrwt beam="1">  1        1 0.27365630E+00 0.26489704E+04</pdfrwt>
<pdfrwt beam="2">  1       -1 0.15172672E+00 0.26489704E+04</pdfrwt>
<totfact> 0.12494199E+00</totfact>
</mgrwt>
</event>
<event>
 6    1  0.9512547E-007  0.4189006E+04  0.7818608E-02  0.7967467E-01
          1   -1    0    0  501    0  0.00000000000E+00  0.00000000000E+00  0.38704025839E+04  0.38704025839E+04  0.00000000000E+00 0. -1.
         -1   -1    0    0    0  501 -0.00000000000E+00 -0.00000000000E+00 -0.11334590042E+04  0.11334590042E+04  0.00000000000E+00 0.  1.
         23    2    1    2    0    0  0.29432084614E+03 -0.12755727027E+04 -0.58212382760E+03  0.14359603934E+04  0.96972265957E+02 0.  0.
         13    1    3    3    0    0  0.18590819829E+03 -0.64972756503E+03 -0.33664825923E+03  0.75500981278E+03  0.00000000000E+00 0. -1.
        -13    1    3    3    0    0  0.10841264785E+03 -0.62584513769E+03 -0.24547556837E+03  0.68095058063E+03  0.00000000000E+00 0.  1.
         22    1    1    2    0    0 -0.29432084614E+03  0.12755727027E+04  0.33190674073E+04  0.35679011947E+04  0.00000000000E+00 0. -1.
<mgrwt>
<rscale>  0 0.41890059E+04</rscale>
<asrwt>0</asrwt>
<pdfrwt beam="1">  1        1 0.59544654E+00 0.41890059E+04</pdfrwt>
<pdfrwt beam="2">  1       -1 0.17437831E+00 0.41890059E+04</pdfrwt>
<totfact> 0.21827261E-02</totfact>
</mgrwt>
</event>
<event>
 6    1  0.9512547E-007  0.6817919E+03  0.7818608E-02  0.9748887E-01
          2   -1    0    0  501    0  0.00000000000E+00  0.00000000000E+00  0.20730028127E+04  0.20730028127E+04  0.00000000000E+00 0. -1.
         -2   -1    0    0    0  501 -0.00000000000E+00 -0.00000000000E+00 -0.56058806842E+02  0.56058806842E+02  0.00000000000E+00 0.  1.
         23    2    1    2    0    0 -0.22725512671E+03 -0.22855673353E+03  0.13173623760E+04  0.13588035265E+04  0.83787355122E+02 0.  0.
         13    1    3    3    0    0 -0.27822772815E+02 -0.78936807249E+02  0.32724794881E+03  0.33778150664E+03  0.00000000000E+00 0.  1.
        -13    1    3    3    0    0 -0.19943235390E+03 -0.14961992628E+03  0.99011442722E+03  0.10210220199E+04  0.00000000000E+00 0. -1.
         22    1    1    2    0    0  0.22725512671E+03  0.22855673353E+03  0.69958162984E+03  0.77025809302E+03  0.00000000000E+00 0. -1.
<mgrwt>
<rscale>  0 0.68179195E+03</rscale>
<asrwt>0</asrwt>
<pdfrwt beam="1">  1        2 0.31892345E+00 0.68179195E+03</pdfrwt>
<pdfrwt beam="2">  1       -2 0.86244334E-02 0.68179195E+03</pdfrwt>
<totfact> 0.54678641E+02</totfact>
</mgrwt>
</event>
<event>
 6    1  0.9512547E-007  0.1660140E+04  0.7818608E-02  0.8784431E-01
         -2   -1    0    0    0  501 -0.00000000000E+00  0.00000000000E+00  0.17702201044E+03  0.17702201044E+03  0.00000000000E+00 0.  1.
          2   -1    0    0  501    0  0.00000000000E+00 -0.00000000000E+00 -0.38922609566E+04  0.38922609566E+04  0.00000000000E+00 0. -1.
         23    2    1    2    0    0 -0.27936360747E+03 -0.85342994765E+02 -0.37611516955E+04  0.37735881370E+04  0.91530866092E+02 0.  0.
         11    1    3    3    0    0 -0.19336769777E+03 -0.74873614068E+02 -0.21097175462E+04  0.21198833103E+04  0.00000000000E+00 0.  1.
        -11    1    3    3    0    0 -0.85995909698E+02 -0.10469380697E+02 -0.16514341493E+04  0.16537048267E+04  0.00000000000E+00 0. -1.
         22    1    1    2    0    0  0.27936360747E+03  0.85342994765E+02  0.45912749349E+02  0.29569483000E+03  0.00000000000E+00 0.  1.
<mgrwt>
<rscale>  0 0.16601396E+04</rscale>
<asrwt>0</asrwt>
<pdfrwt beam="1">  1        2 0.59880929E+00 0.16601396E+04</pdfrwt>
<pdfrwt beam="2">  1       -2 0.27234159E-01 0.16601396E+04</pdfrwt>
<totfact> 0.49629995E+00</totfact>
</mgrwt>
</event>
<event>
 6    1  0.9512547E-007  0.1331491E+04  0.7818608E-02  0.9004959E-01
         -2   -1    0    0    0  501 -0.00000000000E+00  0.00000000000E+00  0.10106947457E+03  0.10106947457E+03  0.00000000000E+00 0.  1.
          2   -1    0    0  501    0  0.00000000000E+00 -0.00000000000E+00 -0.43852721473E+04  0.43852721473E+04  0.00000000000E+00 0. -1.
         23    2    1    2    0    0  0.41934005159E+03 -0.38995382300E+03 -0.32754908570E+04  0.33264236979E+04  0.91346599913E+02 0.  0.
         13    1    3    3    0    0  0.35337781195E+03 -0.28021385836E+03 -0.26229488052E+04  0.26614387311E+04  0.00000000000E+00 0.  1.
        -13    1    3    3    0    0  0.65962239647E+02 -0.10973996464E+03 -0.65254205173E+03  0.66498496688E+03  0.00000000000E+00 0. -1.
         22    1    1    2    0    0 -0.41934005159E+03  0.38995382300E+03 -0.10087118158E+04  0.11599179239E+04  0.00000000000E+00 0.  1.
<mgrwt>
<rscale>  0 0.13314911E+04</rscale>
<asrwt>0</asrwt>
<pdfrwt beam="1">  1        2 0.67465710E+00 0.13314911E+04</pdfrwt>
<pdfrwt beam="2">  1       -2 0.15549154E-01 0.13314911E+04</pdfrwt>
<totfact> 0.53431729E+00</totfact>
</mgrwt>
</event>
<event>
 6    1  0.9512547E-007  0.3841472E+04  0.7818608E-02  0.8037313E-01
         -1   -1    0    0    0  501 -0.00000000000E+00  0.00000000000E+00  0.14295382643E+04  0.14295382643E+04  0.00000000000E+00 0.  1.
          1   -1    0    0  501    0  0.00000000000E+00 -0.00000000000E+00 -0.25807121780E+04  0.25807121780E+04  0.00000000000E+00 0. -1.
         23    2    1    2    0    0 -0.14791400147E+04  0.66211909912E+03  0.49833141170E+03  0.16978653742E+04  0.90309181950E+02 0.  0.
         13    1    3    3    0    0 -0.91796708928E+03  0.45518826370E+03  0.29759939638E+03  0.10669701651E+04  0.00000000000E+00 0. -1.
        -13    1    3    3    0    0 -0.56117292546E+03  0.20693083542E+03  0.20073201533E+03  0.63089520912E+03  0.00000000000E+00 0.  1.
         22    1    1    2    0    0  0.14791400147E+04 -0.66211909912E+03 -0.16495053254E+04  0.23123850681E+04  0.00000000000E+00 0. -1.
<mgrwt>
<rscale>  0 0.38414720E+04</rscale>
<asrwt>0</asrwt>
<pdfrwt beam="1">  1        1 0.39703264E+00 0.38414720E+04</pdfrwt>
<pdfrwt beam="2">  1       -1 0.21992896E+00 0.38414720E+04</pdfrwt>
<totfact> 0.10396846E-01</totfact>
</mgrwt>
</event>
<event>
 6    1  0.9512547E-007  0.9735718E+03  0.7818608E-02  0.9338015E-01
          1   -1    0    0  501    0  0.00000000000E+00  0.00000000000E+00  0.32063848539E+03  0.32063848539E+03  0.00000000000E+00 0. -1.
         -1   -1    0    0    0  501 -0.00000000000E+00 -0.00000000000E+00 -0.73902703169E+03  0.73902703169E+03  0.00000000000E+00 0.  1.
         23    2    1    2    0    0  0.15308832786E+03 -0.12748974943E+03 -0.68981390468E+03  0.72297367353E+03  0.84605184156E+02 0.  0.
         11    1    3    3    0    0  0.83064336550E+02 -0.10950492041E+03 -0.53062635449E+03  0.54813806625E+03  0.00000000000E+00 0. -1.
        -11    1    3    3    0    0  0.70023991312E+02 -0.17984829022E+02 -0.15918755019E+03  0.17483560727E+03  0.00000000000E+00 0.  1.
         22    1    1    2    0    0 -0.15308832786E+03  0.12748974943E+03  0.27142535839E+03  0.33669184355E+03  0.00000000000E+00 0. -1.
<mgrwt>
<rscale>  0 0.97357179E+03</rscale>
<asrwt>0</asrwt>
<pdfrwt beam="1">  1        1 0.49328998E-01 0.97357179E+03</pdfrwt>
<pdfrwt beam="2">  1       -1 0.11369647E+00 0.97357179E+03</pdfrwt>
<totfact> 0.56950083E+01</totfact>
</mgrwt>
</event>
<event>
 6    1  0.9512547E-007  0.2102208E+04  0.7818608E-02  0.8560271E-01
          2   -1    0    0  501    0  0.00000000000E+00  0.00000000000E+00  0.28949798077E+04  0.28949798077E+04  0.00000000000E+00 0. -1.
         -2   -1    0    0    0  501 -0.00000000000E+00 -0.00000000000E+00 -0.38163299857E+03  0.38163299857E+03  0.00000000000E+00 0.  1.
         23    2    1    2    0    0 -0.16711024947E+03  0.95324417037E+03  0.62765849056E+03  0.11570796693E+04  0.90982946447E+02 0.  0.
         11    1    3    3    0    0 -0.97379895970E+02  0.76734837372E+03  0.49847277726E+03  0.92020730298E+03  0.00000000000E+00 0. -1.
        -11    1    3    3    0    0 -0.69730353499E+02  0.18589579665E+03  0.12918571329E+03  0.23687236633E+03  0.00000000000E+00 0.  1.
         22    1    1    2    0    0  0.16711024947E+03 -0.95324417037E+03  0.18856883186E+04  0.21195331370E+04  0.00000000000E+00 0. -1.
<mgrwt>
<rscale>  0 0.21022082E+04</rscale>
<asrwt>0</asrwt>
<pdfrwt beam="1">  1        2 0.44538150E+00 0.21022082E+04</pdfrwt>
<pdfrwt beam="2">  1       -2 0.58712771E-01 0.21022082E+04</pdfrwt>
<totfact> 0.50618174E+00</totfact>
</mgrwt>
</event>
<event>
 6    1  0.1031729E-006  0.3722043E+04  0.7818608E-02  0.8063094E-01
          1   -1    0    0  501    0  0.00000000000E+00  0.00000000000E+00  0.19609664621E+04  0.19609664621E+04  0.00000000000E+00 0. -1.
         -1   -1    0    0    0  501 -0.00000000000E+00 -0.00000000000E+00 -0.17661706783E+04  0.17661706783E+04  0.00000000000E+00 0.  1.
         23    2    1    2    0    0  0.66339078998E+01 -0.45022273401E+03  0.19044734410E+04  0.19591602710E+04  0.92441122115E+02 0.  0.
         13    1    3    3    0    0  0.44705883838E+02 -0.21884587324E+03  0.10160838586E+04  0.10403453946E+04  0.00000000000E+00 0.  1.
        -13    1    3    3    0    0 -0.38071975938E+02 -0.23137686077E+03  0.88838958239E+03  0.91881487643E+03  0.00000000000E+00 0. -1.
         22    1    1    2    0    0 -0.66339078998E+01  0.45022273401E+03 -0.17096776572E+04  0.17679768693E+04  0.00000000000E+00 0.  1.
<mgrwt>
<rscale>  0 0.37220432E+04</rscale>
<asrwt>0</asrwt>
<pdfrwt beam="1">  1        1 0.30168715E+00 0.37220432E+04</pdfrwt>
<pdfrwt beam="2">  1       -1 0.27171857E+00 0.37220432E+04</pdfrwt>
<totfact> 0.12775121E-01</totfact>
</mgrwt>
</event>
<event>
 6    1  0.9512547E-007  0.1230336E+04  0.7818608E-02  0.9086710E-01
          1   -1    0    0  501    0  0.00000000000E+00  0.00000000000E+00  0.31623257315E+04  0.31623257315E+04  0.00000000000E+00 0. -1.
         -1   -1    0    0    0  501 -0.00000000000E+00 -0.00000000000E+00 -0.11966885349E+03  0.11966885349E+03  0.00000000000E+00 0.  1.
         23    2    1    2    0    0 -0.51297032109E+03 -0.26253651706E+03  0.97609368521E+03  0.11365931300E+04  0.83791931833E+02 0.  0.
         13    1    3    3    0    0 -0.36369962225E+03 -0.16836455158E+03  0.74323028857E+03  0.84440233260E+03  0.00000000000E+00 0.  1.
        -13    1    3    3    0    0 -0.14927069884E+03 -0.94171965473E+02  0.23286339664E+03  0.29219079744E+03  0.00000000000E+00 0. -1.
         22    1    1    2    0    0  0.51297032109E+03  0.26253651706E+03  0.20665631928E+04  0.21454014550E+04  0.00000000000E+00 0. -1.
<mgrwt>
<rscale>  0 0.12303364E+04</rscale>
<asrwt>0</asrwt>
<pdfrwt beam="1">  1        1 0.48651159E+00 0.12303364E+04</pdfrwt>
<pdfrwt beam="2">  1       -1 0.18410595E-01 0.12303364E+04</pdfrwt>
<totfact> 0.10676969E+01</totfact>
</mgrwt>
</event>
<event>
 6    1  0.9512547E-007  0.2874854E+04  0.7818608E-02  0.8280399E-01
          1   -1    0    0  501    0  0.00000000000E+00  0.00000000000E+00  0.19630630554E+04  0.19630630554E+04  0.00000000000E+00 0. -1.
         -1   -1    0    0    0  501 -0.00000000000E+00 -0.00000000000E+00 -0.10525366096E+04  0.10525366096E+04  0.00000000000E+00 0.  1.
         23    2    1    2    0    0  0.57796100753E+03 -0.11981095187E+04  0.10230913859E+04  0.16806179383E+04  0.90858822230E+02 0.  0.
         13    1    3    3    0    0  0.31039917312E+03 -0.70547788973E+03  0.63725598319E+03  0.10000709413E+04  0.00000000000E+00 0. -1.
        -13    1    3    3    0    0  0.26756183442E+03 -0.49263162893E+03  0.38583540271E+03  0.68054699694E+03  0.00000000000E+00 0.  1.
         22    1    1    2    0    0 -0.57796100753E+03  0.11981095187E+04 -0.11256494010E+03  0.13349817267E+04  0.00000000000E+00 0.  1.
<mgrwt>
<rscale>  0 0.28748535E+04</rscale>
<asrwt>0</asrwt>
<pdfrwt beam="1">  1        1 0.30200970E+00 0.28748535E+04</pdfrwt>
<pdfrwt beam="2">  1       -1 0.16192871E+00 0.28748535E+04</pdfrwt>
<totfact> 0.76740813E-01</totfact>
</mgrwt>
</event>
<event>
 6    1  0.9512547E-007  0.1298577E+04  0.7818608E-02  0.9030694E-01
          1   -1    0    0  501    0  0.00000000000E+00  0.00000000000E+00  0.14963343719E+04  0.14963343719E+04  0.00000000000E+00 0. -1.
         -1   -1    0    0    0  501 -0.00000000000E+00 -0.00000000000E+00 -0.28173894655E+03  0.28173894655E+03  0.00000000000E+00 0.  1.
         23    2    1    2    0    0 -0.22329825976E+03  0.52693542698E+03  0.19682607208E+03  0.61043574048E+03  0.79801212894E+02 0.  0.
         13    1    3    3    0    0 -0.13180486197E+03  0.22829648321E+03  0.65625965099E+02  0.27165892803E+03  0.00000000000E+00 0.  1.
        -13    1    3    3    0    0 -0.91493397791E+02  0.29863894377E+03  0.13120010698E+03  0.33877681244E+03  0.00000000000E+00 0. -1.
         22    1    1    2    0    0  0.22329825976E+03 -0.52693542698E+03  0.10177693533E+04  0.11676375780E+04  0.00000000000E+00 0. -1.
<mgrwt>
<rscale>  0 0.12985772E+04</rscale>
<asrwt>0</asrwt>
<pdfrwt beam="1">  1        1 0.23020528E+00 0.12985772E+04</pdfrwt>
<pdfrwt beam="2">  1       -1 0.43344454E-01 0.12985772E+04</pdfrwt>
<totfact> 0.33952542E+01</totfact>
</mgrwt>
</event>
<event>
 6    1  0.9512547E-007  0.1861043E+04  0.7818608E-02  0.8674494E-01
          2   -1    0    0  501    0  0.00000000000E+00  0.00000000000E+00  0.93585084190E+03  0.93585084190E+03  0.00000000000E+00 0. -1.
         -2   -1    0    0    0  501 -0.00000000000E+00 -0.00000000000E+00 -0.92522275138E+03  0.92522275138E+03  0.00000000000E+00 0.  1.
         23    2    1    2    0    0 -0.12591780182E+03  0.64346084086E+03  0.66249426360E+03  0.93650523229E+03  0.90808888697E+02 0.  0.
         13    1    3    3    0    0 -0.11603103842E+03  0.47483263194E+03  0.53643166156E+03  0.72573284186E+03  0.00000000000E+00 0. -1.
        -13    1    3    3    0    0 -0.98867634038E+01  0.16862820892E+03  0.12606260204E+03  0.21077239043E+03  0.00000000000E+00 0.  1.
         22    1    1    2    0    0  0.12591780182E+03 -0.64346084086E+03 -0.65186617308E+03  0.92456836099E+03  0.00000000000E+00 0.  1.
<mgrwt>
<rscale>  0 0.18610432E+04</rscale>
<asrwt>0</asrwt>
<pdfrwt beam="1">  1        2 0.14397705E+00 0.18610432E+04</pdfrwt>
<pdfrwt beam="2">  1       -2 0.14234196E+00 0.18610432E+04</pdfrwt>
<totfact> 0.89632203E+00</totfact>
</mgrwt>
</event>
<event>
 6    1  0.9512547E-007  0.3077819E+04  0.7818608E-02  0.8221852E-01
          2   -1    0    0  501    0  0.00000000000E+00  0.00000000000E+00  0.10646784764E+04  0.10646784764E+04  0.00000000000E+00 0. -1.
         -2   -1    0    0    0  501 -0.00000000000E+00 -0.00000000000E+00 -0.22243734568E+04  0.22243734568E+04  0.00000000000E+00 0.  1.
         23    2    1    2    0    0  0.15053572136E+04  0.25942773140E+03 -0.39357294556E+03  0.15801499288E+04  0.92579942219E+02 0.  0.
         11    1    3    3    0    0  0.11014232792E+03  0.28308824394E+01 -0.10221823681E+02  0.11065185030E+03  0.00000000000E+00 0.  1.
        -11    1    3    3    0    0  0.13952148857E+04  0.25659684896E+03 -0.38335112188E+03  0.14694980785E+04  0.00000000000E+00 0. -1.
         22    1    1    2    0    0 -0.15053572136E+04 -0.25942773140E+03 -0.76612203485E+03  0.17089020044E+04  0.00000000000E+00 0. -1.
<mgrwt>
<rscale>  0 0.30778191E+04</rscale>
<asrwt>0</asrwt>
<pdfrwt beam="1">  1        2 0.16379669E+00 0.30778191E+04</pdfrwt>
<pdfrwt beam="2">  1       -2 0.34221130E+00 0.30778191E+04</pdfrwt>
<totfact> 0.33938458E-01</totfact>
</mgrwt>
</event>
<event>
 6    1  0.9512547E-007  0.1317857E+04  0.7818608E-02  0.9015523E-01
         -2   -1    0    0    0  501 -0.00000000000E+00  0.00000000000E+00  0.29268462443E+03  0.29268462443E+03  0.00000000000E+00 0.  1.
          2   -1    0    0  501    0  0.00000000000E+00 -0.00000000000E+00 -0.14834622436E+04  0.14834622436E+04  0.00000000000E+00 0. -1.
         23    2    1    2    0    0  0.44898674021E+03 -0.45417965309E+03 -0.79805760977E+03  0.10264154121E+04  0.93618371905E+02 0.  0.
         11    1    3    3    0    0  0.35574355697E+03 -0.40199577698E+03 -0.69278613369E+03  0.87641697272E+03  0.00000000000E+00 0.  1.
        -11    1    3    3    0    0  0.93243183240E+02 -0.52183876111E+02 -0.10527147608E+03  0.14999843940E+03  0.00000000000E+00 0. -1.
         22    1    1    2    0    0 -0.44898674021E+03  0.45417965309E+03 -0.39272000935E+03  0.74973145586E+03  0.00000000000E+00 0.  1.
<mgrwt>
<rscale>  0 0.13178567E+04</rscale>
<asrwt>0</asrwt>
<pdfrwt beam="1">  1        2 0.22822496E+00 0.13178567E+04</pdfrwt>
<pdfrwt beam="2">  1       -2 0.45028404E-01 0.13178567E+04</pdfrwt>
<totfact> 0.59369282E+01</totfact>
</mgrwt>
</event>
<event>
 6    1  0.9512547E-007  0.2711573E+04  0.7818608E-02  0.8331260E-01
          1   -1    0    0  501    0  0.00000000000E+00  0.00000000000E+00  0.19075958844E+04  0.19075958844E+04  0.00000000000E+00 0. -1.
         -1   -1    0    0    0  501 -0.00000000000E+00 -0.00000000000E+00 -0.96359863341E+03  0.96359863341E+03  0.00000000000E+00 0.  1.
         23    2    1    2    0    0  0.68220865596E+03 -0.11208689816E+04  0.82751173001E+03  0.15538772437E+04  0.89458933323E+02 0.  0.
         11    1    3    3    0    0  0.60785837037E+03 -0.10145120094E+04  0.77443206201E+03  0.14136730295E+04  0.00000000000E+00 0. -1.
        -11    1    3    3    0    0  0.74350285589E+02 -0.10635697226E+03  0.53079667997E+02  0.14020421417E+03  0.00000000000E+00 0.  1.
         22    1    1    2    0    0 -0.68220865596E+03  0.11208689816E+04  0.11648552103E+03  0.13173172742E+04  0.00000000000E+00 0. -1.
<mgrwt>
<rscale>  0 0.27115728E+04</rscale>
<asrwt>0</asrwt>
<pdfrwt beam="1">  1        1 0.29347629E+00 0.27115728E+04</pdfrwt>
<pdfrwt beam="2">  1       -1 0.14824594E+00 0.27115728E+04</pdfrwt>
<totfact> 0.10814902E+00</totfact>
</mgrwt>
</event>
<event>
 6    1  0.9512547E-007  0.3872713E+04  0.7818608E-02  0.8030728E-01
          1   -1    0    0  501    0  0.00000000000E+00  0.00000000000E+00  0.25155067282E+04  0.25155067282E+04  0.00000000000E+00 0. -1.
         -1   -1    0    0    0  501 -0.00000000000E+00 -0.00000000000E+00 -0.14905455695E+04  0.14905455695E+04  0.00000000000E+00 0.  1.
         23    2    1    2    0    0  0.12890964858E+04 -0.80080603966E+03  0.17549809268E+04  0.23220128312E+04  0.93410235450E+02 0.  0.
         13    1    3    3    0    0  0.13411822234E+03 -0.10348025588E+03  0.16091390062E+03  0.23364319877E+03  0.00000000000E+00 0. -1.
        -13    1    3    3    0    0  0.11549782634E+04 -0.69732578377E+03  0.15940670261E+04  0.20883696324E+04  0.00000000000E+00 0.  1.
         22    1    1    2    0    0 -0.12890964858E+04  0.80080603966E+03 -0.73001976807E+03  0.16840394664E+04  0.00000000000E+00 0.  1.
<mgrwt>
<rscale>  0 0.38727135E+04</rscale>
<asrwt>0</asrwt>
<pdfrwt beam="1">  1        1 0.38700104E+00 0.38727135E+04</pdfrwt>
<pdfrwt beam="2">  1       -1 0.22931470E+00 0.38727135E+04</pdfrwt>
<totfact> 0.99692486E-02</totfact>
</mgrwt>
</event>
<event>
 6    1  0.9512547E-007  0.2012681E+04  0.7818608E-02  0.8600715E-01
         -2   -1    0    0    0  501 -0.00000000000E+00  0.00000000000E+00  0.91016636412E+03  0.91016636412E+03  0.00000000000E+00 0.  1.
          2   -1    0    0  501    0  0.00000000000E+00 -0.00000000000E+00 -0.11126772606E+04  0.11126772606E+04  0.00000000000E+00 0. -1.
         23    2    1    2    0    0  0.79979064216E+03  0.43936023228E+03  0.31984463608E+03  0.97138854371E+03  0.92696421861E+02 0.  0.
         11    1    3    3    0    0  0.60795574442E+03  0.35945883410E+03  0.21283120101E+03  0.73764351872E+03  0.00000000000E+00 0. -1.
        -11    1    3    3    0    0  0.19183489774E+03  0.79901398184E+02  0.10701343508E+03  0.23374502499E+03  0.00000000000E+00 0.  1.
         22    1    1    2    0    0 -0.79979064216E+03 -0.43936023228E+03 -0.52235553257E+03  0.10514550810E+04  0.00000000000E+00 0. -1.
<mgrwt>
<rscale>  0 0.20126812E+04</rscale>
<asrwt>0</asrwt>
<pdfrwt beam="1">  1        2 0.17118112E+00 0.20126812E+04</pdfrwt>
<pdfrwt beam="2">  1       -2 0.14002560E+00 0.20126812E+04</pdfrwt>
<totfact> 0.71296241E+00</totfact>
</mgrwt>
</event>
<event>
 6    1  0.9512547E-007  0.1845026E+04  0.7818608E-02  0.8682715E-01
          1   -1    0    0  501    0  0.00000000000E+00  0.00000000000E+00  0.42556404390E+03  0.42556404390E+03  0.00000000000E+00 0. -1.
         -1   -1    0    0    0  501 -0.00000000000E+00 -0.00000000000E+00 -0.19997707071E+04  0.19997707071E+04  0.00000000000E+00 0.  1.
         23    2    1    2    0    0  0.73014862366E+03  0.46354438366E+03 -0.37550540759E+03  0.94720244689E+03  0.90541460219E+02 0.  0.
         13    1    3    3    0    0  0.25378667519E+03  0.20745421037E+03 -0.16345893962E+03  0.36628370268E+03  0.00000000000E+00 0. -1.
        -13    1    3    3    0    0  0.47636194847E+03  0.25609017329E+03 -0.21204646796E+03  0.58091874422E+03  0.00000000000E+00 0.  1.
         22    1    1    2    0    0 -0.73014862366E+03 -0.46354438366E+03 -0.11987012556E+04  0.14781323041E+04  0.00000000000E+00 0. -1.
<mgrwt>
<rscale>  0 0.18450263E+04</rscale>
<asrwt>0</asrwt>
<pdfrwt beam="1">  1        1 0.65471392E-01 0.18450263E+04</pdfrwt>
<pdfrwt beam="2">  1       -1 0.30765703E+00 0.18450263E+04</pdfrwt>
<totfact> 0.15304867E+00</totfact>
</mgrwt>
</event>
<event>
 6    1  0.9512547E-007  0.1994590E+04  0.7818608E-02  0.8609154E-01
          1   -1    0    0  501    0  0.00000000000E+00  0.00000000000E+00  0.21122286021E+04  0.21122286021E+04  0.00000000000E+00 0. -1.
         -1   -1    0    0    0  501 -0.00000000000E+00 -0.00000000000E+00 -0.47087589804E+03  0.47087589804E+03  0.00000000000E+00 0.  1.
         23    2    1    2    0    0  0.15850817544E+03  0.35414522285E+03  0.20092086574E+04  0.20484441567E+04  0.93061019821E+02 0.  0.
         11    1    3    3    0    0  0.13362224106E+03  0.19334313419E+03  0.11060028151E+04  0.11306983231E+04  0.00000000000E+00 0. -1.
        -11    1    3    3    0    0  0.24885934382E+02  0.16080208866E+03  0.90320584232E+03  0.91774583358E+03  0.00000000000E+00 0.  1.
         22    1    1    2    0    0 -0.15850817544E+03 -0.35414522285E+03 -0.36785595331E+03  0.53466034352E+03  0.00000000000E+00 0.  1.
<mgrwt>
<rscale>  0 0.19945902E+04</rscale>
<asrwt>0</asrwt>
<pdfrwt beam="1">  1        1 0.32495824E+00 0.19945902E+04</pdfrwt>
<pdfrwt beam="2">  1       -1 0.72442447E-01 0.19945902E+04</pdfrwt>
<totfact> 0.44597531E+00</totfact>
</mgrwt>
</event>
<event>
 6    1  0.9512547E-007  0.1239060E+04  0.7818608E-02  0.9079338E-01
         -2   -1    0    0    0  501 -0.00000000000E+00  0.00000000000E+00  0.13517356452E+03  0.13517356452E+03  0.00000000000E+00 0.  1.
          2   -1    0    0  501    0  0.00000000000E+00 -0.00000000000E+00 -0.28394417353E+04  0.28394417353E+04  0.00000000000E+00 0. -1.
         23    2    1    2    0    0  0.51897914146E+03  0.17645101017E+03 -0.20383778139E+04  0.21121280387E+04  0.75009541409E+02 0.  0.
         11    1    3    3    0    0  0.36458876843E+03  0.12552681873E+03 -0.15571450649E+04  0.16041766441E+04  0.00000000000E+00 0.  1.
        -11    1    3    3    0    0  0.15439037303E+03  0.50924191437E+02 -0.48123274904E+03  0.50795139463E+03  0.00000000000E+00 0. -1.
         22    1    1    2    0    0 -0.51897914146E+03 -0.17645101017E+03 -0.66589035688E+03  0.86248726115E+03  0.00000000000E+00 0.  1.
<mgrwt>
<rscale>  0 0.12390601E+04</rscale>
<asrwt>0</asrwt>
<pdfrwt beam="1">  1        2 0.43683721E+00 0.12390601E+04</pdfrwt>
<pdfrwt beam="2">  1       -2 0.20795932E-01 0.12390601E+04</pdfrwt>
<totfact> 0.43425804E+01</totfact>
</mgrwt>
</event>
<event>
 6    1  0.9512547E-007  0.1176138E+04  0.7818608E-02  0.9134003E-01
          1   -1    0    0  501    0  0.00000000000E+00  0.00000000000E+00  0.17095615336E+04  0.17095615336E+04  0.00000000000E+00 0. -1.
         -1   -1    0    0    0  501 -0.00000000000E+00 -0.00000000000E+00 -0.20228890492E+03  0.20228890492E+03  0.00000000000E+00 0.  1.
         23    2    1    2    0    0 -0.97210463270E+02  0.30079166024E+03  0.15574526760E+04  0.15917824236E+04  0.90481761202E+02 0.  0.
         11    1    3    3    0    0 -0.67323342989E+02  0.25457853003E+03  0.14103229119E+04  0.14346962662E+04  0.00000000000E+00 0.  1.
        -11    1    3    3    0    0 -0.29887120280E+02  0.46213130204E+02  0.14712976409E+03  0.15708615739E+03  0.00000000000E+00 0. -1.
         22    1    1    2    0    0  0.97210463270E+02 -0.30079166024E+03 -0.50180047286E+02  0.32006801493E+03  0.00000000000E+00 0.  1.
<mgrwt>
<rscale>  0 0.11761383E+04</rscale>
<asrwt>0</asrwt>
<pdfrwt beam="1">  1        1 0.26300946E+00 0.11761383E+04</pdfrwt>
<pdfrwt beam="2">  1       -1 0.31121371E-01 0.11761383E+04</pdfrwt>
<totfact> 0.44538660E+01</totfact>
</mgrwt>
</event>
<event>
 6    1  0.9512547E-007  0.1788610E+04  0.7818608E-02  0.8712380E-01
          2   -1    0    0  501    0  0.00000000000E+00  0.00000000000E+00  0.10275332234E+04  0.10275332234E+04  0.00000000000E+00 0. -1.
         -2   -1    0    0    0  501 -0.00000000000E+00 -0.00000000000E+00 -0.77835110866E+03  0.77835110866E+03  0.00000000000E+00 0.  1.
         23    2    1    2    0    0  0.29179951758E+03  0.69506614073E+03  0.60629116835E+03  0.97174359179E+03  0.91829891158E+02 0.  0.
         11    1    3    3    0    0  0.28107541005E+03  0.68390348568E+03  0.57442960325E+03  0.93632084936E+03  0.00000000000E+00 0. -1.
        -11    1    3    3    0    0  0.10724107532E+02  0.11162655045E+02  0.31861565102E+02  0.35422742423E+02  0.00000000000E+00 0.  1.
         22    1    1    2    0    0 -0.29179951758E+03 -0.69506614073E+03 -0.35710905360E+03  0.83414074029E+03  0.00000000000E+00 0.  1.
<mgrwt>
<rscale>  0 0.17886102E+04</rscale>
<asrwt>0</asrwt>
<pdfrwt beam="1">  1        2 0.15808204E+00 0.17886102E+04</pdfrwt>
<pdfrwt beam="2">  1       -2 0.11974632E+00 0.17886102E+04</pdfrwt>
<totfact> 0.12201252E+01</totfact>
</mgrwt>
</event>
<event>
 6    1  0.9512547E-007  0.2700327E+04  0.7818608E-02  0.8334899E-01
          3   -1    0    0  501    0  0.00000000000E+00  0.00000000000E+00  0.62601828326E+03  0.62601828326E+03  0.00000000000E+00 0. -1.
         -3   -1    0    0    0  501 -0.00000000000E+00 -0.00000000000E+00 -0.29119610943E+04  0.29119610943E+04  0.00000000000E+00 0.  1.
         23    2    1    2    0    0  0.10139585294E+04 -0.24637290334E+02 -0.23092772521E+04  0.25234531869E+04  0.79596881479E+02 0.  0.
         11    1    3    3    0    0  0.19391405277E+03 -0.27011156201E+02 -0.50206109378E+03  0.53888552060E+03  0.00000000000E+00 0.  1.
        -11    1    3    3    0    0  0.82004447665E+03  0.23738658673E+01 -0.18072161584E+04  0.19845676663E+04  0.00000000000E+00 0. -1.
         22    1    1    2    0    0 -0.10139585294E+04  0.24637290334E+02  0.23334441108E+02  0.10145261907E+04  0.00000000000E+00 0. -1.
<mgrwt>
<rscale>  0 0.27003266E+04</rscale>
<asrwt>0</asrwt>
<pdfrwt beam="1">  1        3 0.96310503E-01 0.27003266E+04</pdfrwt>
<pdfrwt beam="2">  1       -3 0.44799402E+00 0.27003266E+04</pdfrwt>
<totfact> 0.12579718E-02</totfact>
</mgrwt>
</event>
<event>
 6    1  0.9512547E-007  0.1311826E+04  0.7818608E-02  0.9020239E-01
         -2   -1    0    0    0  501 -0.00000000000E+00  0.00000000000E+00  0.14969870233E+03  0.14969870233E+03  0.00000000000E+00 0.  1.
          2   -1    0    0  501    0  0.00000000000E+00 -0.00000000000E+00 -0.28739188263E+04  0.28739188263E+04  0.00000000000E+00 0. -1.
         23    2    1    2    0    0  0.10433006700E+02  0.51796285327E+03 -0.45126026748E+03  0.69236445909E+03  0.85664171099E+02 0.  0.
         13    1    3    3    0    0 -0.37895513010E+02  0.21697198609E+03 -0.18929585226E+03  0.29042353957E+03  0.00000000000E+00 0.  1.
        -13    1    3    3    0    0  0.48328519710E+02  0.30099086718E+03 -0.26196441522E+03  0.40194091952E+03  0.00000000000E+00 0. -1.
         22    1    1    2    0    0 -0.10433006700E+02 -0.51796285327E+03 -0.22729598564E+04  0.23312530695E+04  0.00000000000E+00 0.  1.
<mgrwt>
<rscale>  0 0.13118261E+04</rscale>
<asrwt>0</asrwt>
<pdfrwt beam="1">  1        2 0.44214135E+00 0.13118261E+04</pdfrwt>
<pdfrwt beam="2">  1       -2 0.23030570E-01 0.13118261E+04</pdfrwt>
<totfact> 0.34279576E+01</totfact>
</mgrwt>
</event>
<event>
 6    1  0.9512547E-007  0.3555708E+04  0.7818608E-02  0.8100713E-01
          1   -1    0    0  501    0  0.00000000000E+00  0.00000000000E+00  0.21184934264E+04  0.21184934264E+04  0.00000000000E+00 0. -1.
         -1   -1    0    0    0  501 -0.00000000000E+00 -0.00000000000E+00 -0.14919866999E+04  0.14919866999E+04  0.00000000000E+00 0.  1.
         23    2    1    2    0    0 -0.55155487457E+03  0.82419268498E+02  0.20263313038E+04  0.21036574551E+04  0.91380633538E+02 0.  0.
         13    1    3    3    0    0 -0.13723355445E+03  0.54533409730E+02  0.61668008640E+03  0.63411455606E+03  0.00000000000E+00 0.  1.
        -13    1    3    3    0    0 -0.41432132011E+03  0.27885858768E+02  0.14096512174E+04  0.14695428990E+04  0.00000000000E+00 0. -1.
         22    1    1    2    0    0  0.55155487457E+03 -0.82419268498E+02 -0.13998245772E+04  0.15068226712E+04  0.00000000000E+00 0.  1.
<mgrwt>
<rscale>  0 0.35557075E+04</rscale>
<asrwt>0</asrwt>
<pdfrwt beam="1">  1        1 0.32592207E+00 0.35557075E+04</pdfrwt>
<pdfrwt beam="2">  1       -1 0.22953642E+00 0.35557075E+04</pdfrwt>
<totfact> 0.19112907E-01</totfact>
</mgrwt>
</event>
<event>
 6    1  0.9512547E-007  0.2380061E+04  0.7818608E-02  0.8447006E-01
         -2   -1    0    0    0  501 -0.00000000000E+00  0.00000000000E+00  0.41703719519E+03  0.41703719519E+03  0.00000000000E+00 0.  1.
          2   -1    0    0  501    0  0.00000000000E+00 -0.00000000000E+00 -0.33957941750E+04  0.33957941750E+04  0.00000000000E+00 0. -1.
         23    2    1    2    0    0 -0.60695866517E+03  0.37988533908E+03  0.27714116234E+02  0.72226829149E+03  0.90508124389E+02 0.  0.
         13    1    3    3    0    0 -0.10231499816E+03  0.41796406398E+02  0.31155185422E+02  0.11483006581E+03  0.00000000000E+00 0.  1.
        -13    1    3    3    0    0 -0.50464366701E+03  0.33808893268E+03 -0.34410691873E+01  0.60743822568E+03  0.00000000000E+00 0. -1.
         22    1    1    2    0    0  0.60695866517E+03 -0.37988533908E+03 -0.30064710961E+04  0.30905630787E+04  0.00000000000E+00 0. -1.
<mgrwt>
<rscale>  0 0.23800609E+04</rscale>
<asrwt>0</asrwt>
<pdfrwt beam="1">  1        2 0.52242987E+00 0.23800609E+04</pdfrwt>
<pdfrwt beam="2">  1       -2 0.64159569E-01 0.23800609E+04</pdfrwt>
<totfact> 0.19439919E+00</totfact>
</mgrwt>
</event>
<event>
 6    1  0.9512547E-007  0.3409020E+04  0.7818608E-02  0.8135696E-01
         -1   -1    0    0    0  501 -0.00000000000E+00  0.00000000000E+00  0.12045065829E+04  0.12045065829E+04  0.00000000000E+00 0.  1.
          1   -1    0    0  501    0  0.00000000000E+00 -0.00000000000E+00 -0.24120696470E+04  0.24120696470E+04  0.00000000000E+00 0. -1.
         23    2    1    2    0    0 -0.14309002021E+04 -0.34963101225E+03  0.30304537661E+03  0.15066816604E+04  0.92389893735E+02 0.  0.
         11    1    3    3    0    0 -0.83942249481E+03 -0.17678784571E+03  0.13920977490E+03  0.86905893276E+03  0.00000000000E+00 0. -1.
        -11    1    3    3    0    0 -0.59147770731E+03 -0.17284316654E+03  0.16383560171E+03  0.63762272768E+03  0.00000000000E+00 0.  1.
         22    1    1    2    0    0  0.14309002021E+04  0.34963101225E+03 -0.15106084407E+04  0.21098945694E+04  0.00000000000E+00 0. -1.
<mgrwt>
<rscale>  0 0.34090197E+04</rscale>
<asrwt>0</asrwt>
<pdfrwt beam="1">  1        1 0.37108764E+00 0.34090197E+04</pdfrwt>
<pdfrwt beam="2">  1       -1 0.18530870E+00 0.34090197E+04</pdfrwt>
<totfact> 0.24430681E-01</totfact>
</mgrwt>
</event>
<event>
 6    1  0.9512547E-007  0.2691441E+04  0.7818608E-02  0.8337788E-01
          1   -1    0    0  501    0  0.00000000000E+00  0.00000000000E+00  0.16370141127E+04  0.16370141127E+04  0.00000000000E+00 0. -1.
         -1   -1    0    0    0  501 -0.00000000000E+00 -0.00000000000E+00 -0.11062599986E+04  0.11062599986E+04  0.00000000000E+00 0.  1.
         23    2    1    2    0    0 -0.75403902239E+03  0.35171248117E+03  0.13417086765E+04  0.15814118910E+04  0.91678130012E+02 0.  0.
         13    1    3    3    0    0 -0.58477225427E+03  0.26129323985E+03  0.95794868801E+03  0.11523447555E+04  0.00000000000E+00 0. -1.
        -13    1    3    3    0    0 -0.16926676811E+03  0.90419241322E+02  0.38375998854E+03  0.42906713553E+03  0.00000000000E+00 0.  1.
         22    1    1    2    0    0  0.75403902239E+03 -0.35171248117E+03 -0.81095456246E+03  0.11618622203E+04  0.00000000000E+00 0.  1.
<mgrwt>
<rscale>  0 0.26914407E+04</rscale>
<asrwt>0</asrwt>
<pdfrwt beam="1">  1        1 0.25184832E+00 0.26914407E+04</pdfrwt>
<pdfrwt beam="2">  1       -1 0.17019385E+00 0.26914407E+04</pdfrwt>
<totfact> 0.11279377E+00</totfact>
</mgrwt>
</event>
<event>
 6    1  0.9512547E-007  0.2672473E+04  0.7818608E-02  0.8343992E-01
          2   -1    0    0  501    0  0.00000000000E+00  0.00000000000E+00  0.91948003692E+03  0.91948003692E+03  0.00000000000E+00 0. -1.
         -2   -1    0    0    0  501 -0.00000000000E+00 -0.00000000000E+00 -0.19418886626E+04  0.19418886626E+04  0.00000000000E+00 0.  1.
         23    2    1    2    0    0 -0.93042252207E+03  0.99653498229E+02  0.50724660514E+03  0.10681977611E+04  0.90169002860E+02 0.  0.
         11    1    3    3    0    0 -0.79818453276E+03  0.97859341119E+02  0.46715283345E+03  0.93000363912E+03  0.00000000000E+00 0.  1.
        -11    1    3    3    0    0 -0.13223798931E+03  0.17941571106E+01  0.40093771690E+02  0.13819412197E+03  0.00000000000E+00 0. -1.
         22    1    1    2    0    0  0.93042252207E+03 -0.99653498229E+02 -0.15296552309E+04  0.17931709385E+04  0.00000000000E+00 0.  1.
<mgrwt>
<rscale>  0 0.26724729E+04</rscale>
<asrwt>0</asrwt>
<pdfrwt beam="1">  1        2 0.14145847E+00 0.26724729E+04</pdfrwt>
<pdfrwt beam="2">  1       -2 0.29875210E+00 0.26724729E+04</pdfrwt>
<totfact> 0.80917989E-01</totfact>
</mgrwt>
</event>
<event>
 6    1  0.1113741E-006  0.3152077E+04  0.7818608E-02  0.8201589E-01
         -1   -1    0    0    0  501 -0.00000000000E+00  0.00000000000E+00  0.13245669086E+04  0.13245669086E+04  0.00000000000E+00 0.  1.
          1   -1    0    0  501    0  0.00000000000E+00 -0.00000000000E+00 -0.18752530263E+04  0.18752530263E+04  0.00000000000E+00 0. -1.
         23    2    1    2    0    0 -0.54510779994E+02  0.14240645406E+04  0.40451078357E+03  0.14842056540E+04  0.91138402276E+02 0.  0.
         13    1    3    3    0    0  0.39402684746E+01  0.69893355127E+03  0.23323264582E+03  0.73683180026E+03  0.00000000000E+00 0.  1.
        -13    1    3    3    0    0 -0.58451048469E+02  0.72513098932E+03  0.17127813775E+03  0.74737385371E+03  0.00000000000E+00 0. -1.
         22    1    1    2    0    0  0.54510779994E+02 -0.14240645406E+04 -0.95519690121E+03  0.17156142809E+04  0.00000000000E+00 0. -1.
<mgrwt>
<rscale>  0 0.31520775E+04</rscale>
<asrwt>0</asrwt>
<pdfrwt beam="1">  1        1 0.28850046E+00 0.31520775E+04</pdfrwt>
<pdfrwt beam="2">  1       -1 0.20377953E+00 0.31520775E+04</pdfrwt>
<totfact> 0.43129988E-01</totfact>
</mgrwt>
</event>
<event>
 6    1  0.9512547E-007  0.3516111E+04  0.7818608E-02  0.8109982E-01
         -2   -1    0    0    0  501 -0.00000000000E+00  0.00000000000E+00  0.14703985257E+04  0.14703985257E+04  0.00000000000E+00 0.  1.
          2   -1    0    0  501    0  0.00000000000E+00 -0.00000000000E+00 -0.21019878221E+04  0.21019878221E+04  0.00000000000E+00 0. -1.
         23    2    1    2    0    0 -0.14180715657E+04  0.10369454640E+04 -0.29422618793E+03  0.17835328804E+04  0.90761364701E+02 0.  0.
         11    1    3    3    0    0 -0.48623851102E+03  0.34020114931E+03 -0.14116958136E+03  0.60999472317E+03  0.00000000000E+00 0. -1.
        -11    1    3    3    0    0 -0.93183305463E+03  0.69674431468E+03 -0.15305660657E+03  0.11735381573E+04  0.00000000000E+00 0.  1.
         22    1    1    2    0    0  0.14180715657E+04 -0.10369454640E+04 -0.33736310844E+03  0.17888534673E+04  0.00000000000E+00 0.  1.
<mgrwt>
<rscale>  0 0.35161114E+04</rscale>
<asrwt>0</asrwt>
<pdfrwt beam="1">  1        2 0.32338274E+00 0.35161114E+04</pdfrwt>
<pdfrwt beam="2">  1       -2 0.22621516E+00 0.35161114E+04</pdfrwt>
<totfact> 0.43433832E-01</totfact>
</mgrwt>
</event>
<event>
 6    1  0.9512547E-007  0.2365335E+04  0.7818608E-02  0.8452597E-01
          1   -1    0    0  501    0  0.00000000000E+00  0.00000000000E+00  0.14257344029E+04  0.14257344029E+04  0.00000000000E+00 0. -1.
         -1   -1    0    0    0  501 -0.00000000000E+00 -0.00000000000E+00 -0.98103979236E+03  0.98103979236E+03  0.00000000000E+00 0.  1.
         23    2    1    2    0    0 -0.82461301355E+03 -0.30936024384E+03  0.10231303312E+04  0.13530767693E+04  0.91272592925E+02 0.  0.
         13    1    3    3    0    0 -0.37825337035E+03 -0.18485929255E+03  0.51989352412E+03  0.66898269533E+03  0.00000000000E+00 0. -1.
        -13    1    3    3    0    0 -0.44635964320E+03 -0.12450095129E+03  0.50323680712E+03  0.68409407393E+03  0.00000000000E+00 0.  1.
         22    1    1    2    0    0  0.82461301355E+03  0.30936024384E+03 -0.57843572070E+03  0.10536974260E+04  0.00000000000E+00 0.  1.
<mgrwt>
<rscale>  0 0.23653348E+04</rscale>
<asrwt>0</asrwt>
<pdfrwt beam="1">  1        1 0.21934375E+00 0.23653348E+04</pdfrwt>
<pdfrwt beam="2">  1       -1 0.15092920E+00 0.23653348E+04</pdfrwt>
<totfact> 0.22730097E+00</totfact>
</mgrwt>
</event>
<event>
 6    1  0.9512547E-007  0.2620810E+04  0.7818608E-02  0.8361167E-01
          1   -1    0    0  501    0  0.00000000000E+00  0.00000000000E+00  0.81445668622E+03  0.81445668622E+03  0.00000000000E+00 0. -1.
         -1   -1    0    0    0  501 -0.00000000000E+00 -0.00000000000E+00 -0.21083516921E+04  0.21083516921E+04  0.00000000000E+00 0.  1.
         23    2    1    2    0    0 -0.66497755634E+03 -0.90268099141E+03  0.10537045376E+03  0.11297740927E+04  0.90875989309E+02 0.  0.
         13    1    3    3    0    0 -0.30617908860E+03 -0.41244452394E+03  0.93742626591E+02  0.52215304238E+03  0.00000000000E+00 0. -1.
        -13    1    3    3    0    0 -0.35879846774E+03 -0.49023646746E+03  0.11627827167E+02  0.60762105036E+03  0.00000000000E+00 0.  1.
         22    1    1    2    0    0  0.66497755634E+03  0.90268099141E+03 -0.13992654596E+04  0.17930342856E+04  0.00000000000E+00 0. -1.
<mgrwt>
<rscale>  0 0.26208099E+04</rscale>
<asrwt>0</asrwt>
<pdfrwt beam="1">  1        1 0.12530103E+00 0.26208099E+04</pdfrwt>
<pdfrwt beam="2">  1       -1 0.32436179E+00 0.26208099E+04</pdfrwt>
<totfact> 0.43283858E-01</totfact>
</mgrwt>
</event>
<event>
 6    1  0.9512547E-007  0.2397797E+04  0.7818608E-02  0.8440329E-01
         -2   -1    0    0    0  501 -0.00000000000E+00  0.00000000000E+00  0.13960863781E+04  0.13960863781E+04  0.00000000000E+00 0.  1.
          2   -1    0    0  501    0  0.00000000000E+00 -0.00000000000E+00 -0.10295619496E+04  0.10295619496E+04  0.00000000000E+00 0. -1.
         23    2    1    2    0    0  0.11303796191E+04  0.16017833692E+03 -0.18094764268E+03  0.11594963417E+04  0.90964465857E+02 0.  0.
         13    1    3    3    0    0  0.35073376075E+03  0.14376522958E+02 -0.79014653205E+02  0.35981129882E+03  0.00000000000E+00 0.  1.
        -13    1    3    3    0    0  0.77964585840E+03  0.14580181396E+03 -0.10193298948E+03  0.79968504289E+03  0.00000000000E+00 0. -1.
         22    1    1    2    0    0 -0.11303796191E+04 -0.16017833692E+03  0.54747207109E+03  0.12661519860E+04  0.00000000000E+00 0.  1.
<mgrwt>
<rscale>  0 0.23977968E+04</rscale>
<asrwt>0</asrwt>
<pdfrwt beam="1">  1        2 0.15839415E+00 0.23977968E+04</pdfrwt>
<pdfrwt beam="2">  1       -2 0.21478252E+00 0.23977968E+04</pdfrwt>
<totfact> 0.23136711E+00</totfact>
</mgrwt>
</event>
<event>
 6    1  0.9512547E-007  0.3328660E+04  0.7818608E-02  0.8155641E-01
         -1   -1    0    0    0  501 -0.00000000000E+00  0.00000000000E+00  0.82421316918E+03  0.82421316918E+03  0.00000000000E+00 0.  1.
          1   -1    0    0  501    0  0.00000000000E+00 -0.00000000000E+00 -0.33607735204E+04  0.33607735204E+04  0.00000000000E+00 0. -1.
         23    2    1    2    0    0 -0.12053242298E+04  0.86153159755E+03 -0.22186328561E+04  0.26696909809E+04  0.99372988463E+02 0.  0.
         11    1    3    3    0    0 -0.42564688302E+03  0.30825715349E+03 -0.87371944290E+03  0.10195996305E+04  0.00000000000E+00 0. -1.
        -11    1    3    3    0    0 -0.77967734678E+03  0.55327444406E+03 -0.13449134132E+04  0.16500913504E+04  0.00000000000E+00 0.  1.
         22    1    1    2    0    0  0.12053242298E+04 -0.86153159755E+03 -0.31792749509E+03  0.15152957086E+04  0.00000000000E+00 0.  1.
<mgrwt>
<rscale>  0 0.33286597E+04</rscale>
<asrwt>0</asrwt>
<pdfrwt beam="1">  1        1 0.51704208E+00 0.33286597E+04</pdfrwt>
<pdfrwt beam="2">  1       -1 0.12680203E+00 0.33286597E+04</pdfrwt>
<totfact> 0.14319092E-01</totfact>
</mgrwt>
</event>
<event>
 6    1  0.9512547E-007  0.3088721E+04  0.7818608E-02  0.8218840E-01
         -3   -1    0    0    0  501 -0.00000000000E+00  0.00000000000E+00  0.10494009540E+04  0.10494009540E+04  0.00000000000E+00 0.  1.
          3   -1    0    0  501    0  0.00000000000E+00 -0.00000000000E+00 -0.22727727509E+04  0.22727727509E+04  0.00000000000E+00 0. -1.
         23    2    1    2    0    0 -0.12089196062E+04 -0.62477029388E+03  0.17010067613E+03  0.13744596429E+04  0.91545265454E+02 0.  0.
         11    1    3    3    0    0 -0.33639336509E+03 -0.13503735808E+03  0.23996040876E+02  0.36327867282E+03  0.00000000000E+00 0. -1.
        -11    1    3    3    0    0 -0.87252624109E+03 -0.48973293581E+03  0.14610463525E+03  0.10111809701E+04  0.00000000000E+00 0.  1.
         22    1    1    2    0    0  0.12089196062E+04  0.62477029388E+03 -0.13934724730E+04  0.19477140620E+04  0.00000000000E+00 0. -1.
<mgrwt>
<rscale>  0 0.30887213E+04</rscale>
<asrwt>0</asrwt>
<pdfrwt beam="1">  1        3 0.34965734E+00 0.30887213E+04</pdfrwt>
<pdfrwt beam="2">  1       -3 0.16144630E+00 0.30887213E+04</pdfrwt>
<totfact> 0.12131986E-02</totfact>
</mgrwt>
</event>
<event>
 6    1  0.9512547E-007  0.1082650E+04  0.7818608E-02  0.9222269E-01
         -1   -1    0    0    0  501 -0.00000000000E+00  0.00000000000E+00  0.41862816614E+03  0.41862816614E+03  0.00000000000E+00 0.  1.
          1   -1    0    0  501    0  0.00000000000E+00 -0.00000000000E+00 -0.69998316797E+03  0.69998316797E+03  0.00000000000E+00 0. -1.
         23    2    1    2    0    0  0.41293045163E+03 -0.67456819872E+02 -0.49026771967E+03  0.65095066214E+03  0.91172074376E+02 0.  0.
         13    1    3    3    0    0  0.97219635241E+01 -0.19935615707E+02 -0.23389311213E+02  0.32233604009E+02  0.00000000000E+00 0. -1.
        -13    1    3    3    0    0  0.40320848811E+03 -0.47521204165E+02 -0.46687840846E+03  0.61871705813E+03  0.00000000000E+00 0.  1.
         22    1    1    2    0    0 -0.41293045163E+03  0.67456819872E+02  0.20891271785E+03  0.46766067198E+03  0.00000000000E+00 0.  1.
<mgrwt>
<rscale>  0 0.10826498E+04</rscale>
<asrwt>0</asrwt>
<pdfrwt beam="1">  1        1 0.10768972E+00 0.10826498E+04</pdfrwt>
<pdfrwt beam="2">  1       -1 0.64404333E-01 0.10826498E+04</pdfrwt>
<totfact> 0.66462263E+01</totfact>
</mgrwt>
</event>
<event>
 6    1  0.9512547E-007  0.5156452E+04  0.7818608E-02  0.7804816E-01
          2   -1    0    0  501    0  0.00000000000E+00  0.00000000000E+00  0.40531143250E+04  0.40531143250E+04  0.00000000000E+00 0. -1.
         -2   -1    0    0    0  501 -0.00000000000E+00 -0.00000000000E+00 -0.16400347491E+04  0.16400347491E+04  0.00000000000E+00 0.  1.
         23    2    1    2    0    0  0.19017517102E+03  0.20172047137E+04  0.29658769425E+04  0.35929428030E+04  0.86778422740E+02 0.  0.
         11    1    3    3    0    0  0.50415565880E+02  0.78310156706E+03  0.12112586401E+04  0.14432384719E+04  0.00000000000E+00 0. -1.
        -11    1    3    3    0    0  0.13975960514E+03  0.12341031467E+04  0.17546183024E+04  0.21497043311E+04  0.00000000000E+00 0.  1.
         22    1    1    2    0    0 -0.19017517102E+03 -0.20172047137E+04 -0.55279736667E+03  0.21002062711E+04  0.00000000000E+00 0.  1.
<mgrwt>
<rscale>  0 0.51564516E+04</rscale>
<asrwt>0</asrwt>
<pdfrwt beam="1">  1        2 0.62355605E+00 0.51564516E+04</pdfrwt>
<pdfrwt beam="2">  1       -2 0.25231304E+00 0.51564516E+04</pdfrwt>
<totfact> 0.13771820E-02</totfact>
</mgrwt>
</event>
<event>
 6    1  0.9512547E-007  0.1655240E+04  0.7818608E-02  0.8787312E-01
         -1   -1    0    0    0  501 -0.00000000000E+00  0.00000000000E+00  0.10931401247E+04  0.10931401247E+04  0.00000000000E+00 0.  1.
          1   -1    0    0  501    0  0.00000000000E+00 -0.00000000000E+00 -0.62659402235E+03  0.62659402235E+03  0.00000000000E+00 0. -1.
         23    2    1    2    0    0  0.53683394142E+02  0.78271842702E+03  0.49939503797E+03  0.93448953839E+03  0.91352343128E+02 0.  0.
         11    1    3    3    0    0 -0.12408051619E+02  0.34581694114E+03  0.18693898868E+03  0.39330586318E+03  0.00000000000E+00 0. -1.
        -11    1    3    3    0    0  0.66091445761E+02  0.43690148589E+03  0.31245604929E+03  0.54118367521E+03  0.00000000000E+00 0.  1.
         22    1    1    2    0    0 -0.53683394142E+02 -0.78271842702E+03 -0.32848935656E+02  0.78524460863E+03  0.00000000000E+00 0. -1.
<mgrwt>
<rscale>  0 0.16552402E+04</rscale>
<asrwt>0</asrwt>
<pdfrwt beam="1">  1        1 0.96399081E-01 0.16552402E+04</pdfrwt>
<pdfrwt beam="2">  1       -1 0.16817540E+00 0.16552402E+04</pdfrwt>
<totfact> 0.77938166E+00</totfact>
</mgrwt>
</event>
<event>
 6    1  0.9512547E-007  0.6188200E+04  0.7818608E-02  0.7667495E-01
          2   -1    0    0  501    0  0.00000000000E+00  0.00000000000E+00  0.34528577735E+04  0.34528577735E+04  0.00000000000E+00 0. -1.
         -2   -1    0    0    0  501 -0.00000000000E+00 -0.00000000000E+00 -0.27726175146E+04  0.27726175146E+04  0.00000000000E+00 0.  1.
         23    2    1    2    0    0 -0.13314944367E+04  0.24525265463E+04 -0.10025244386E+04  0.29667238519E+04  0.92904618649E+02 0.  0.
         13    1    3    3    0    0 -0.42348930877E+03  0.73286324979E+03 -0.34274467559E+03  0.91318434622E+03  0.00000000000E+00 0. -1.
        -13    1    3    3    0    0 -0.90800512797E+03  0.17196632965E+04 -0.65977976305E+03  0.20535395057E+04  0.00000000000E+00 0.  1.
         22    1    1    2    0    0  0.13314944367E+04 -0.24525265463E+04  0.16827646976E+04  0.32587514362E+04  0.00000000000E+00 0. -1.
<mgrwt>
<rscale>  0 0.61881997E+04</rscale>
<asrwt>0</asrwt>
<pdfrwt beam="1">  1        2 0.53120889E+00 0.61881997E+04</pdfrwt>
<pdfrwt beam="2">  1       -2 0.42655654E+00 0.61881997E+04</pdfrwt>
<totfact> 0.28894914E-03</totfact>
</mgrwt>
</event>
<event>
 6    1  0.9512547E-007  0.1490981E+04  0.7818608E-02  0.8890473E-01
          2   -1    0    0  501    0  0.00000000000E+00  0.00000000000E+00  0.17407630629E+04  0.17407630629E+04  0.00000000000E+00 0. -1.
         -2   -1    0    0    0  501 -0.00000000000E+00 -0.00000000000E+00 -0.31925993508E+03  0.31925993508E+03  0.00000000000E+00 0.  1.
         23    2    1    2    0    0  0.24361220760E+03 -0.41242853571E+03  0.14977612297E+04  0.15749874293E+04  0.88614312505E+02 0.  0.
         13    1    3    3    0    0  0.77659313517E+02 -0.15706519567E+03  0.42152862170E+03  0.45649405646E+03  0.00000000000E+00 0. -1.
        -13    1    3    3    0    0  0.16595289408E+03 -0.25536334005E+03  0.10762326080E+04  0.11184933728E+04  0.00000000000E+00 0.  1.
         22    1    1    2    0    0 -0.24361220760E+03  0.41242853571E+03 -0.76258101940E+02  0.48503556867E+03  0.00000000000E+00 0.  1.
<mgrwt>
<rscale>  0 0.14909808E+04</rscale>
<asrwt>0</asrwt>
<pdfrwt beam="1">  1        2 0.26780970E+00 0.14909808E+04</pdfrwt>
<pdfrwt beam="2">  1       -2 0.49116914E-01 0.14909808E+04</pdfrwt>
<totfact> 0.35313326E+01</totfact>
</mgrwt>
</event>
<event>
 6    1  0.9512547E-007  0.5486967E+04  0.7818608E-02  0.7757485E-01
          1   -1    0    0  501    0  0.00000000000E+00  0.00000000000E+00  0.16401713732E+04  0.16401713732E+04  0.00000000000E+00 0. -1.
         -1   -1    0    0    0  501 -0.00000000000E+00 -0.00000000000E+00 -0.45889732422E+04  0.45889732422E+04  0.00000000000E+00 0.  1.
         23    2    1    2    0    0 -0.26105018501E+04 -0.97016560120E+02 -0.52606456716E+03  0.26663103284E+04  0.91294667683E+02 0.  0.
         13    1    3    3    0    0 -0.16946145953E+04 -0.10581589668E+03 -0.34991060335E+03  0.17335954144E+04  0.00000000000E+00 0.  1.
        -13    1    3    3    0    0 -0.91588725481E+03  0.87993365622E+01 -0.17615396381E+03  0.93271491401E+03  0.00000000000E+00 0. -1.
         22    1    1    2    0    0  0.26105018501E+04  0.97016560120E+02 -0.24227373019E+04  0.35628342870E+04  0.00000000000E+00 0.  1.
<mgrwt>
<rscale>  0 0.54869673E+04</rscale>
<asrwt>0</asrwt>
<pdfrwt beam="1">  1        1 0.25233406E+00 0.54869673E+04</pdfrwt>
<pdfrwt beam="2">  1       -1 0.70599588E+00 0.54869673E+04</pdfrwt>
<totfact> 0.70314563E-04</totfact>
</mgrwt>
</event>
<event>
 6    1  0.9512547E-007  0.4008163E+04  0.7818608E-02  0.8002902E-01
         -2   -1    0    0    0  501 -0.00000000000E+00  0.00000000000E+00  0.30301521895E+04  0.30301521895E+04  0.00000000000E+00 0.  1.
          2   -1    0    0  501    0  0.00000000000E+00 -0.00000000000E+00 -0.13254589682E+04  0.13254589682E+04  0.00000000000E+00 0. -1.
         23    2    1    2    0    0  0.19582448980E+04  0.31299039849E+03  0.11593368229E+04  0.22988905468E+04  0.90276281990E+02 0.  0.
         11    1    3    3    0    0  0.50384005908E+03  0.77868867160E+02  0.25302331407E+03  0.56915653653E+03  0.00000000000E+00 0. -1.
        -11    1    3    3    0    0  0.14544048389E+04  0.23512153133E+03  0.90631350885E+03  0.17297340102E+04  0.00000000000E+00 0.  1.
         22    1    1    2    0    0 -0.19582448980E+04 -0.31299039849E+03  0.54535639844E+03  0.20567206109E+04  0.00000000000E+00 0. -1.
<mgrwt>
<rscale>  0 0.40081629E+04</rscale>
<asrwt>0</asrwt>
<pdfrwt beam="1">  1        2 0.20391677E+00 0.40081629E+04</pdfrwt>
<pdfrwt beam="2">  1       -2 0.46617726E+00 0.40081629E+04</pdfrwt>
<totfact> 0.34220194E-02</totfact>
</mgrwt>
</event>
<event>
 6    1  0.9512547E-007  0.2231330E+04  0.7818608E-02  0.8505500E-01
          2   -1    0    0  501    0  0.00000000000E+00  0.00000000000E+00  0.16729132267E+04  0.16729132267E+04  0.00000000000E+00 0. -1.
         -2   -1    0    0    0  501 -0.00000000000E+00 -0.00000000000E+00 -0.74403668573E+03  0.74403668573E+03  0.00000000000E+00 0.  1.
         23    2    1    2    0    0 -0.67697154235E+03 -0.30450517185E+03  0.13647514155E+04  0.15561358936E+04  0.89435029080E+02 0.  0.
         11    1    3    3    0    0 -0.10083559987E+03 -0.68056565502E+02  0.28079097429E+03  0.30601157748E+03  0.00000000000E+00 0.  1.
        -11    1    3    3    0    0 -0.57613594248E+03 -0.23644860635E+03  0.10839604412E+04  0.12501243161E+04  0.00000000000E+00 0. -1.
         22    1    1    2    0    0  0.67697154235E+03  0.30450517185E+03 -0.43587487450E+03  0.86081401885E+03  0.00000000000E+00 0.  1.
<mgrwt>
<rscale>  0 0.22313304E+04</rscale>
<asrwt>0</asrwt>
<pdfrwt beam="1">  1        2 0.25737127E+00 0.22313304E+04</pdfrwt>
<pdfrwt beam="2">  1       -2 0.11446718E+00 0.22313304E+04</pdfrwt>
<totfact> 0.55212564E+00</totfact>
</mgrwt>
</event>
<event>
 6    1  0.9512547E-007  0.1398167E+04  0.7818608E-02  0.8955146E-01
         -2   -1    0    0    0  501 -0.00000000000E+00  0.00000000000E+00  0.38845515738E+03  0.38845515738E+03  0.00000000000E+00 0.  1.
          2   -1    0    0  501    0  0.00000000000E+00 -0.00000000000E+00 -0.12581065293E+04  0.12581065293E+04  0.00000000000E+00 0. -1.
         23    2    1    2    0    0  0.15290685048E+03 -0.28437891774E+03 -0.11629572175E+04  0.12103505075E+04  0.90702742960E+02 0.  0.
         13    1    3    3    0    0  0.12975137786E+03 -0.15112227054E+03 -0.73653471956E+03  0.76299197494E+03  0.00000000000E+00 0. -1.
        -13    1    3    3    0    0  0.23155472622E+02 -0.13325664720E+03 -0.42642249795E+03  0.44735853260E+03  0.00000000000E+00 0.  1.
         22    1    1    2    0    0 -0.15290685048E+03  0.28437891774E+03  0.29330584557E+03  0.43621117916E+03  0.00000000000E+00 0.  1.
<mgrwt>
<rscale>  0 0.13981673E+04</rscale>
<asrwt>0</asrwt>
<pdfrwt beam="1">  1        2 0.19355485E+00 0.13981673E+04</pdfrwt>
<pdfrwt beam="2">  1       -2 0.59762332E-01 0.13981673E+04</pdfrwt>
<totfact> 0.44474591E+01</totfact>
</mgrwt>
</event>
<event>
 6    1  0.9512547E-007  0.4925104E+03  0.7818608E-02  0.1015753E+00
         -2   -1    0    0    0  501 -0.00000000000E+00  0.00000000000E+00  0.26140018132E+03  0.26140018132E+03  0.00000000000E+00 0.  1.
          2   -1    0    0  501    0  0.00000000000E+00 -0.00000000000E+00 -0.23198767154E+03  0.23198767154E+03  0.00000000000E+00 0. -1.
         23    2    1    2    0    0 -0.16746572397E+03  0.16415553307E+02  0.18358776206E+03  0.26516811771E+03  0.91079224715E+02 0.  0.
         13    1    3    3    0    0 -0.34249383836E+02 -0.31991609813E+02  0.27544051085E+02  0.54361366261E+02  0.00000000000E+00 0. -1.
        -13    1    3    3    0    0 -0.13321634013E+03  0.48407163121E+02  0.15604371098E+03  0.21080675144E+03  0.00000000000E+00 0.  1.
         22    1    1    2    0    0  0.16746572397E+03 -0.16415553307E+02 -0.15417525228E+03  0.22821973515E+03  0.00000000000E+00 0. -1.
<mgrwt>
<rscale>  0 0.49251038E+03</rscale>
<asrwt>0</asrwt>
<pdfrwt beam="1">  1        2 0.35690411E-01 0.49251038E+03</pdfrwt>
<pdfrwt beam="2">  1       -2 0.40215413E-01 0.49251038E+03</pdfrwt>
<totfact> 0.85904532E+02</totfact>
</mgrwt>
</event>
<event>
 6    1  0.9512547E-007  0.1470047E+04  0.7818608E-02  0.8904619E-01
         -1   -1    0    0    0  501 -0.00000000000E+00  0.00000000000E+00  0.24266012229E+03  0.24266012229E+03  0.00000000000E+00 0.  1.
          1   -1    0    0  501    0  0.00000000000E+00 -0.00000000000E+00 -0.22264052486E+04  0.22264052486E+04  0.00000000000E+00 0. -1.
         23    2    1    2    0    0  0.13696224124E+03  0.34997841581E+03  0.60692635564E+02  0.39037123531E+03  0.86386100118E+02 0.  0.
         11    1    3    3    0    0  0.21869398640E+02  0.17344177891E+03  0.31188603194E+02  0.17757547758E+03  0.00000000000E+00 0. -1.
        -11    1    3    3    0    0  0.11509284260E+03  0.17653663690E+03  0.29504032370E+02  0.21279575774E+03  0.00000000000E+00 0.  1.
         22    1    1    2    0    0 -0.13696224124E+03 -0.34997841581E+03 -0.20444377619E+04  0.20786941356E+04  0.00000000000E+00 0. -1.
<mgrwt>
<rscale>  0 0.14700473E+04</rscale>
<asrwt>0</asrwt>
<pdfrwt beam="1">  1        1 0.34252389E+00 0.14700473E+04</pdfrwt>
<pdfrwt beam="2">  1       -1 0.37332326E-01 0.14700473E+04</pdfrwt>
<totfact> 0.14019639E+01</totfact>
</mgrwt>
</event>
<event>
 6    1  0.9512547E-007  0.1247992E+04  0.7818608E-02  0.9071856E-01
         -2   -1    0    0    0  501 -0.00000000000E+00  0.00000000000E+00  0.54488096038E+03  0.54488096038E+03  0.00000000000E+00 0.  1.
          2   -1    0    0  501    0  0.00000000000E+00 -0.00000000000E+00 -0.71459811484E+03  0.71459811484E+03  0.00000000000E+00 0. -1.
         23    2    1    2    0    0 -0.33515664488E+03 -0.45299620171E+03 -0.34792412499E+03  0.66846870330E+03  0.90904758840E+02 0.  0.
         13    1    3    3    0    0 -0.21204230582E+03 -0.30059683118E+03 -0.27553225376E+03  0.45960680721E+03  0.00000000000E+00 0. -1.
        -13    1    3    3    0    0 -0.12311433906E+03 -0.15239937053E+03 -0.72391871227E+02  0.20886189609E+03  0.00000000000E+00 0.  1.
         22    1    1    2    0    0  0.33515664488E+03  0.45299620171E+03  0.17820697054E+03  0.59101037192E+03  0.00000000000E+00 0.  1.
<mgrwt>
<rscale>  0 0.12479918E+04</rscale>
<asrwt>0</asrwt>
<pdfrwt beam="1">  1        2 0.10993817E+00 0.12479918E+04</pdfrwt>
<pdfrwt beam="2">  1       -2 0.83827840E-01 0.12479918E+04</pdfrwt>
<totfact> 0.48842665E+01</totfact>
</mgrwt>
</event>
<event>
 6    1  0.9512547E-007  0.2879347E+04  0.7818608E-02  0.8279049E-01
          2   -1    0    0  501    0  0.00000000000E+00  0.00000000000E+00  0.14953844405E+04  0.14953844405E+04  0.00000000000E+00 0. -1.
         -2   -1    0    0    0  501 -0.00000000000E+00 -0.00000000000E+00 -0.13860377389E+04  0.13860377389E+04  0.00000000000E+00 0.  1.
         23    2    1    2    0    0  0.12541046891E+03 -0.24918958917E+03 -0.13571974822E+04  0.13885809018E+04  0.91371100806E+02 0.  0.
         13    1    3    3    0    0  0.35464636908E+02 -0.25797844884E+02 -0.11140937723E+03  0.11973019087E+03  0.00000000000E+00 0. -1.
        -13    1    3    3    0    0  0.89945832003E+02 -0.22339174428E+03 -0.12457881049E+04  0.12688507109E+04  0.00000000000E+00 0.  1.
         22    1    1    2    0    0 -0.12541046891E+03  0.24918958917E+03  0.14665441838E+04  0.14928412776E+04  0.00000000000E+00 0. -1.
<mgrwt>
<rscale>  0 0.28793466E+04</rscale>
<asrwt>0</asrwt>
<pdfrwt beam="1">  1        2 0.23005914E+00 0.28793466E+04</pdfrwt>
<pdfrwt beam="2">  1       -2 0.21323657E+00 0.28793466E+04</pdfrwt>
<totfact> 0.12051623E+00</totfact>
</mgrwt>
</event>
<event>
 6    1  0.9512547E-007  0.2387988E+04  0.7818608E-02  0.8444014E-01
         -2   -1    0    0    0  501 -0.00000000000E+00  0.00000000000E+00  0.72040253641E+03  0.72040253641E+03  0.00000000000E+00 0.  1.
          2   -1    0    0  501    0  0.00000000000E+00 -0.00000000000E+00 -0.19789232900E+04  0.19789232900E+04  0.00000000000E+00 0. -1.
         23    2    1    2    0    0  0.40745219730E+03 -0.82048868738E+03  0.23282145143E+03  0.94909139877E+03  0.85730250072E+02 0.  0.
         13    1    3    3    0    0  0.16780889950E+03 -0.39385643953E+03  0.72803025295E+02  0.43426144453E+03  0.00000000000E+00 0. -1.
        -13    1    3    3    0    0  0.23964329780E+03 -0.42663224784E+03  0.16001842614E+03  0.51482995424E+03  0.00000000000E+00 0.  1.
         22    1    1    2    0    0 -0.40745219730E+03  0.82048868738E+03 -0.14913422050E+04  0.17502344276E+04  0.00000000000E+00 0. -1.
<mgrwt>
<rscale>  0 0.23879877E+04</rscale>
<asrwt>0</asrwt>
<pdfrwt beam="1">  1        2 0.30444973E+00 0.23879877E+04</pdfrwt>
<pdfrwt beam="2">  1       -2 0.11083116E+00 0.23879877E+04</pdfrwt>
<totfact> 0.39858361E+00</totfact>
</mgrwt>
</event>
<event>
 6    1  0.9512547E-007  0.4450401E+04  0.7818608E-02  0.7919378E-01
          1   -1    0    0  501    0  0.00000000000E+00  0.00000000000E+00  0.34088100587E+04  0.34088100587E+04  0.00000000000E+00 0. -1.
         -1   -1    0    0    0  501 -0.00000000000E+00 -0.00000000000E+00 -0.14525645844E+04  0.14525645844E+04  0.00000000000E+00 0.  1.
         23    2    1    2    0    0 -0.92421715234E+03  0.91126298307E+03  0.29516168912E+04  0.32257274236E+04  0.93260763645E+02 0.  0.
         13    1    3    3    0    0 -0.47469012286E+03  0.47892493148E+03  0.14191829701E+04  0.15712352165E+04  0.00000000000E+00 0. -1.
        -13    1    3    3    0    0 -0.44952702948E+03  0.43233805159E+03  0.15324339211E+04  0.16544922071E+04  0.00000000000E+00 0.  1.
         22    1    1    2    0    0  0.92421715234E+03 -0.91126298307E+03 -0.99537141697E+03  0.16356472195E+04  0.00000000000E+00 0.  1.
<mgrwt>
<rscale>  0 0.44504008E+04</rscale>
<asrwt>0</asrwt>
<pdfrwt beam="1">  1        1 0.52443232E+00 0.44504008E+04</pdfrwt>
<pdfrwt beam="2">  1       -1 0.22347147E+00 0.44504008E+04</pdfrwt>
<totfact> 0.23154898E-02</totfact>
</mgrwt>
</event>
<event>
 6    1  0.9512547E-007  0.2581015E+04  0.7818608E-02  0.8374679E-01
         -2   -1    0    0    0  501 -0.00000000000E+00  0.00000000000E+00  0.14307975460E+04  0.14307975460E+04  0.00000000000E+00 0.  1.
          2   -1    0    0  501    0  0.00000000000E+00 -0.00000000000E+00 -0.11639730671E+04  0.11639730671E+04  0.00000000000E+00 0. -1.
         23    2    1    2    0    0 -0.91668730754E+03  0.90276685552E+03  0.21020012677E+03  0.13069391286E+04  0.92747923420E+02 0.  0.
         13    1    3    3    0    0 -0.10279488814E+03  0.13232800554E+03  0.52847016580E+01  0.16764670635E+03  0.00000000000E+00 0. -1.
        -13    1    3    3    0    0 -0.81389241939E+03  0.77043884998E+03  0.20491542511E+03  0.11392924222E+04  0.00000000000E+00 0.  1.
         22    1    1    2    0    0  0.91668730754E+03 -0.90276685552E+03  0.56624352141E+02  0.12878314845E+04  0.00000000000E+00 0.  1.
<mgrwt>
<rscale>  0 0.25810152E+04</rscale>
<asrwt>0</asrwt>
<pdfrwt beam="1">  1        2 0.17907278E+00 0.25810152E+04</pdfrwt>
<pdfrwt beam="2">  1       -2 0.22012270E+00 0.25810152E+04</pdfrwt>
<totfact> 0.17401774E+00</totfact>
</mgrwt>
</event>
<event>
 6    1  0.1199363E-006  0.2827931E+04  0.7818608E-02  0.8294649E-01
         -2   -1    0    0    0  501 -0.00000000000E+00  0.00000000000E+00  0.10089328296E+04  0.10089328296E+04  0.00000000000E+00 0.  1.
          2   -1    0    0  501    0  0.00000000000E+00 -0.00000000000E+00 -0.19815975187E+04  0.19815975187E+04  0.00000000000E+00 0. -1.
         23    2    1    2    0    0 -0.12850074532E+04 -0.97122190783E+02  0.12594990170E+03  0.12971222776E+04  0.77368925497E+02 0.  0.
         13    1    3    3    0    0 -0.73463370751E+03 -0.24910495438E+02  0.94997688919E+02  0.74116919653E+03  0.00000000000E+00 0.  1.
        -13    1    3    3    0    0 -0.55037374567E+03 -0.72211695344E+02  0.30952212784E+02  0.55595308106E+03  0.00000000000E+00 0. -1.
         22    1    1    2    0    0  0.12850074532E+04  0.97122190783E+02 -0.10986145909E+04  0.16934080707E+04  0.00000000000E+00 0.  1.
<mgrwt>
<rscale>  0 0.28279313E+04</rscale>
<asrwt>0</asrwt>
<pdfrwt beam="1">  1        2 0.30486116E+00 0.28279313E+04</pdfrwt>
<pdfrwt beam="2">  1       -2 0.15522044E+00 0.28279313E+04</pdfrwt>
<totfact> 0.16242697E+00</totfact>
</mgrwt>
</event>
<event>
 6    1  0.9512547E-007  0.3173139E+04  0.7818608E-02  0.8195947E-01
         -1   -1    0    0    0  501 -0.00000000000E+00  0.00000000000E+00  0.17052475587E+04  0.17052475587E+04  0.00000000000E+00 0.  1.
          1   -1    0    0  501    0  0.00000000000E+00 -0.00000000000E+00 -0.14761512979E+04  0.14761512979E+04  0.00000000000E+00 0. -1.
         23    2    1    2    0    0  0.80173629937E+03  0.13141513161E+04 -0.26489018300E+03  0.15646745814E+04  0.90911832254E+02 0.  0.
         11    1    3    3    0    0  0.97139526175E+02  0.21563651699E+03 -0.26061660774E+02  0.23793781786E+03  0.00000000000E+00 0. -1.
        -11    1    3    3    0    0  0.70459677319E+03  0.10985147991E+04 -0.23882852222E+03  0.13267367635E+04  0.00000000000E+00 0.  1.
         22    1    1    2    0    0 -0.80173629937E+03 -0.13141513161E+04  0.49398644372E+03  0.16167242752E+04  0.00000000000E+00 0. -1.
<mgrwt>
<rscale>  0 0.31731394E+04</rscale>
<asrwt>0</asrwt>
<pdfrwt beam="1">  1        1 0.22710020E+00 0.31731394E+04</pdfrwt>
<pdfrwt beam="2">  1       -1 0.26234578E+00 0.31731394E+04</pdfrwt>
<totfact> 0.33014719E-01</totfact>
</mgrwt>
</event>
<event>
 6    1  0.9512547E-007  0.1708440E+04  0.7818608E-02  0.8756565E-01
         -2   -1    0    0    0  501 -0.00000000000E+00  0.00000000000E+00  0.17843769451E+03  0.17843769451E+03  0.00000000000E+00 0.  1.
          2   -1    0    0  501    0  0.00000000000E+00 -0.00000000000E+00 -0.40893374638E+04  0.40893374638E+04  0.00000000000E+00 0. -1.
         23    2    1    2    0    0 -0.60105924695E+03  0.54225942983E+03 -0.26206410545E+04  0.27445926155E+04  0.98547354282E+02 0.  0.
         11    1    3    3    0    0 -0.32538610426E+03  0.28812437775E+03 -0.12406782685E+04  0.13146004487E+04  0.00000000000E+00 0. -1.
        -11    1    3    3    0    0 -0.27567314269E+03  0.25413505207E+03 -0.13799627860E+04  0.14299921668E+04  0.00000000000E+00 0.  1.
         22    1    1    2    0    0  0.60105924695E+03 -0.54225942983E+03 -0.12902587148E+04  0.15231825428E+04  0.00000000000E+00 0.  1.
<mgrwt>
<rscale>  0 0.17084402E+04</rscale>
<asrwt>0</asrwt>
<pdfrwt beam="1">  1        2 0.62912884E+00 0.17084402E+04</pdfrwt>
<pdfrwt beam="2">  1       -2 0.27451953E-01 0.17084402E+04</pdfrwt>
<totfact> 0.33831608E+00</totfact>
</mgrwt>
</event>
<event>
 6    1  0.9512547E-007  0.1259520E+04  0.7818608E-02  0.9062297E-01
          1   -1    0    0  501    0  0.00000000000E+00  0.00000000000E+00  0.70708894184E+03  0.70708894184E+03  0.00000000000E+00 0. -1.
         -1   -1    0    0    0  501 -0.00000000000E+00 -0.00000000000E+00 -0.56088808715E+03  0.56088808715E+03  0.00000000000E+00 0.  1.
         23    2    1    2    0    0 -0.41751797414E+03  0.38280692380E+03  0.34298508277E+03  0.66832176798E+03  0.90292961564E+02 0.  0.
         11    1    3    3    0    0 -0.28750277885E+03  0.28686203967E+03  0.20070067158E+03  0.45302145338E+03  0.00000000000E+00 0.  1.
        -11    1    3    3    0    0 -0.13001519529E+03  0.95944884127E+02  0.14228441119E+03  0.21530031459E+03  0.00000000000E+00 0. -1.
         22    1    1    2    0    0  0.41751797414E+03 -0.38280692380E+03 -0.19678422808E+03  0.59965526102E+03  0.00000000000E+00 0.  1.
<mgrwt>
<rscale>  0 0.12595202E+04</rscale>
<asrwt>0</asrwt>
<pdfrwt beam="1">  1        1 0.10878292E+00 0.12595202E+04</pdfrwt>
<pdfrwt beam="2">  1       -1 0.86290474E-01 0.12595202E+04</pdfrwt>
<totfact> 0.35046365E+01</totfact>
</mgrwt>
</event>
<event>
 6    1  0.9512547E-007  0.1128973E+04  0.7818608E-02  0.9177404E-01
         -1   -1    0    0    0  501 -0.00000000000E+00  0.00000000000E+00  0.56706715014E+03  0.56706715014E+03  0.00000000000E+00 0.  1.
          1   -1    0    0  501    0  0.00000000000E+00 -0.00000000000E+00 -0.56191729872E+03  0.56191729872E+03  0.00000000000E+00 0. -1.
         23    2    1    2    0    0  0.98086105687E+02 -0.20756048478E+01  0.55432751861E+03  0.57111232874E+03  0.96255399226E+02 0.  0.
         11    1    3    3    0    0  0.79462270286E+02 -0.23912026595E+02  0.21320499334E+03  0.22878462929E+03  0.00000000000E+00 0. -1.
        -11    1    3    3    0    0  0.18623835402E+02  0.21836421747E+02  0.34112252527E+03  0.34232769944E+03  0.00000000000E+00 0.  1.
         22    1    1    2    0    0 -0.98086105687E+02  0.20756048478E+01 -0.54917766719E+03  0.55787212012E+03  0.00000000000E+00 0. -1.
<mgrwt>
<rscale>  0 0.11289727E+04</rscale>
<asrwt>0</asrwt>
<pdfrwt beam="1">  1        1 0.86448815E-01 0.11289727E+04</pdfrwt>
<pdfrwt beam="2">  1       -1 0.87241100E-01 0.11289727E+04</pdfrwt>
<totfact> 0.48439735E+01</totfact>
</mgrwt>
</event>
<event>
 6    1  0.9512547E-007  0.3895423E+04  0.7818608E-02  0.8025982E-01
         -2   -1    0    0    0  501 -0.00000000000E+00  0.00000000000E+00  0.16860171678E+04  0.16860171678E+04  0.00000000000E+00 0.  1.
          2   -1    0    0  501    0  0.00000000000E+00 -0.00000000000E+00 -0.22500242382E+04  0.22500242382E+04  0.00000000000E+00 0. -1.
         23    2    1    2    0    0 -0.87242105591E+03  0.59857988815E+03 -0.19332295084E+04  0.22056696348E+04  0.90475545755E+02 0.  0.
         13    1    3    3    0    0 -0.42336149826E+03  0.28279814888E+03 -0.10234448667E+04  0.11430875497E+04  0.00000000000E+00 0.  1.
        -13    1    3    3    0    0 -0.44905955765E+03  0.31578173927E+03 -0.90978464178E+03  0.10625820851E+04  0.00000000000E+00 0. -1.
         22    1    1    2    0    0  0.87242105591E+03 -0.59857988815E+03  0.13692224380E+04  0.17303717711E+04  0.00000000000E+00 0.  1.
<mgrwt>
<rscale>  0 0.38954227E+04</rscale>
<asrwt>0</asrwt>
<pdfrwt beam="1">  1        2 0.34615757E+00 0.38954227E+04</pdfrwt>
<pdfrwt beam="2">  1       -2 0.25938726E+00 0.38954227E+04</pdfrwt>
<totfact> 0.21666795E-01</totfact>
</mgrwt>
</event>
<event>
 6    1  0.9512547E-007  0.4264423E+04  0.7818608E-02  0.7953230E-01
         -2   -1    0    0    0  501 -0.00000000000E+00  0.00000000000E+00  0.85984713166E+03  0.85984713166E+03  0.00000000000E+00 0.  1.
          2   -1    0    0  501    0  0.00000000000E+00 -0.00000000000E+00 -0.52873651119E+04  0.52873651119E+04  0.00000000000E+00 0. -1.
         23    2    1    2    0    0  0.23223285519E+03  0.66644619029E+03 -0.51136397194E+04  0.51629126629E+04  0.90958019893E+02 0.  0.
         13    1    3    3    0    0  0.80636279244E+02  0.24093148473E+03 -0.15362804796E+04  0.15571473603E+04  0.00000000000E+00 0.  1.
        -13    1    3    3    0    0  0.15159657595E+03  0.42551470557E+03 -0.35773592398E+04  0.36057653025E+04  0.00000000000E+00 0. -1.
         22    1    1    2    0    0 -0.23223285519E+03 -0.66644619029E+03  0.68612173914E+03  0.98429958067E+03  0.00000000000E+00 0.  1.
<mgrwt>
<rscale>  0 0.42644229E+04</rscale>
<asrwt>0</asrwt>
<pdfrwt beam="1">  1        2 0.81344079E+00 0.42644229E+04</pdfrwt>
<pdfrwt beam="2">  1       -2 0.13228417E+00 0.42644229E+04</pdfrwt>
<totfact> 0.43014687E-03</totfact>
</mgrwt>
</event>
<event>
 6    1  0.9512547E-007  0.4308240E+04  0.7818608E-02  0.7945096E-01
          2   -1    0    0  501    0  0.00000000000E+00  0.00000000000E+00  0.10883601870E+04  0.10883601870E+04  0.00000000000E+00 0. -1.
         -2   -1    0    0    0  501 -0.00000000000E+00 -0.00000000000E+00 -0.42635090637E+04  0.42635090637E+04  0.00000000000E+00 0.  1.
         23    2    1    2    0    0  0.20610513834E+04 -0.61951936453E+03 -0.16695027045E+04  0.27253301887E+04  0.91914683743E+02 0.  0.
         13    1    3    3    0    0  0.14242964269E+04 -0.39174523091E+03 -0.11138766002E+04  0.18500826247E+04  0.00000000000E+00 0. -1.
        -13    1    3    3    0    0  0.63675495652E+03 -0.22777413361E+03 -0.55562610435E+03  0.87524756408E+03  0.00000000000E+00 0.  1.
         22    1    1    2    0    0 -0.20610513834E+04  0.61951936453E+03 -0.15056461722E+04  0.26265390619E+04  0.00000000000E+00 0. -1.
<mgrwt>
<rscale>  0 0.43082403E+04</rscale>
<asrwt>0</asrwt>
<pdfrwt beam="1">  1        2 0.16744003E+00 0.43082403E+04</pdfrwt>
<pdfrwt beam="2">  1       -2 0.65592447E+00 0.43082403E+04</pdfrwt>
<totfact> 0.54843396E-03</totfact>
</mgrwt>
</event>
<event>
 6    1  0.9512547E-007  0.2172864E+04  0.7818608E-02  0.8529808E-01
          1   -1    0    0  501    0  0.00000000000E+00  0.00000000000E+00  0.13878473301E+04  0.13878473301E+04  0.00000000000E+00 0. -1.
         -1   -1    0    0    0  501 -0.00000000000E+00 -0.00000000000E+00 -0.85047888959E+03  0.85047888959E+03  0.00000000000E+00 0.  1.
         23    2    1    2    0    0  0.98026547058E+03 -0.13435298971E+03  0.72657864309E+03  0.12309674855E+04  0.91614993957E+02 0.  0.
         11    1    3    3    0    0  0.49020546125E+03 -0.10384961590E+03  0.40153721260E+03  0.64212013678E+03  0.00000000000E+00 0.  1.
        -11    1    3    3    0    0  0.49006000933E+03 -0.30503373810E+02  0.32504143049E+03  0.58884734872E+03  0.00000000000E+00 0. -1.
         22    1    1    2    0    0 -0.98026547058E+03  0.13435298971E+03 -0.18921020254E+03  0.10073587342E+04  0.00000000000E+00 0.  1.
<mgrwt>
<rscale>  0 0.21728643E+04</rscale>
<asrwt>0</asrwt>
<pdfrwt beam="1">  1        1 0.21351497E+00 0.21728643E+04</pdfrwt>
<pdfrwt beam="2">  1       -1 0.13084291E+00 0.21728643E+04</pdfrwt>
<totfact> 0.35727885E+00</totfact>
</mgrwt>
</event>
<event>
 6    1  0.9512547E-007  0.4818002E+03  0.7818608E-02  0.1018642E+00
         -1   -1    0    0    0  501 -0.00000000000E+00  0.00000000000E+00  0.63095744870E+02  0.63095744870E+02  0.00000000000E+00 0.  1.
          1   -1    0    0  501    0  0.00000000000E+00 -0.00000000000E+00 -0.91975864974E+03  0.91975864974E+03  0.00000000000E+00 0. -1.
         23    2    1    2    0    0 -0.20204509267E+03 -0.11179864133E+03 -0.38811694458E+03  0.46049774195E+03  0.90012510216E+02 0.  0.
         11    1    3    3    0    0 -0.10968217428E+03 -0.38207324092E+02 -0.11740639028E+03  0.16514914305E+03  0.00000000000E+00 0.  1.
        -11    1    3    3    0    0 -0.92362918384E+02 -0.73591317237E+02 -0.27071055430E+03  0.29534859890E+03  0.00000000000E+00 0. -1.
         22    1    1    2    0    0  0.20204509267E+03  0.11179864133E+03 -0.46854596028E+03  0.52235665265E+03  0.00000000000E+00 0.  1.
<mgrwt>
<rscale>  0 0.48180020E+03</rscale>
<asrwt>0</asrwt>
<pdfrwt beam="1">  1        1 0.14150132E+00 0.48180020E+03</pdfrwt>
<pdfrwt beam="2">  1       -1 0.97070384E-02 0.48180020E+03</pdfrwt>
<totfact> 0.11729070E+03</totfact>
</mgrwt>
</event>
<event>
 6    1  0.9512547E-007  0.2432605E+04  0.7818608E-02  0.8427397E-01
         -2   -1    0    0    0  501 -0.00000000000E+00  0.00000000000E+00  0.60181612059E+03  0.60181612059E+03  0.00000000000E+00 0.  1.
          2   -1    0    0  501    0  0.00000000000E+00 -0.00000000000E+00 -0.24582116810E+04  0.24582116810E+04  0.00000000000E+00 0. -1.
         23    2    1    2    0    0  0.10704252004E+04 -0.52464815405E+03 -0.12221790428E+04  0.17097328759E+04  0.91646598968E+02 0.  0.
         11    1    3    3    0    0  0.39428504349E+03 -0.14605145473E+03 -0.44548360121E+03  0.61257437254E+03  0.00000000000E+00 0. -1.
        -11    1    3    3    0    0  0.67614015688E+03 -0.37859669931E+03 -0.77669544160E+03  0.10971585034E+04  0.00000000000E+00 0.  1.
         22    1    1    2    0    0 -0.10704252004E+04  0.52464815405E+03 -0.63421651759E+03  0.13502949257E+04  0.00000000000E+00 0. -1.
<mgrwt>
<rscale>  0 0.24326047E+04</rscale>
<asrwt>0</asrwt>
<pdfrwt beam="1">  1        2 0.37818641E+00 0.24326047E+04</pdfrwt>
<pdfrwt beam="2">  1       -2 0.92587095E-01 0.24326047E+04</pdfrwt>
<totfact> 0.32660556E+00</totfact>
</mgrwt>
</event>
<event>
 6    1  0.1390793E-006  0.4401247E+04  0.7818608E-02  0.7928157E-01
          2   -1    0    0  501    0  0.00000000000E+00  0.00000000000E+00  0.17089063773E+04  0.17089063773E+04  0.00000000000E+00 0. -1.
         -2   -1    0    0    0  501 -0.00000000000E+00 -0.00000000000E+00 -0.28338267157E+04  0.28338267157E+04  0.00000000000E+00 0.  1.
         23    2    1    2    0    0 -0.42276777501E+03  0.12860905773E+04  0.12269130307E+04  0.18290857761E+04  0.86473272310E+02 0.  0.
         11    1    3    3    0    0 -0.26309073703E+03  0.66224300013E+03  0.64743588047E+03  0.96278541039E+03  0.00000000000E+00 0.  1.
        -11    1    3    3    0    0 -0.15967703798E+03  0.62384757714E+03  0.57947715020E+03  0.86630036567E+03  0.00000000000E+00 0. -1.
         22    1    1    2    0    0  0.42276777501E+03 -0.12860905773E+04 -0.23518333691E+04  0.27136473169E+04  0.00000000000E+00 0.  1.
<mgrwt>
<rscale>  0 0.44012473E+04</rscale>
<asrwt>0</asrwt>
<pdfrwt beam="1">  1        2 0.26290867E+00 0.44012473E+04</pdfrwt>
<pdfrwt beam="2">  1       -2 0.43597334E+00 0.44012473E+04</pdfrwt>
<totfact> 0.31849883E-02</totfact>
</mgrwt>
</event>
<event>
 6    1  0.9512547E-007  0.2562539E+04  0.7818608E-02  0.8381038E-01
         -1   -1    0    0    0  501 -0.00000000000E+00  0.00000000000E+00  0.22777861147E+04  0.22777861147E+04  0.00000000000E+00 0.  1.
          1   -1    0    0  501    0  0.00000000000E+00 -0.00000000000E+00 -0.72072229925E+03  0.72072229925E+03  0.00000000000E+00 0. -1.
         23    2    1    2    0    0  0.11158153021E+04 -0.33379562234E+03  0.13997311476E+04  0.18232565795E+04  0.92487639093E+02 0.  0.
         11    1    3    3    0    0  0.42831209615E+03 -0.17256752898E+03  0.57728632229E+03  0.73924982359E+03  0.00000000000E+00 0. -1.
        -11    1    3    3    0    0  0.68750320595E+03 -0.16122809336E+03  0.82244482529E+03  0.10840067559E+04  0.00000000000E+00 0.  1.
         22    1    1    2    0    0 -0.11158153021E+04  0.33379562234E+03  0.15733266785E+03  0.11752518344E+04  0.00000000000E+00 0. -1.
<mgrwt>
<rscale>  0 0.25625388E+04</rscale>
<asrwt>0</asrwt>
<pdfrwt beam="1">  1        1 0.11088035E+00 0.25625388E+04</pdfrwt>
<pdfrwt beam="2">  1       -1 0.35042863E+00 0.25625388E+04</pdfrwt>
<totfact> 0.35542280E-01</totfact>
</mgrwt>
</event>
<event>
 6    1  0.9512547E-007  0.3231814E+04  0.7818608E-02  0.8180465E-01
          1   -1    0    0  501    0  0.00000000000E+00  0.00000000000E+00  0.37579535694E+04  0.37579535694E+04  0.00000000000E+00 0. -1.
         -1   -1    0    0    0  501 -0.00000000000E+00 -0.00000000000E+00 -0.69483431735E+03  0.69483431735E+03  0.00000000000E+00 0.  1.
         23    2    1    2    0    0  0.46094233924E+03 -0.96491450125E+03 -0.13401889946E+03  0.10815536625E+04  0.90936376808E+02 0.  0.
         11    1    3    3    0    0  0.26843832778E+03 -0.51449363429E+03 -0.11338491392E+03  0.59128586508E+03  0.00000000000E+00 0. -1.
        -11    1    3    3    0    0  0.19250401146E+03 -0.45042086697E+03 -0.20633985544E+02  0.49026779742E+03  0.00000000000E+00 0.  1.
         22    1    1    2    0    0 -0.46094233924E+03  0.96491450125E+03  0.31971381515E+04  0.33712342242E+04  0.00000000000E+00 0. -1.
<mgrwt>
<rscale>  0 0.32318138E+04</rscale>
<asrwt>0</asrwt>
<pdfrwt beam="1">  1        1 0.57814669E+00 0.32318138E+04</pdfrwt>
<pdfrwt beam="2">  1       -1 0.10689759E+00 0.32318138E+04</pdfrwt>
<totfact> 0.10510063E-01</totfact>
</mgrwt>
</event>
<event>
 6    1  0.9512547E-007  0.5717585E+03  0.7818608E-02  0.9965795E-01
         -2   -1    0    0    0  501 -0.00000000000E+00  0.00000000000E+00  0.68439032376E+02  0.68439032376E+02  0.00000000000E+00 0.  1.
          2   -1    0    0  501    0  0.00000000000E+00 -0.00000000000E+00 -0.11941570079E+04  0.11941570079E+04  0.00000000000E+00 0. -1.
         23    2    1    2    0    0  0.19170848003E+03  0.17270005723E+03 -0.35498358514E+03  0.44981750242E+03  0.98716709252E+02 0.  0.
         13    1    3    3    0    0  0.13784867692E+03  0.62980823116E+02 -0.16624026838E+03  0.22495481466E+03  0.00000000000E+00 0. -1.
        -13    1    3    3    0    0  0.53859803108E+02  0.10971923411E+03 -0.18874331676E+03  0.22486268776E+03  0.00000000000E+00 0.  1.
         22    1    1    2    0    0 -0.19170848003E+03 -0.17270005723E+03 -0.77073439043E+03  0.81277853790E+03  0.00000000000E+00 0. -1.
<mgrwt>
<rscale>  0 0.57175852E+03</rscale>
<asrwt>0</asrwt>
<pdfrwt beam="1">  1        2 0.18371645E+00 0.57175852E+03</pdfrwt>
<pdfrwt beam="2">  1       -2 0.10529083E-01 0.57175852E+03</pdfrwt>
<totfact> 0.12191184E+03</totfact>
</mgrwt>
</event>
<event>
 6    1  0.9512547E-007  0.3095313E+04  0.7818608E-02  0.8217025E-01
         -2   -1    0    0    0  501 -0.00000000000E+00  0.00000000000E+00  0.26264143201E+04  0.26264143201E+04  0.00000000000E+00 0.  1.
          2   -1    0    0  501    0  0.00000000000E+00 -0.00000000000E+00 -0.91198126320E+03  0.91198126320E+03  0.00000000000E+00 0. -1.
         23    2    1    2    0    0  0.62679680956E+03  0.46240045315E+03  0.23849845198E+04  0.25106175509E+04  0.91437997306E+02 0.  0.
         13    1    3    3    0    0  0.15659937663E+03  0.14642667908E+03  0.76303750022E+03  0.79258460990E+03  0.00000000000E+00 0. -1.
        -13    1    3    3    0    0  0.47019743292E+03  0.31597377407E+03  0.16219470196E+04  0.17180329410E+04  0.00000000000E+00 0.  1.
         22    1    1    2    0    0 -0.62679680956E+03 -0.46240045315E+03 -0.67055146292E+03  0.10277780324E+04  0.00000000000E+00 0. -1.
<mgrwt>
<rscale>  0 0.30953130E+04</rscale>
<asrwt>0</asrwt>
<pdfrwt beam="1">  1        2 0.14030481E+00 0.30953130E+04</pdfrwt>
<pdfrwt beam="2">  1       -2 0.40406374E+00 0.30953130E+04</pdfrwt>
<totfact> 0.17050323E-01</totfact>
</mgrwt>
</event>
<event>
 6    1  0.9512547E-007  0.9022146E+03  0.7818608E-02  0.9422817E-01
          2   -1    0    0  501    0  0.00000000000E+00  0.00000000000E+00  0.81387199116E+03  0.81387199116E+03  0.00000000000E+00 0. -1.
         -2   -1    0    0    0  501 -0.00000000000E+00 -0.00000000000E+00 -0.25003660212E+03  0.25003660212E+03  0.00000000000E+00 0.  1.
         23    2    1    2    0    0  0.74480556709E+02  0.28831122390E+03 -0.10698040564E+03  0.32997089459E+03  0.93623014938E+02 0.  0.
         13    1    3    3    0    0  0.53816008680E+02  0.70405688570E+02 -0.57272850879E+02  0.10551446925E+03  0.00000000000E+00 0. -1.
        -13    1    3    3    0    0  0.20664548029E+02  0.21790553533E+03 -0.49707554765E+02  0.22445642534E+03  0.00000000000E+00 0.  1.
         22    1    1    2    0    0 -0.74480556709E+02 -0.28831122390E+03  0.67081579469E+03  0.73393769869E+03  0.00000000000E+00 0. -1.
<mgrwt>
<rscale>  0 0.90221458E+03</rscale>
<asrwt>0</asrwt>
<pdfrwt beam="1">  1        2 0.12521107E+00 0.90221458E+03</pdfrwt>
<pdfrwt beam="2">  1       -2 0.38467170E-01 0.90221458E+03</pdfrwt>
<totfact> 0.21531058E+02</totfact>
</mgrwt>
</event>
<event>
 6    1  0.9512547E-007  0.2584182E+04  0.7818608E-02  0.8373594E-01
          2   -1    0    0  501    0  0.00000000000E+00  0.00000000000E+00  0.89796570192E+03  0.89796570192E+03  0.00000000000E+00 0. -1.
         -2   -1    0    0    0  501 -0.00000000000E+00 -0.00000000000E+00 -0.18592008477E+04  0.18592008477E+04  0.00000000000E+00 0.  1.
         23    2    1    2    0    0 -0.69730407421E+03 -0.26979533311E+02 -0.16394266324E+04  0.17840763382E+04  0.90817567053E+02 0.  0.
         13    1    3    3    0    0 -0.55919382171E+03  0.11098443026E+02 -0.12625525498E+04  0.13808909612E+04  0.00000000000E+00 0.  1.
        -13    1    3    3    0    0 -0.13811025250E+03 -0.38077976337E+02 -0.37687408262E+03  0.40318537706E+03  0.00000000000E+00 0. -1.
         22    1    1    2    0    0  0.69730407421E+03  0.26979533311E+02  0.67819148658E+03  0.97309021143E+03  0.00000000000E+00 0. -1.
<mgrwt>
<rscale>  0 0.25841816E+04</rscale>
<asrwt>0</asrwt>
<pdfrwt beam="1">  1        2 0.13814857E+00 0.25841816E+04</pdfrwt>
<pdfrwt beam="2">  1       -2 0.28603089E+00 0.25841816E+04</pdfrwt>
<totfact> 0.10080460E+00</totfact>
</mgrwt>
</event>
<event>
 6    1  0.9512547E-007  0.2861338E+04  0.7818608E-02  0.8284474E-01
          2   -1    0    0  501    0  0.00000000000E+00  0.00000000000E+00  0.14634382889E+04  0.14634382889E+04  0.00000000000E+00 0. -1.
         -2   -1    0    0    0  501 -0.00000000000E+00 -0.00000000000E+00 -0.13986332890E+04  0.13986332890E+04  0.00000000000E+00 0.  1.
         23    2    1    2    0    0 -0.13456706890E+04 -0.41182093195E+03 -0.21785070431E+03  0.14266899804E+04  0.86944163939E+02 0.  0.
         11    1    3    3    0    0 -0.73817479394E+03 -0.22180829856E+03 -0.75669870454E+02  0.77448491077E+03  0.00000000000E+00 0.  1.
        -11    1    3    3    0    0 -0.60749589508E+03 -0.19001263340E+03 -0.14218083385E+03  0.65220506967E+03  0.00000000000E+00 0. -1.
         22    1    1    2    0    0  0.13456706890E+04  0.41182093195E+03  0.28265570416E+03  0.14353815975E+04  0.00000000000E+00 0. -1.
<mgrwt>
<rscale>  0 0.28613378E+04</rscale>
<asrwt>0</asrwt>
<pdfrwt beam="1">  1        2 0.22514435E+00 0.28613378E+04</pdfrwt>
<pdfrwt beam="2">  1       -2 0.21517435E+00 0.28613378E+04</pdfrwt>
<totfact> 0.12228723E+00</totfact>
</mgrwt>
</event>
<event>
 6    1  0.9512547E-007  0.1121502E+04  0.7818608E-02  0.9184484E-01
         -1   -1    0    0    0  501 -0.00000000000E+00  0.00000000000E+00  0.11596094099E+04  0.11596094099E+04  0.00000000000E+00 0.  1.
          1   -1    0    0  501    0  0.00000000000E+00 -0.00000000000E+00 -0.27116177542E+03  0.27116177542E+03  0.00000000000E+00 0. -1.
         23    2    1    2    0    0 -0.22205934255E+03  0.39755316415E+03  0.36733562651E+02  0.46496803245E+03  0.86527721767E+02 0.  0.
         11    1    3    3    0    0 -0.74301607640E+02  0.62919865344E+02  0.39116409818E+00  0.97364220133E+02  0.00000000000E+00 0. -1.
        -11    1    3    3    0    0 -0.14775773491E+03  0.33463329881E+03  0.36342398553E+02  0.36760381231E+03  0.00000000000E+00 0.  1.
         22    1    1    2    0    0  0.22205934255E+03 -0.39755316415E+03  0.85171407181E+03  0.96580315285E+03  0.00000000000E+00 0.  1.
<mgrwt>
<rscale>  0 0.11215021E+04</rscale>
<asrwt>0</asrwt>
<pdfrwt beam="1">  1        1 0.41717197E-01 0.11215021E+04</pdfrwt>
<pdfrwt beam="2">  1       -1 0.17840144E+00 0.11215021E+04</pdfrwt>
<totfact> 0.21277154E+01</totfact>
</mgrwt>
</event>
<event>
 6    1  0.9512547E-007  0.1045806E+04  0.7818608E-02  0.9259685E-01
         -1   -1    0    0    0  501 -0.00000000000E+00  0.00000000000E+00  0.78902969690E+03  0.78902969690E+03  0.00000000000E+00 0.  1.
          1   -1    0    0  501    0  0.00000000000E+00 -0.00000000000E+00 -0.34653632936E+03  0.34653632936E+03  0.00000000000E+00 0. -1.
         23    2    1    2    0    0 -0.27705557195E+03 -0.73697915601E+02 -0.24672281009E+03  0.38910094856E+03  0.91302959647E+02 0.  0.
         11    1    3    3    0    0 -0.18497191918E+03 -0.52911896497E+02 -0.10603351185E+03  0.21967563659E+03  0.00000000000E+00 0.  1.
        -11    1    3    3    0    0 -0.92083652776E+02 -0.20786019104E+02 -0.14068929824E+03  0.16942531198E+03  0.00000000000E+00 0. -1.
         22    1    1    2    0    0  0.27705557195E+03  0.73697915601E+02  0.68921617763E+03  0.74646507770E+03  0.00000000000E+00 0.  1.
<mgrwt>
<rscale>  0 0.10458058E+04</rscale>
<asrwt>0</asrwt>
<pdfrwt beam="1">  1        1 0.53313281E-01 0.10458058E+04</pdfrwt>
<pdfrwt beam="2">  1       -1 0.12138918E+00 0.10458058E+04</pdfrwt>
<totfact> 0.43680452E+01</totfact>
</mgrwt>
</event>
<event>
 6    1  0.9512547E-007  0.8442334E+03  0.7818608E-02  0.9498110E-01
         -2   -1    0    0    0  501 -0.00000000000E+00  0.00000000000E+00  0.70164444399E+03  0.70164444399E+03  0.00000000000E+00 0.  1.
          2   -1    0    0  501    0  0.00000000000E+00 -0.00000000000E+00 -0.25394984720E+03  0.25394984720E+03  0.00000000000E+00 0. -1.
         23    2    1    2    0    0  0.29241482096E+03 -0.23951475014E+03  0.42582565011E+03  0.57697575773E+03  0.93272705847E+02 0.  0.
         13    1    3    3    0    0  0.10411079375E+03 -0.40094114672E+02  0.15971377952E+03  0.19482065285E+03  0.00000000000E+00 0.  1.
        -13    1    3    3    0    0  0.18830402721E+03 -0.19942063547E+03  0.26611187059E+03  0.38215510488E+03  0.00000000000E+00 0. -1.
         22    1    1    2    0    0 -0.29241482096E+03  0.23951475014E+03  0.21868946685E+02  0.37861853347E+03  0.00000000000E+00 0. -1.
<mgrwt>
<rscale>  0 0.84423338E+03</rscale>
<asrwt>0</asrwt>
<pdfrwt beam="1">  1        2 0.39069208E-01 0.84423338E+03</pdfrwt>
<pdfrwt beam="2">  1       -2 0.10794530E+00 0.84423338E+03</pdfrwt>
<totfact> 0.91434889E+01</totfact>
</mgrwt>
</event>
<event>
 6    1  0.9512547E-007  0.2878291E+04  0.7818608E-02  0.8279366E-01
          1   -1    0    0  501    0  0.00000000000E+00  0.00000000000E+00  0.24943893785E+04  0.24943893785E+04  0.00000000000E+00 0. -1.
         -1   -1    0    0    0  501 -0.00000000000E+00 -0.00000000000E+00 -0.83031932738E+03  0.83031932738E+03  0.00000000000E+00 0.  1.
         23    2    1    2    0    0  0.50377265352E+02 -0.73069509038E+03 -0.59604187626E+03  0.94888061692E+03  0.93033988140E+02 0.  0.
         13    1    3    3    0    0 -0.57639881206E+01 -0.52676039618E+03 -0.42615934466E+03  0.67758506889E+03  0.00000000000E+00 0. -1.
        -13    1    3    3    0    0  0.56141253472E+02 -0.20393469420E+03 -0.16988253160E+03  0.27129554803E+03  0.00000000000E+00 0.  1.
         22    1    1    2    0    0 -0.50377265352E+02  0.73069509038E+03  0.22601119274E+04  0.23758280890E+04  0.00000000000E+00 0. -1.
<mgrwt>
<rscale>  0 0.28782910E+04</rscale>
<asrwt>0</asrwt>
<pdfrwt beam="1">  1        1 0.38375221E+00 0.28782910E+04</pdfrwt>
<pdfrwt beam="2">  1       -1 0.12774144E+00 0.28782910E+04</pdfrwt>
<totfact> 0.62282135E-01</totfact>
</mgrwt>
</event>
<event>
 6    1  0.9512547E-007  0.2902255E+04  0.7818608E-02  0.8272207E-01
         -2   -1    0    0    0  501 -0.00000000000E+00  0.00000000000E+00  0.84308078284E+03  0.84308078284E+03  0.00000000000E+00 0.  1.
          2   -1    0    0  501    0  0.00000000000E+00 -0.00000000000E+00 -0.24977092782E+04  0.24977092782E+04  0.00000000000E+00 0. -1.
         23    2    1    2    0    0  0.83322633978E+03  0.11844342527E+04 -0.75203356893E+03  0.16343820695E+04  0.92193427533E+02 0.  0.
         13    1    3    3    0    0  0.26788453563E+03  0.38672088347E+03 -0.29331958590E+03  0.55439295235E+03  0.00000000000E+00 0. -1.
        -13    1    3    3    0    0  0.56534180414E+03  0.79771336926E+03 -0.45871398303E+03  0.10799891172E+04  0.00000000000E+00 0.  1.
         22    1    1    2    0    0 -0.83322633978E+03 -0.11844342527E+04 -0.90259492646E+03  0.17064079915E+04  0.00000000000E+00 0.  1.
<mgrwt>
<rscale>  0 0.29022548E+04</rscale>
<asrwt>0</asrwt>
<pdfrwt beam="1">  1        2 0.38426297E+00 0.29022548E+04</pdfrwt>
<pdfrwt beam="2">  1       -2 0.12970474E+00 0.29022548E+04</pdfrwt>
<totfact> 0.13158526E+00</totfact>
</mgrwt>
</event>
<event>
 6    1  0.9512547E-007  0.3149784E+04  0.7818608E-02  0.8202207E-01
         -2   -1    0    0    0  501 -0.00000000000E+00  0.00000000000E+00  0.58851641954E+03  0.58851641954E+03  0.00000000000E+00 0.  1.
          2   -1    0    0  501    0  0.00000000000E+00 -0.00000000000E+00 -0.42144691201E+04  0.42144691201E+04  0.00000000000E+00 0. -1.
         23    2    1    2    0    0 -0.83649172087E+03 -0.57406509074E+03 -0.36486913676E+04  0.37882017329E+04  0.90854531982E+02 0.  0.
         13    1    3    3    0    0 -0.26103502242E+03 -0.19126913611E+03 -0.10154365721E+04  0.10657554116E+04  0.00000000000E+00 0. -1.
        -13    1    3    3    0    0 -0.57545669845E+03 -0.38279595464E+03 -0.26332547954E+04  0.27224463213E+04  0.00000000000E+00 0.  1.
         22    1    1    2    0    0  0.83649172087E+03  0.57406509074E+03  0.22738666973E+02  0.10147838068E+04  0.00000000000E+00 0.  1.
<mgrwt>
<rscale>  0 0.31497837E+04</rscale>
<asrwt>0</asrwt>
<pdfrwt beam="1">  1        2 0.64837983E+00 0.31497837E+04</pdfrwt>
<pdfrwt beam="2">  1       -2 0.90540992E-01 0.31497837E+04</pdfrwt>
<totfact> 0.19873402E-01</totfact>
</mgrwt>
</event>
<event>
 6    1  0.9512547E-007  0.8378157E+03  0.7818608E-02  0.9506838E-01
         -2   -1    0    0    0  501 -0.00000000000E+00  0.00000000000E+00  0.21279825235E+03  0.21279825235E+03  0.00000000000E+00 0.  1.
          2   -1    0    0  501    0  0.00000000000E+00 -0.00000000000E+00 -0.82464856991E+03  0.82464856991E+03  0.00000000000E+00 0. -1.
         23    2    1    2    0    0 -0.23476147853E+03 -0.78110672658E+02  0.10154125367E+03  0.28236949979E+03  0.90596242913E+02 0.  0.
         11    1    3    3    0    0 -0.18044761814E+03 -0.92327935639E+02  0.10043582305E+03  0.22621482078E+03  0.00000000000E+00 0.  1.
        -11    1    3    3    0    0 -0.54313860396E+02  0.14217262981E+02  0.11054306236E+01  0.56154679009E+02  0.00000000000E+00 0. -1.
         22    1    1    2    0    0  0.23476147853E+03  0.78110672658E+02 -0.71339157123E+03  0.75507732246E+03  0.00000000000E+00 0. -1.
<mgrwt>
<rscale>  0 0.83781567E+03</rscale>
<asrwt>0</asrwt>
<pdfrwt beam="1">  1        2 0.12686901E+00 0.83781567E+03</pdfrwt>
<pdfrwt beam="2">  1       -2 0.32738193E-01 0.83781567E+03</pdfrwt>
<totfact> 0.28878496E+02</totfact>
</mgrwt>
</event>
<event>
 6    1  0.9512547E-007  0.4181918E+04  0.7818608E-02  0.7968821E-01
          2   -1    0    0  501    0  0.00000000000E+00  0.00000000000E+00  0.20985448734E+04  0.20985448734E+04  0.00000000000E+00 0. -1.
         -2   -1    0    0    0  501 -0.00000000000E+00 -0.00000000000E+00 -0.20834002121E+04  0.20834002121E+04  0.00000000000E+00 0.  1.
         23    2    1    2    0    0 -0.47036002305E+03  0.10612546450E+04  0.17455241255E+04  0.20982673121E+04  0.91494630885E+02 0.  0.
         13    1    3    3    0    0 -0.35171837553E+03  0.82404442591E+03  0.14098227495E+04  0.16704356368E+04  0.00000000000E+00 0.  1.
        -13    1    3    3    0    0 -0.11864164752E+03  0.23721021913E+03  0.33570137600E+03  0.42783167535E+03  0.00000000000E+00 0. -1.
         22    1    1    2    0    0  0.47036002305E+03 -0.10612546450E+04 -0.17303794642E+04  0.20836777733E+04  0.00000000000E+00 0.  1.
<mgrwt>
<rscale>  0 0.41819177E+04</rscale>
<asrwt>0</asrwt>
<pdfrwt beam="1">  1        2 0.32285306E+00 0.41819177E+04</pdfrwt>
<pdfrwt beam="2">  1       -2 0.32052311E+00 0.41819177E+04</pdfrwt>
<totfact> 0.10876437E-01</totfact>
</mgrwt>
</event>
<event>
 6    1  0.9512547E-007  0.1112288E+04  0.7818608E-02  0.9193298E-01
         -2   -1    0    0    0  501 -0.00000000000E+00  0.00000000000E+00  0.19854266633E+03  0.19854266633E+03  0.00000000000E+00 0.  1.
          2   -1    0    0  501    0  0.00000000000E+00 -0.00000000000E+00 -0.15578309616E+04  0.15578309616E+04  0.00000000000E+00 0. -1.
         23    2    1    2    0    0 -0.25574093070E+03 -0.41151549943E+03 -0.11037106648E+04  0.12085886746E+04  0.88096100319E+02 0.  0.
         11    1    3    3    0    0 -0.67161995722E+02 -0.10251004922E+03 -0.38200878685E+03  0.40118543978E+03  0.00000000000E+00 0. -1.
        -11    1    3    3    0    0 -0.18857893498E+03 -0.30900545020E+03 -0.72170187797E+03  0.80740323485E+03  0.00000000000E+00 0.  1.
         22    1    1    2    0    0  0.25574093070E+03  0.41151549943E+03 -0.25557763049E+03  0.54778495335E+03  0.00000000000E+00 0.  1.
<mgrwt>
<rscale>  0 0.11122876E+04</rscale>
<asrwt>0</asrwt>
<pdfrwt beam="1">  1        2 0.23966630E+00 0.11122876E+04</pdfrwt>
<pdfrwt beam="2">  1       -2 0.30545025E-01 0.11122876E+04</pdfrwt>
<totfact> 0.11577102E+02</totfact>
</mgrwt>
</event>
<event>
 6    1  0.9512547E-007  0.8702491E+03  0.7818608E-02  0.9463555E-01
          1   -1    0    0  501    0  0.00000000000E+00  0.00000000000E+00  0.48704712241E+03  0.48704712241E+03  0.00000000000E+00 0. -1.
         -1   -1    0    0    0  501 -0.00000000000E+00 -0.00000000000E+00 -0.38873726675E+03  0.38873726675E+03  0.00000000000E+00 0.  1.
         23    2    1    2    0    0 -0.39434958286E+03  0.10792578897E+03  0.18509687950E+03  0.45782319845E+03  0.90452511395E+02 0.  0.
         13    1    3    3    0    0 -0.19813147392E+03  0.31765661797E+02  0.13380861234E+03  0.24118433400E+03  0.00000000000E+00 0. -1.
        -13    1    3    3    0    0 -0.19621810894E+03  0.76160127175E+02  0.51288267153E+02  0.21663886446E+03  0.00000000000E+00 0.  1.
         22    1    1    2    0    0  0.39434958286E+03 -0.10792578897E+03 -0.86787023835E+02  0.41796119070E+03  0.00000000000E+00 0. -1.
<mgrwt>
<rscale>  0 0.87024908E+03</rscale>
<asrwt>0</asrwt>
<pdfrwt beam="1">  1        1 0.74930326E-01 0.87024908E+03</pdfrwt>
<pdfrwt beam="2">  1       -1 0.59805733E-01 0.87024908E+03</pdfrwt>
<totfact> 0.13150191E+02</totfact>
</mgrwt>
</event>
<event>
 6    1  0.9512547E-007  0.1774153E+04  0.7818608E-02  0.8720167E-01
          2   -1    0    0  501    0  0.00000000000E+00  0.00000000000E+00  0.16703552226E+04  0.16703552226E+04  0.00000000000E+00 0. -1.
         -2   -1    0    0    0  501 -0.00000000000E+00 -0.00000000000E+00 -0.47110008496E+03  0.47110008496E+03  0.00000000000E+00 0.  1.
         23    2    1    2    0    0 -0.21659494952E+03 -0.72922559255E+03  0.11465058894E+04  0.13789162462E+04  0.90834589250E+02 0.  0.
         13    1    3    3    0    0 -0.17439774066E+03 -0.44973724674E+03  0.68692904596E+03  0.83937457505E+03  0.00000000000E+00 0.  1.
        -13    1    3    3    0    0 -0.42197208861E+02 -0.27948834581E+03  0.45957684342E+03  0.53954167113E+03  0.00000000000E+00 0. -1.
         22    1    1    2    0    0  0.21659494952E+03  0.72922559255E+03  0.52749248303E+02  0.76253906142E+03  0.00000000000E+00 0.  1.
<mgrwt>
<rscale>  0 0.17741527E+04</rscale>
<asrwt>0</asrwt>
<pdfrwt beam="1">  1        2 0.25697772E+00 0.17741527E+04</pdfrwt>
<pdfrwt beam="2">  1       -2 0.72476937E-01 0.17741527E+04</pdfrwt>
<totfact> 0.16596517E+01</totfact>
</mgrwt>
</event>
<event>
 6    1  0.9512547E-007  0.2778093E+04  0.7818608E-02  0.8310102E-01
          2   -1    0    0  501    0  0.00000000000E+00  0.00000000000E+00  0.16226849022E+04  0.16226849022E+04  0.00000000000E+00 0. -1.
         -2   -1    0    0    0  501 -0.00000000000E+00 -0.00000000000E+00 -0.11890475387E+04  0.11890475387E+04  0.00000000000E+00 0.  1.
         23    2    1    2    0    0 -0.12721100155E+04  0.37360109711E+03  0.63078339254E+03  0.14713189867E+04  0.95132543609E+02 0.  0.
         13    1    3    3    0    0 -0.98959817377E+03  0.24880144399E+03  0.48390023199E+03  0.11293210963E+04  0.00000000000E+00 0.  1.
        -13    1    3    3    0    0 -0.28251184177E+03  0.12479965312E+03  0.14688316056E+03  0.34199789037E+03  0.00000000000E+00 0. -1.
         22    1    1    2    0    0  0.12721100155E+04 -0.37360109711E+03 -0.19714602899E+03  0.13404134542E+04  0.00000000000E+00 0.  1.
<mgrwt>
<rscale>  0 0.27780925E+04</rscale>
<asrwt>0</asrwt>
<pdfrwt beam="1">  1        2 0.24964383E+00 0.27780925E+04</pdfrwt>
<pdfrwt beam="2">  1       -2 0.18293039E+00 0.27780925E+04</pdfrwt>
<totfact> 0.16345061E+00</totfact>
</mgrwt>
</event>
<event>
 6    1  0.9512547E-007  0.3505774E+04  0.7818608E-02  0.8112423E-01
         -2   -1    0    0    0  501 -0.00000000000E+00  0.00000000000E+00  0.10649263136E+04  0.10649263136E+04  0.00000000000E+00 0.  1.
          2   -1    0    0  501    0  0.00000000000E+00 -0.00000000000E+00 -0.28852828621E+04  0.28852828621E+04  0.00000000000E+00 0. -1.
         23    2    1    2    0    0  0.50127306296E+03 -0.13869297337E+03  0.97395402731E+03  0.11079069366E+04  0.91438002439E+02 0.  0.
         11    1    3    3    0    0  0.65071743808E+02 -0.41848270744E+02  0.10081691011E+03  0.12708130851E+03  0.00000000000E+00 0. -1.
        -11    1    3    3    0    0  0.43620131915E+03 -0.96844702626E+02  0.87313711719E+03  0.98082562807E+03  0.00000000000E+00 0.  1.
         22    1    1    2    0    0 -0.50127306296E+03  0.13869297337E+03 -0.27943105758E+04  0.28423022391E+04  0.00000000000E+00 0. -1.
<mgrwt>
<rscale>  0 0.35057745E+04</rscale>
<asrwt>0</asrwt>
<pdfrwt beam="1">  1        2 0.44388966E+00 0.35057745E+04</pdfrwt>
<pdfrwt beam="2">  1       -2 0.16383482E+00 0.35057745E+04</pdfrwt>
<totfact> 0.39754339E-01</totfact>
</mgrwt>
</event>
<event>
 6    1  0.9512547E-007  0.3080414E+04  0.7818608E-02  0.8221134E-01
          2   -1    0    0  501    0  0.00000000000E+00  0.00000000000E+00  0.14219671292E+04  0.14219671292E+04  0.00000000000E+00 0. -1.
         -2   -1    0    0    0  501 -0.00000000000E+00 -0.00000000000E+00 -0.16682787943E+04  0.16682787943E+04  0.00000000000E+00 0.  1.
         23    2    1    2    0    0 -0.86712590758E+03 -0.60929562666E+02  0.11506416607E+04  0.14449197109E+04  0.90537221856E+02 0.  0.
         13    1    3    3    0    0 -0.30594648868E+03  0.32760184038E+01  0.34688080699E+03  0.46253678826E+03  0.00000000000E+00 0.  1.
        -13    1    3    3    0    0 -0.56117941890E+03 -0.64205581070E+02  0.80376085371E+03  0.98238292269E+03  0.00000000000E+00 0. -1.
         22    1    1    2    0    0  0.86712590758E+03  0.60929562666E+02 -0.13969533258E+04  0.16453262125E+04  0.00000000000E+00 0.  1.
<mgrwt>
<rscale>  0 0.30804140E+04</rscale>
<asrwt>0</asrwt>
<pdfrwt beam="1">  1        2 0.21876417E+00 0.30804140E+04</pdfrwt>
<pdfrwt beam="2">  1       -2 0.25665828E+00 0.30804140E+04</pdfrwt>
<totfact> 0.69918033E-01</totfact>
</mgrwt>
</event>
<event>
 6    1  0.9512547E-007  0.1172984E+04  0.7818608E-02  0.9136838E-01
          2   -1    0    0  501    0  0.00000000000E+00  0.00000000000E+00  0.73102527459E+03  0.73102527459E+03  0.00000000000E+00 0. -1.
         -2   -1    0    0    0  501 -0.00000000000E+00 -0.00000000000E+00 -0.47053465607E+03  0.47053465607E+03  0.00000000000E+00 0.  1.
         23    2    1    2    0    0 -0.26826032785E+03  0.29372214754E+03 -0.30523940635E+03  0.50997713410E+03  0.93108961224E+02 0.  0.
         11    1    3    3    0    0 -0.19338073162E+03  0.14404285061E+03 -0.17646077902E+03  0.29880237065E+03  0.00000000000E+00 0. -1.
        -11    1    3    3    0    0 -0.74879596232E+02  0.14967929692E+03 -0.12877862733E+03  0.21117476344E+03  0.00000000000E+00 0.  1.
         22    1    1    2    0    0  0.26826032785E+03 -0.29372214754E+03  0.56573002487E+03  0.69158279656E+03  0.00000000000E+00 0. -1.
<mgrwt>
<rscale>  0 0.11729838E+04</rscale>
<asrwt>0</asrwt>
<pdfrwt beam="1">  1        2 0.11246543E+00 0.11729838E+04</pdfrwt>
<pdfrwt beam="2">  1       -2 0.72389947E-01 0.11729838E+04</pdfrwt>
<totfact> 0.66202149E+01</totfact>
</mgrwt>
</event>
<event>
 6    1  0.9512547E-007  0.1664102E+04  0.7818608E-02  0.8782107E-01
         -2   -1    0    0    0  501 -0.00000000000E+00  0.00000000000E+00  0.64772184910E+03  0.64772184910E+03  0.00000000000E+00 0.  1.
          2   -1    0    0  501    0  0.00000000000E+00 -0.00000000000E+00 -0.10688365961E+04  0.10688365961E+04  0.00000000000E+00 0. -1.
         23    2    1    2    0    0 -0.66098158995E+02  0.50440781424E+03  0.46358280393E+03  0.69602624763E+03  0.10366924135E+03 0.  0.
         13    1    3    3    0    0 -0.15664570142E+02  0.33555494706E+03  0.24780870619E+03  0.41743461298E+03  0.00000000000E+00 0.  1.
        -13    1    3    3    0    0 -0.50433588853E+02  0.16885286718E+03  0.21577409774E+03  0.27859163465E+03  0.00000000000E+00 0. -1.
         22    1    1    2    0    0  0.66098158995E+02 -0.50440781424E+03 -0.88469755096E+03  0.10205321976E+04  0.00000000000E+00 0. -1.
<mgrwt>
<rscale>  0 0.16641019E+04</rscale>
<asrwt>0</asrwt>
<pdfrwt beam="1">  1        2 0.16443640E+00 0.16641019E+04</pdfrwt>
<pdfrwt beam="2">  1       -2 0.99649516E-01 0.16641019E+04</pdfrwt>
<totfact> 0.18108217E+01</totfact>
</mgrwt>
</event>
<event>
 6    1  0.9512547E-007  0.4989562E+04  0.7818608E-02  0.7830119E-01
         -1   -1    0    0    0  501 -0.00000000000E+00  0.00000000000E+00  0.19271527224E+04  0.19271527224E+04  0.00000000000E+00 0.  1.
          1   -1    0    0  501    0  0.00000000000E+00 -0.00000000000E+00 -0.32296004963E+04  0.32296004963E+04  0.00000000000E+00 0. -1.
         23    2    1    2    0    0  0.15823979563E+04 -0.48043830036E+03 -0.25808108610E+04  0.30665339874E+04  0.90784046473E+02 0.  0.
         13    1    3    3    0    0  0.57189043470E+03 -0.13891695825E+03 -0.96997750392E+03  0.11345540748E+04  0.00000000000E+00 0.  1.
        -13    1    3    3    0    0  0.10105075216E+04 -0.34152134211E+03 -0.16108333571E+04  0.19319799126E+04  0.00000000000E+00 0. -1.
         22    1    1    2    0    0 -0.15823979563E+04  0.48043830036E+03  0.12783630871E+04  0.20902192313E+04  0.00000000000E+00 0.  1.
<mgrwt>
<rscale>  0 0.49895625E+04</rscale>
<asrwt>0</asrwt>
<pdfrwt beam="1">  1        1 0.49686161E+00 0.49895625E+04</pdfrwt>
<pdfrwt beam="2">  1       -1 0.29648504E+00 0.49895625E+04</pdfrwt>
<totfact> 0.10150839E-02</totfact>
</mgrwt>
</event>
<event>
 6    1  0.9512547E-007  0.2279866E+04  0.7818608E-02  0.8485902E-01
          1   -1    0    0  501    0  0.00000000000E+00  0.00000000000E+00  0.23890381550E+04  0.23890381550E+04  0.00000000000E+00 0. -1.
         -1   -1    0    0    0  501 -0.00000000000E+00 -0.00000000000E+00 -0.54392046707E+03  0.54392046707E+03  0.00000000000E+00 0.  1.
         23    2    1    2    0    0  0.90716508834E+03 -0.40343721107E+03  0.20844947294E+03  0.10186982096E+04  0.92654080927E+02 0.  0.
         13    1    3    3    0    0  0.68477172061E+03 -0.34635186993E+03  0.15273233442E+03  0.78243152616E+03  0.00000000000E+00 0. -1.
        -13    1    3    3    0    0  0.22239336773E+03 -0.57085341144E+02  0.55717138520E+02  0.23626668345E+03  0.00000000000E+00 0.  1.
         22    1    1    2    0    0 -0.90716508834E+03  0.40343721107E+03  0.16366682150E+04  0.19142604125E+04  0.00000000000E+00 0. -1.
<mgrwt>
<rscale>  0 0.22798656E+04</rscale>
<asrwt>0</asrwt>
<pdfrwt beam="1">  1        1 0.36754433E+00 0.22798656E+04</pdfrwt>
<pdfrwt beam="2">  1       -1 0.83680073E-01 0.22798656E+04</pdfrwt>
<totfact> 0.20727963E+00</totfact>
</mgrwt>
</event>
<event>
 6    1  0.9512547E-007  0.1819733E+04  0.7818608E-02  0.8695875E-01
         -1   -1    0    0    0  501 -0.00000000000E+00  0.00000000000E+00  0.88790261679E+03  0.88790261679E+03  0.00000000000E+00 0.  1.
          1   -1    0    0  501    0  0.00000000000E+00 -0.00000000000E+00 -0.93237408347E+03  0.93237408347E+03  0.00000000000E+00 0. -1.
         23    2    1    2    0    0  0.71630197204E+03  0.51956770838E+03 -0.22415490213E+03  0.91732307148E+03  0.90537719136E+02 0.  0.
         13    1    3    3    0    0  0.57617028639E+03  0.41545210428E+03 -0.21644134419E+03  0.74257626231E+03  0.00000000000E+00 0. -1.
        -13    1    3    3    0    0  0.14013168565E+03  0.10411560410E+03 -0.77135579350E+01  0.17474680917E+03  0.00000000000E+00 0.  1.
         22    1    1    2    0    0 -0.71630197204E+03 -0.51956770838E+03  0.17968343545E+03  0.90295362878E+03  0.00000000000E+00 0.  1.
<mgrwt>
<rscale>  0 0.18197334E+04</rscale>
<asrwt>0</asrwt>
<pdfrwt beam="1">  1        1 0.14344217E+00 0.18197334E+04</pdfrwt>
<pdfrwt beam="2">  1       -1 0.13660040E+00 0.18197334E+04</pdfrwt>
<totfact> 0.72099603E+00</totfact>
</mgrwt>
</event>
<event>
 6    1  0.9512547E-007  0.7819036E+03  0.7818608E-02  0.9586587E-01
         -3   -1    0    0    0  501 -0.00000000000E+00  0.00000000000E+00  0.73223506595E+03  0.73223506595E+03  0.00000000000E+00 0.  1.
          3   -1    0    0  501    0  0.00000000000E+00 -0.00000000000E+00 -0.20873530591E+03  0.20873530591E+03  0.00000000000E+00 0. -1.
         23    2    1    2    0    0  0.25222135445E+03 -0.83792126167E+02  0.60126775650E+03  0.66405053993E+03  0.93826821969E+02 0.  0.
         13    1    3    3    0    0  0.47774504832E+02 -0.27640770666E+02  0.54291792158E+02  0.77421019179E+02  0.00000000000E+00 0. -1.
        -13    1    3    3    0    0  0.20444684961E+03 -0.56151355500E+02  0.54697596435E+03  0.58662952075E+03  0.00000000000E+00 0.  1.
         22    1    1    2    0    0 -0.25222135445E+03  0.83792126167E+02 -0.77767996459E+02  0.27691983194E+03  0.00000000000E+00 0. -1.
<mgrwt>
<rscale>  0 0.78190360E+03</rscale>
<asrwt>0</asrwt>
<pdfrwt beam="1">  1        3 0.32113124E-01 0.78190360E+03</pdfrwt>
<pdfrwt beam="2">  1       -3 0.11265155E+00 0.78190360E+03</pdfrwt>
<totfact> 0.16531340E+01</totfact>
</mgrwt>
</event>
<event>
 6    1  0.9512547E-007  0.5002210E+04  0.7818608E-02  0.7828166E-01
          1   -1    0    0  501    0  0.00000000000E+00  0.00000000000E+00  0.41651391276E+04  0.41651391276E+04  0.00000000000E+00 0. -1.
         -1   -1    0    0    0  501 -0.00000000000E+00 -0.00000000000E+00 -0.15018768096E+04  0.15018768096E+04  0.00000000000E+00 0.  1.
         23    2    1    2    0    0  0.13831161160E+04  0.75517989655E+03 -0.86702203577E+03  0.18009825067E+04  0.92216660889E+02 0.  0.
         13    1    3    3    0    0  0.79271559590E+03  0.40896073074E+03 -0.53678891157E+03  0.10410519828E+04  0.00000000000E+00 0.  1.
        -13    1    3    3    0    0  0.59040052008E+03  0.34621916581E+03 -0.33023312420E+03  0.75993052393E+03  0.00000000000E+00 0. -1.
         22    1    1    2    0    0 -0.13831161160E+04 -0.75517989655E+03  0.35302843538E+04  0.38660334304E+04  0.00000000000E+00 0. -1.
<mgrwt>
<rscale>  0 0.50022099E+04</rscale>
<asrwt>0</asrwt>
<pdfrwt beam="1">  1        1 0.64079063E+00 0.50022099E+04</pdfrwt>
<pdfrwt beam="2">  1       -1 0.23105797E+00 0.50022099E+04</pdfrwt>
<totfact> 0.45465676E-03</totfact>
</mgrwt>
</event>
<event>
 6    1  0.9512547E-007  0.1262924E+04  0.7818608E-02  0.9059495E-01
          2   -1    0    0  501    0  0.00000000000E+00  0.00000000000E+00  0.11728278886E+04  0.11728278886E+04  0.00000000000E+00 0. -1.
         -2   -1    0    0    0  501 -0.00000000000E+00 -0.00000000000E+00 -0.33998541990E+03  0.33998541990E+03  0.00000000000E+00 0.  1.
         23    2    1    2    0    0 -0.32131804567E+03  0.22999303388E+03 -0.16626052701E+03  0.43840701750E+03  0.91739130365E+02 0.  0.
         13    1    3    3    0    0 -0.25855091870E+03  0.13750110174E+03 -0.13417154211E+03  0.32211354093E+03  0.00000000000E+00 0.  1.
        -13    1    3    3    0    0 -0.62767126979E+02  0.92491932141E+02 -0.32088984896E+02  0.11629347657E+03  0.00000000000E+00 0. -1.
         22    1    1    2    0    0  0.32131804567E+03 -0.22999303388E+03  0.99910299573E+03  0.10744062910E+04  0.00000000000E+00 0. -1.
<mgrwt>
<rscale>  0 0.12629242E+04</rscale>
<asrwt>0</asrwt>
<pdfrwt beam="1">  1        2 0.18043506E+00 0.12629242E+04</pdfrwt>
<pdfrwt beam="2">  1       -2 0.52305450E-01 0.12629242E+04</pdfrwt>
<totfact> 0.66657914E+01</totfact>
</mgrwt>
</event>
<event>
 6    1  0.9512547E-007  0.2477070E+04  0.7818608E-02  0.8411200E-01
          2   -1    0    0  501    0  0.00000000000E+00  0.00000000000E+00  0.32729279743E+04  0.32729279743E+04  0.00000000000E+00 0. -1.
         -2   -1    0    0    0  501 -0.00000000000E+00 -0.00000000000E+00 -0.46868405133E+03  0.46868405133E+03  0.00000000000E+00 0.  1.
         23    2    1    2    0    0  0.88391420821E+03 -0.54799179999E+03  0.39269792558E+03  0.11153688080E+04  0.90755588691E+02 0.  0.
         13    1    3    3    0    0  0.69368886644E+03 -0.39233182593E+03  0.27712733933E+03  0.84375829908E+03  0.00000000000E+00 0. -1.
        -13    1    3    3    0    0  0.19022534177E+03 -0.15565997406E+03  0.11557058625E+03  0.27161050896E+03  0.00000000000E+00 0.  1.
         22    1    1    2    0    0 -0.88391420821E+03  0.54799179999E+03  0.24115459974E+04  0.26262432176E+04  0.00000000000E+00 0. -1.
<mgrwt>
<rscale>  0 0.24770702E+04</rscale>
<asrwt>0</asrwt>
<pdfrwt beam="1">  1        2 0.50352737E+00 0.24770702E+04</pdfrwt>
<pdfrwt beam="2">  1       -2 0.72105241E-01 0.24770702E+04</pdfrwt>
<totfact> 0.18086064E+00</totfact>
</mgrwt>
</event>
<event>
 6    1  0.9512547E-007  0.1023053E+04  0.7818608E-02  0.9283616E-01
          1   -1    0    0  501    0  0.00000000000E+00  0.00000000000E+00  0.31218386737E+04  0.31218386737E+04  0.00000000000E+00 0. -1.
         -1   -1    0    0    0  501 -0.00000000000E+00 -0.00000000000E+00 -0.83815802989E+02  0.83815802989E+02  0.00000000000E+00 0.  1.
         23    2    1    2    0    0 -0.12830961247E+03 -0.29292572467E+03  0.27653689868E+04  0.27854057679E+04  0.94608782779E+02 0.  0.
         13    1    3    3    0    0 -0.28739054637E+02 -0.79055239535E+02  0.11275750454E+04  0.11307082502E+04  0.00000000000E+00 0. -1.
        -13    1    3    3    0    0 -0.99570557830E+02 -0.21387048514E+03  0.16377939414E+04  0.16546975177E+04  0.00000000000E+00 0.  1.
         22    1    1    2    0    0  0.12830961247E+03  0.29292572467E+03  0.27265388387E+03  0.42024870876E+03  0.00000000000E+00 0.  1.
<mgrwt>
<rscale>  0 0.10230531E+04</rscale>
<asrwt>0</asrwt>
<pdfrwt beam="1">  1        1 0.48028278E+00 0.10230531E+04</pdfrwt>
<pdfrwt beam="2">  1       -1 0.12894741E-01 0.10230531E+04</pdfrwt>
<totfact> 0.20967812E+01</totfact>
</mgrwt>
</event>
<event>
 6    1  0.9512547E-007  0.8778068E+03  0.7818608E-02  0.9453757E-01
          2   -1    0    0  501    0  0.00000000000E+00  0.00000000000E+00  0.52378513362E+03  0.52378513362E+03  0.00000000000E+00 0. -1.
         -2   -1    0    0    0  501 -0.00000000000E+00 -0.00000000000E+00 -0.36777715345E+03  0.36777715345E+03  0.00000000000E+00 0.  1.
         23    2    1    2    0    0 -0.32408748963E+03  0.15459614183E+03  0.32677568766E+03  0.49395157554E+03  0.90956808021E+02 0.  0.
         11    1    3    3    0    0 -0.16354236802E+03  0.12654166375E+03  0.19723025189E+03  0.28575981359E+03  0.00000000000E+00 0. -1.
        -11    1    3    3    0    0 -0.16054512161E+03  0.28054478079E+02  0.12954543578E+03  0.20819176195E+03  0.00000000000E+00 0.  1.
         22    1    1    2    0    0  0.32408748963E+03 -0.15459614183E+03 -0.17076770750E+03  0.39761071154E+03  0.00000000000E+00 0.  1.
<mgrwt>
<rscale>  0 0.87780682E+03</rscale>
<asrwt>0</asrwt>
<pdfrwt beam="1">  1        2 0.80582328E-01 0.87780682E+03</pdfrwt>
<pdfrwt beam="2">  1       -2 0.56581101E-01 0.87780682E+03</pdfrwt>
<totfact> 0.17170278E+02</totfact>
</mgrwt>
</event>
<event>
 6    1  0.9512547E-007  0.4157528E+04  0.7818608E-02  0.7973501E-01
         -1   -1    0    0    0  501 -0.00000000000E+00  0.00000000000E+00  0.95570841991E+03  0.95570841991E+03  0.00000000000E+00 0.  1.
          1   -1    0    0  501    0  0.00000000000E+00 -0.00000000000E+00 -0.45215249566E+04  0.45215249566E+04  0.00000000000E+00 0. -1.
         23    2    1    2    0    0 -0.15895939804E+04 -0.13373087949E+04 -0.18368490289E+04  0.27745435167E+04  0.94199445579E+02 0.  0.
         13    1    3    3    0    0 -0.87738518512E+03 -0.69252126363E+03 -0.94582407745E+03  0.14642314193E+04  0.00000000000E+00 0. -1.
        -13    1    3    3    0    0 -0.71220879528E+03 -0.64478753124E+03 -0.89102495149E+03  0.13103120974E+04  0.00000000000E+00 0.  1.
         22    1    1    2    0    0  0.15895939804E+04  0.13373087949E+04 -0.17289675077E+04  0.27026898598E+04  0.00000000000E+00 0.  1.
<mgrwt>
<rscale>  0 0.41575279E+04</rscale>
<asrwt>0</asrwt>
<pdfrwt beam="1">  1        1 0.69561923E+00 0.41575279E+04</pdfrwt>
<pdfrwt beam="2">  1       -1 0.14703206E+00 0.41575279E+04</pdfrwt>
<totfact> 0.86503234E-03</totfact>
</mgrwt>
</event>
<event>
 6    1  0.9512547E-007  0.3056187E+04  0.7818608E-02  0.8227866E-01
          1   -1    0    0  501    0  0.00000000000E+00  0.00000000000E+00  0.14452469465E+04  0.14452469465E+04  0.00000000000E+00 0. -1.
         -1   -1    0    0    0  501 -0.00000000000E+00 -0.00000000000E+00 -0.16156894444E+04  0.16156894444E+04  0.00000000000E+00 0.  1.
         23    2    1    2    0    0 -0.57096454337E+03 -0.98132923488E+03  0.93700093224E+03  0.14749229837E+04  0.91757744802E+02 0.  0.
         13    1    3    3    0    0 -0.20924220399E+03 -0.44422293174E+03  0.38346894212E+03  0.62302868520E+03  0.00000000000E+00 0.  1.
        -13    1    3    3    0    0 -0.36172233939E+03 -0.53710630314E+03  0.55353199012E+03  0.85189429848E+03  0.00000000000E+00 0. -1.
         22    1    1    2    0    0  0.57096454337E+03  0.98132923488E+03 -0.11074434301E+04  0.15860134072E+04  0.00000000000E+00 0.  1.
<mgrwt>
<rscale>  0 0.30561873E+04</rscale>
<asrwt>0</asrwt>
<pdfrwt beam="1">  1        1 0.22234568E+00 0.30561873E+04</pdfrwt>
<pdfrwt beam="2">  1       -1 0.24856761E+00 0.30561873E+04</pdfrwt>
<totfact> 0.43092573E-01</totfact>
</mgrwt>
</event>
<event>
 6    1  0.9512547E-007  0.1617542E+04  0.7818608E-02  0.8809843E-01
          2   -1    0    0  501    0  0.00000000000E+00  0.00000000000E+00  0.30522311569E+04  0.30522311569E+04  0.00000000000E+00 0. -1.
         -2   -1    0    0    0  501 -0.00000000000E+00 -0.00000000000E+00 -0.21430557712E+03  0.21430557712E+03  0.00000000000E+00 0.  1.
         23    2    1    2    0    0 -0.35097721850E+02  0.61598920585E+03  0.24712594798E+04  0.25488191150E+04  0.93171415329E+02 0.  0.
         11    1    3    3    0    0 -0.31660252927E+02  0.14901212038E+03  0.48301531172E+03  0.50646892796E+03  0.00000000000E+00 0. -1.
        -11    1    3    3    0    0 -0.34374689232E+01  0.46697708546E+03  0.19882441681E+04  0.20423501870E+04  0.00000000000E+00 0.  1.
         22    1    1    2    0    0  0.35097721850E+02 -0.61598920585E+03  0.36666609999E+03  0.71771761904E+03  0.00000000000E+00 0.  1.
<mgrwt>
<rscale>  0 0.16175415E+04</rscale>
<asrwt>0</asrwt>
<pdfrwt beam="1">  1        2 0.46957399E+00 0.16175415E+04</pdfrwt>
<pdfrwt beam="2">  1       -2 0.32970091E-01 0.16175415E+04</pdfrwt>
<totfact> 0.13352700E+01</totfact>
</mgrwt>
</event>
<event>
 6    1  0.9512547E-007  0.2525250E+04  0.7818608E-02  0.8394045E-01
          2   -1    0    0  501    0  0.00000000000E+00  0.00000000000E+00  0.15765289381E+04  0.15765289381E+04  0.00000000000E+00 0. -1.
         -2   -1    0    0    0  501 -0.00000000000E+00 -0.00000000000E+00 -0.10112223750E+04  0.10112223750E+04  0.00000000000E+00 0.  1.
         23    2    1    2    0    0 -0.31459586988E+03 -0.97973204562E+02  0.15303439888E+04  0.15680128451E+04  0.90234406830E+02 0.  0.
         13    1    3    3    0    0 -0.69431170295E+02  0.34436261036E+01  0.20780736481E+03  0.21912655439E+03  0.00000000000E+00 0.  1.
        -13    1    3    3    0    0 -0.24516469958E+03 -0.10141683067E+03  0.13225366240E+04  0.13488862907E+04  0.00000000000E+00 0. -1.
         22    1    1    2    0    0  0.31459586988E+03  0.97973204562E+02 -0.96503742564E+03  0.10197384680E+04  0.00000000000E+00 0.  1.
<mgrwt>
<rscale>  0 0.25252496E+04</rscale>
<asrwt>0</asrwt>
<pdfrwt beam="1">  1        2 0.24254291E+00 0.25252496E+04</pdfrwt>
<pdfrwt beam="2">  1       -2 0.15557267E+00 0.25252496E+04</pdfrwt>
<totfact> 0.27812944E+00</totfact>
</mgrwt>
</event>
<event>
 6    1  0.9512547E-007  0.1871971E+04  0.7818608E-02  0.8668935E-01
         -2   -1    0    0    0  501 -0.00000000000E+00  0.00000000000E+00  0.32194355959E+03  0.32194355959E+03  0.00000000000E+00 0.  1.
          2   -1    0    0  501    0  0.00000000000E+00 -0.00000000000E+00 -0.27211891353E+04  0.27211891353E+04  0.00000000000E+00 0. -1.
         23    2    1    2    0    0 -0.53893182248E+03  0.48815878399E+03 -0.21548685551E+04  0.22760169045E+04  0.89710378202E+02 0.  0.
         11    1    3    3    0    0 -0.12359942610E+03  0.12045386624E+03 -0.63685789668E+03  0.65982871458E+03  0.00000000000E+00 0. -1.
        -11    1    3    3    0    0 -0.41533239637E+03  0.36770491775E+03 -0.15180106585E+04  0.16161881899E+04  0.00000000000E+00 0.  1.
         22    1    1    2    0    0  0.53893182248E+03 -0.48815878399E+03 -0.24437702054E+03  0.76711579037E+03  0.00000000000E+00 0.  1.
<mgrwt>
<rscale>  0 0.18719715E+04</rscale>
<asrwt>0</asrwt>
<pdfrwt beam="1">  1        2 0.41864448E+00 0.18719715E+04</pdfrwt>
<pdfrwt beam="2">  1       -2 0.49529779E-01 0.18719715E+04</pdfrwt>
<totfact> 0.93569110E+00</totfact>
</mgrwt>
</event>
<event>
 6    1  0.9512547E-007  0.2788835E+04  0.7818608E-02  0.8306743E-01
         -1   -1    0    0    0  501 -0.00000000000E+00  0.00000000000E+00  0.74198468237E+03  0.74198468237E+03  0.00000000000E+00 0.  1.
          1   -1    0    0  501    0  0.00000000000E+00 -0.00000000000E+00 -0.26205387953E+04  0.26205387953E+04  0.00000000000E+00 0. -1.
         23    2    1    2    0    0 -0.13514922304E+04 -0.12716629808E+03 -0.56370111779E+03  0.14726713895E+04  0.91101894859E+02 0.  0.
         11    1    3    3    0    0 -0.95449575732E+03 -0.12786501125E+03 -0.38098641995E+03  0.10356458198E+04  0.00000000000E+00 0. -1.
        -11    1    3    3    0    0 -0.39699647305E+03  0.69871316788E+00 -0.18271469784E+03  0.43702556976E+03  0.00000000000E+00 0.  1.
         22    1    1    2    0    0  0.13514922304E+04  0.12716629808E+03 -0.13148529951E+04  0.18898520881E+04  0.00000000000E+00 0. -1.
<mgrwt>
<rscale>  0 0.27888346E+04</rscale>
<asrwt>0</asrwt>
<pdfrwt beam="1">  1        1 0.40315981E+00 0.27888346E+04</pdfrwt>
<pdfrwt beam="2">  1       -1 0.11415149E+00 0.27888346E+04</pdfrwt>
<totfact> 0.67551301E-01</totfact>
</mgrwt>
</event>
<event>
 6    1  0.9512547E-007  0.2835288E+04  0.7818608E-02  0.8292396E-01
          1   -1    0    0  501    0  0.00000000000E+00  0.00000000000E+00  0.22001665459E+04  0.22001665459E+04  0.00000000000E+00 0. -1.
         -1   -1    0    0    0  501 -0.00000000000E+00 -0.00000000000E+00 -0.91343721429E+03  0.91343721429E+03  0.00000000000E+00 0.  1.
         23    2    1    2    0    0 -0.41009664992E+03  0.84554458606E+03  0.18075015603E+04  0.20392068952E+04  0.90432083726E+02 0.  0.
         11    1    3    3    0    0 -0.36432814999E+03  0.74011895370E+03  0.15168599339E+04  0.17266658987E+04  0.00000000000E+00 0.  1.
        -11    1    3    3    0    0 -0.45768499929E+02  0.10542563236E+03  0.29064162636E+03  0.31254099654E+03  0.00000000000E+00 0. -1.
         22    1    1    2    0    0  0.41009664992E+03 -0.84554458606E+03 -0.52077222869E+03  0.10743968650E+04  0.00000000000E+00 0.  1.
<mgrwt>
<rscale>  0 0.28352876E+04</rscale>
<asrwt>0</asrwt>
<pdfrwt beam="1">  1        1 0.33848716E+00 0.28352876E+04</pdfrwt>
<pdfrwt beam="2">  1       -1 0.14052880E+00 0.28352876E+04</pdfrwt>
<totfact> 0.78003876E-01</totfact>
</mgrwt>
</event>
<event>
 6    1  0.9512547E-007  0.1857882E+04  0.7818608E-02  0.8676110E-01
          2   -1    0    0  501    0  0.00000000000E+00  0.00000000000E+00  0.17223358634E+04  0.17223358634E+04  0.00000000000E+00 0. -1.
         -2   -1    0    0    0  501 -0.00000000000E+00 -0.00000000000E+00 -0.50102397334E+03  0.50102397334E+03  0.00000000000E+00 0.  1.
         23    2    1    2    0    0 -0.72550533645E+03  0.27974870464E+03  0.12155520898E+04  0.14457670730E+04  0.89767562492E+02 0.  0.
         13    1    3    3    0    0 -0.13574270902E+03  0.29160312437E+02  0.17021606818E+03  0.21965863684E+03  0.00000000000E+00 0. -1.
        -13    1    3    3    0    0 -0.58976262743E+03  0.25058839221E+03  0.10453360216E+04  0.12261084361E+04  0.00000000000E+00 0.  1.
         22    1    1    2    0    0  0.72550533645E+03 -0.27974870464E+03  0.57598002642E+01  0.77759276377E+03  0.00000000000E+00 0.  1.
<mgrwt>
<rscale>  0 0.18578822E+04</rscale>
<asrwt>0</asrwt>
<pdfrwt beam="1">  1        2 0.26497475E+00 0.18578822E+04</pdfrwt>
<pdfrwt beam="2">  1       -2 0.77080612E-01 0.18578822E+04</pdfrwt>
<totfact> 0.13454256E+01</totfact>
</mgrwt>
</event>
<event>
 6    1  0.9512547E-007  0.3826655E+04  0.7818608E-02  0.8040459E-01
          2   -1    0    0  501    0  0.00000000000E+00  0.00000000000E+00  0.23212820782E+04  0.23212820782E+04  0.00000000000E+00 0. -1.
         -2   -1    0    0    0  501 -0.00000000000E+00 -0.00000000000E+00 -0.15770693514E+04  0.15770693514E+04  0.00000000000E+00 0.  1.
         23    2    1    2    0    0  0.45666696457E+03 -0.76957561317E+03  0.20938900104E+04  0.22789626218E+04  0.92216674544E+02 0.  0.
         13    1    3    3    0    0  0.37464608623E+03 -0.68947582697E+03  0.18076958333E+04  0.19706599990E+04  0.00000000000E+00 0.  1.
        -13    1    3    3    0    0  0.82020878342E+02 -0.80099786197E+02  0.28619417707E+03  0.30830262279E+03  0.00000000000E+00 0. -1.
         22    1    1    2    0    0 -0.45666696457E+03  0.76957561317E+03 -0.13496772836E+04  0.16193888078E+04  0.00000000000E+00 0.  1.
<mgrwt>
<rscale>  0 0.38266554E+04</rscale>
<asrwt>0</asrwt>
<pdfrwt beam="1">  1        2 0.35712032E+00 0.38266554E+04</pdfrwt>
<pdfrwt beam="2">  1       -2 0.24262605E+00 0.38266554E+04</pdfrwt>
<totfact> 0.25172112E-01</totfact>
</mgrwt>
</event>
<event>
 6    1  0.9512547E-007  0.1568583E+04  0.7818608E-02  0.8840085E-01
         -2   -1    0    0    0  501 -0.00000000000E+00  0.00000000000E+00  0.32176205657E+03  0.32176205657E+03  0.00000000000E+00 0.  1.
          2   -1    0    0  501    0  0.00000000000E+00 -0.00000000000E+00 -0.19117015134E+04  0.19117015134E+04  0.00000000000E+00 0. -1.
         23    2    1    2    0    0 -0.15870962997E+03 -0.47492725242E+03 -0.16523588235E+04  0.17288440905E+04  0.88699299667E+02 0.  0.
         13    1    3    3    0    0 -0.12967487856E+03 -0.36269573183E+03 -0.13821371229E+04  0.14348054902E+04  0.00000000000E+00 0. -1.
        -13    1    3    3    0    0 -0.29034751414E+02 -0.11223152059E+03 -0.27022170060E+03  0.29403860032E+03  0.00000000000E+00 0.  1.
         22    1    1    2    0    0  0.15870962997E+03  0.47492725242E+03  0.62419366712E+02  0.50461947948E+03  0.00000000000E+00 0.  1.
<mgrwt>
<rscale>  0 0.15685828E+04</rscale>
<asrwt>0</asrwt>
<pdfrwt beam="1">  1        2 0.29410792E+00 0.15685828E+04</pdfrwt>
<pdfrwt beam="2">  1       -2 0.49501855E-01 0.15685828E+04</pdfrwt>
<totfact> 0.27775624E+01</totfact>
</mgrwt>
</event>
<event>
 6    1  0.9512547E-007  0.1334681E+04  0.7818608E-02  0.9002506E-01
          2   -1    0    0  501    0  0.00000000000E+00  0.00000000000E+00  0.39071381684E+03  0.39071381684E+03  0.00000000000E+00 0. -1.
         -2   -1    0    0    0  501 -0.00000000000E+00 -0.00000000000E+00 -0.11398205943E+04  0.11398205943E+04  0.00000000000E+00 0.  1.
         23    2    1    2    0    0 -0.30436748138E+03  0.94363474608E+02 -0.10446485035E+04  0.10959208576E+04  0.90598019612E+02 0.  0.
         13    1    3    3    0    0 -0.29121969544E+03  0.10316457014E+03 -0.92502044452E+03  0.97525107655E+03  0.00000000000E+00 0. -1.
        -13    1    3    3    0    0 -0.13147785942E+02 -0.88010955280E+01 -0.11962805899E+03  0.12066978104E+03  0.00000000000E+00 0.  1.
         22    1    1    2    0    0  0.30436748138E+03 -0.94363474608E+02  0.29554172607E+03  0.43461355353E+03  0.00000000000E+00 0. -1.
<mgrwt>
<rscale>  0 0.13346815E+04</rscale>
<asrwt>0</asrwt>
<pdfrwt beam="1">  1        2 0.60109819E-01 0.13346815E+04</pdfrwt>
<pdfrwt beam="2">  1       -2 0.17535701E+00 0.13346815E+04</pdfrwt>
<totfact> 0.15578960E+01</totfact>
</mgrwt>
</event>
<event>
 6    1  0.9512547E-007  0.2087277E+04  0.7818608E-02  0.8566869E-01
         -1   -1    0    0    0  501 -0.00000000000E+00  0.00000000000E+00  0.61956382494E+03  0.61956382494E+03  0.00000000000E+00 0.  1.
          1   -1    0    0  501    0  0.00000000000E+00 -0.00000000000E+00 -0.17579805860E+04  0.17579805860E+04  0.00000000000E+00 0. -1.
         23    2    1    2    0    0  0.44466990649E+03 -0.89399709150E+03 -0.90813324573E+03  0.13528529341E+04  0.92428047410E+02 0.  0.
         13    1    3    3    0    0  0.22290325831E+02 -0.24657423982E+02 -0.51815807193E+02  0.61560742833E+02  0.00000000000E+00 0. -1.
        -13    1    3    3    0    0  0.42237958066E+03 -0.86933966752E+03 -0.85631743854E+03  0.12912921913E+04  0.00000000000E+00 0.  1.
         22    1    1    2    0    0 -0.44466990649E+03  0.89399709150E+03 -0.23028351538E+03  0.10246914769E+04  0.00000000000E+00 0.  1.
<mgrwt>
<rscale>  0 0.20872769E+04</rscale>
<asrwt>0</asrwt>
<pdfrwt beam="1">  1        1 0.27045855E+00 0.20872769E+04</pdfrwt>
<pdfrwt beam="2">  1       -1 0.95317513E-01 0.20872769E+04</pdfrwt>
<totfact> 0.42570943E+00</totfact>
</mgrwt>
</event>
<event>
 6    1  0.9512547E-007  0.2351153E+04  0.7818608E-02  0.8458021E-01
          1   -1    0    0  501    0  0.00000000000E+00  0.00000000000E+00  0.33225467471E+04  0.33225467471E+04  0.00000000000E+00 0. -1.
         -1   -1    0    0    0  501 -0.00000000000E+00 -0.00000000000E+00 -0.41593985375E+03  0.41593985375E+03  0.00000000000E+00 0.  1.
         23    2    1    2    0    0  0.53935832344E+03  0.70990603560E+03  0.26693030969E+04  0.28158885994E+04  0.95789354807E+02 0.  0.
         11    1    3    3    0    0  0.43314686678E+03  0.50062623311E+03  0.19710219330E+04  0.20792234834E+04  0.00000000000E+00 0.  1.
        -11    1    3    3    0    0  0.10621145666E+03  0.20927980249E+03  0.69828116388E+03  0.73666511597E+03  0.00000000000E+00 0. -1.
         22    1    1    2    0    0 -0.53935832344E+03 -0.70990603560E+03  0.23730379640E+03  0.92259800142E+03  0.00000000000E+00 0.  1.
<mgrwt>
<rscale>  0 0.23511526E+04</rscale>
<asrwt>0</asrwt>
<pdfrwt beam="1">  1        1 0.51116102E+00 0.23511526E+04</pdfrwt>
<pdfrwt beam="2">  1       -1 0.63990749E-01 0.23511526E+04</pdfrwt>
<totfact> 0.76588350E-01</totfact>
</mgrwt>
</event>
<event>
 6    1  0.9512547E-007  0.1515666E+04  0.7818608E-02  0.8874102E-01
         -2   -1    0    0    0  501 -0.00000000000E+00  0.00000000000E+00  0.11191837020E+04  0.11191837020E+04  0.00000000000E+00 0.  1.
          2   -1    0    0  501    0  0.00000000000E+00 -0.00000000000E+00 -0.51315141686E+03  0.51315141686E+03  0.00000000000E+00 0. -1.
         23    2    1    2    0    0 -0.20642936462E+03  0.68775024289E+03  0.52383374301E+02  0.72561542918E+03  0.90334124155E+02 0.  0.
         11    1    3    3    0    0 -0.14000601071E+03  0.50665977215E+03 -0.35285096134E+00  0.52564810687E+03  0.00000000000E+00 0. -1.
        -11    1    3    3    0    0 -0.66423353905E+02  0.18109047074E+03  0.52736225262E+02  0.19996732231E+03  0.00000000000E+00 0.  1.
         22    1    1    2    0    0  0.20642936462E+03 -0.68775024289E+03  0.55364891083E+03  0.90671968967E+03  0.00000000000E+00 0.  1.
<mgrwt>
<rscale>  0 0.15156658E+04</rscale>
<asrwt>0</asrwt>
<pdfrwt beam="1">  1        2 0.78946372E-01 0.15156658E+04</pdfrwt>
<pdfrwt beam="2">  1       -2 0.17218211E+00 0.15156658E+04</pdfrwt>
<totfact> 0.11845109E+01</totfact>
</mgrwt>
</event>
<event>
 6    1  0.9512547E-007  0.3134735E+04  0.7818608E-02  0.8206269E-01
          2   -1    0    0  501    0  0.00000000000E+00  0.00000000000E+00  0.13023059154E+04  0.13023059154E+04  0.00000000000E+00 0. -1.
         -2   -1    0    0    0  501 -0.00000000000E+00 -0.00000000000E+00 -0.18863781300E+04  0.18863781300E+04  0.00000000000E+00 0.  1.
         23    2    1    2    0    0  0.67488344527E+02  0.77566477755E+03 -0.16744160830E+04  0.18488854503E+04  0.92182783206E+02 0.  0.
         13    1    3    3    0    0  0.12829701872E+02  0.55607947665E+03 -0.12410372742E+04  0.13599862138E+04  0.00000000000E+00 0. -1.
        -13    1    3    3    0    0  0.54658642655E+02  0.21958530090E+03 -0.43337880879E+03  0.48889923655E+03  0.00000000000E+00 0.  1.
         22    1    1    2    0    0 -0.67488344527E+02 -0.77566477755E+03  0.10903438684E+04  0.13397985950E+04  0.00000000000E+00 0. -1.
<mgrwt>
<rscale>  0 0.31347353E+04</rscale>
<asrwt>0</asrwt>
<pdfrwt beam="1">  1        2 0.20035476E+00 0.31347353E+04</pdfrwt>
<pdfrwt beam="2">  1       -2 0.29021202E+00 0.31347353E+04</pdfrwt>
<totfact> 0.50894903E-01</totfact>
</mgrwt>
</event>
<event>
 6    1  0.9512547E-007  0.2388458E+04  0.7818608E-02  0.8443837E-01
         -2   -1    0    0    0  501 -0.00000000000E+00  0.00000000000E+00  0.37941612918E+03  0.37941612918E+03  0.00000000000E+00 0.  1.
          2   -1    0    0  501    0  0.00000000000E+00 -0.00000000000E+00 -0.37588896890E+04  0.37588896890E+04  0.00000000000E+00 0. -1.
         23    2    1    2    0    0  0.54256503783E+03 -0.44769360096E+03 -0.22804296735E+02  0.70872349341E+03  0.83442037099E+02 0.  0.
         13    1    3    3    0    0  0.19296325790E+03 -0.10922925086E+03 -0.45005303828E+01  0.22177940147E+03  0.00000000000E+00 0.  1.
        -13    1    3    3    0    0  0.34960177993E+03 -0.33846435010E+03 -0.18303766352E+02  0.48694409195E+03  0.00000000000E+00 0. -1.
         22    1    1    2    0    0 -0.54256503783E+03  0.44769360096E+03 -0.33566692631E+04  0.34295823247E+04  0.00000000000E+00 0. -1.
<mgrwt>
<rscale>  0 0.23884584E+04</rscale>
<asrwt>0</asrwt>
<pdfrwt beam="1">  1        2 0.57829071E+00 0.23884584E+04</pdfrwt>
<pdfrwt beam="2">  1       -2 0.58371713E-01 0.23884584E+04</pdfrwt>
<totfact> 0.13077181E+00</totfact>
</mgrwt>
</event>
<event>
 6    1  0.9512547E-007  0.3545061E+04  0.7818608E-02  0.8103193E-01
          2   -1    0    0  501    0  0.00000000000E+00  0.00000000000E+00  0.25178715836E+04  0.25178715836E+04  0.00000000000E+00 0. -1.
         -2   -1    0    0    0  501 -0.00000000000E+00 -0.00000000000E+00 -0.12478256193E+04  0.12478256193E+04  0.00000000000E+00 0.  1.
         23    2    1    2    0    0  0.38921145795E+03 -0.15871021229E+04 -0.90772180683E+02  0.16391495944E+04  0.90515725424E+02 0.  0.
         11    1    3    3    0    0  0.12521498846E+03 -0.40229309512E+03 -0.53506361410E+02  0.42471338386E+03  0.00000000000E+00 0. -1.
        -11    1    3    3    0    0  0.26399646949E+03 -0.11848090277E+04 -0.37265819273E+02  0.12144362105E+04  0.00000000000E+00 0.  1.
         22    1    1    2    0    0 -0.38921145795E+03  0.15871021229E+04  0.13608181451E+04  0.21265476085E+04  0.00000000000E+00 0. -1.
<mgrwt>
<rscale>  0 0.35450612E+04</rscale>
<asrwt>0</asrwt>
<pdfrwt beam="1">  1        2 0.38736486E+00 0.35450612E+04</pdfrwt>
<pdfrwt beam="2">  1       -2 0.19197317E+00 0.35450612E+04</pdfrwt>
<totfact> 0.41833594E-01</totfact>
</mgrwt>
</event>
<event>
 6    1  0.9512547E-007  0.8514615E+03  0.7818608E-02  0.9488378E-01
         -2   -1    0    0    0  501 -0.00000000000E+00  0.00000000000E+00  0.90975185943E+02  0.90975185943E+02  0.00000000000E+00 0.  1.
          2   -1    0    0  501    0  0.00000000000E+00 -0.00000000000E+00 -0.19922647758E+04  0.19922647758E+04  0.00000000000E+00 0. -1.
         23    2    1    2    0    0 -0.28805167896E+03 -0.30656949425E+03 -0.93914649560E+03  0.10331552231E+04  0.91950803201E+02 0.  0.
         11    1    3    3    0    0 -0.45386266238E+02 -0.93592250282E+01 -0.85763558407E+02  0.97482799543E+02  0.00000000000E+00 0.  1.
        -11    1    3    3    0    0 -0.24266541273E+03 -0.29721026922E+03 -0.85338293719E+03  0.93567242353E+03  0.00000000000E+00 0. -1.
         22    1    1    2    0    0  0.28805167896E+03  0.30656949425E+03 -0.96214309423E+03  0.10500847386E+04  0.00000000000E+00 0. -1.
<mgrwt>
<rscale>  0 0.85146147E+03</rscale>
<asrwt>0</asrwt>
<pdfrwt beam="1">  1        2 0.30650228E+00 0.85146147E+03</pdfrwt>
<pdfrwt beam="2">  1       -2 0.13996182E-01 0.85146147E+03</pdfrwt>
<totfact> 0.26982312E+02</totfact>
</mgrwt>
</event>
<event>
 6    1  0.9512547E-007  0.1756985E+04  0.7818608E-02  0.8729515E-01
          2   -1    0    0  501    0  0.00000000000E+00  0.00000000000E+00  0.13395492452E+04  0.13395492452E+04  0.00000000000E+00 0. -1.
         -2   -1    0    0    0  501 -0.00000000000E+00 -0.00000000000E+00 -0.57612591942E+03  0.57612591942E+03  0.00000000000E+00 0.  1.
         23    2    1    2    0    0  0.57291165936E+03  0.66223178571E+03  0.41399210665E+03  0.97287036810E+03  0.91151419738E+02 0.  0.
         13    1    3    3    0    0  0.46826095830E+03  0.50471874719E+03  0.35595057570E+03  0.77505493429E+03  0.00000000000E+00 0.  1.
        -13    1    3    3    0    0  0.10465070106E+03  0.15751303852E+03  0.58041530954E+02  0.19781543381E+03  0.00000000000E+00 0. -1.
         22    1    1    2    0    0 -0.57291165936E+03 -0.66223178571E+03  0.34943121914E+03  0.94280479653E+03  0.00000000000E+00 0. -1.
<mgrwt>
<rscale>  0 0.17569850E+04</rscale>
<asrwt>0</asrwt>
<pdfrwt beam="1">  1        2 0.20608450E+00 0.17569850E+04</pdfrwt>
<pdfrwt beam="2">  1       -2 0.88634757E-01 0.17569850E+04</pdfrwt>
<totfact> 0.16260844E+01</totfact>
</mgrwt>
</event>
<event>
 6    1  0.9512547E-007  0.1538269E+04  0.7818608E-02  0.8859396E-01
          1   -1    0    0  501    0  0.00000000000E+00  0.00000000000E+00  0.27213480800E+04  0.27213480800E+04  0.00000000000E+00 0. -1.
         -1   -1    0    0    0  501 -0.00000000000E+00 -0.00000000000E+00 -0.21738033108E+03  0.21738033108E+03  0.00000000000E+00 0.  1.
         23    2    1    2    0    0 -0.30180283677E+02 -0.50426218484E+03  0.23574644777E+04  0.24127489352E+04  0.92344248457E+02 0.  0.
         13    1    3    3    0    0  0.24206880970E+02 -0.25721203790E+03  0.13031035504E+04  0.13284663596E+04  0.00000000000E+00 0. -1.
        -13    1    3    3    0    0 -0.54387164647E+02 -0.24705014693E+03  0.10543609273E+04  0.10842825756E+04  0.00000000000E+00 0.  1.
         22    1    1    2    0    0  0.30180283677E+02  0.50426218484E+03  0.14650327128E+03  0.52597947590E+03  0.00000000000E+00 0.  1.
<mgrwt>
<rscale>  0 0.15382686E+04</rscale>
<asrwt>0</asrwt>
<pdfrwt beam="1">  1        1 0.41866891E+00 0.15382686E+04</pdfrwt>
<pdfrwt beam="2">  1       -1 0.33443130E-01 0.15382686E+04</pdfrwt>
<totfact> 0.77228768E+00</totfact>
</mgrwt>
</event>
<event>
 6    1  0.9512547E-007  0.1809167E+04  0.7818608E-02  0.8701440E-01
         -1   -1    0    0    0  501 -0.00000000000E+00  0.00000000000E+00  0.62105793230E+03  0.62105793230E+03  0.00000000000E+00 0.  1.
          1   -1    0    0  501    0  0.00000000000E+00 -0.00000000000E+00 -0.13175442457E+04  0.13175442457E+04  0.00000000000E+00 0. -1.
         23    2    1    2    0    0 -0.50018591342E+03  0.36355994796E+03  0.35654442681E+03  0.71744063113E+03  0.72355698946E+02 0.  0.
         13    1    3    3    0    0 -0.16794959170E+03  0.13175862221E+03  0.16237200796E+03  0.26820154520E+03  0.00000000000E+00 0. -1.
        -13    1    3    3    0    0 -0.33223632171E+03  0.23180132575E+03  0.19417241885E+03  0.44923908593E+03  0.00000000000E+00 0.  1.
         22    1    1    2    0    0  0.50018591342E+03 -0.36355994796E+03 -0.10530307402E+04  0.12211615469E+04  0.00000000000E+00 0.  1.
<mgrwt>
<rscale>  0 0.18091670E+04</rscale>
<asrwt>0</asrwt>
<pdfrwt beam="1">  1        1 0.20269911E+00 0.18091670E+04</pdfrwt>
<pdfrwt beam="2">  1       -1 0.95547374E-01 0.18091670E+04</pdfrwt>
<totfact> 0.87588995E+00</totfact>
</mgrwt>
</event>
<event>
 6    1  0.9512547E-007  0.5037910E+04  0.7818608E-02  0.7822686E-01
         -2   -1    0    0    0  501 -0.00000000000E+00  0.00000000000E+00  0.17906960852E+04  0.17906960852E+04  0.00000000000E+00 0.  1.
          2   -1    0    0  501    0  0.00000000000E+00 -0.00000000000E+00 -0.35433896749E+04  0.35433896749E+04  0.00000000000E+00 0. -1.
         23    2    1    2    0    0  0.29699641636E+03  0.19766315638E+04 -0.24982102941E+04  0.32007610387E+04  0.92397743625E+02 0.  0.
         13    1    3    3    0    0  0.19009987761E+03  0.10928796625E+04 -0.13247976545E+04  0.17278925735E+04  0.00000000000E+00 0.  1.
        -13    1    3    3    0    0  0.10689653876E+03  0.88375190131E+03 -0.11734126396E+04  0.14728684652E+04  0.00000000000E+00 0. -1.
         22    1    1    2    0    0 -0.29699641636E+03 -0.19766315638E+04  0.74551670430E+03  0.21333247214E+04  0.00000000000E+00 0.  1.
<mgrwt>
<rscale>  0 0.50379099E+04</rscale>
<asrwt>0</asrwt>
<pdfrwt beam="1">  1        2 0.54513687E+00 0.50379099E+04</pdfrwt>
<pdfrwt beam="2">  1       -2 0.27549170E+00 0.50379099E+04</pdfrwt>
<totfact> 0.24621886E-02</totfact>
</mgrwt>
</event>
<event>
 6    1  0.9512547E-007  0.2329516E+04  0.7818608E-02  0.8466373E-01
         -2   -1    0    0    0  501 -0.00000000000E+00  0.00000000000E+00  0.14827629860E+04  0.14827629860E+04  0.00000000000E+00 0.  1.
          2   -1    0    0  501    0  0.00000000000E+00 -0.00000000000E+00 -0.91495524598E+03  0.91495524598E+03  0.00000000000E+00 0. -1.
         23    2    1    2    0    0 -0.79645320787E+03 -0.46007199624E+03 -0.44819592959E+03  0.10272192678E+04  0.91081715298E+02 0.  0.
         13    1    3    3    0    0 -0.44359627906E+03 -0.27240936158E+03 -0.20557839134E+03  0.55968472737E+03  0.00000000000E+00 0. -1.
        -13    1    3    3    0    0 -0.35285692881E+03 -0.18766263467E+03 -0.24261753825E+03  0.46753454046E+03  0.00000000000E+00 0.  1.
         22    1    1    2    0    0  0.79645320787E+03  0.46007199624E+03  0.10160036696E+04  0.13704989641E+04  0.00000000000E+00 0.  1.
<mgrwt>
<rscale>  0 0.23295165E+04</rscale>
<asrwt>0</asrwt>
<pdfrwt beam="1">  1        2 0.14076235E+00 0.23295165E+04</pdfrwt>
<pdfrwt beam="2">  1       -2 0.22811738E+00 0.23295165E+04</pdfrwt>
<totfact> 0.22757287E+00</totfact>
</mgrwt>
</event>
<event>
 6    1  0.9512547E-007  0.3014406E+04  0.7818608E-02  0.8239629E-01
         -1   -1    0    0    0  501 -0.00000000000E+00  0.00000000000E+00  0.11823169796E+04  0.11823169796E+04  0.00000000000E+00 0.  1.
          1   -1    0    0  501    0  0.00000000000E+00 -0.00000000000E+00 -0.19213641575E+04  0.19213641575E+04  0.00000000000E+00 0. -1.
         23    2    1    2    0    0  0.14076028952E+04  0.53185652796E+03 -0.42749738600E+03  0.15670352607E+04  0.92888192079E+02 0.  0.
         11    1    3    3    0    0  0.10749127373E+04  0.42520486384E+03 -0.29160869949E+03  0.11921712137E+04  0.00000000000E+00 0. -1.
        -11    1    3    3    0    0  0.33269015789E+03  0.10665166412E+03 -0.13588868650E+03  0.37486404700E+03  0.00000000000E+00 0.  1.
         22    1    1    2    0    0 -0.14076028952E+04 -0.53185652796E+03 -0.31154979188E+03  0.15366458765E+04  0.00000000000E+00 0.  1.
<mgrwt>
<rscale>  0 0.30144064E+04</rscale>
<asrwt>0</asrwt>
<pdfrwt beam="1">  1        1 0.29559448E+00 0.30144064E+04</pdfrwt>
<pdfrwt beam="2">  1       -1 0.18189492E+00 0.30144064E+04</pdfrwt>
<totfact> 0.57772697E-01</totfact>
</mgrwt>
</event>
<event>
 6    1  0.9512547E-007  0.1396964E+04  0.7818608E-02  0.8956019E-01
          1   -1    0    0  501    0  0.00000000000E+00  0.00000000000E+00  0.10895845167E+04  0.10895845167E+04  0.00000000000E+00 0. -1.
         -1   -1    0    0    0  501 -0.00000000000E+00 -0.00000000000E+00 -0.44776433193E+03  0.44776433193E+03  0.00000000000E+00 0.  1.
         23    2    1    2    0    0 -0.15023475179E+03  0.12616443536E+03 -0.41173818074E+03  0.46568044147E+03  0.94031902535E+02 0.  0.
         11    1    3    3    0    0 -0.32553401339E+02  0.50394998248E+01 -0.15441337468E+03  0.15788796907E+03  0.00000000000E+00 0.  1.
        -11    1    3    3    0    0 -0.11768135045E+03  0.12112493553E+03 -0.25732480606E+03  0.30779247239E+03  0.00000000000E+00 0. -1.
         22    1    1    2    0    0  0.15023475179E+03 -0.12616443536E+03  0.10535583655E+04  0.10716684072E+04  0.00000000000E+00 0. -1.
<mgrwt>
<rscale>  0 0.13969640E+04</rscale>
<asrwt>0</asrwt>
<pdfrwt beam="1">  1        1 0.16762839E+00 0.13969640E+04</pdfrwt>
<pdfrwt beam="2">  1       -1 0.68886821E-01 0.13969640E+04</pdfrwt>
<totfact> 0.26851300E+01</totfact>
</mgrwt>
</event>
<event>
 6    1  0.9512547E-007  0.2150267E+04  0.7818608E-02  0.8539418E-01
          2   -1    0    0  501    0  0.00000000000E+00  0.00000000000E+00  0.29655274204E+04  0.29655274204E+04  0.00000000000E+00 0. -1.
         -2   -1    0    0    0  501 -0.00000000000E+00 -0.00000000000E+00 -0.38978299911E+03  0.38978299911E+03  0.00000000000E+00 0.  1.
         23    2    1    2    0    0  0.16190024472E+03  0.16610147845E+03  0.29252281112E+04  0.29358581101E+04  0.92206017717E+02 0.  0.
         13    1    3    3    0    0  0.11498530958E+03  0.71807844430E+02  0.12518514341E+04  0.12591703622E+04  0.00000000000E+00 0. -1.
        -13    1    3    3    0    0  0.46914935140E+02  0.94293634019E+02  0.16733766770E+04  0.16766877479E+04  0.00000000000E+00 0.  1.
         22    1    1    2    0    0 -0.16190024472E+03 -0.16610147845E+03 -0.34948368989E+03  0.41945230942E+03  0.00000000000E+00 0.  1.
<mgrwt>
<rscale>  0 0.21502671E+04</rscale>
<asrwt>0</asrwt>
<pdfrwt beam="1">  1        2 0.45623497E+00 0.21502671E+04</pdfrwt>
<pdfrwt beam="2">  1       -2 0.59966617E-01 0.21502671E+04</pdfrwt>
<totfact> 0.43604144E+00</totfact>
</mgrwt>
</event>
<event>
 6    1  0.9512547E-007  0.1434800E+04  0.7818608E-02  0.8929007E-01
          1   -1    0    0  501    0  0.00000000000E+00  0.00000000000E+00  0.69065407141E+03  0.69065407141E+03  0.00000000000E+00 0. -1.
         -1   -1    0    0    0  501 -0.00000000000E+00 -0.00000000000E+00 -0.74518125258E+03  0.74518125258E+03  0.00000000000E+00 0.  1.
         23    2    1    2    0    0 -0.57219371388E+03  0.22596235930E+03 -0.39248989255E+03  0.73392120652E+03  0.78277631553E+02 0.  0.
         13    1    3    3    0    0 -0.21361552717E+03  0.12418423967E+03 -0.14491649258E+03  0.28645088349E+03  0.00000000000E+00 0. -1.
        -13    1    3    3    0    0 -0.35857818671E+03  0.10177811963E+03 -0.24757339997E+03  0.44747032303E+03  0.00000000000E+00 0.  1.
         22    1    1    2    0    0  0.57219371388E+03 -0.22596235930E+03  0.33796271138E+03  0.70191411747E+03  0.00000000000E+00 0. -1.
<mgrwt>
<rscale>  0 0.14347996E+04</rscale>
<asrwt>0</asrwt>
<pdfrwt beam="1">  1        1 0.10625447E+00 0.14347996E+04</pdfrwt>
<pdfrwt beam="2">  1       -1 0.11464327E+00 0.14347996E+04</pdfrwt>
<totfact> 0.18705711E+01</totfact>
</mgrwt>
</event>
<event>
 6    1  0.9512547E-007  0.1947569E+04  0.7818608E-02  0.8631534E-01
         -2   -1    0    0    0  501 -0.00000000000E+00  0.00000000000E+00  0.84316448347E+03  0.84316448347E+03  0.00000000000E+00 0.  1.
          2   -1    0    0  501    0  0.00000000000E+00 -0.00000000000E+00 -0.11246401663E+04  0.11246401663E+04  0.00000000000E+00 0. -1.
         23    2    1    2    0    0 -0.57039762722E+03  0.60776793353E+03 -0.64547122630E+03  0.10582838585E+04  0.92716271650E+02 0.  0.
         11    1    3    3    0    0 -0.18728992140E+03  0.23473351406E+03 -0.28014847713E+03  0.41068297569E+03  0.00000000000E+00 0. -1.
        -11    1    3    3    0    0 -0.38310770581E+03  0.37303441947E+03 -0.36532274917E+03  0.64760088282E+03  0.00000000000E+00 0.  1.
         22    1    1    2    0    0  0.57039762722E+03 -0.60776793353E+03  0.36399554344E+03  0.90952079130E+03  0.00000000000E+00 0.  1.
<mgrwt>
<rscale>  0 0.19475694E+04</rscale>
<asrwt>0</asrwt>
<pdfrwt beam="1">  1        2 0.17302156E+00 0.19475694E+04</pdfrwt>
<pdfrwt beam="2">  1       -2 0.12971761E+00 0.19475694E+04</pdfrwt>
<totfact> 0.85728885E+00</totfact>
</mgrwt>
</event>
<event>
 6    1  0.9512547E-007  0.1968217E+04  0.7818608E-02  0.8621626E-01
         -4   -1    0    0    0  501 -0.00000000000E+00  0.00000000000E+00  0.73096000296E+03  0.73096000296E+03  0.00000000000E+00 0.  1.
          4   -1    0    0  501    0  0.00000000000E+00 -0.00000000000E+00 -0.13249286270E+04  0.13249286270E+04  0.00000000000E+00 0. -1.
         23    2    1    2    0    0  0.38537588325E+03  0.69983723564E+03 -0.89403667841E+03  0.12024675351E+04  0.91322849731E+02 0.  0.
         13    1    3    3    0    0  0.52249413397E+02  0.45139383030E+02 -0.89263269820E+02  0.11285165679E+03  0.00000000000E+00 0. -1.
        -13    1    3    3    0    0  0.33312646985E+03  0.65469785262E+03 -0.80477340859E+03  0.10896158783E+04  0.00000000000E+00 0.  1.
         22    1    1    2    0    0 -0.38537588325E+03 -0.69983723564E+03  0.30006805441E+03  0.85342109481E+03  0.00000000000E+00 0.  1.
<mgrwt>
<rscale>  0 0.19682173E+04</rscale>
<asrwt>0</asrwt>
<pdfrwt beam="1">  1        4 0.20383517E+00 0.19682173E+04</pdfrwt>
<pdfrwt beam="2">  1       -4 0.11245538E+00 0.19682173E+04</pdfrwt>
<totfact> 0.14371531E-01</totfact>
</mgrwt>
</event>
<event>
 6    1  0.9512547E-007  0.3130059E+04  0.7818608E-02  0.8207537E-01
         -1   -1    0    0    0  501 -0.00000000000E+00  0.00000000000E+00  0.15680997966E+04  0.15680997966E+04  0.00000000000E+00 0.  1.
          1   -1    0    0  501    0  0.00000000000E+00 -0.00000000000E+00 -0.15619647943E+04  0.15619647943E+04  0.00000000000E+00 0. -1.
         23    2    1    2    0    0 -0.64622356986E+03 -0.93812303608E+03  0.10741793554E+04  0.15685273761E+04  0.93472503646E+02 0.  0.
         13    1    3    3    0    0 -0.33468980103E+03 -0.44054553661E+03  0.57477069188E+03  0.79778379339E+03  0.00000000000E+00 0. -1.
        -13    1    3    3    0    0 -0.31153376883E+03 -0.49757749947E+03  0.49940866355E+03  0.77074358274E+03  0.00000000000E+00 0.  1.
         22    1    1    2    0    0  0.64622356986E+03  0.93812303608E+03 -0.10680443531E+04  0.15615372149E+04  0.00000000000E+00 0. -1.
<mgrwt>
<rscale>  0 0.31300586E+04</rscale>
<asrwt>0</asrwt>
<pdfrwt beam="1">  1        1 0.24030227E+00 0.31300586E+04</pdfrwt>
<pdfrwt beam="2">  1       -1 0.24124612E+00 0.31300586E+04</pdfrwt>
<totfact> 0.39688644E-01</totfact>
</mgrwt>
</event>
<event>
 6    1  0.9512547E-007  0.3890382E+03  0.7818608E-02  0.1047643E+00
         -1   -1    0    0    0  501 -0.00000000000E+00  0.00000000000E+00  0.14031035616E+02  0.14031035616E+02  0.00000000000E+00 0.  1.
          1   -1    0    0  501    0  0.00000000000E+00 -0.00000000000E+00 -0.26967133259E+04  0.26967133259E+04  0.00000000000E+00 0. -1.
         23    2    1    2    0    0  0.11062949888E+03 -0.36186214107E+01 -0.24371129231E+04  0.24413816051E+04  0.92589207496E+02 0.  0.
         13    1    3    3    0    0  0.24392783050E+02  0.27654276215E+02 -0.13178856795E+04  0.13184014681E+04  0.00000000000E+00 0.  1.
        -13    1    3    3    0    0  0.86236715834E+02 -0.31272897626E+02 -0.11192272436E+04  0.11229801370E+04  0.00000000000E+00 0. -1.
         22    1    1    2    0    0 -0.11062949888E+03  0.36186214107E+01 -0.24556936719E+03  0.26936275642E+03  0.00000000000E+00 0.  1.
<mgrwt>
<rscale>  0 0.38903820E+03</rscale>
<asrwt>0</asrwt>
<pdfrwt beam="1">  1        1 0.41487927E+00 0.38903820E+03</pdfrwt>
<pdfrwt beam="2">  1       -1 0.21586193E-02 0.38903820E+03</pdfrwt>
<totfact> 0.70655431E+02</totfact>
</mgrwt>
</event>
<event>
 6    1  0.9512547E-007  0.2949899E+04  0.7818608E-02  0.8258184E-01
         -2   -1    0    0    0  501 -0.00000000000E+00  0.00000000000E+00  0.84708948312E+03  0.84708948312E+03  0.00000000000E+00 0.  1.
          2   -1    0    0  501    0  0.00000000000E+00 -0.00000000000E+00 -0.25681770004E+04  0.25681770004E+04  0.00000000000E+00 0. -1.
         23    2    1    2    0    0 -0.58916451943E+02 -0.10269489369E+04  0.36018803960E+03  0.10936715122E+04  0.91031232813E+02 0.  0.
         13    1    3    3    0    0  0.88344002176E+01 -0.59164093688E+03  0.22153869332E+03  0.63181994069E+03  0.00000000000E+00 0.  1.
        -13    1    3    3    0    0 -0.67750852161E+02 -0.43530800003E+03  0.13864934628E+03  0.46185157149E+03  0.00000000000E+00 0. -1.
         22    1    1    2    0    0  0.58916451943E+02  0.10269489369E+04 -0.20812755569E+04  0.23215949714E+04  0.00000000000E+00 0. -1.
<mgrwt>
<rscale>  0 0.29498988E+04</rscale>
<asrwt>0</asrwt>
<pdfrwt beam="1">  1        2 0.39510416E+00 0.29498988E+04</pdfrwt>
<pdfrwt beam="2">  1       -2 0.13032146E+00 0.29498988E+04</pdfrwt>
<totfact> 0.11782004E+00</totfact>
</mgrwt>
</event>
<event>
 6    1  0.1470567E-006  0.4187192E+04  0.7818608E-02  0.7967813E-01
         -1   -1    0    0    0  501 -0.00000000000E+00  0.00000000000E+00  0.18436782870E+04  0.18436782870E+04  0.00000000000E+00 0.  1.
          1   -1    0    0  501    0  0.00000000000E+00 -0.00000000000E+00 -0.23773904836E+04  0.23773904836E+04  0.00000000000E+00 0. -1.
         23    2    1    2    0    0 -0.40121826892E+03 -0.12922867682E+04 -0.18760091015E+04  0.23150933847E+04  0.96260274549E+02 0.  0.
         11    1    3    3    0    0 -0.20741457305E+03 -0.52191480225E+03 -0.80996336181E+03  0.98562493546E+03  0.00000000000E+00 0.  1.
        -11    1    3    3    0    0 -0.19380369587E+03 -0.77037196599E+03 -0.10660457397E+04  0.13294684493E+04  0.00000000000E+00 0. -1.
         22    1    1    2    0    0  0.40121826892E+03  0.12922867682E+04  0.13422969049E+04  0.19059753859E+04  0.00000000000E+00 0.  1.
<mgrwt>
<rscale>  0 0.41871915E+04</rscale>
<asrwt>0</asrwt>
<pdfrwt beam="1">  1        1 0.36575238E+00 0.41871915E+04</pdfrwt>
<pdfrwt beam="2">  1       -1 0.28364281E+00 0.41871915E+04</pdfrwt>
<totfact> 0.53509128E-02</totfact>
</mgrwt>
</event>
<event>
 6    1  0.9512547E-007  0.1982821E+04  0.7818608E-02  0.8614695E-01
         -1   -1    0    0    0  501 -0.00000000000E+00  0.00000000000E+00  0.24841502312E+03  0.24841502312E+03  0.00000000000E+00 0.  1.
          1   -1    0    0  501    0  0.00000000000E+00 -0.00000000000E+00 -0.39566622052E+04  0.39566622052E+04  0.00000000000E+00 0. -1.
         23    2    1    2    0    0 -0.37559002948E+03  0.78255158544E+03 -0.28644002005E+04  0.29944853969E+04  0.93270730347E+02 0.  0.
         11    1    3    3    0    0 -0.34149660121E+03  0.75436964112E+03 -0.26903650449E+04  0.28149169719E+04  0.00000000000E+00 0.  1.
        -11    1    3    3    0    0 -0.34093428263E+02  0.28181944318E+02 -0.17403515565E+03  0.17956842495E+03  0.00000000000E+00 0. -1.
         22    1    1    2    0    0  0.37559002948E+03 -0.78255158544E+03 -0.84384698154E+03  0.12105918314E+04  0.00000000000E+00 0.  1.
<mgrwt>
<rscale>  0 0.19828205E+04</rscale>
<asrwt>0</asrwt>
<pdfrwt beam="1">  1        1 0.60871730E+00 0.19828205E+04</pdfrwt>
<pdfrwt beam="2">  1       -1 0.38217694E-01 0.19828205E+04</pdfrwt>
<totfact> 0.64921938E-01</totfact>
</mgrwt>
</event>
<event>
 6    1  0.9512547E-007  0.3649846E+04  0.7818608E-02  0.8079168E-01
         -1   -1    0    0    0  501 -0.00000000000E+00  0.00000000000E+00  0.13304751994E+04  0.13304751994E+04  0.00000000000E+00 0.  1.
          1   -1    0    0  501    0  0.00000000000E+00 -0.00000000000E+00 -0.25031239635E+04  0.25031239635E+04  0.00000000000E+00 0. -1.
         23    2    1    2    0    0 -0.68372924012E+03  0.21656819336E+03 -0.23480440585E+04  0.24566672276E+04  0.86692042393E+02 0.  0.
         13    1    3    3    0    0 -0.14631120215E+03  0.25835052041E+02 -0.59149698083E+03  0.60987137670E+03  0.00000000000E+00 0. -1.
        -13    1    3    3    0    0 -0.53741803798E+03  0.19073314131E+03 -0.17565470777E+04  0.18467958509E+04  0.00000000000E+00 0.  1.
         22    1    1    2    0    0  0.68372924012E+03 -0.21656819336E+03  0.11753952944E+04  0.13769319352E+04  0.00000000000E+00 0.  1.
<mgrwt>
<rscale>  0 0.36498462E+04</rscale>
<asrwt>0</asrwt>
<pdfrwt beam="1">  1        1 0.38509599E+00 0.36498462E+04</pdfrwt>
<pdfrwt beam="2">  1       -1 0.20468849E+00 0.36498462E+04</pdfrwt>
<totfact> 0.15174927E-01</totfact>
</mgrwt>
</event>
<event>
 6    1  0.9512547E-007  0.1293151E+04  0.7818608E-02  0.9035014E-01
          2   -1    0    0  501    0  0.00000000000E+00  0.00000000000E+00  0.39191957972E+04  0.39191957972E+04  0.00000000000E+00 0. -1.
         -2   -1    0    0    0  501 -0.00000000000E+00 -0.00000000000E+00 -0.10666981024E+03  0.10666981024E+03  0.00000000000E+00 0.  1.
         23    2    1    2    0    0  0.48579472937E+03  0.29995786820E+03  0.99101738844E+03  0.11471711094E+04  0.88965432442E+02 0.  0.
         13    1    3    3    0    0  0.19382054680E+03  0.94392607517E+02  0.30106376446E+03  0.37029145141E+03  0.00000000000E+00 0. -1.
        -13    1    3    3    0    0  0.29197418257E+03  0.20556526068E+03  0.68995362399E+03  0.77687965795E+03  0.00000000000E+00 0.  1.
         22    1    1    2    0    0 -0.48579472937E+03 -0.29995786820E+03  0.28215085985E+04  0.28786944980E+04  0.00000000000E+00 0. -1.
<mgrwt>
<rscale>  0 0.12931510E+04</rscale>
<asrwt>0</asrwt>
<pdfrwt beam="1">  1        2 0.60295309E+00 0.12931510E+04</pdfrwt>
<pdfrwt beam="2">  1       -2 0.16410743E-01 0.12931510E+04</pdfrwt>
<totfact> 0.12107419E+01</totfact>
</mgrwt>
</event>
<event>
 6    1  0.9512547E-007  0.2206927E+04  0.7818608E-02  0.8515550E-01
         -1   -1    0    0    0  501 -0.00000000000E+00  0.00000000000E+00  0.93812383598E+03  0.93812383598E+03  0.00000000000E+00 0.  1.
          1   -1    0    0  501    0  0.00000000000E+00 -0.00000000000E+00 -0.12979437223E+04  0.12979437223E+04  0.00000000000E+00 0. -1.
         23    2    1    2    0    0  0.59826567290E+03  0.89920631992E+03 -0.39949572013E+03  0.11552956152E+04  0.92829450674E+02 0.  0.
         11    1    3    3    0    0  0.20571381501E+03  0.33484167801E+03 -0.19079748839E+03  0.43685329871E+03  0.00000000000E+00 0.  1.
        -11    1    3    3    0    0  0.39255185788E+03  0.56436464191E+03 -0.20869823173E+03  0.71844231647E+03  0.00000000000E+00 0. -1.
         22    1    1    2    0    0 -0.59826567290E+03 -0.89920631992E+03  0.39675833839E+02  0.10807719431E+04  0.00000000000E+00 0.  1.
<mgrwt>
<rscale>  0 0.22069272E+04</rscale>
<asrwt>0</asrwt>
<pdfrwt beam="1">  1        1 0.19968365E+00 0.22069272E+04</pdfrwt>
<pdfrwt beam="2">  1       -1 0.14432674E+00 0.22069272E+04</pdfrwt>
<totfact> 0.31994029E+00</totfact>
</mgrwt>
</event>
<event>
 6    1  0.9512547E-007  0.1636495E+04  0.7818608E-02  0.8798436E-01
          2   -1    0    0  501    0  0.00000000000E+00  0.00000000000E+00  0.18486380794E+04  0.18486380794E+04  0.00000000000E+00 0. -1.
         -2   -1    0    0    0  501 -0.00000000000E+00 -0.00000000000E+00 -0.36217417030E+03  0.36217417030E+03  0.00000000000E+00 0.  1.
         23    2    1    2    0    0 -0.38626551788E+03  0.16155274948E+03  0.16912367747E+04  0.17447304247E+04  0.92206755203E+02 0.  0.
         13    1    3    3    0    0 -0.14794044305E+03  0.27351696963E+02  0.48137180254E+03  0.50433451428E+03  0.00000000000E+00 0. -1.
        -13    1    3    3    0    0 -0.23832507483E+03  0.13420105251E+03  0.12098649721E+04  0.12403959104E+04  0.00000000000E+00 0.  1.
         22    1    1    2    0    0  0.38626551788E+03 -0.16155274948E+03 -0.20477286554E+03  0.46608182503E+03  0.00000000000E+00 0.  1.
<mgrwt>
<rscale>  0 0.16364950E+04</rscale>
<asrwt>0</asrwt>
<pdfrwt beam="1">  1        2 0.28440585E+00 0.16364950E+04</pdfrwt>
<pdfrwt beam="2">  1       -2 0.55719104E-01 0.16364950E+04</pdfrwt>
<totfact> 0.23462195E+01</totfact>
</mgrwt>
</event>
<event>
 6    1  0.9512547E-007  0.1796691E+04  0.7818608E-02  0.8708061E-01
          2   -1    0    0  501    0  0.00000000000E+00  0.00000000000E+00  0.30510936948E+04  0.30510936948E+04  0.00000000000E+00 0. -1.
         -2   -1    0    0    0  501 -0.00000000000E+00 -0.00000000000E+00 -0.26450349664E+03  0.26450349664E+03  0.00000000000E+00 0.  1.
         23    2    1    2    0    0 -0.47495350617E+03 -0.75573014297E+03  0.15429085860E+04  0.17847631592E+04  0.90020816899E+02 0.  0.
         13    1    3    3    0    0 -0.62398281285E+02 -0.16480051938E+03  0.31838803539E+03  0.36390067021E+03  0.00000000000E+00 0. -1.
        -13    1    3    3    0    0 -0.41255522489E+03 -0.59092962359E+03  0.12245205506E+04  0.14208624890E+04  0.00000000000E+00 0.  1.
         22    1    1    2    0    0  0.47495350617E+03  0.75573014297E+03  0.12436816121E+04  0.15308340323E+04  0.00000000000E+00 0.  1.
<mgrwt>
<rscale>  0 0.17966913E+04</rscale>
<asrwt>0</asrwt>
<pdfrwt beam="1">  1        2 0.46939901E+00 0.17966913E+04</pdfrwt>
<pdfrwt beam="2">  1       -2 0.40692848E-01 0.17966913E+04</pdfrwt>
<totfact> 0.87670095E+00</totfact>
</mgrwt>
</event>
<event>
 6    1  0.9512547E-007  0.2472012E+04  0.7818608E-02  0.8413025E-01
          2   -1    0    0  501    0  0.00000000000E+00  0.00000000000E+00  0.94017515816E+03  0.94017515816E+03  0.00000000000E+00 0. -1.
         -2   -1    0    0    0  501 -0.00000000000E+00 -0.00000000000E+00 -0.16249216344E+04  0.16249216344E+04  0.00000000000E+00 0.  1.
         23    2    1    2    0    0  0.27552092256E+03 -0.11630647040E+04 -0.66236118034E+03  0.13696335410E+04  0.92425207041E+02 0.  0.
         13    1    3    3    0    0  0.99713717144E+02 -0.61132150147E+03 -0.32588214815E+03  0.69989711960E+03  0.00000000000E+00 0. -1.
        -13    1    3    3    0    0  0.17580720542E+03 -0.55174320252E+03 -0.33647903219E+03  0.66973642137E+03  0.00000000000E+00 0.  1.
         22    1    1    2    0    0 -0.27552092256E+03  0.11630647040E+04 -0.22385295905E+02  0.11954632516E+04  0.00000000000E+00 0. -1.
<mgrwt>
<rscale>  0 0.24720121E+04</rscale>
<asrwt>0</asrwt>
<pdfrwt beam="1">  1        2 0.14464233E+00 0.24720121E+04</pdfrwt>
<pdfrwt beam="2">  1       -2 0.24998794E+00 0.24720121E+04</pdfrwt>
<totfact> 0.15832106E+00</totfact>
</mgrwt>
</event>
<event>
 6    1  0.9512547E-007  0.1988597E+04  0.7818608E-02  0.8611970E-01
          2   -1    0    0  501    0  0.00000000000E+00  0.00000000000E+00  0.26456116256E+04  0.26456116256E+04  0.00000000000E+00 0. -1.
         -2   -1    0    0    0  501 -0.00000000000E+00 -0.00000000000E+00 -0.37368667494E+03  0.37368667494E+03  0.00000000000E+00 0.  1.
         23    2    1    2    0    0 -0.98039266690E+03 -0.12450308222E+03  0.12727419709E+04  0.16139380529E+04  0.90846656999E+02 0.  0.
         13    1    3    3    0    0 -0.50851599575E+03 -0.10279795730E+03  0.62557237667E+03  0.81270950309E+03  0.00000000000E+00 0.  1.
        -13    1    3    3    0    0 -0.47187667115E+03 -0.21705124922E+02  0.64716959426E+03  0.80122854977E+03  0.00000000000E+00 0. -1.
         22    1    1    2    0    0  0.98039266690E+03  0.12450308222E+03  0.99918297972E+03  0.14053602477E+04  0.00000000000E+00 0.  1.
<mgrwt>
<rscale>  0 0.19885973E+04</rscale>
<asrwt>0</asrwt>
<pdfrwt beam="1">  1        2 0.40701716E+00 0.19885973E+04</pdfrwt>
<pdfrwt beam="2">  1       -2 0.57490259E-01 0.19885973E+04</pdfrwt>
<totfact> 0.75462630E+00</totfact>
</mgrwt>
</event>
<event>
 6    1  0.9512547E-007  0.3639693E+04  0.7818608E-02  0.8081460E-01
          2   -1    0    0  501    0  0.00000000000E+00  0.00000000000E+00  0.18041550769E+04  0.18041550769E+04  0.00000000000E+00 0. -1.
         -2   -1    0    0    0  501 -0.00000000000E+00 -0.00000000000E+00 -0.18356739781E+04  0.18356739781E+04  0.00000000000E+00 0.  1.
         23    2    1    2    0    0  0.12009689744E+04  0.26224832044E+03 -0.13562160912E+04  0.18326424834E+04  0.90309062656E+02 0.  0.
         11    1    3    3    0    0  0.11443565798E+04  0.26708080086E+03 -0.12804754782E+04  0.17379590289E+04  0.00000000000E+00 0. -1.
        -11    1    3    3    0    0  0.56612394592E+02 -0.48324804273E+01 -0.75740613085E+02  0.94683454516E+02  0.00000000000E+00 0.  1.
         22    1    1    2    0    0 -0.12009689744E+04 -0.26224832044E+03  0.13246971900E+04  0.18071865716E+04  0.00000000000E+00 0. -1.
<mgrwt>
<rscale>  0 0.36396926E+04</rscale>
<asrwt>0</asrwt>
<pdfrwt beam="1">  1        2 0.27756232E+00 0.36396926E+04</pdfrwt>
<pdfrwt beam="2">  1       -2 0.28241138E+00 0.36396926E+04</pdfrwt>
<totfact> 0.28386693E-01</totfact>
</mgrwt>
</event>
<event>
 6    1  0.9512547E-007  0.1588473E+04  0.7818608E-02  0.8827661E-01
         -2   -1    0    0    0  501 -0.00000000000E+00  0.00000000000E+00  0.50177428294E+03  0.50177428294E+03  0.00000000000E+00 0.  1.
          2   -1    0    0  501    0  0.00000000000E+00 -0.00000000000E+00 -0.12571627911E+04  0.12571627911E+04  0.00000000000E+00 0. -1.
         23    2    1    2    0    0 -0.17600224412E+03  0.34545522024E+03 -0.11433105839E+04  0.12104850379E+04  0.88311023148E+02 0.  0.
         11    1    3    3    0    0 -0.15471564809E+03  0.24481883739E+03 -0.75079531778E+03  0.80471535595E+03  0.00000000000E+00 0. -1.
        -11    1    3    3    0    0 -0.21286596034E+02  0.10063638285E+03 -0.39251526607E+03  0.40576968199E+03  0.00000000000E+00 0.  1.
         22    1    1    2    0    0  0.17600224412E+03 -0.34545522024E+03  0.38792207566E+03  0.54845203611E+03  0.00000000000E+00 0.  1.
<mgrwt>
<rscale>  0 0.15884734E+04</rscale>
<asrwt>0</asrwt>
<pdfrwt beam="1">  1        2 0.19340966E+00 0.15884734E+04</pdfrwt>
<pdfrwt beam="2">  1       -2 0.77196044E-01 0.15884734E+04</pdfrwt>
<totfact> 0.25176651E+01</totfact>
</mgrwt>
</event>
<event>
 6    1  0.9512547E-007  0.1904676E+04  0.7818608E-02  0.8652532E-01
         -1   -1    0    0    0  501 -0.00000000000E+00  0.00000000000E+00  0.42406771912E+03  0.42406771912E+03  0.00000000000E+00 0.  1.
          1   -1    0    0  501    0  0.00000000000E+00 -0.00000000000E+00 -0.21386858659E+04  0.21386858659E+04  0.00000000000E+00 0. -1.
         23    2    1    2    0    0 -0.43191955939E+03  0.84625072465E+03 -0.87453814418E+03  0.12945149617E+04  0.90869278599E+02 0.  0.
         11    1    3    3    0    0 -0.38909314724E+03  0.73205119460E+03 -0.79692468474E+03  0.11499484258E+04  0.00000000000E+00 0.  1.
        -11    1    3    3    0    0 -0.42826412141E+02  0.11419953005E+03 -0.77613459441E+02  0.14456653599E+03  0.00000000000E+00 0. -1.
         22    1    1    2    0    0  0.43191955939E+03 -0.84625072465E+03 -0.84008000256E+03  0.12682386232E+04  0.00000000000E+00 0.  1.
<mgrwt>
<rscale>  0 0.19046760E+04</rscale>
<asrwt>0</asrwt>
<pdfrwt beam="1">  1        1 0.32902859E+00 0.19046760E+04</pdfrwt>
<pdfrwt beam="2">  1       -1 0.65241188E-01 0.19046760E+04</pdfrwt>
<totfact> 0.53436394E+00</totfact>
</mgrwt>
</event>
<event>
 6    1  0.9512547E-007  0.6332484E+03  0.7818608E-02  0.9838730E-01
         -3   -1    0    0    0  501 -0.00000000000E+00  0.00000000000E+00  0.18614009302E+04  0.18614009302E+04  0.00000000000E+00 0.  1.
          3   -1    0    0  501    0  0.00000000000E+00 -0.00000000000E+00 -0.53857760841E+02  0.53857760841E+02  0.00000000000E+00 0. -1.
         23    2    1    2    0    0 -0.10791301070E+03 -0.99295997285E+02  0.17487049315E+04  0.17572496685E+04  0.91937734900E+02 0.  0.
         13    1    3    3    0    0 -0.72115744069E+02 -0.85104072827E+02  0.79728581835E+03  0.80505158834E+03  0.00000000000E+00 0. -1.
        -13    1    3    3    0    0 -0.35797266633E+02 -0.14191924458E+02  0.95141911318E+03  0.95219808020E+03  0.00000000000E+00 0.  1.
         22    1    1    2    0    0  0.10791301070E+03  0.99295997285E+02  0.58838237815E+02  0.15800902248E+03  0.00000000000E+00 0. -1.
<mgrwt>
<rscale>  0 0.63324841E+03</rscale>
<asrwt>0</asrwt>
<pdfrwt beam="1">  1        3 0.82858108E-02 0.63324841E+03</pdfrwt>
<pdfrwt beam="2">  1       -3 0.28636932E+00 0.63324841E+03</pdfrwt>
<totfact> 0.13009505E+01</totfact>
</mgrwt>
</event>
<event>
 6    1  0.9512547E-007  0.1417695E+04  0.7818608E-02  0.8941108E-01
          1   -1    0    0  501    0  0.00000000000E+00  0.00000000000E+00  0.19942336810E+04  0.19942336810E+04  0.00000000000E+00 0. -1.
         -1   -1    0    0    0  501 -0.00000000000E+00 -0.00000000000E+00 -0.25195896381E+03  0.25195896381E+03  0.00000000000E+00 0.  1.
         23    2    1    2    0    0  0.36430494031E+03  0.43402956915E+03  0.15436628758E+04  0.16457374675E+04  0.66760626752E+02 0.  0.
         11    1    3    3    0    0  0.18797252576E+03  0.18639668622E+03  0.78502926152E+03  0.82846142730E+03  0.00000000000E+00 0. -1.
        -11    1    3    3    0    0  0.17633241455E+03  0.24763288293E+03  0.75863361430E+03  0.81727604019E+03  0.00000000000E+00 0.  1.
         22    1    1    2    0    0 -0.36430494031E+03 -0.43402956915E+03  0.19861184136E+03  0.60045517731E+03  0.00000000000E+00 0.  1.
<mgrwt>
<rscale>  0 0.14176954E+04</rscale>
<asrwt>0</asrwt>
<pdfrwt beam="1">  1        1 0.30680517E+00 0.14176954E+04</pdfrwt>
<pdfrwt beam="2">  1       -1 0.38762919E-01 0.14176954E+04</pdfrwt>
<totfact> 0.18904034E+01</totfact>
</mgrwt>
</event>
<event>
 6    1  0.9512547E-007  0.2993760E+04  0.7818608E-02  0.8245515E-01
         -1   -1    0    0    0  501 -0.00000000000E+00  0.00000000000E+00  0.69307527336E+03  0.69307527336E+03  0.00000000000E+00 0.  1.
          1   -1    0    0  501    0  0.00000000000E+00 -0.00000000000E+00 -0.32329098813E+04  0.32329098813E+04  0.00000000000E+00 0. -1.
         23    2    1    2    0    0  0.64793888451E+03  0.12568356455E+04 -0.19102895326E+04  0.23781519467E+04  0.83306335057E+02 0.  0.
         11    1    3    3    0    0  0.33815464361E+03  0.73531239711E+03 -0.10592392875E+04  0.13330494186E+04  0.00000000000E+00 0.  1.
        -11    1    3    3    0    0  0.30978424090E+03  0.52152324835E+03 -0.85105024507E+03  0.10451025280E+04  0.00000000000E+00 0. -1.
         22    1    1    2    0    0 -0.64793888451E+03 -0.12568356455E+04 -0.62954507534E+03  0.15478332080E+04  0.00000000000E+00 0. -1.
<mgrwt>
<rscale>  0 0.29937601E+04</rscale>
<asrwt>0</asrwt>
<pdfrwt beam="1">  1        1 0.49737076E+00 0.29937601E+04</pdfrwt>
<pdfrwt beam="2">  1       -1 0.10662696E+00 0.29937601E+04</pdfrwt>
<totfact> 0.28055671E-01</totfact>
</mgrwt>
</event>
<event>
 6    1  0.9512547E-007  0.4689569E+04  0.7818608E-02  0.7878264E-01
          2   -1    0    0  501    0  0.00000000000E+00  0.00000000000E+00  0.39190598228E+04  0.39190598228E+04  0.00000000000E+00 0. -1.
         -2   -1    0    0    0  501 -0.00000000000E+00 -0.00000000000E+00 -0.14028909519E+04  0.14028909519E+04  0.00000000000E+00 0.  1.
         23    2    1    2    0    0 -0.21052709037E+04 -0.10147173349E+04  0.14624375891E+04  0.27583270773E+04  0.88474376481E+02 0.  0.
         13    1    3    3    0    0 -0.28208497557E+03 -0.16973077817E+03  0.20060176897E+03  0.38551464332E+03  0.00000000000E+00 0. -1.
        -13    1    3    3    0    0 -0.18231859282E+04 -0.84498655677E+03  0.12618358201E+04  0.23728124340E+04  0.00000000000E+00 0.  1.
         22    1    1    2    0    0  0.21052709037E+04  0.10147173349E+04  0.10537312817E+04  0.25636236974E+04  0.00000000000E+00 0. -1.
<mgrwt>
<rscale>  0 0.46895687E+04</rscale>
<asrwt>0</asrwt>
<pdfrwt beam="1">  1        2 0.60293228E+00 0.46895687E+04</pdfrwt>
<pdfrwt beam="2">  1       -2 0.21582938E+00 0.46895687E+04</pdfrwt>
<totfact> 0.31010792E-02</totfact>
</mgrwt>
</event>
<event>
 6    1  0.9512547E-007  0.1618863E+04  0.7818608E-02  0.8809043E-01
         -2   -1    0    0    0  501 -0.00000000000E+00  0.00000000000E+00  0.10561606560E+04  0.10561606560E+04  0.00000000000E+00 0.  1.
          2   -1    0    0  501    0  0.00000000000E+00 -0.00000000000E+00 -0.62034035669E+03  0.62034035669E+03  0.00000000000E+00 0. -1.
         23    2    1    2    0    0  0.45500825572E+03 -0.51021760892E+03 -0.22367671779E+03  0.72661110498E+03  0.10284893084E+03 0.  0.
         13    1    3    3    0    0  0.35258899640E+03 -0.35593674532E+03 -0.12323137002E+03  0.51594179673E+03  0.00000000000E+00 0.  1.
        -13    1    3    3    0    0  0.10241925932E+03 -0.15428086360E+03 -0.10044534776E+03  0.21066930826E+03  0.00000000000E+00 0. -1.
         22    1    1    2    0    0 -0.45500825572E+03  0.51021760892E+03  0.65949701712E+03  0.94988990774E+03  0.00000000000E+00 0. -1.
<mgrwt>
<rscale>  0 0.16188627E+04</rscale>
<asrwt>0</asrwt>
<pdfrwt beam="1">  1        2 0.95436978E-01 0.16188627E+04</pdfrwt>
<pdfrwt beam="2">  1       -2 0.16248625E+00 0.16188627E+04</pdfrwt>
<totfact> 0.11003713E+01</totfact>
</mgrwt>
</event>
<event>
 6    1  0.9512547E-007  0.3401145E+03  0.7818608E-02  0.1066747E+00
          1   -1    0    0  501    0  0.00000000000E+00  0.00000000000E+00  0.27184852329E+03  0.27184852329E+03  0.00000000000E+00 0. -1.
         -1   -1    0    0    0  501 -0.00000000000E+00 -0.00000000000E+00 -0.10638082718E+03  0.10638082718E+03  0.00000000000E+00 0.  1.
         23    2    1    2    0    0  0.10775487180E+03  0.93449324102E+02  0.16397775469E+03  0.23558956466E+03  0.90938717679E+02 0.  0.
         11    1    3    3    0    0  0.93243939325E+02  0.46095911909E+02  0.59166793876E+02  0.11966609718E+03  0.00000000000E+00 0. -1.
        -11    1    3    3    0    0  0.14510932472E+02  0.47353412193E+02  0.10481096081E+03  0.11592346748E+03  0.00000000000E+00 0.  1.
         22    1    1    2    0    0 -0.10775487180E+03 -0.93449324102E+02  0.14899414244E+01  0.14263978581E+03  0.00000000000E+00 0.  1.
<mgrwt>
<rscale>  0 0.34011451E+03</rscale>
<asrwt>0</asrwt>
<pdfrwt beam="1">  1        1 0.41822849E-01 0.34011451E+03</pdfrwt>
<pdfrwt beam="2">  1       -1 0.16366281E-01 0.34011451E+03</pdfrwt>
<totfact> 0.27808286E+03</totfact>
</mgrwt>
</event>
<event>
 6    1  0.9512547E-007  0.2980478E+04  0.7818608E-02  0.8249328E-01
          1   -1    0    0  501    0  0.00000000000E+00  0.00000000000E+00  0.16636989861E+04  0.16636989861E+04  0.00000000000E+00 0. -1.
         -1   -1    0    0    0  501 -0.00000000000E+00 -0.00000000000E+00 -0.13348641432E+04  0.13348641432E+04  0.00000000000E+00 0.  1.
         23    2    1    2    0    0  0.33482009685E+03  0.14061985118E+04  0.52327678010E+03  0.15400342751E+04  0.91587269952E+02 0.  0.
         11    1    3    3    0    0  0.11912925573E+03  0.55460586401E+03  0.15988721852E+03  0.58935843645E+03  0.00000000000E+00 0.  1.
        -11    1    3    3    0    0  0.21569084111E+03  0.85159264776E+03  0.36338956158E+03  0.95067583862E+03  0.00000000000E+00 0. -1.
         22    1    1    2    0    0 -0.33482009685E+03 -0.14061985118E+04 -0.19444193721E+03  0.14585288543E+04  0.00000000000E+00 0.  1.
<mgrwt>
<rscale>  0 0.29804779E+04</rscale>
<asrwt>0</asrwt>
<pdfrwt beam="1">  1        1 0.25595369E+00 0.29804779E+04</pdfrwt>
<pdfrwt beam="2">  1       -1 0.20536372E+00 0.29804779E+04</pdfrwt>
<totfact> 0.59479253E-01</totfact>
</mgrwt>
</event>
<event>
 6    1  0.9512547E-007  0.3740602E+04  0.7818608E-02  0.8059023E-01
         -2   -1    0    0    0  501 -0.00000000000E+00  0.00000000000E+00  0.13065276788E+04  0.13065276788E+04  0.00000000000E+00 0.  1.
          2   -1    0    0  501    0  0.00000000000E+00 -0.00000000000E+00 -0.26773447528E+04  0.26773447528E+04  0.00000000000E+00 0. -1.
         23    2    1    2    0    0  0.10983765227E+04 -0.91136967732E+03  0.59958638623E+03  0.15508669917E+04  0.93053302273E+02 0.  0.
         11    1    3    3    0    0  0.36537286423E+03 -0.28693992984E+03  0.15023455760E+03  0.48826455487E+03  0.00000000000E+00 0. -1.
        -11    1    3    3    0    0  0.73300365850E+03 -0.62442974748E+03  0.44935182864E+03  0.10626024369E+04  0.00000000000E+00 0.  1.
         22    1    1    2    0    0 -0.10983765227E+04  0.91136967732E+03 -0.19704034602E+04  0.24330054399E+04  0.00000000000E+00 0. -1.
<mgrwt>
<rscale>  0 0.37406016E+04</rscale>
<asrwt>0</asrwt>
<pdfrwt beam="1">  1        2 0.41189919E+00 0.37406016E+04</pdfrwt>
<pdfrwt beam="2">  1       -2 0.20100426E+00 0.37406016E+04</pdfrwt>
<totfact> 0.28905803E-01</totfact>
</mgrwt>
</event>
<event>
 6    1  0.9512547E-007  0.4402171E+04  0.7818608E-02  0.7927991E-01
         -1   -1    0    0    0  501 -0.00000000000E+00  0.00000000000E+00  0.16597786151E+04  0.16597786151E+04  0.00000000000E+00 0.  1.
          1   -1    0    0  501    0  0.00000000000E+00 -0.00000000000E+00 -0.29189298220E+04  0.29189298220E+04  0.00000000000E+00 0. -1.
         23    2    1    2    0    0  0.48945677793E+03 -0.10681453681E+04  0.13048753003E+04  0.17582945679E+04  0.91639365024E+02 0.  0.
         11    1    3    3    0    0  0.41589043848E+03 -0.81629274267E+03  0.10167963294E+04  0.13686392783E+04  0.00000000000E+00 0. -1.
        -11    1    3    3    0    0  0.73566339448E+02 -0.25185262544E+03  0.28807897083E+03  0.38965528955E+03  0.00000000000E+00 0.  1.
         22    1    1    2    0    0 -0.48945677793E+03  0.10681453681E+04 -0.25640265071E+04  0.28204138693E+04  0.00000000000E+00 0. -1.
<mgrwt>
<rscale>  0 0.44021710E+04</rscale>
<asrwt>0</asrwt>
<pdfrwt beam="1">  1        1 0.44906612E+00 0.44021710E+04</pdfrwt>
<pdfrwt beam="2">  1       -1 0.25535056E+00 0.44021710E+04</pdfrwt>
<totfact> 0.33351159E-02</totfact>
</mgrwt>
</event>
<event>
 6    1  0.9512547E-007  0.2023595E+04  0.7818608E-02  0.8595668E-01
          1   -1    0    0  501    0  0.00000000000E+00  0.00000000000E+00  0.95580854801E+03  0.95580854801E+03  0.00000000000E+00 0. -1.
         -1   -1    0    0    0  501 -0.00000000000E+00 -0.00000000000E+00 -0.10710660867E+04  0.10710660867E+04  0.00000000000E+00 0.  1.
         23    2    1    2    0    0 -0.72847534579E+03  0.28863809430E+03 -0.69581129381E+03  0.10516664818E+04  0.88660890459E+02 0.  0.
         13    1    3    3    0    0 -0.37124622834E+03  0.19423489810E+03 -0.37782834745E+03  0.56418544631E+03  0.00000000000E+00 0.  1.
        -13    1    3    3    0    0 -0.35722911745E+03  0.94403196195E+02 -0.31798294637E+03  0.48748103551E+03  0.00000000000E+00 0. -1.
         22    1    1    2    0    0  0.72847534579E+03 -0.28863809430E+03  0.58055375511E+03  0.97520815289E+03  0.00000000000E+00 0. -1.
<mgrwt>
<rscale>  0 0.20235949E+04</rscale>
<asrwt>0</asrwt>
<pdfrwt beam="1">  1        1 0.14704747E+00 0.20235949E+04</pdfrwt>
<pdfrwt beam="2">  1       -1 0.16477940E+00 0.20235949E+04</pdfrwt>
<totfact> 0.40839445E+00</totfact>
</mgrwt>
</event>
<event>
 6    1  0.9512547E-007  0.4000512E+04  0.7818608E-02  0.8004443E-01
          2   -1    0    0  501    0  0.00000000000E+00  0.00000000000E+00  0.10117641720E+04  0.10117641720E+04  0.00000000000E+00 0. -1.
         -2   -1    0    0    0  501 -0.00000000000E+00 -0.00000000000E+00 -0.39545030929E+04  0.39545030929E+04  0.00000000000E+00 0.  1.
         23    2    1    2    0    0  0.15959784093E+03 -0.67653879254E+03 -0.37991210913E+04  0.38632864716E+04  0.92114530915E+02 0.  0.
         13    1    3    3    0    0  0.52378298045E+02 -0.83849373822E+02 -0.54342517142E+03  0.55234510999E+03  0.00000000000E+00 0. -1.
        -13    1    3    3    0    0  0.10721954289E+03 -0.59268941872E+03 -0.32556959199E+04  0.33109413617E+04  0.00000000000E+00 0.  1.
         22    1    1    2    0    0 -0.15959784093E+03  0.67653879254E+03  0.85638217039E+03  0.11029807933E+04  0.00000000000E+00 0. -1.
<mgrwt>
<rscale>  0 0.40005122E+04</rscale>
<asrwt>0</asrwt>
<pdfrwt beam="1">  1        2 0.15565603E+00 0.40005122E+04</pdfrwt>
<pdfrwt beam="2">  1       -2 0.60838509E+00 0.40005122E+04</pdfrwt>
<totfact> 0.91873968E-03</totfact>
</mgrwt>
</event>
<event>
 6    1  0.9512547E-007  0.3176446E+04  0.7818608E-02  0.8195066E-01
          2   -1    0    0  501    0  0.00000000000E+00  0.00000000000E+00  0.15195086421E+04  0.15195086421E+04  0.00000000000E+00 0. -1.
         -2   -1    0    0    0  501 -0.00000000000E+00 -0.00000000000E+00 -0.16600445889E+04  0.16600445889E+04  0.00000000000E+00 0.  1.
         23    2    1    2    0    0 -0.63595488170E+03  0.96536528409E+03  0.10179536073E+04  0.15429510220E+04  0.89997591268E+02 0.  0.
         11    1    3    3    0    0 -0.41659768747E+03  0.65115479365E+03  0.73429620537E+03  0.10661834344E+04  0.00000000000E+00 0. -1.
        -11    1    3    3    0    0 -0.21935719422E+03  0.31421049044E+03  0.28365740197E+03  0.47676758767E+03  0.00000000000E+00 0.  1.
         22    1    1    2    0    0  0.63595488170E+03 -0.96536528409E+03 -0.11584895541E+04  0.16366022089E+04  0.00000000000E+00 0.  1.
<mgrwt>
<rscale>  0 0.31764459E+04</rscale>
<asrwt>0</asrwt>
<pdfrwt beam="1">  1        2 0.23377056E+00 0.31764459E+04</pdfrwt>
<pdfrwt beam="2">  1       -2 0.25539147E+00 0.31764459E+04</pdfrwt>
<totfact> 0.62171283E-01</totfact>
</mgrwt>
</event>
<event>
 6    1  0.9512547E-007  0.3730219E+04  0.7818608E-02  0.8061298E-01
          2   -1    0    0  501    0  0.00000000000E+00  0.00000000000E+00  0.11982537964E+04  0.11982537964E+04  0.00000000000E+00 0. -1.
         -2   -1    0    0    0  501 -0.00000000000E+00 -0.00000000000E+00 -0.29030858176E+04  0.29030858176E+04  0.00000000000E+00 0.  1.
         23    2    1    2    0    0  0.62727810131E+03  0.16820807441E+04 -0.30138143031E+03  0.18226235266E+04  0.90842208313E+02 0.  0.
         13    1    3    3    0    0  0.22589207988E+03  0.67179032312E+03 -0.15746603401E+03  0.72603376082E+03  0.00000000000E+00 0. -1.
        -13    1    3    3    0    0  0.40138602143E+03  0.10102904210E+04 -0.14391539630E+03  0.10965897657E+04  0.00000000000E+00 0.  1.
         22    1    1    2    0    0 -0.62727810131E+03 -0.16820807441E+04 -0.14034505909E+04  0.22787160875E+04  0.00000000000E+00 0.  1.
<mgrwt>
<rscale>  0 0.37302191E+04</rscale>
<asrwt>0</asrwt>
<pdfrwt beam="1">  1        2 0.18434674E+00 0.37302191E+04</pdfrwt>
<pdfrwt beam="2">  1       -2 0.44662859E+00 0.37302191E+04</pdfrwt>
<totfact> 0.55904157E-02</totfact>
</mgrwt>
</event>
<event>
 6    1  0.9512547E-007  0.2238342E+04  0.7818608E-02  0.8502637E-01
         -2   -1    0    0    0  501 -0.00000000000E+00  0.00000000000E+00  0.22860106405E+04  0.22860106405E+04  0.00000000000E+00 0.  1.
          2   -1    0    0  501    0  0.00000000000E+00 -0.00000000000E+00 -0.54791694276E+03  0.54791694276E+03  0.00000000000E+00 0. -1.
         23    2    1    2    0    0  0.43180670129E+03  0.34602335915E+03 -0.35869817372E+03  0.66535078162E+03  0.88532990573E+02 0.  0.
         11    1    3    3    0    0  0.32679059987E+03  0.29118602052E+03 -0.24729917552E+03  0.50273081955E+03  0.00000000000E+00 0. -1.
        -11    1    3    3    0    0  0.10501610142E+03  0.54837338627E+02 -0.11139899820E+03  0.16261996207E+03  0.00000000000E+00 0.  1.
         22    1    1    2    0    0 -0.43180670129E+03 -0.34602335915E+03  0.20967918715E+04  0.21685768017E+04  0.00000000000E+00 0.  1.
<mgrwt>
<rscale>  0 0.22383422E+04</rscale>
<asrwt>0</asrwt>
<pdfrwt beam="1">  1        2 0.84294915E-01 0.22383422E+04</pdfrwt>
<pdfrwt beam="2">  1       -2 0.35169394E+00 0.22383422E+04</pdfrwt>
<totfact> 0.76586785E-01</totfact>
</mgrwt>
</event>
<event>
 6    1  0.9512547E-007  0.2350045E+04  0.7818608E-02  0.8458446E-01
          2   -1    0    0  501    0  0.00000000000E+00  0.00000000000E+00  0.12441213674E+04  0.12441213674E+04  0.00000000000E+00 0. -1.
         -2   -1    0    0    0  501 -0.00000000000E+00 -0.00000000000E+00 -0.11097615676E+04  0.11097615676E+04  0.00000000000E+00 0.  1.
         23    2    1    2    0    0  0.91962260373E+03 -0.38514657559E+03 -0.55220493674E+03  0.11433397695E+04  0.90840069801E+02 0.  0.
         11    1    3    3    0    0  0.46084478361E+03 -0.20652103556E+03 -0.22971086405E+03  0.55479359564E+03  0.00000000000E+00 0. -1.
        -11    1    3    3    0    0  0.45877782013E+03 -0.17862554003E+03 -0.32249407269E+03  0.58854617382E+03  0.00000000000E+00 0.  1.
         22    1    1    2    0    0 -0.91962260373E+03  0.38514657559E+03  0.68656473656E+03  0.12105431655E+04  0.00000000000E+00 0. -1.
<mgrwt>
<rscale>  0 0.23500452E+04</rscale>
<asrwt>0</asrwt>
<pdfrwt beam="1">  1        2 0.19140329E+00 0.23500452E+04</pdfrwt>
<pdfrwt beam="2">  1       -2 0.17073255E+00 0.23500452E+04</pdfrwt>
<totfact> 0.33904582E+00</totfact>
</mgrwt>
</event>
<event>
 6    1  0.9512547E-007  0.4922212E+04  0.7818608E-02  0.7840620E-01
         -1   -1    0    0    0  501 -0.00000000000E+00  0.00000000000E+00  0.21425547154E+04  0.21425547154E+04  0.00000000000E+00 0.  1.
          1   -1    0    0  501    0  0.00000000000E+00 -0.00000000000E+00 -0.28270188502E+04  0.28270188502E+04  0.00000000000E+00 0. -1.
         23    2    1    2    0    0 -0.54405037254E+03  0.94658436111E+03 -0.25682900434E+04  0.27922327988E+04  0.91855836894E+02 0.  0.
         13    1    3    3    0    0 -0.38048067952E+03  0.61589620628E+03 -0.17931569059E+04  0.19337800737E+04  0.00000000000E+00 0.  1.
        -13    1    3    3    0    0 -0.16356969302E+03  0.33068815483E+03 -0.77513313756E+03  0.85845272506E+03  0.00000000000E+00 0. -1.
         22    1    1    2    0    0  0.54405037254E+03 -0.94658436111E+03  0.18838259087E+04  0.21773407668E+04  0.00000000000E+00 0.  1.
<mgrwt>
<rscale>  0 0.49222119E+04</rscale>
<asrwt>0</asrwt>
<pdfrwt beam="1">  1        1 0.43492598E+00 0.49222119E+04</pdfrwt>
<pdfrwt beam="2">  1       -1 0.32962380E+00 0.49222119E+04</pdfrwt>
<totfact> 0.12259997E-02</totfact>
</mgrwt>
</event>
<event>
 6    1  0.9512547E-007  0.2827946E+04  0.7818608E-02  0.8294644E-01
          2   -1    0    0  501    0  0.00000000000E+00  0.00000000000E+00  0.15378409058E+04  0.15378409058E+04  0.00000000000E+00 0. -1.
         -2   -1    0    0    0  501 -0.00000000000E+00 -0.00000000000E+00 -0.13000825265E+04  0.13000825265E+04  0.00000000000E+00 0.  1.
         23    2    1    2    0    0  0.69469150646E+02  0.10651899009E+04  0.10468909372E+04  0.14984642190E+04  0.99794256182E+02 0.  0.
         11    1    3    3    0    0  0.58044028209E+02  0.59429077074E+03  0.52095753901E+03  0.79243131365E+03  0.00000000000E+00 0. -1.
        -11    1    3    3    0    0  0.11425122437E+02  0.47089913014E+03  0.52593339814E+03  0.70603290537E+03  0.00000000000E+00 0.  1.
         22    1    1    2    0    0 -0.69469150646E+02 -0.10651899009E+04 -0.80913255789E+03  0.13394592133E+04  0.00000000000E+00 0.  1.
<mgrwt>
<rscale>  0 0.28279463E+04</rscale>
<asrwt>0</asrwt>
<pdfrwt beam="1">  1        2 0.23659091E+00 0.28279463E+04</pdfrwt>
<pdfrwt beam="2">  1       -2 0.20001270E+00 0.28279463E+04</pdfrwt>
<totfact> 0.13952968E+00</totfact>
</mgrwt>
</event>
<event>
 6    1  0.9512547E-007  0.1959141E+04  0.7818608E-02  0.8625965E-01
          2   -1    0    0  501    0  0.00000000000E+00  0.00000000000E+00  0.12809378541E+04  0.12809378541E+04  0.00000000000E+00 0. -1.
         -2   -1    0    0    0  501 -0.00000000000E+00 -0.00000000000E+00 -0.74910640260E+03  0.74910640260E+03  0.00000000000E+00 0.  1.
         23    2    1    2    0    0  0.63954691744E+03  0.52541625105E+03  0.80526534455E+03  0.11583513117E+04  0.90790912373E+02 0.  0.
         11    1    3    3    0    0  0.11493722251E+03  0.52930827938E+02  0.11580325793E+03  0.17153026617E+03  0.00000000000E+00 0.  1.
        -11    1    3    3    0    0  0.52460969492E+03  0.47248542311E+03  0.68946208662E+03  0.98682104555E+03  0.00000000000E+00 0. -1.
         22    1    1    2    0    0 -0.63954691744E+03 -0.52541625105E+03 -0.27343389303E+03  0.87169294498E+03  0.00000000000E+00 0.  1.
<mgrwt>
<rscale>  0 0.19591414E+04</rscale>
<asrwt>0</asrwt>
<pdfrwt beam="1">  1        2 0.19706736E+00 0.19591414E+04</pdfrwt>
<pdfrwt beam="2">  1       -2 0.11524714E+00 0.19591414E+04</pdfrwt>
<totfact> 0.92753814E+00</totfact>
</mgrwt>
</event>
<event>
 6    1  0.9512547E-007  0.3167169E+04  0.7818608E-02  0.8197542E-01
          1   -1    0    0  501    0  0.00000000000E+00  0.00000000000E+00  0.31057940583E+04  0.31057940583E+04  0.00000000000E+00 0. -1.
         -1   -1    0    0    0  501 -0.00000000000E+00 -0.00000000000E+00 -0.80743894650E+03  0.80743894650E+03  0.00000000000E+00 0.  1.
         23    2    1    2    0    0 -0.24897715259E+03 -0.18059315250E+03  0.30678249630E+04  0.30845669919E+04  0.91651594893E+02 0.  0.
         11    1    3    3    0    0 -0.17922575924E+03 -0.15302217266E+03  0.26123192753E+04  0.26229276876E+04  0.00000000000E+00 0. -1.
        -11    1    3    3    0    0 -0.69751393349E+02 -0.27570979841E+02  0.45550568760E+03  0.46163930426E+03  0.00000000000E+00 0.  1.
         22    1    1    2    0    0  0.24897715259E+03  0.18059315250E+03 -0.76946985112E+03  0.82866601295E+03  0.00000000000E+00 0.  1.
<mgrwt>
<rscale>  0 0.31671685E+04</rscale>
<asrwt>0</asrwt>
<pdfrwt beam="1">  1        1 0.47781446E+00 0.31671685E+04</pdfrwt>
<pdfrwt beam="2">  1       -1 0.12422138E+00 0.31671685E+04</pdfrwt>
<totfact> 0.23808188E-01</totfact>
</mgrwt>
</event>
<event>
 6    1  0.9512547E-007  0.1813021E+04  0.7818608E-02  0.8699405E-01
          2   -1    0    0  501    0  0.00000000000E+00  0.00000000000E+00  0.10485361786E+04  0.10485361786E+04  0.00000000000E+00 0. -1.
         -2   -1    0    0    0  501 -0.00000000000E+00 -0.00000000000E+00 -0.78372280867E+03  0.78372280867E+03  0.00000000000E+00 0.  1.
         23    2    1    2    0    0 -0.73475669290E+03  0.26583177779E+03  0.59272219749E+03  0.98487587967E+03  0.90149670638E+02 0.  0.
         11    1    3    3    0    0 -0.24360635800E+03  0.93017074921E+02  0.25202852166E+03  0.36264943074E+03  0.00000000000E+00 0. -1.
        -11    1    3    3    0    0 -0.49115033490E+03  0.17281470287E+03  0.34069367583E+03  0.62222644893E+03  0.00000000000E+00 0.  1.
         22    1    1    2    0    0  0.73475669290E+03 -0.26583177779E+03 -0.32790882757E+03  0.84738310759E+03  0.00000000000E+00 0.  1.
<mgrwt>
<rscale>  0 0.18130215E+04</rscale>
<asrwt>0</asrwt>
<pdfrwt beam="1">  1        2 0.16131326E+00 0.18130215E+04</pdfrwt>
<pdfrwt beam="2">  1       -2 0.12057274E+00 0.18130215E+04</pdfrwt>
<totfact> 0.11610059E+01</totfact>
</mgrwt>
</event>
<event>
 6    1  0.9512547E-007  0.1625266E+04  0.7818608E-02  0.8805175E-01
          1   -1    0    0  501    0  0.00000000000E+00  0.00000000000E+00  0.15552201624E+04  0.15552201624E+04  0.00000000000E+00 0. -1.
         -1   -1    0    0    0  501 -0.00000000000E+00 -0.00000000000E+00 -0.42461674826E+03  0.42461674826E+03  0.00000000000E+00 0.  1.
         23    2    1    2    0    0  0.33388146088E+03 -0.10174510583E+03 -0.32368411626E+03  0.48424969569E+03  0.88867677940E+02 0.  0.
         11    1    3    3    0    0  0.24646623926E+03 -0.32925694456E+02 -0.21494808678E+03  0.32868280828E+03  0.00000000000E+00 0. -1.
        -11    1    3    3    0    0  0.87415221626E+02 -0.68819411371E+02 -0.10873602947E+03  0.15556688741E+03  0.00000000000E+00 0.  1.
         22    1    1    2    0    0 -0.33388146088E+03  0.10174510583E+03  0.14542875304E+04  0.14955872150E+04  0.00000000000E+00 0. -1.
<mgrwt>
<rscale>  0 0.16252662E+04</rscale>
<asrwt>0</asrwt>
<pdfrwt beam="1">  1        1 0.23926464E+00 0.16252662E+04</pdfrwt>
<pdfrwt beam="2">  1       -1 0.65325655E-01 0.16252662E+04</pdfrwt>
<totfact> 0.13626559E+01</totfact>
</mgrwt>
</event>
<event>
 6    1  0.9512547E-007  0.1956808E+04  0.7818608E-02  0.8627085E-01
         -1   -1    0    0    0  501 -0.00000000000E+00  0.00000000000E+00  0.75614683464E+03  0.75614683464E+03  0.00000000000E+00 0.  1.
          1   -1    0    0  501    0  0.00000000000E+00 -0.00000000000E+00 -0.12659898871E+04  0.12659898871E+04  0.00000000000E+00 0. -1.
         23    2    1    2    0    0  0.31996581029E+03 -0.63651711286E+01  0.69767576258E+03  0.77292884318E+03  0.90823409822E+02 0.  0.
         11    1    3    3    0    0  0.43554795194E+02  0.22260733275E+02  0.16537180359E+03  0.17245403403E+03  0.00000000000E+00 0.  1.
        -11    1    3    3    0    0  0.27641101510E+03 -0.28625904404E+02  0.53230395899E+03  0.60047480915E+03  0.00000000000E+00 0. -1.
         22    1    1    2    0    0 -0.31996581029E+03  0.63651711286E+01 -0.12075188150E+04  0.12492078785E+04  0.00000000000E+00 0. -1.
<mgrwt>
<rscale>  0 0.19568079E+04</rscale>
<asrwt>0</asrwt>
<pdfrwt beam="1">  1        1 0.19476767E+00 0.19568079E+04</pdfrwt>
<pdfrwt beam="2">  1       -1 0.11633028E+00 0.19568079E+04</pdfrwt>
<totfact> 0.59490096E+00</totfact>
</mgrwt>
</event>
<event>
 6    1  0.9512547E-007  0.1094687E+04  0.7818608E-02  0.9210386E-01
         -2   -1    0    0    0  501 -0.00000000000E+00  0.00000000000E+00  0.23032828913E+03  0.23032828913E+03  0.00000000000E+00 0.  1.
          2   -1    0    0  501    0  0.00000000000E+00 -0.00000000000E+00 -0.13006857807E+04  0.13006857807E+04  0.00000000000E+00 0. -1.
         23    2    1    2    0    0  0.50434056352E+03 -0.81364301428E+02 -0.28021913997E+03  0.59011122244E+03  0.93428769057E+02 0.  0.
         13    1    3    3    0    0  0.24008216499E+03  0.32252745895E+01 -0.10582911322E+03  0.26239216746E+03  0.00000000000E+00 0. -1.
        -13    1    3    3    0    0  0.26425839853E+03 -0.84589576017E+02 -0.17439002675E+03  0.32771905498E+03  0.00000000000E+00 0.  1.
         22    1    1    2    0    0 -0.50434056352E+03  0.81364301428E+02 -0.79013835160E+03  0.94090284739E+03  0.00000000000E+00 0. -1.
<mgrwt>
<rscale>  0 0.10946867E+04</rscale>
<asrwt>0</asrwt>
<pdfrwt beam="1">  1        2 0.20010551E+00 0.10946867E+04</pdfrwt>
<pdfrwt beam="2">  1       -2 0.35435121E-01 0.10946867E+04</pdfrwt>
<totfact> 0.12260210E+02</totfact>
</mgrwt>
</event>
<event>
 6    1  0.9512547E-007  0.3230301E+04  0.7818608E-02  0.8180860E-01
          1   -1    0    0  501    0  0.00000000000E+00  0.00000000000E+00  0.12254340891E+04  0.12254340891E+04  0.00000000000E+00 0. -1.
         -1   -1    0    0    0  501 -0.00000000000E+00 -0.00000000000E+00 -0.21288053645E+04  0.21288053645E+04  0.00000000000E+00 0.  1.
         23    2    1    2    0    0 -0.10696954418E+04  0.41864858264E+02  0.80212890781E+03  0.13406029722E+04  0.88343306788E+02 0.  0.
         11    1    3    3    0    0 -0.66456945257E+03 -0.35997963990E+01  0.53556470119E+03  0.85351922356E+03  0.00000000000E+00 0. -1.
        -11    1    3    3    0    0 -0.40512598923E+03  0.45464654663E+02  0.26656420662E+03  0.48708374867E+03  0.00000000000E+00 0.  1.
         22    1    1    2    0    0  0.10696954418E+04 -0.41864858264E+02 -0.17055001832E+04  0.20136364815E+04  0.00000000000E+00 0.  1.
<mgrwt>
<rscale>  0 0.32303007E+04</rscale>
<asrwt>0</asrwt>
<pdfrwt beam="1">  1        1 0.18852832E+00 0.32303007E+04</pdfrwt>
<pdfrwt beam="2">  1       -1 0.32750851E+00 0.32303007E+04</pdfrwt>
<totfact> 0.18670289E-01</totfact>
</mgrwt>
</event>
<event>
 6    1  0.9512547E-007  0.1523270E+04  0.7818608E-02  0.8869125E-01
         -3   -1    0    0    0  501 -0.00000000000E+00  0.00000000000E+00  0.12532175619E+04  0.12532175619E+04  0.00000000000E+00 0.  1.
          3   -1    0    0  501    0  0.00000000000E+00 -0.00000000000E+00 -0.46287875832E+03  0.46287875832E+03  0.00000000000E+00 0. -1.
         23    2    1    2    0    0 -0.45306602070E+03  0.10861849895E+02 -0.29215351927E+03  0.54256471523E+03  0.60299191516E+02 0.  0.
         11    1    3    3    0    0 -0.27482092625E+03  0.16494505394E+02 -0.14389389358E+03  0.31065103061E+03  0.00000000000E+00 0. -1.
        -11    1    3    3    0    0 -0.17824509446E+03 -0.56326554990E+01 -0.14825962568E+03  0.23191368462E+03  0.00000000000E+00 0.  1.
         22    1    1    2    0    0  0.45306602070E+03 -0.10861849895E+02  0.10824923228E+04  0.11735316050E+04  0.00000000000E+00 0.  1.
<mgrwt>
<rscale>  0 0.15232699E+04</rscale>
<asrwt>0</asrwt>
<pdfrwt beam="1">  1        3 0.71212117E-01 0.15232699E+04</pdfrwt>
<pdfrwt beam="2">  1       -3 0.19280270E+00 0.15232699E+04</pdfrwt>
<totfact> 0.77345889E-01</totfact>
</mgrwt>
</event>
<event>
 6    1  0.9512547E-007  0.2384251E+04  0.7818608E-02  0.8445423E-01
         -2   -1    0    0    0  501 -0.00000000000E+00  0.00000000000E+00  0.61099915192E+03  0.61099915192E+03  0.00000000000E+00 0.  1.
          2   -1    0    0  501    0  0.00000000000E+00 -0.00000000000E+00 -0.23259656494E+04  0.23259656494E+04  0.00000000000E+00 0. -1.
         23    2    1    2    0    0  0.66849046653E+03 -0.24477077696E+03 -0.20345498452E+04  0.21566278528E+04  0.69702123338E+02 0.  0.
         13    1    3    3    0    0  0.21001159010E+03 -0.68405514126E+02 -0.72875517126E+03  0.76149082856E+03  0.00000000000E+00 0. -1.
        -13    1    3    3    0    0  0.45847887642E+03 -0.17636526284E+03 -0.13057946739E+04  0.13951370243E+04  0.00000000000E+00 0.  1.
         22    1    1    2    0    0 -0.66849046653E+03  0.24477077696E+03  0.31958334768E+03  0.78033694851E+03  0.00000000000E+00 0.  1.
<mgrwt>
<rscale>  0 0.23842509E+04</rscale>
<asrwt>0</asrwt>
<pdfrwt beam="1">  1        2 0.35784087E+00 0.23842509E+04</pdfrwt>
<pdfrwt beam="2">  1       -2 0.93999869E-01 0.23842509E+04</pdfrwt>
<totfact> 0.37688636E+00</totfact>
</mgrwt>
</event>
<event>
 6    1  0.9512547E-007  0.2354479E+04  0.7818608E-02  0.8456745E-01
         -2   -1    0    0    0  501 -0.00000000000E+00  0.00000000000E+00  0.84712600749E+03  0.84712600749E+03  0.00000000000E+00 0.  1.
          2   -1    0    0  501    0  0.00000000000E+00 -0.00000000000E+00 -0.16359939073E+04  0.16359939073E+04  0.00000000000E+00 0. -1.
         23    2    1    2    0    0  0.87787391051E+03 -0.58361286217E+03 -0.94356399602E+03  0.14176634596E+04  0.90499140272E+02 0.  0.
         13    1    3    3    0    0  0.26385949832E+03 -0.21742696696E+03 -0.27372245365E+03  0.43797294716E+03  0.00000000000E+00 0. -1.
        -13    1    3    3    0    0  0.61401441220E+03 -0.36618589521E+03 -0.66984154237E+03  0.97969051242E+03  0.00000000000E+00 0.  1.
         22    1    1    2    0    0 -0.87787391051E+03  0.58361286217E+03  0.15469609625E+03  0.10654564552E+04  0.00000000000E+00 0.  1.
<mgrwt>
<rscale>  0 0.23544791E+04</rscale>
<asrwt>0</asrwt>
<pdfrwt beam="1">  1        2 0.25169137E+00 0.23544791E+04</pdfrwt>
<pdfrwt beam="2">  1       -2 0.13032708E+00 0.23544791E+04</pdfrwt>
<totfact> 0.41476334E+00</totfact>
</mgrwt>
</event>
<event>
 6    1  0.9512547E-007  0.2034709E+04  0.7818608E-02  0.8590563E-01
          1   -1    0    0  501    0  0.00000000000E+00  0.00000000000E+00  0.82179795712E+03  0.82179795712E+03  0.00000000000E+00 0. -1.
         -1   -1    0    0    0  501 -0.00000000000E+00 -0.00000000000E+00 -0.12594456624E+04  0.12594456624E+04  0.00000000000E+00 0.  1.
         23    2    1    2    0    0 -0.94868335092E+02  0.62617393185E+03 -0.10309762190E+04  0.12134115395E+04  0.91442912216E+02 0.  0.
         13    1    3    3    0    0 -0.79028260248E+02  0.34743358425E+03 -0.50676794786E+03  0.61949117375E+03  0.00000000000E+00 0. -1.
        -13    1    3    3    0    0 -0.15840074843E+02  0.27874034759E+03 -0.52420827116E+03  0.59392036579E+03  0.00000000000E+00 0.  1.
         22    1    1    2    0    0  0.94868335092E+02 -0.62617393185E+03  0.59332851370E+03  0.86783208001E+03  0.00000000000E+00 0. -1.
<mgrwt>
<rscale>  0 0.20347087E+04</rscale>
<asrwt>0</asrwt>
<pdfrwt beam="1">  1        1 0.12643046E+00 0.20347087E+04</pdfrwt>
<pdfrwt beam="2">  1       -1 0.19376087E+00 0.20347087E+04</pdfrwt>
<totfact> 0.32554690E+00</totfact>
</mgrwt>
</event>
<event>
 6    1  0.9512547E-007  0.2997092E+04  0.7818608E-02  0.8244562E-01
         -2   -1    0    0    0  501 -0.00000000000E+00  0.00000000000E+00  0.76545648014E+03  0.76545648014E+03  0.00000000000E+00 0.  1.
          2   -1    0    0  501    0  0.00000000000E+00 -0.00000000000E+00 -0.29337268773E+04  0.29337268773E+04  0.00000000000E+00 0. -1.
         23    2    1    2    0    0  0.87947570246E+03  0.92840780961E+03 -0.20457252755E+04  0.24144904451E+04  0.96714188555E+02 0.  0.
         13    1    3    3    0    0  0.51760912920E+03  0.47978445986E+03 -0.10984170201E+04  0.13056156742E+04  0.00000000000E+00 0. -1.
        -13    1    3    3    0    0  0.36186657326E+03  0.44862334975E+03 -0.94730825539E+03  0.11088747709E+04  0.00000000000E+00 0.  1.
         22    1    1    2    0    0 -0.87947570246E+03 -0.92840780961E+03 -0.12254512159E+03  0.12846929123E+04  0.00000000000E+00 0.  1.
<mgrwt>
<rscale>  0 0.29970921E+04</rscale>
<asrwt>0</asrwt>
<pdfrwt beam="1">  1        2 0.45134259E+00 0.29970921E+04</pdfrwt>
<pdfrwt beam="2">  1       -2 0.11776254E+00 0.29970921E+04</pdfrwt>
<totfact> 0.91168479E-01</totfact>
</mgrwt>
</event>
<event>
 6    1  0.9512547E-007  0.1487316E+04  0.7818608E-02  0.8892932E-01
          1   -1    0    0  501    0  0.00000000000E+00  0.00000000000E+00  0.13947095436E+04  0.13947095436E+04  0.00000000000E+00 0. -1.
         -1   -1    0    0    0  501 -0.00000000000E+00 -0.00000000000E+00 -0.39651763565E+03  0.39651763565E+03  0.00000000000E+00 0.  1.
         23    2    1    2    0    0 -0.19387784700E+03  0.38786106121E+03 -0.22225498500E+03  0.49603783369E+03  0.92905498920E+02 0.  0.
         11    1    3    3    0    0 -0.12812206638E+03  0.26082916194E+03 -0.19623238933E+03  0.35064835125E+03  0.00000000000E+00 0.  1.
        -11    1    3    3    0    0 -0.65755780617E+02  0.12703189927E+03 -0.26022595665E+02  0.14538948243E+03  0.00000000000E+00 0. -1.
         22    1    1    2    0    0  0.19387784700E+03 -0.38786106121E+03  0.12204468929E+04  0.12951893455E+04  0.00000000000E+00 0. -1.
<mgrwt>
<rscale>  0 0.14873156E+04</rscale>
<asrwt>0</asrwt>
<pdfrwt beam="1">  1        1 0.21457070E+00 0.14873156E+04</pdfrwt>
<pdfrwt beam="2">  1       -1 0.61002714E-01 0.14873156E+04</pdfrwt>
<totfact> 0.20448634E+01</totfact>
</mgrwt>
</event>
<event>
 6    1  0.9512547E-007  0.2313218E+04  0.7818608E-02  0.8472728E-01
         -1   -1    0    0    0  501 -0.00000000000E+00  0.00000000000E+00  0.59713214523E+03  0.59713214523E+03  0.00000000000E+00 0.  1.
          1   -1    0    0  501    0  0.00000000000E+00 -0.00000000000E+00 -0.22402820109E+04  0.22402820109E+04  0.00000000000E+00 0. -1.
         23    2    1    2    0    0 -0.91545510150E+03 -0.67608641728E+03 -0.10632673563E+04  0.15601457383E+04  0.91467848316E+02 0.  0.
         11    1    3    3    0    0 -0.66350126683E+03 -0.44019517518E+03 -0.72448759522E+03  0.10765166041E+04  0.00000000000E+00 0. -1.
        -11    1    3    3    0    0 -0.25195383467E+03 -0.23589124211E+03 -0.33877976105E+03  0.48362913416E+03  0.00000000000E+00 0.  1.
         22    1    1    2    0    0  0.91545510150E+03  0.67608641728E+03 -0.57988250939E+03  0.12772684178E+04  0.00000000000E+00 0.  1.
<mgrwt>
<rscale>  0 0.23132180E+04</rscale>
<asrwt>0</asrwt>
<pdfrwt beam="1">  1        1 0.34465877E+00 0.23132180E+04</pdfrwt>
<pdfrwt beam="2">  1       -1 0.91866485E-01 0.23132180E+04</pdfrwt>
<totfact> 0.21303982E+00</totfact>
</mgrwt>
</event>
<event>
 6    1  0.9512547E-007  0.1715408E+04  0.7818608E-02  0.8752625E-01
         -1   -1    0    0    0  501 -0.00000000000E+00  0.00000000000E+00  0.10748733501E+04  0.10748733501E+04  0.00000000000E+00 0.  1.
          1   -1    0    0  501    0  0.00000000000E+00 -0.00000000000E+00 -0.68441186522E+03  0.68441186522E+03  0.00000000000E+00 0. -1.
         23    2    1    2    0    0  0.63010241724E+03  0.80779139407E+02  0.78280126728E+03  0.10126361475E+04  0.95392963523E+02 0.  0.
         11    1    3    3    0    0  0.33591913270E+03  0.72613938519E+01  0.46131108806E+03  0.57070334809E+03  0.00000000000E+00 0. -1.
        -11    1    3    3    0    0  0.29418328454E+03  0.73517745555E+02  0.32149017923E+03  0.44193279937E+03  0.00000000000E+00 0.  1.
         22    1    1    2    0    0 -0.63010241724E+03 -0.80779139407E+02 -0.39233978245E+03  0.74664906782E+03  0.00000000000E+00 0. -1.
<mgrwt>
<rscale>  0 0.17154079E+04</rscale>
<asrwt>0</asrwt>
<pdfrwt beam="1">  1        1 0.10529413E+00 0.17154079E+04</pdfrwt>
<pdfrwt beam="2">  1       -1 0.16536513E+00 0.17154079E+04</pdfrwt>
<totfact> 0.71348984E+00</totfact>
</mgrwt>
</event>
<event>
 6    1  0.9512547E-007  0.1175805E+04  0.7818608E-02  0.9134302E-01
         -2   -1    0    0    0  501 -0.00000000000E+00  0.00000000000E+00  0.34532699732E+03  0.34532699732E+03  0.00000000000E+00 0.  1.
          2   -1    0    0  501    0  0.00000000000E+00 -0.00000000000E+00 -0.10008762729E+04  0.10008762729E+04  0.00000000000E+00 0. -1.
         23    2    1    2    0    0 -0.46096594371E+03  0.31725024948E+03 -0.52394104968E+03  0.77134846492E+03  0.85597364030E+02 0.  0.
         11    1    3    3    0    0 -0.33517083766E+03  0.18303980871E+03 -0.36434672053E+03  0.52781776662E+03  0.00000000000E+00 0. -1.
        -11    1    3    3    0    0 -0.12579510605E+03  0.13421044078E+03 -0.15959432914E+03  0.24353069830E+03  0.00000000000E+00 0.  1.
         22    1    1    2    0    0  0.46096594371E+03 -0.31725024948E+03 -0.13160822592E+03  0.57485480531E+03  0.00000000000E+00 0.  1.
<mgrwt>
<rscale>  0 0.11758054E+04</rscale>
<asrwt>0</asrwt>
<pdfrwt beam="1">  1        2 0.15398096E+00 0.11758054E+04</pdfrwt>
<pdfrwt beam="2">  1       -2 0.53127231E-01 0.11758054E+04</pdfrwt>
<totfact> 0.83045157E+01</totfact>
</mgrwt>
</event>
<event>
 6    1  0.9512547E-007  0.3350088E+04  0.7818608E-02  0.8150266E-01
         -1   -1    0    0    0  501 -0.00000000000E+00  0.00000000000E+00  0.29432944674E+04  0.29432944674E+04  0.00000000000E+00 0.  1.
          1   -1    0    0  501    0  0.00000000000E+00 -0.00000000000E+00 -0.95327622102E+03  0.95327622102E+03  0.00000000000E+00 0. -1.
         23    2    1    2    0    0  0.60150062262E+03  0.37697740362E+00  0.28125517745E+04  0.28775689485E+04  0.90290798763E+02 0.  0.
         11    1    3    3    0    0  0.37663776416E+03 -0.43370255887E+02  0.17679717918E+04  0.18081651587E+04  0.00000000000E+00 0.  1.
        -11    1    3    3    0    0  0.22486285846E+03  0.43747233290E+02  0.10445799827E+04  0.10694037899E+04  0.00000000000E+00 0. -1.
         22    1    1    2    0    0 -0.60150062262E+03 -0.37697740362E+00 -0.82253352808E+03  0.10190017399E+04  0.00000000000E+00 0. -1.
<mgrwt>
<rscale>  0 0.33500881E+04</rscale>
<asrwt>0</asrwt>
<pdfrwt beam="1">  1        1 0.14665788E+00 0.33500881E+04</pdfrwt>
<pdfrwt beam="2">  1       -1 0.45281453E+00 0.33500881E+04</pdfrwt>
<totfact> 0.42075801E-02</totfact>
</mgrwt>
</event>
<event>
 6    1  0.9512547E-007  0.6404341E+03  0.7818608E-02  0.9824896E-01
          2   -1    0    0  501    0  0.00000000000E+00  0.00000000000E+00  0.69341305568E+03  0.69341305568E+03  0.00000000000E+00 0. -1.
         -2   -1    0    0    0  501 -0.00000000000E+00 -0.00000000000E+00 -0.14787570320E+03  0.14787570320E+03  0.00000000000E+00 0.  1.
         23    2    1    2    0    0 -0.20723678620E+03  0.17866971795E+03  0.48023966861E+03  0.55998155814E+03  0.89884662096E+02 0.  0.
         11    1    3    3    0    0 -0.14620704710E+03  0.70020067282E+02  0.24506254651E+03  0.29382811667E+03  0.00000000000E+00 0. -1.
        -11    1    3    3    0    0 -0.61029739096E+02  0.10864965067E+03  0.23517712210E+03  0.26615344147E+03  0.00000000000E+00 0.  1.
         22    1    1    2    0    0  0.20723678620E+03 -0.17866971795E+03  0.65297683867E+02  0.28130720074E+03  0.00000000000E+00 0.  1.
<mgrwt>
<rscale>  0 0.64043405E+03</rscale>
<asrwt>0</asrwt>
<pdfrwt beam="1">  1        2 0.10667893E+00 0.64043405E+03</pdfrwt>
<pdfrwt beam="2">  1       -2 0.22750109E-01 0.64043405E+03</pdfrwt>
<totfact> 0.70820368E+02</totfact>
</mgrwt>
</event>
<event>
 6    1  0.9512547E-007  0.1951765E+04  0.7818608E-02  0.8629510E-01
          2   -1    0    0  501    0  0.00000000000E+00  0.00000000000E+00  0.18913868642E+04  0.18913868642E+04  0.00000000000E+00 0. -1.
         -2   -1    0    0    0  501 -0.00000000000E+00 -0.00000000000E+00 -0.50351763228E+03  0.50351763228E+03  0.00000000000E+00 0.  1.
         23    2    1    2    0    0 -0.20642779279E+03  0.80292916016E+03  0.68311795743E+02  0.83652729656E+03  0.88338816915E+02 0.  0.
         11    1    3    3    0    0 -0.12745930002E+03  0.39009906845E+03  0.69343047062E+02  0.41621102165E+03  0.00000000000E+00 0. -1.
        -11    1    3    3    0    0 -0.78968492776E+02  0.41283009171E+03 -0.10312513186E+01  0.42031627491E+03  0.00000000000E+00 0.  1.
         22    1    1    2    0    0  0.20642779279E+03 -0.80292916016E+03  0.13195574361E+04  0.15583771999E+04  0.00000000000E+00 0. -1.
<mgrwt>
<rscale>  0 0.19517650E+04</rscale>
<asrwt>0</asrwt>
<pdfrwt beam="1">  1        2 0.29098259E+00 0.19517650E+04</pdfrwt>
<pdfrwt beam="2">  1       -2 0.77464252E-01 0.19517650E+04</pdfrwt>
<totfact> 0.10638896E+01</totfact>
</mgrwt>
</event>
<event>
 6    1  0.9512547E-007  0.1929782E+04  0.7818608E-02  0.8640173E-01
          1   -1    0    0  501    0  0.00000000000E+00  0.00000000000E+00  0.47851264801E+03  0.47851264801E+03  0.00000000000E+00 0. -1.
         -1   -1    0    0    0  501 -0.00000000000E+00 -0.00000000000E+00 -0.19456420967E+04  0.19456420967E+04  0.00000000000E+00 0.  1.
         23    2    1    2    0    0 -0.30404599561E+03 -0.90774346989E+03 -0.86358526171E+03  0.12924711492E+04  0.90884502377E+02 0.  0.
         11    1    3    3    0    0 -0.20078738970E+03 -0.54170093560E+03 -0.46564371642E+03  0.74201047845E+03  0.00000000000E+00 0.  1.
        -11    1    3    3    0    0 -0.10325860592E+03 -0.36604253430E+03 -0.39794154529E+03  0.55046067079E+03  0.00000000000E+00 0. -1.
         22    1    1    2    0    0  0.30404599561E+03  0.90774346989E+03 -0.60354418695E+03  0.11316835954E+04  0.00000000000E+00 0.  1.
<mgrwt>
<rscale>  0 0.19297817E+04</rscale>
<asrwt>0</asrwt>
<pdfrwt beam="1">  1        1 0.73617331E-01 0.19297817E+04</pdfrwt>
<pdfrwt beam="2">  1       -1 0.29932955E+00 0.19297817E+04</pdfrwt>
<totfact> 0.14670377E+00</totfact>
</mgrwt>
</event>
<event>
 6    1  0.9512547E-007  0.3043845E+04  0.7818608E-02  0.8231320E-01
          2   -1    0    0  501    0  0.00000000000E+00  0.00000000000E+00  0.33121566356E+04  0.33121566356E+04  0.00000000000E+00 0. -1.
         -2   -1    0    0    0  501 -0.00000000000E+00 -0.00000000000E+00 -0.69931700031E+03  0.69931700031E+03  0.00000000000E+00 0.  1.
         23    2    1    2    0    0 -0.13753421776E+04 -0.50978748393E+03  0.77895009317E+03  0.16631550380E+04  0.88724565846E+02 0.  0.
         13    1    3    3    0    0 -0.97906538780E+03 -0.35606487621E+03  0.59764369799E+03  0.12010533791E+04  0.00000000000E+00 0. -1.
        -13    1    3    3    0    0 -0.39627678983E+03 -0.15372260773E+03  0.18130639518E+03  0.46210165897E+03  0.00000000000E+00 0.  1.
         22    1    1    2    0    0  0.13753421776E+04  0.50978748393E+03  0.18338895421E+04  0.23483185978E+04  0.00000000000E+00 0.  1.
<mgrwt>
<rscale>  0 0.30438446E+04</rscale>
<asrwt>0</asrwt>
<pdfrwt beam="1">  1        2 0.50956255E+00 0.30438446E+04</pdfrwt>
<pdfrwt beam="2">  1       -2 0.10758723E+00 0.30438446E+04</pdfrwt>
<totfact> 0.64584464E-01</totfact>
</mgrwt>
</event>
<event>
 6    1  0.9512547E-007  0.6601035E+04  0.7818608E-02  0.7620041E-01
         -2   -1    0    0    0  501 -0.00000000000E+00  0.00000000000E+00  0.35863872813E+04  0.35863872813E+04  0.00000000000E+00 0.  1.
          2   -1    0    0  501    0  0.00000000000E+00 -0.00000000000E+00 -0.30374338790E+04  0.30374338790E+04  0.00000000000E+00 0. -1.
         23    2    1    2    0    0 -0.19699041434E+04  0.32834212709E+03 -0.23615025786E+04  0.30940782656E+04  0.91076883793E+02 0.  0.
         13    1    3    3    0    0 -0.13111891191E+04  0.24127659483E+03 -0.16320712834E+04  0.21073888999E+04  0.00000000000E+00 0. -1.
        -13    1    3    3    0    0 -0.65871502423E+03  0.87065532259E+02 -0.72943129521E+03  0.98668936575E+03  0.00000000000E+00 0.  1.
         22    1    1    2    0    0  0.19699041434E+04 -0.32834212709E+03  0.29104559808E+04  0.35297428947E+04  0.00000000000E+00 0.  1.
<mgrwt>
<rscale>  0 0.66010345E+04</rscale>
<asrwt>0</asrwt>
<pdfrwt beam="1">  1        2 0.46729752E+00 0.66010345E+04</pdfrwt>
<pdfrwt beam="2">  1       -2 0.55175189E+00 0.66010345E+04</pdfrwt>
<totfact> 0.90592074E-04</totfact>
</mgrwt>
</event>
<event>
 6    1  0.9512547E-007  0.4642880E+04  0.7818608E-02  0.7886089E-01
          2   -1    0    0  501    0  0.00000000000E+00  0.00000000000E+00  0.34152635763E+04  0.34152635763E+04  0.00000000000E+00 0. -1.
         -2   -1    0    0    0  501 -0.00000000000E+00 -0.00000000000E+00 -0.15779407857E+04  0.15779407857E+04  0.00000000000E+00 0.  1.
         23    2    1    2    0    0 -0.16478566301E+04  0.16315902229E+04  0.82605268325E+03  0.24633455994E+04  0.90500705945E+02 0.  0.
         11    1    3    3    0    0 -0.74377546894E+03  0.75924349327E+03  0.33395085779E+03  0.11140806998E+04  0.00000000000E+00 0. -1.
        -11    1    3    3    0    0 -0.90408116115E+03  0.87234672964E+03  0.49210182546E+03  0.13492648996E+04  0.00000000000E+00 0.  1.
         22    1    1    2    0    0  0.16478566301E+04 -0.16315902229E+04  0.10112701074E+04  0.25298587626E+04  0.00000000000E+00 0. -1.
<mgrwt>
<rscale>  0 0.46428800E+04</rscale>
<asrwt>0</asrwt>
<pdfrwt beam="1">  1        2 0.52542516E+00 0.46428800E+04</pdfrwt>
<pdfrwt beam="2">  1       -2 0.24276012E+00 0.46428800E+04</pdfrwt>
<totfact> 0.49568392E-02</totfact>
</mgrwt>
</event>
<event>
 6    1  0.9512547E-007  0.3373679E+04  0.7818608E-02  0.8144397E-01
          2   -1    0    0  501    0  0.00000000000E+00  0.00000000000E+00  0.15327074636E+04  0.15327074636E+04  0.00000000000E+00 0. -1.
         -2   -1    0    0    0  501 -0.00000000000E+00 -0.00000000000E+00 -0.18564712920E+04  0.18564712920E+04  0.00000000000E+00 0.  1.
         23    2    1    2    0    0  0.24265397867E+02  0.14934569112E+04 -0.94762684628E+03  0.17704732790E+04  0.74676881005E+02 0.  0.
         13    1    3    3    0    0  0.44253746448E+02  0.56917933873E+03 -0.35050543931E+03  0.66990863310E+03  0.00000000000E+00 0.  1.
        -13    1    3    3    0    0 -0.19988348581E+02  0.92427757247E+03 -0.59712140697E+03  0.11005646459E+04  0.00000000000E+00 0. -1.
         22    1    1    2    0    0 -0.24265397867E+02 -0.14934569112E+04  0.62386301779E+03  0.16187054766E+04  0.00000000000E+00 0. -1.
<mgrwt>
<rscale>  0 0.33736789E+04</rscale>
<asrwt>0</asrwt>
<pdfrwt beam="1">  1        2 0.23580115E+00 0.33736789E+04</pdfrwt>
<pdfrwt beam="2">  1       -2 0.28561097E+00 0.33736789E+04</pdfrwt>
<totfact> 0.39307525E-01</totfact>
</mgrwt>
</event>
<event>
 6    1  0.9512547E-007  0.2339268E+04  0.7818608E-02  0.8462597E-01
         -2   -1    0    0    0  501 -0.00000000000E+00  0.00000000000E+00  0.72178546194E+03  0.72178546194E+03  0.00000000000E+00 0.  1.
          2   -1    0    0  501    0  0.00000000000E+00 -0.00000000000E+00 -0.18953598734E+04  0.18953598734E+04  0.00000000000E+00 0. -1.
         23    2    1    2    0    0 -0.98657921248E+03  0.56068141344E+03 -0.27818048439E+03  0.11716584020E+04  0.87731631555E+02 0.  0.
         13    1    3    3    0    0 -0.60287937144E+03  0.36324981689E+03 -0.21205788266E+03  0.73510714292E+03  0.00000000000E+00 0. -1.
        -13    1    3    3    0    0 -0.38369984103E+03  0.19743159655E+03 -0.66122601731E+02  0.43655125906E+03  0.00000000000E+00 0.  1.
         22    1    1    2    0    0  0.98657921248E+03 -0.56068141344E+03 -0.89539392708E+03  0.14454869334E+04  0.00000000000E+00 0.  1.
<mgrwt>
<rscale>  0 0.23392676E+04</rscale>
<asrwt>0</asrwt>
<pdfrwt beam="1">  1        2 0.29159383E+00 0.23392676E+04</pdfrwt>
<pdfrwt beam="2">  1       -2 0.11104392E+00 0.23392676E+04</pdfrwt>
<totfact> 0.44327753E+00</totfact>
</mgrwt>
</event>
<event>
 6    1  0.9512547E-007  0.2518586E+04  0.7818608E-02  0.8396394E-01
          1   -1    0    0  501    0  0.00000000000E+00  0.00000000000E+00  0.15934581484E+04  0.15934581484E+04  0.00000000000E+00 0. -1.
         -1   -1    0    0    0  501 -0.00000000000E+00 -0.00000000000E+00 -0.99520582165E+03  0.99520582165E+03  0.00000000000E+00 0.  1.
         23    2    1    2    0    0 -0.38248707672E+03 -0.10928298368E+04 -0.20516634001E+03  0.11793893445E+04  0.91063619614E+02 0.  0.
         11    1    3    3    0    0 -0.36504600173E+03 -0.10496225140E+04 -0.21467229255E+03  0.11318348813E+04  0.00000000000E+00 0. -1.
        -11    1    3    3    0    0 -0.17441074994E+02 -0.43207322804E+02  0.95059525406E+01  0.47554463245E+02  0.00000000000E+00 0.  1.
         22    1    1    2    0    0  0.38248707672E+03  0.10928298368E+04  0.80341866674E+03  0.14092746255E+04  0.00000000000E+00 0. -1.
<mgrwt>
<rscale>  0 0.25185860E+04</rscale>
<asrwt>0</asrwt>
<pdfrwt beam="1">  1        1 0.24514741E+00 0.25185860E+04</pdfrwt>
<pdfrwt beam="2">  1       -1 0.15310859E+00 0.25185860E+04</pdfrwt>
<totfact> 0.16504431E+00</totfact>
</mgrwt>
</event>
<event>
 6    1  0.9512547E-007  0.2384327E+04  0.7818608E-02  0.8445395E-01
         -1   -1    0    0    0  501 -0.00000000000E+00  0.00000000000E+00  0.11815554737E+04  0.11815554737E+04  0.00000000000E+00 0.  1.
          1   -1    0    0  501    0  0.00000000000E+00 -0.00000000000E+00 -0.12028671502E+04  0.12028671502E+04  0.00000000000E+00 0. -1.
         23    2    1    2    0    0 -0.18550043182E+03 -0.49075981380E+03 -0.10792972923E+04  0.12034953745E+04  0.90900309725E+02 0.  0.
         13    1    3    3    0    0 -0.11055448031E+02 -0.14224649690E+03 -0.28161654226E+03  0.31569631877E+03  0.00000000000E+00 0.  1.
        -13    1    3    3    0    0 -0.17444498379E+03 -0.34851331691E+03 -0.79768075003E+03  0.88779905576E+03  0.00000000000E+00 0. -1.
         22    1    1    2    0    0  0.18550043182E+03  0.49075981380E+03  0.10579856158E+04  0.11809272493E+04  0.00000000000E+00 0.  1.
<mgrwt>
<rscale>  0 0.23843274E+04</rscale>
<asrwt>0</asrwt>
<pdfrwt beam="1">  1        1 0.18505649E+00 0.23843274E+04</pdfrwt>
<pdfrwt beam="2">  1       -1 0.18177776E+00 0.23843274E+04</pdfrwt>
<totfact> 0.19284883E+00</totfact>
</mgrwt>
</event>
<event>
 6    1  0.9512547E-007  0.1743067E+04  0.7818608E-02  0.8737176E-01
          2   -1    0    0  501    0  0.00000000000E+00  0.00000000000E+00  0.19693422323E+04  0.19693422323E+04  0.00000000000E+00 0. -1.
         -2   -1    0    0    0  501 -0.00000000000E+00 -0.00000000000E+00 -0.38569782357E+03  0.38569782357E+03  0.00000000000E+00 0.  1.
         23    2    1    2    0    0 -0.32532766546E+03  0.23027854937E+02  0.18824275355E+04  0.19127282553E+04  0.92884769262E+02 0.  0.
         13    1    3    3    0    0 -0.12556521667E+03  0.22849627265E+02  0.50436096101E+03  0.52025830901E+03  0.00000000000E+00 0.  1.
        -13    1    3    3    0    0 -0.19976244879E+03  0.17822767138E+00  0.13780665745E+04  0.13924699463E+04  0.00000000000E+00 0. -1.
         22    1    1    2    0    0  0.32532766546E+03 -0.23027854937E+02 -0.29878312679E+03  0.44231180051E+03  0.00000000000E+00 0.  1.
<mgrwt>
<rscale>  0 0.17430674E+04</rscale>
<asrwt>0</asrwt>
<pdfrwt beam="1">  1        2 0.30297572E+00 0.17430674E+04</pdfrwt>
<pdfrwt beam="2">  1       -2 0.59338128E-01 0.17430674E+04</pdfrwt>
<totfact> 0.17472742E+01</totfact>
</mgrwt>
</event>
<event>
 6    1  0.9512547E-007  0.5360154E+04  0.7818608E-02  0.7775231E-01
         -2   -1    0    0    0  501 -0.00000000000E+00  0.00000000000E+00  0.23656091507E+04  0.23656091507E+04  0.00000000000E+00 0.  1.
          2   -1    0    0  501    0  0.00000000000E+00 -0.00000000000E+00 -0.30363479142E+04  0.30363479142E+04  0.00000000000E+00 0. -1.
         23    2    1    2    0    0 -0.18214282993E+04  0.14909190601E+04  0.95444597984E+03  0.25415958739E+04  0.91114020803E+02 0.  0.
         13    1    3    3    0    0 -0.90964947950E+03  0.68587642437E+03  0.46486903372E+03  0.12304437669E+04  0.00000000000E+00 0. -1.
        -13    1    3    3    0    0 -0.91177881981E+03  0.80504263569E+03  0.48957694612E+03  0.13111521070E+04  0.00000000000E+00 0.  1.
         22    1    1    2    0    0  0.18214282993E+04 -0.14909190601E+04 -0.16251847433E+04  0.28603611910E+04  0.00000000000E+00 0. -1.
<mgrwt>
<rscale>  0 0.53601539E+04</rscale>
<asrwt>0</asrwt>
<pdfrwt beam="1">  1        2 0.46713045E+00 0.53601539E+04</pdfrwt>
<pdfrwt beam="2">  1       -2 0.36393987E+00 0.53601539E+04</pdfrwt>
<totfact> 0.14830403E-02</totfact>
</mgrwt>
</event>
<event>
 6    1  0.9512547E-007  0.1684196E+04  0.7818608E-02  0.8770430E-01
          2   -1    0    0  501    0  0.00000000000E+00  0.00000000000E+00  0.97649403154E+03  0.97649403154E+03  0.00000000000E+00 0. -1.
         -2   -1    0    0    0  501 -0.00000000000E+00 -0.00000000000E+00 -0.72619873685E+03  0.72619873685E+03  0.00000000000E+00 0.  1.
         23    2    1    2    0    0  0.32906877113E+03 -0.57273121543E+03 -0.39842057661E+03  0.77687443689E+03  0.92128353793E+02 0.  0.
         13    1    3    3    0    0  0.51410973999E+02 -0.79232321331E+02 -0.22155947568E+02  0.97014096933E+02  0.00000000000E+00 0.  1.
        -13    1    3    3    0    0  0.27765779713E+03 -0.49349889410E+03 -0.37626462904E+03  0.67986033996E+03  0.00000000000E+00 0. -1.
         22    1    1    2    0    0 -0.32906877113E+03  0.57273121543E+03  0.64871587129E+03  0.92581833149E+03  0.00000000000E+00 0. -1.
<mgrwt>
<rscale>  0 0.16841956E+04</rscale>
<asrwt>0</asrwt>
<pdfrwt beam="1">  1        2 0.15022985E+00 0.16841956E+04</pdfrwt>
<pdfrwt beam="2">  1       -2 0.11172288E+00 0.16841956E+04</pdfrwt>
<totfact> 0.15726263E+01</totfact>
</mgrwt>
</event>
<event>
 6    1  0.9512547E-007  0.2160236E+04  0.7818608E-02  0.8535163E-01
         -2   -1    0    0    0  501 -0.00000000000E+00  0.00000000000E+00  0.13184605646E+04  0.13184605646E+04  0.00000000000E+00 0.  1.
          2   -1    0    0  501    0  0.00000000000E+00 -0.00000000000E+00 -0.88486166361E+03  0.88486166361E+03  0.00000000000E+00 0. -1.
         23    2    1    2    0    0 -0.26668126644E+03  0.10436705875E+04  0.26476952171E+03  0.11129688211E+04  0.90716612915E+02 0.  0.
         13    1    3    3    0    0 -0.19886404814E+03  0.87154051173E+03  0.19306361968E+03  0.91455089223E+03  0.00000000000E+00 0. -1.
        -13    1    3    3    0    0 -0.67817218297E+02  0.17213007581E+03  0.71705902033E+02  0.19841792883E+03  0.00000000000E+00 0.  1.
         22    1    1    2    0    0  0.26668126644E+03 -0.10436705875E+04  0.16882937927E+03  0.10903534071E+04  0.00000000000E+00 0.  1.
<mgrwt>
<rscale>  0 0.21602363E+04</rscale>
<asrwt>0</asrwt>
<pdfrwt beam="1">  1        2 0.13613256E+00 0.21602363E+04</pdfrwt>
<pdfrwt beam="2">  1       -2 0.20284009E+00 0.21602363E+04</pdfrwt>
<totfact> 0.35071801E+00</totfact>
</mgrwt>
</event>
<event>
 6    1  0.9512547E-007  0.2870362E+04  0.7818608E-02  0.8281751E-01
         -2   -1    0    0    0  501 -0.00000000000E+00  0.00000000000E+00  0.15831944291E+04  0.15831944291E+04  0.00000000000E+00 0.  1.
          2   -1    0    0  501    0  0.00000000000E+00 -0.00000000000E+00 -0.13010049624E+04  0.13010049624E+04  0.00000000000E+00 0. -1.
         23    2    1    2    0    0 -0.27430832037E+03 -0.96133519562E+03 -0.89136417332E+03  0.13425643638E+04  0.92404374583E+02 0.  0.
         13    1    3    3    0    0 -0.24093039121E+03 -0.71001660897E+03 -0.64467030656E+03  0.98882295816E+03  0.00000000000E+00 0. -1.
        -13    1    3    3    0    0 -0.33377929154E+02 -0.25131858666E+03 -0.24669386676E+03  0.35374140562E+03  0.00000000000E+00 0.  1.
         22    1    1    2    0    0  0.27430832037E+03  0.96133519562E+03  0.11735536400E+04  0.15416350278E+04  0.00000000000E+00 0.  1.
<mgrwt>
<rscale>  0 0.28703615E+04</rscale>
<asrwt>0</asrwt>
<pdfrwt beam="1">  1        2 0.20015461E+00 0.28703615E+04</pdfrwt>
<pdfrwt beam="2">  1       -2 0.24356837E+00 0.28703615E+04</pdfrwt>
<totfact> 0.10055999E+00</totfact>
</mgrwt>
</event>
<event>
 6    1  0.9512547E-007  0.1873827E+04  0.7818608E-02  0.8667995E-01
          2   -1    0    0  501    0  0.00000000000E+00  0.00000000000E+00  0.16310913406E+04  0.16310913406E+04  0.00000000000E+00 0. -1.
         -2   -1    0    0    0  501 -0.00000000000E+00 -0.00000000000E+00 -0.53817177608E+03  0.53817177608E+03  0.00000000000E+00 0.  1.
         23    2    1    2    0    0 -0.78246211700E+03 -0.44181870038E+03  0.84537899016E+03  0.12372078262E+04  0.92557223765E+02 0.  0.
         11    1    3    3    0    0 -0.58482676369E+03 -0.28430620962E+03  0.59337923763E+03  0.88031317382E+03  0.00000000000E+00 0. -1.
        -11    1    3    3    0    0 -0.19763535331E+03 -0.15751249075E+03  0.25199975253E+03  0.35689465238E+03  0.00000000000E+00 0.  1.
         22    1    1    2    0    0  0.78246211700E+03  0.44181870038E+03  0.24754057436E+03  0.93205529047E+03  0.00000000000E+00 0.  1.
<mgrwt>
<rscale>  0 0.18738274E+04</rscale>
<asrwt>0</asrwt>
<pdfrwt beam="1">  1        2 0.25093713E+00 0.18738274E+04</pdfrwt>
<pdfrwt beam="2">  1       -2 0.82795659E-01 0.18738274E+04</pdfrwt>
<totfact> 0.12861206E+01</totfact>
</mgrwt>
</event>
<event>
 6    1  0.9512547E-007  0.3949047E+04  0.7818608E-02  0.8014905E-01
         -2   -1    0    0    0  501 -0.00000000000E+00  0.00000000000E+00  0.12223744099E+04  0.12223744099E+04  0.00000000000E+00 0.  1.
          2   -1    0    0  501    0  0.00000000000E+00 -0.00000000000E+00 -0.31894838828E+04  0.31894838828E+04  0.00000000000E+00 0. -1.
         23    2    1    2    0    0  0.16916828011E+04  0.43465965489E+03 -0.20102835926E+04  0.26646938128E+04  0.92915438353E+02 0.  0.
         13    1    3    3    0    0  0.11455708795E+04  0.33605618516E+03 -0.13956990115E+04  0.18366388132E+04  0.00000000000E+00 0.  1.
        -13    1    3    3    0    0  0.54611192154E+03  0.98603469726E+02 -0.61458458107E+03  0.82805499961E+03  0.00000000000E+00 0. -1.
         22    1    1    2    0    0 -0.16916828011E+04 -0.43465965489E+03  0.43174119650E+02  0.17471644798E+04  0.00000000000E+00 0.  1.
<mgrwt>
<rscale>  0 0.39490472E+04</rscale>
<asrwt>0</asrwt>
<pdfrwt beam="1">  1        2 0.49068983E+00 0.39490472E+04</pdfrwt>
<pdfrwt beam="2">  1       -2 0.18805760E+00 0.39490472E+04</pdfrwt>
<totfact> 0.16653232E-01</totfact>
</mgrwt>
</event>
<event>
 6    1  0.9512547E-007  0.1840606E+04  0.7818608E-02  0.8684999E-01
          1   -1    0    0  501    0  0.00000000000E+00  0.00000000000E+00  0.13041682724E+04  0.13041682724E+04  0.00000000000E+00 0. -1.
         -1   -1    0    0    0  501 -0.00000000000E+00 -0.00000000000E+00 -0.64942334276E+03  0.64942334276E+03  0.00000000000E+00 0.  1.
         23    2    1    2    0    0 -0.62137846840E+03  0.54597259045E+03 -0.94330494587E+02  0.83765646394E+03  0.92589626095E+02 0.  0.
         11    1    3    3    0    0 -0.17614274539E+03  0.20527739768E+03 -0.51870905008E+02  0.27541907621E+03  0.00000000000E+00 0. -1.
        -11    1    3    3    0    0 -0.44523572301E+03  0.34069519277E+03 -0.42459589578E+02  0.56223738773E+03  0.00000000000E+00 0.  1.
         22    1    1    2    0    0  0.62137846840E+03 -0.54597259045E+03  0.74907542418E+03  0.11159351512E+04  0.00000000000E+00 0. -1.
<mgrwt>
<rscale>  0 0.18406057E+04</rscale>
<asrwt>0</asrwt>
<pdfrwt beam="1">  1        1 0.20064127E+00 0.18406057E+04</pdfrwt>
<pdfrwt beam="2">  1       -1 0.99911283E-01 0.18406057E+04</pdfrwt>
<totfact> 0.80686175E+00</totfact>
</mgrwt>
</event>
<event>
 6    1  0.9512547E-007  0.1439170E+04  0.7818608E-02  0.8925943E-01
          2   -1    0    0  501    0  0.00000000000E+00  0.00000000000E+00  0.21622161740E+04  0.21622161740E+04  0.00000000000E+00 0. -1.
         -2   -1    0    0    0  501 -0.00000000000E+00 -0.00000000000E+00 -0.23947779975E+03  0.23947779975E+03  0.00000000000E+00 0.  1.
         23    2    1    2    0    0  0.47017377763E+03 -0.24917755458E+03  0.16355493313E+03  0.56379321082E+03  0.89217338768E+02 0.  0.
         13    1    3    3    0    0  0.24560625860E+03 -0.95130889523E+02  0.11398757870E+03  0.28699388235E+03  0.00000000000E+00 0. -1.
        -13    1    3    3    0    0  0.22456751903E+03 -0.15404666506E+03  0.49567354426E+02  0.27679932847E+03  0.00000000000E+00 0.  1.
         22    1    1    2    0    0 -0.47017377763E+03  0.24917755458E+03  0.17591834412E+04  0.18379007630E+04  0.00000000000E+00 0.  1.
<mgrwt>
<rscale>  0 0.14391703E+04</rscale>
<asrwt>0</asrwt>
<pdfrwt beam="1">  1        2 0.33264863E+00 0.14391703E+04</pdfrwt>
<pdfrwt beam="2">  1       -2 0.36842740E-01 0.14391703E+04</pdfrwt>
<totfact> 0.36570964E+01</totfact>
</mgrwt>
</event>
<event>
 6    1  0.9512547E-007  0.2754619E+04  0.7818608E-02  0.8317497E-01
         -2   -1    0    0    0  501 -0.00000000000E+00  0.00000000000E+00  0.57994794887E+03  0.57994794887E+03  0.00000000000E+00 0.  1.
          2   -1    0    0  501    0  0.00000000000E+00 -0.00000000000E+00 -0.32709517145E+04  0.32709517145E+04  0.00000000000E+00 0. -1.
         23    2    1    2    0    0  0.99632449923E+03 -0.34099152212E+03 -0.25844698726E+04  0.27924634602E+04  0.97107816405E+02 0.  0.
         11    1    3    3    0    0  0.34982693504E+03 -0.92665038479E+02 -0.78810344996E+03  0.86722127607E+03  0.00000000000E+00 0.  1.
        -11    1    3    3    0    0  0.64649756418E+03 -0.24832648364E+03 -0.17963664227E+04  0.19252421841E+04  0.00000000000E+00 0. -1.
         22    1    1    2    0    0 -0.99632449923E+03  0.34099152212E+03 -0.10653389304E+03  0.10584362032E+04  0.00000000000E+00 0.  1.
<mgrwt>
<rscale>  0 0.27546192E+04</rscale>
<asrwt>0</asrwt>
<pdfrwt beam="1">  1        2 0.50322335E+00 0.27546192E+04</pdfrwt>
<pdfrwt beam="2">  1       -2 0.89222760E-01 0.27546192E+04</pdfrwt>
<totfact> 0.10963608E+00</totfact>
</mgrwt>
</event>
<event>
 6    1  0.9512547E-007  0.6041411E+03  0.7818608E-02  0.9896852E-01
          1   -1    0    0  501    0  0.00000000000E+00  0.00000000000E+00  0.11567057983E+03  0.11567057983E+03  0.00000000000E+00 0. -1.
         -1   -1    0    0    0  501 -0.00000000000E+00 -0.00000000000E+00 -0.78884905039E+03  0.78884905039E+03  0.00000000000E+00 0.  1.
         23    2    1    2    0    0 -0.68341107681E+02 -0.19997621851E+02 -0.77313788049E+03  0.78179108622E+03  0.91568053217E+02 0.  0.
         13    1    3    3    0    0 -0.16172576601E+02  0.21701723686E+02 -0.49530156264E+03  0.49604047718E+03  0.00000000000E+00 0.  1.
        -13    1    3    3    0    0 -0.52168531080E+02 -0.41699345536E+02 -0.27783631784E+03  0.28575060904E+03  0.00000000000E+00 0. -1.
         22    1    1    2    0    0  0.68341107681E+02  0.19997621851E+02  0.99959409928E+02  0.12272854400E+03  0.00000000000E+00 0. -1.
<mgrwt>
<rscale>  0 0.60414113E+03</rscale>
<asrwt>0</asrwt>
<pdfrwt beam="1">  1        1 0.17795474E-01 0.60414113E+03</pdfrwt>
<pdfrwt beam="2">  1       -1 0.12136139E+00 0.60414113E+03</pdfrwt>
<totfact> 0.18823905E+02</totfact>
</mgrwt>
</event>
<event>
 6    1  0.9512547E-007  0.2615086E+04  0.7818608E-02  0.8363095E-01
          2   -1    0    0  501    0  0.00000000000E+00  0.00000000000E+00  0.14704031173E+04  0.14704031173E+04  0.00000000000E+00 0. -1.
         -2   -1    0    0    0  501 -0.00000000000E+00 -0.00000000000E+00 -0.11627214456E+04  0.11627214456E+04  0.00000000000E+00 0.  1.
         23    2    1    2    0    0 -0.12666138172E+04  0.16025193680E+03  0.43095234631E+03  0.13504761683E+04  0.89859397183E+02 0.  0.
         11    1    3    3    0    0 -0.91134911958E+03  0.74868108337E+02  0.30156593814E+03  0.96286264153E+03  0.00000000000E+00 0. -1.
        -11    1    3    3    0    0 -0.35526469757E+03  0.85383828463E+02  0.12938640817E+03  0.38761352676E+03  0.00000000000E+00 0.  1.
         22    1    1    2    0    0  0.12666138172E+04 -0.16025193680E+03 -0.12327067465E+03  0.12826483946E+04  0.00000000000E+00 0.  1.
<mgrwt>
<rscale>  0 0.26150864E+04</rscale>
<asrwt>0</asrwt>
<pdfrwt beam="1">  1        2 0.22621586E+00 0.26150864E+04</pdfrwt>
<pdfrwt beam="2">  1       -2 0.17888022E+00 0.26150864E+04</pdfrwt>
<totfact> 0.21518873E+00</totfact>
</mgrwt>
</event>
<event>
 6    1  0.9512547E-007  0.3503315E+04  0.7818608E-02  0.8113005E-01
          2   -1    0    0  501    0  0.00000000000E+00  0.00000000000E+00  0.54367764331E+04  0.54367764331E+04  0.00000000000E+00 0. -1.
         -2   -1    0    0    0  501 -0.00000000000E+00 -0.00000000000E+00 -0.56436081390E+03  0.56436081390E+03  0.00000000000E+00 0.  1.
         23    2    1    2    0    0 -0.67365963035E+02 -0.17253994751E+04  0.29306685884E+04  0.34026909702E+04  0.89140015525E+02 0.  0.
         11    1    3    3    0    0 -0.44529796165E+02 -0.12119919909E+04  0.21369020348E+04  0.24570831885E+04  0.00000000000E+00 0. -1.
        -11    1    3    3    0    0 -0.22836166870E+02 -0.51340748419E+03  0.79376655361E+03  0.94560778178E+03  0.00000000000E+00 0.  1.
         22    1    1    2    0    0  0.67365963035E+02  0.17253994751E+04  0.19417470308E+04  0.25984462768E+04  0.00000000000E+00 0.  1.
<mgrwt>
<rscale>  0 0.35033148E+04</rscale>
<asrwt>0</asrwt>
<pdfrwt beam="1">  1        2 0.83642711E+00 0.35033148E+04</pdfrwt>
<pdfrwt beam="2">  1       -2 0.86824744E-01 0.35033148E+04</pdfrwt>
<totfact> 0.72525212E-03</totfact>
</mgrwt>
</event>
<event>
 6    1  0.9512547E-007  0.4982661E+04  0.7818608E-02  0.7831187E-01
          2   -1    0    0  501    0  0.00000000000E+00  0.00000000000E+00  0.37896789802E+04  0.37896789802E+04  0.00000000000E+00 0. -1.
         -2   -1    0    0    0  501 -0.00000000000E+00 -0.00000000000E+00 -0.16377977540E+04  0.16377977540E+04  0.00000000000E+00 0.  1.
         23    2    1    2    0    0 -0.22647635851E+04  0.84377790079E+03  0.17309203156E+04  0.29742496084E+04  0.94659135589E+02 0.  0.
         11    1    3    3    0    0 -0.15896113287E+04  0.54615744312E+03  0.12100950555E+04  0.20711065092E+04  0.00000000000E+00 0.  1.
        -11    1    3    3    0    0 -0.67515225641E+03  0.29762045768E+03  0.52082526005E+03  0.90314309922E+03  0.00000000000E+00 0. -1.
         22    1    1    2    0    0  0.22647635851E+04 -0.84377790079E+03  0.42096091069E+03  0.24532271258E+04  0.00000000000E+00 0.  1.
<mgrwt>
<rscale>  0 0.49826610E+04</rscale>
<asrwt>0</asrwt>
<pdfrwt beam="1">  1        2 0.58302753E+00 0.49826610E+04</pdfrwt>
<pdfrwt beam="2">  1       -2 0.25196889E+00 0.49826610E+04</pdfrwt>
<totfact> 0.22707025E-02</totfact>
</mgrwt>
</event>
<event>
 6    1  0.9512547E-007  0.2583157E+04  0.7818608E-02  0.8373945E-01
          1   -1    0    0  501    0  0.00000000000E+00  0.00000000000E+00  0.16292778260E+04  0.16292778260E+04  0.00000000000E+00 0. -1.
         -1   -1    0    0    0  501 -0.00000000000E+00 -0.00000000000E+00 -0.10238740064E+04  0.10238740064E+04  0.00000000000E+00 0.  1.
         23    2    1    2    0    0 -0.16746330578E+03  0.11291557258E+04  0.92216478505E+03  0.14685109075E+04  0.55675693808E+02 0.  0.
         11    1    3    3    0    0 -0.83951251048E+02  0.74491064468E+03  0.60912462234E+03  0.96590500913E+03  0.00000000000E+00 0. -1.
        -11    1    3    3    0    0 -0.83512054730E+02  0.38424508107E+03  0.31304016271E+03  0.50260589837E+03  0.00000000000E+00 0.  1.
         22    1    1    2    0    0  0.16746330578E+03 -0.11291557258E+04 -0.31676096544E+03  0.11846409249E+04  0.00000000000E+00 0.  1.
<mgrwt>
<rscale>  0 0.25831571E+04</rscale>
<asrwt>0</asrwt>
<pdfrwt beam="1">  1        1 0.25065813E+00 0.25831571E+04</pdfrwt>
<pdfrwt beam="2">  1       -1 0.15751908E+00 0.25831571E+04</pdfrwt>
<totfact> 0.14343847E+00</totfact>
</mgrwt>
</event>
<event>
 6    1  0.9512547E-007  0.2174234E+04  0.7818608E-02  0.8529230E-01
         -2   -1    0    0    0  501 -0.00000000000E+00  0.00000000000E+00  0.17962905473E+04  0.17962905473E+04  0.00000000000E+00 0.  1.
          2   -1    0    0  501    0  0.00000000000E+00 -0.00000000000E+00 -0.65792432904E+03  0.65792432904E+03  0.00000000000E+00 0. -1.
         23    2    1    2    0    0 -0.87254885818E+03  0.22985950481E+02  0.12984918549E+04  0.15667972276E+04  0.83081835201E+02 0.  0.
         11    1    3    3    0    0 -0.20747281580E+03 -0.19963940019E+02  0.35482367694E+03  0.41151351122E+03  0.00000000000E+00 0. -1.
        -11    1    3    3    0    0 -0.66507604238E+03  0.42949890500E+02  0.94366817794E+03  0.11552837164E+04  0.00000000000E+00 0.  1.
         22    1    1    2    0    0  0.87254885818E+03 -0.22985950481E+02 -0.16012563661E+03  0.88741764876E+03  0.00000000000E+00 0. -1.
<mgrwt>
<rscale>  0 0.21742339E+04</rscale>
<asrwt>0</asrwt>
<pdfrwt beam="1">  1        2 0.10121913E+00 0.21742339E+04</pdfrwt>
<pdfrwt beam="2">  1       -2 0.27635239E+00 0.21742339E+04</pdfrwt>
<totfact> 0.17986050E+00</totfact>
</mgrwt>
</event>
<event>
 6    1  0.9512547E-007  0.9312081E+03  0.7818608E-02  0.9387389E-01
          2   -1    0    0  501    0  0.00000000000E+00  0.00000000000E+00  0.13486235834E+04  0.13486235834E+04  0.00000000000E+00 0. -1.
         -2   -1    0    0    0  501 -0.00000000000E+00 -0.00000000000E+00 -0.16074696909E+03  0.16074696909E+03  0.00000000000E+00 0.  1.
         23    2    1    2    0    0 -0.41848011681E+03 -0.59081180454E+02  0.89877361022E+03  0.99731905016E+03  0.90747404110E+02 0.  0.
         11    1    3    3    0    0 -0.29952004394E+03 -0.83233967027E+02  0.64405588768E+03  0.71515602245E+03  0.00000000000E+00 0. -1.
        -11    1    3    3    0    0 -0.11896007286E+03  0.24152786573E+02  0.25471772254E+03  0.28216302771E+03  0.00000000000E+00 0.  1.
         22    1    1    2    0    0  0.41848011681E+03  0.59081180454E+02  0.28910300407E+03  0.51205150230E+03  0.00000000000E+00 0.  1.
<mgrwt>
<rscale>  0 0.93120815E+03</rscale>
<asrwt>0</asrwt>
<pdfrwt beam="1">  1        2 0.20748054E+00 0.93120815E+03</pdfrwt>
<pdfrwt beam="2">  1       -2 0.24730304E-01 0.93120815E+03</pdfrwt>
<totfact> 0.22669439E+02</totfact>
</mgrwt>
</event>
<event>
 6    1  0.9512547E-007  0.2508355E+04  0.7818608E-02  0.8400015E-01
         -2   -1    0    0    0  501 -0.00000000000E+00  0.00000000000E+00  0.10595161004E+04  0.10595161004E+04  0.00000000000E+00 0.  1.
          2   -1    0    0  501    0  0.00000000000E+00 -0.00000000000E+00 -0.14846032197E+04  0.14846032197E+04  0.00000000000E+00 0. -1.
         23    2    1    2    0    0  0.15226264521E+03  0.11090565805E+04  0.35693224930E+03  0.11785627652E+04  0.91755921052E+02 0.  0.
         13    1    3    3    0    0  0.15036700360E+03  0.86206468996E+03  0.25620978499E+03  0.91181643951E+03  0.00000000000E+00 0.  1.
        -13    1    3    3    0    0  0.18956416155E+01  0.24699189055E+03  0.10072246431E+03  0.26674632570E+03  0.00000000000E+00 0. -1.
         22    1    1    2    0    0 -0.15226264521E+03 -0.11090565805E+04 -0.78201936853E+03  0.13655565549E+04  0.00000000000E+00 0.  1.
<mgrwt>
<rscale>  0 0.25083549E+04</rscale>
<asrwt>0</asrwt>
<pdfrwt beam="1">  1        2 0.22840049E+00 0.25083549E+04</pdfrwt>
<pdfrwt beam="2">  1       -2 0.16300248E+00 0.25083549E+04</pdfrwt>
<totfact> 0.27638238E+00</totfact>
</mgrwt>
</event>
<event>
 6    1  0.9512547E-007  0.1578577E+04  0.7818608E-02  0.8833818E-01
         -2   -1    0    0    0  501 -0.00000000000E+00  0.00000000000E+00  0.36691419245E+03  0.36691419245E+03  0.00000000000E+00 0.  1.
          2   -1    0    0  501    0  0.00000000000E+00 -0.00000000000E+00 -0.16978809880E+04  0.16978809880E+04  0.00000000000E+00 0. -1.
         23    2    1    2    0    0  0.24709386620E+03  0.11974822060E+03  0.29666656400E+03  0.41416337166E+03  0.90140075334E+02 0.  0.
         11    1    3    3    0    0  0.19407867805E+03  0.10336060114E+03  0.17706228594E+03  0.28231365579E+03  0.00000000000E+00 0. -1.
        -11    1    3    3    0    0  0.53015188146E+02  0.16387619459E+02  0.11960427806E+03  0.13184971587E+03  0.00000000000E+00 0.  1.
         22    1    1    2    0    0 -0.24709386620E+03 -0.11974822060E+03 -0.16276333595E+04  0.16506318088E+04  0.00000000000E+00 0. -1.
<mgrwt>
<rscale>  0 0.15785774E+04</rscale>
<asrwt>0</asrwt>
<pdfrwt beam="1">  1        2 0.26121245E+00 0.15785774E+04</pdfrwt>
<pdfrwt beam="2">  1       -2 0.56448339E-01 0.15785774E+04</pdfrwt>
<totfact> 0.27810799E+01</totfact>
</mgrwt>
</event>
<event>
 6    1  0.9512547E-007  0.3551573E+04  0.7818608E-02  0.8101676E-01
         -2   -1    0    0    0  501 -0.00000000000E+00  0.00000000000E+00  0.41511780489E+04  0.41511780489E+04  0.00000000000E+00 0.  1.
          2   -1    0    0  501    0  0.00000000000E+00 -0.00000000000E+00 -0.75964383933E+03  0.75964383933E+03  0.00000000000E+00 0. -1.
         23    2    1    2    0    0 -0.10203356037E+04  0.14143424046E+04  0.12429695599E+04  0.21435526141E+04  0.91625875874E+02 0.  0.
         13    1    3    3    0    0 -0.20580653943E+03  0.22621708767E+03  0.22264437403E+03  0.37828695420E+03  0.00000000000E+00 0. -1.
        -13    1    3    3    0    0 -0.81452906426E+03  0.11881253169E+04  0.10203251859E+04  0.17652656600E+04  0.00000000000E+00 0.  1.
         22    1    1    2    0    0  0.10203356037E+04 -0.14143424046E+04  0.21485646497E+04  0.27672692741E+04  0.00000000000E+00 0.  1.
<mgrwt>
<rscale>  0 0.35515725E+04</rscale>
<asrwt>0</asrwt>
<pdfrwt beam="1">  1        2 0.11686829E+00 0.35515725E+04</pdfrwt>
<pdfrwt beam="2">  1       -2 0.63864276E+00 0.35515725E+04</pdfrwt>
<totfact> 0.11003053E-02</totfact>
</mgrwt>
</event>
<event>
 6    1  0.9512547E-007  0.3150680E+04  0.7818608E-02  0.8201965E-01
         -1   -1    0    0    0  501 -0.00000000000E+00  0.00000000000E+00  0.68953495749E+03  0.68953495749E+03  0.00000000000E+00 0.  1.
          1   -1    0    0  501    0  0.00000000000E+00 -0.00000000000E+00 -0.35990867729E+04  0.35990867729E+04  0.00000000000E+00 0. -1.
         23    2    1    2    0    0 -0.58999357490E+03 -0.69314368517E+03  0.29177818854E+03  0.96040082713E+03  0.93245111077E+02 0.  0.
         11    1    3    3    0    0 -0.44055876988E+03 -0.49102522658E+03  0.25059398170E+03  0.70568771175E+03  0.00000000000E+00 0. -1.
        -11    1    3    3    0    0 -0.14943480501E+03 -0.20211845860E+03  0.41184206845E+02  0.25471311538E+03  0.00000000000E+00 0.  1.
         22    1    1    2    0    0  0.58999357490E+03  0.69314368517E+03 -0.32013300039E+04  0.33282209033E+04  0.00000000000E+00 0. -1.
<mgrwt>
<rscale>  0 0.31506800E+04</rscale>
<asrwt>0</asrwt>
<pdfrwt beam="1">  1        1 0.55370567E+00 0.31506800E+04</pdfrwt>
<pdfrwt beam="2">  1       -1 0.10608230E+00 0.31506800E+04</pdfrwt>
<totfact> 0.14533679E-01</totfact>
</mgrwt>
</event>
<event>
 6    1  0.9512547E-007  0.1808593E+04  0.7818608E-02  0.8701743E-01
          2   -1    0    0  501    0  0.00000000000E+00  0.00000000000E+00  0.26989140698E+04  0.26989140698E+04  0.00000000000E+00 0. -1.
         -2   -1    0    0    0  501 -0.00000000000E+00 -0.00000000000E+00 -0.30299297799E+03  0.30299297799E+03  0.00000000000E+00 0.  1.
         23    2    1    2    0    0  0.73898346231E+03 -0.22604706007E+03  0.42835552234E+03  0.88802244803E+03  0.88890853043E+02 0.  0.
         13    1    3    3    0    0  0.24809756196E+03 -0.32659791106E+02  0.13386331124E+03  0.28379296732E+03  0.00000000000E+00 0. -1.
        -13    1    3    3    0    0  0.49088590035E+03 -0.19338726896E+03  0.29449221109E+03  0.60422948070E+03  0.00000000000E+00 0.  1.
         22    1    1    2    0    0 -0.73898346231E+03  0.22604706007E+03  0.19675655695E+04  0.21138845998E+04  0.00000000000E+00 0. -1.
<mgrwt>
<rscale>  0 0.18085928E+04</rscale>
<asrwt>0</asrwt>
<pdfrwt beam="1">  1        2 0.41521753E+00 0.18085928E+04</pdfrwt>
<pdfrwt beam="2">  1       -2 0.46614306E-01 0.18085928E+04</pdfrwt>
<totfact> 0.10968723E+01</totfact>
</mgrwt>
</event>
<event>
 6    1  0.9512547E-007  0.3733019E+04  0.7818608E-02  0.8060684E-01
         -2   -1    0    0    0  501 -0.00000000000E+00  0.00000000000E+00  0.12535666271E+04  0.12535666271E+04  0.00000000000E+00 0.  1.
          2   -1    0    0  501    0  0.00000000000E+00 -0.00000000000E+00 -0.27791556703E+04  0.27791556703E+04  0.00000000000E+00 0. -1.
         23    2    1    2    0    0 -0.17740527398E+04  0.55985018243E+03 -0.91296452816E+03  0.20741503312E+04  0.88882037140E+02 0.  0.
         11    1    3    3    0    0 -0.11469193229E+04  0.32825967013E+03 -0.61619342984E+03  0.13427109471E+04  0.00000000000E+00 0. -1.
        -11    1    3    3    0    0 -0.62713341685E+03  0.23159051230E+03 -0.29677109832E+03  0.73143938417E+03  0.00000000000E+00 0.  1.
         22    1    1    2    0    0  0.17740527398E+04 -0.55985018243E+03 -0.61262451498E+03  0.19585719662E+04  0.00000000000E+00 0.  1.
<mgrwt>
<rscale>  0 0.37330185E+04</rscale>
<asrwt>0</asrwt>
<pdfrwt beam="1">  1        2 0.42756241E+00 0.37330185E+04</pdfrwt>
<pdfrwt beam="2">  1       -2 0.19285641E+00 0.37330185E+04</pdfrwt>
<totfact> 0.28456457E-01</totfact>
</mgrwt>
</event>
<event>
 6    1  0.9512547E-007  0.3101846E+04  0.7818608E-02  0.8215231E-01
         -2   -1    0    0    0  501 -0.00000000000E+00  0.00000000000E+00  0.22925765354E+04  0.22925765354E+04  0.00000000000E+00 0.  1.
          2   -1    0    0  501    0  0.00000000000E+00 -0.00000000000E+00 -0.10491961225E+04  0.10491961225E+04  0.00000000000E+00 0. -1.
         23    2    1    2    0    0 -0.36098409988E+03  0.81761757218E+03 -0.74149435693E+03  0.11649548276E+04  0.92183807298E+02 0.  0.
         13    1    3    3    0    0 -0.76436892258E+02  0.23778795570E+03 -0.24938182936E+03  0.35295468149E+03  0.00000000000E+00 0.  1.
        -13    1    3    3    0    0 -0.28454720762E+03  0.57982961649E+03 -0.49211252757E+03  0.81200014613E+03  0.00000000000E+00 0. -1.
         22    1    1    2    0    0  0.36098409988E+03 -0.81761757218E+03  0.19848747698E+04  0.21768178304E+04  0.00000000000E+00 0.  1.
<mgrwt>
<rscale>  0 0.31018462E+04</rscale>
<asrwt>0</asrwt>
<pdfrwt beam="1">  1        2 0.16141479E+00 0.31018462E+04</pdfrwt>
<pdfrwt beam="2">  1       -2 0.35270408E+00 0.31018462E+04</pdfrwt>
<totfact> 0.29748024E-01</totfact>
</mgrwt>
</event>
<event>
 6    1  0.9512547E-007  0.5503900E+04  0.7818608E-02  0.7755153E-01
          1   -1    0    0  501    0  0.00000000000E+00  0.00000000000E+00  0.44638069976E+04  0.44638069976E+04  0.00000000000E+00 0. -1.
         -1   -1    0    0    0  501 -0.00000000000E+00 -0.00000000000E+00 -0.16965854134E+04  0.16965854134E+04  0.00000000000E+00 0.  1.
         23    2    1    2    0    0 -0.14500392385E+04  0.15213268207E+04 -0.60319993344E+03  0.21883916186E+04  0.90325124382E+02 0.  0.
         13    1    3    3    0    0 -0.67032320826E+02  0.78330152171E+02 -0.49584363748E+02  0.11440084747E+03  0.00000000000E+00 0. -1.
        -13    1    3    3    0    0 -0.13830069176E+04  0.14429966686E+04 -0.55361556969E+03  0.20739907711E+04  0.00000000000E+00 0.  1.
         22    1    1    2    0    0  0.14500392385E+04 -0.15213268207E+04  0.33704215176E+04  0.39720007924E+04  0.00000000000E+00 0. -1.
<mgrwt>
<rscale>  0 0.55039004E+04</rscale>
<asrwt>0</asrwt>
<pdfrwt beam="1">  1        1 0.68673953E+00 0.55039004E+04</pdfrwt>
<pdfrwt beam="2">  1       -1 0.26101314E+00 0.55039004E+04</pdfrwt>
<totfact> 0.14273343E-03</totfact>
</mgrwt>
</event>
<event>
 6    1  0.9512547E-007  0.2709277E+04  0.7818608E-02  0.8332001E-01
          2   -1    0    0  501    0  0.00000000000E+00  0.00000000000E+00  0.26334440304E+04  0.26334440304E+04  0.00000000000E+00 0. -1.
         -2   -1    0    0    0  501 -0.00000000000E+00 -0.00000000000E+00 -0.69682316625E+03  0.69682316625E+03  0.00000000000E+00 0.  1.
         23    2    1    2    0    0  0.51508925214E+03 -0.72647016767E+03 -0.28169799129E+03  0.93986673091E+03  0.10449818847E+03 0.  0.
         13    1    3    3    0    0  0.40072784760E+03 -0.62730575376E+03 -0.21798662398E+03  0.77563746994E+03  0.00000000000E+00 0. -1.
        -13    1    3    3    0    0  0.11436140454E+03 -0.99164413912E+02 -0.63711367313E+02  0.16422926097E+03  0.00000000000E+00 0.  1.
         22    1    1    2    0    0 -0.51508925214E+03  0.72647016767E+03  0.22183188554E+04  0.23904004657E+04  0.00000000000E+00 0. -1.
<mgrwt>
<rscale>  0 0.27092765E+04</rscale>
<asrwt>0</asrwt>
<pdfrwt beam="1">  1        2 0.40514523E+00 0.27092765E+04</pdfrwt>
<pdfrwt beam="2">  1       -2 0.10720357E+00 0.27092765E+04</pdfrwt>
<totfact> 0.17821553E+00</totfact>
</mgrwt>
</event>
<event>
 6    1  0.9512547E-007  0.2563041E+04  0.7818608E-02  0.8380865E-01
          2   -1    0    0  501    0  0.00000000000E+00  0.00000000000E+00  0.13854308844E+04  0.13854308844E+04  0.00000000000E+00 0. -1.
         -2   -1    0    0    0  501 -0.00000000000E+00 -0.00000000000E+00 -0.11854036590E+04  0.11854036590E+04  0.00000000000E+00 0.  1.
         23    2    1    2    0    0 -0.50750553707E+03 -0.24684615180E+03  0.12523357556E+04  0.13767457128E+04  0.92676966350E+02 0.  0.
         11    1    3    3    0    0 -0.37561333532E+03 -0.13748219854E+03  0.90497438879E+03  0.98942679212E+03  0.00000000000E+00 0. -1.
        -11    1    3    3    0    0 -0.13189220175E+03 -0.10936395326E+03  0.34736136679E+03  0.38731892065E+03  0.00000000000E+00 0.  1.
         22    1    1    2    0    0  0.50750553707E+03  0.24684615180E+03 -0.10523085302E+04  0.11940888307E+04  0.00000000000E+00 0.  1.
<mgrwt>
<rscale>  0 0.25630410E+04</rscale>
<asrwt>0</asrwt>
<pdfrwt beam="1">  1        2 0.21314321E+00 0.25630410E+04</pdfrwt>
<pdfrwt beam="2">  1       -2 0.18236979E+00 0.25630410E+04</pdfrwt>
<totfact> 0.22860120E+00</totfact>
</mgrwt>
</event>
<event>
 6    1  0.9512547E-007  0.2796055E+04  0.7818608E-02  0.8304494E-01
         -2   -1    0    0    0  501 -0.00000000000E+00  0.00000000000E+00  0.10510949280E+04  0.10510949280E+04  0.00000000000E+00 0.  1.
          2   -1    0    0  501    0  0.00000000000E+00 -0.00000000000E+00 -0.18594711731E+04  0.18594711731E+04  0.00000000000E+00 0. -1.
         23    2    1    2    0    0 -0.77702667545E+03 -0.11581634941E+04 -0.49519323378E+03  0.14811617734E+04  0.59251385326E+02 0.  0.
         13    1    3    3    0    0 -0.56584538032E+03 -0.79965739525E+03 -0.33495044739E+03  0.10352896920E+04  0.00000000000E+00 0. -1.
        -13    1    3    3    0    0 -0.21118129513E+03 -0.35850609888E+03 -0.16024278639E+03  0.44587208136E+03  0.00000000000E+00 0.  1.
         22    1    1    2    0    0  0.77702667545E+03  0.11581634941E+04 -0.31318301140E+03  0.14294043277E+04  0.00000000000E+00 0. -1.
<mgrwt>
<rscale>  0 0.27960549E+04</rscale>
<asrwt>0</asrwt>
<pdfrwt beam="1">  1        2 0.28607249E+00 0.27960549E+04</pdfrwt>
<pdfrwt beam="2">  1       -2 0.16170691E+00 0.27960549E+04</pdfrwt>
<totfact> 0.17035670E+00</totfact>
</mgrwt>
</event>
<event>
 6    1  0.9512547E-007  0.2326284E+04  0.7818608E-02  0.8467629E-01
         -2   -1    0    0    0  501 -0.00000000000E+00  0.00000000000E+00  0.73876300120E+03  0.73876300120E+03  0.00000000000E+00 0.  1.
          2   -1    0    0  501    0  0.00000000000E+00 -0.00000000000E+00 -0.18313040175E+04  0.18313040175E+04  0.00000000000E+00 0. -1.
         23    2    1    2    0    0  0.10820449305E+04 -0.11678690732E+03 -0.99083956847E+02  0.10964940337E+04  0.89560717309E+02 0.  0.
         11    1    3    3    0    0  0.55883563082E+03 -0.41781702898E+02 -0.10022497604E+02  0.56048498947E+03  0.00000000000E+00 0. -1.
        -11    1    3    3    0    0  0.52320929966E+03 -0.75005204417E+02 -0.89061459243E+02  0.53600904420E+03  0.00000000000E+00 0.  1.
         22    1    1    2    0    0 -0.10820449305E+04  0.11678690732E+03 -0.99345705949E+03  0.14735729851E+04  0.00000000000E+00 0. -1.
<mgrwt>
<rscale>  0 0.23262843E+04</rscale>
<asrwt>0</asrwt>
<pdfrwt beam="1">  1        2 0.28173908E+00 0.23262843E+04</pdfrwt>
<pdfrwt beam="2">  1       -2 0.11365585E+00 0.23262843E+04</pdfrwt>
<totfact> 0.45513487E+00</totfact>
</mgrwt>
</event>
<event>
 6    1  0.9512547E-007  0.5889294E+03  0.7818608E-02  0.9928644E-01
          1   -1    0    0  501    0  0.00000000000E+00  0.00000000000E+00  0.20058220952E+03  0.20058220952E+03  0.00000000000E+00 0. -1.
         -1   -1    0    0    0  501 -0.00000000000E+00 -0.00000000000E+00 -0.43228886083E+03  0.43228886083E+03  0.00000000000E+00 0.  1.
         23    2    1    2    0    0 -0.69869203024E+02 -0.19537182725E+03 -0.33244643945E+03  0.40221903518E+03  0.90596140901E+02 0.  0.
         13    1    3    3    0    0 -0.13664141907E+02 -0.80066869164E+02 -0.59668212270E+02  0.10078545464E+03  0.00000000000E+00 0. -1.
        -13    1    3    3    0    0 -0.56205061117E+02 -0.11530495809E+03 -0.27277822718E+03  0.30143358054E+03  0.00000000000E+00 0.  1.
         22    1    1    2    0    0  0.69869203024E+02  0.19537182725E+03  0.10073978814E+03  0.23065203517E+03  0.00000000000E+00 0. -1.
<mgrwt>
<rscale>  0 0.58892938E+03</rscale>
<asrwt>0</asrwt>
<pdfrwt beam="1">  1        1 0.30858802E-01 0.58892938E+03</pdfrwt>
<pdfrwt beam="2">  1       -1 0.66505978E-01 0.58892938E+03</pdfrwt>
<totfact> 0.34435604E+02</totfact>
</mgrwt>
</event>
<event>
 6    1  0.9512547E-007  0.5432160E+04  0.7818608E-02  0.7765094E-01
         -2   -1    0    0    0  501 -0.00000000000E+00  0.00000000000E+00  0.16485115374E+04  0.16485115374E+04  0.00000000000E+00 0.  1.
          2   -1    0    0  501    0  0.00000000000E+00 -0.00000000000E+00 -0.44750007777E+04  0.44750007777E+04  0.00000000000E+00 0. -1.
         23    2    1    2    0    0  0.98851797189E+03 -0.49994978252E+03 -0.42082197058E+04  0.43525530707E+04  0.92128033167E+02 0.  0.
         11    1    3    3    0    0  0.12330026942E+03 -0.32108736759E+02 -0.52834057284E+03  0.54348660363E+03  0.00000000000E+00 0.  1.
        -11    1    3    3    0    0  0.86521770247E+03 -0.46784104576E+03 -0.36798791330E+04  0.38090664670E+04  0.00000000000E+00 0. -1.
         22    1    1    2    0    0 -0.98851797189E+03  0.49994978252E+03  0.13817304655E+04  0.17709592444E+04  0.00000000000E+00 0.  1.
<mgrwt>
<rscale>  0 0.54321599E+04</rscale>
<asrwt>0</asrwt>
<pdfrwt beam="1">  1        2 0.68846164E+00 0.54321599E+04</pdfrwt>
<pdfrwt beam="2">  1       -2 0.25361717E+00 0.54321599E+04</pdfrwt>
<totfact> 0.55342072E-03</totfact>
</mgrwt>
</event>
<event>
 6    1  0.9512547E-007  0.2852426E+04  0.7818608E-02  0.8287175E-01
         -2   -1    0    0    0  501 -0.00000000000E+00  0.00000000000E+00  0.20943853852E+04  0.20943853852E+04  0.00000000000E+00 0.  1.
          2   -1    0    0  501    0  0.00000000000E+00 -0.00000000000E+00 -0.97120756525E+03  0.97120756525E+03  0.00000000000E+00 0. -1.
         23    2    1    2    0    0 -0.74753949048E+03  0.12051762089E+04  0.41520561816E+03  0.14805094754E+04  0.90816391126E+02 0.  0.
         13    1    3    3    0    0 -0.44198446298E+03  0.77351166565E+03  0.22925892114E+03  0.91990772110E+03  0.00000000000E+00 0. -1.
        -13    1    3    3    0    0 -0.30555502750E+03  0.43166454328E+03  0.18594669702E+03  0.56060175427E+03  0.00000000000E+00 0.  1.
         22    1    1    2    0    0  0.74753949048E+03 -0.12051762089E+04  0.70797220177E+03  0.15850834751E+04  0.00000000000E+00 0.  1.
<mgrwt>
<rscale>  0 0.28524256E+04</rscale>
<asrwt>0</asrwt>
<pdfrwt beam="1">  1        2 0.14941655E+00 0.28524256E+04</pdfrwt>
<pdfrwt beam="2">  1       -2 0.32221313E+00 0.28524256E+04</pdfrwt>
<totfact> 0.52854784E-01</totfact>
</mgrwt>
</event>
<event>
 6    1  0.9512547E-007  0.2568138E+04  0.7818608E-02  0.8379105E-01
          2   -1    0    0  501    0  0.00000000000E+00  0.00000000000E+00  0.22530957599E+04  0.22530957599E+04  0.00000000000E+00 0. -1.
         -2   -1    0    0    0  501 -0.00000000000E+00 -0.00000000000E+00 -0.73180812308E+03  0.73180812308E+03  0.00000000000E+00 0.  1.
         23    2    1    2    0    0 -0.48161816096E+03 -0.10737967180E+04  0.13539531610E+04  0.17962086860E+04  0.90449084930E+02 0.  0.
         13    1    3    3    0    0 -0.25849654003E+03 -0.67568008422E+03  0.85586687954E+03  0.11206570184E+04  0.00000000000E+00 0.  1.
        -13    1    3    3    0    0 -0.22312162093E+03 -0.39811663376E+03  0.49808628148E+03  0.67555166760E+03  0.00000000000E+00 0. -1.
         22    1    1    2    0    0  0.48161816096E+03  0.10737967180E+04  0.16733447582E+03  0.11886951970E+04  0.00000000000E+00 0.  1.
<mgrwt>
<rscale>  0 0.25681385E+04</rscale>
<asrwt>0</asrwt>
<pdfrwt beam="1">  1        2 0.34663011E+00 0.25681385E+04</pdfrwt>
<pdfrwt beam="2">  1       -2 0.11258587E+00 0.25681385E+04</pdfrwt>
<totfact> 0.26539592E+00</totfact>
</mgrwt>
</event>
<event>
 6    1  0.9512547E-007  0.2915313E+04  0.7818608E-02  0.8268336E-01
          1   -1    0    0  501    0  0.00000000000E+00  0.00000000000E+00  0.10711136688E+04  0.10711136688E+04  0.00000000000E+00 0. -1.
         -1   -1    0    0    0  501 -0.00000000000E+00 -0.00000000000E+00 -0.19836951104E+04  0.19836951104E+04  0.00000000000E+00 0.  1.
         23    2    1    2    0    0  0.14547625529E+04 -0.57248664116E+02 -0.48916602944E+03  0.15385989962E+04  0.91607707894E+02 0.  0.
         13    1    3    3    0    0  0.12223954299E+04 -0.14388954394E+02 -0.41056645234E+03  0.12895822737E+04  0.00000000000E+00 0.  1.
        -13    1    3    3    0    0  0.23236712300E+03 -0.42859709722E+02 -0.78599577098E+02  0.24901672251E+03  0.00000000000E+00 0. -1.
         22    1    1    2    0    0 -0.14547625529E+04  0.57248664116E+02 -0.42341541211E+03  0.15162097830E+04  0.00000000000E+00 0.  1.
<mgrwt>
<rscale>  0 0.29153133E+04</rscale>
<asrwt>0</asrwt>
<pdfrwt beam="1">  1        1 0.16478672E+00 0.29153133E+04</pdfrwt>
<pdfrwt beam="2">  1       -1 0.30518386E+00 0.29153133E+04</pdfrwt>
<totfact> 0.34931129E-01</totfact>
</mgrwt>
</event>
<event>
 6    1  0.9512547E-007  0.2198637E+04  0.7818608E-02  0.8518996E-01
         -1   -1    0    0    0  501 -0.00000000000E+00  0.00000000000E+00  0.11734031688E+04  0.11734031688E+04  0.00000000000E+00 0.  1.
          1   -1    0    0  501    0  0.00000000000E+00 -0.00000000000E+00 -0.10299112530E+04  0.10299112530E+04  0.00000000000E+00 0. -1.
         23    2    1    2    0    0 -0.19608934946E+03 -0.98848455066E+03 -0.36344407339E+03  0.10752466770E+04  0.92255525366E+02 0.  0.
         13    1    3    3    0    0 -0.14842227909E+03 -0.63703740155E+03 -0.27610653099E+03  0.70998636632E+03  0.00000000000E+00 0. -1.
        -13    1    3    3    0    0 -0.47667070368E+02 -0.35144714911E+03 -0.87337542400E+02  0.36526031064E+03  0.00000000000E+00 0.  1.
         22    1    1    2    0    0  0.19608934946E+03  0.98848455066E+03  0.50693598920E+03  0.11280677449E+04  0.00000000000E+00 0.  1.
<mgrwt>
<rscale>  0 0.21986370E+04</rscale>
<asrwt>0</asrwt>
<pdfrwt beam="1">  1        1 0.15844788E+00 0.21986370E+04</pdfrwt>
<pdfrwt beam="2">  1       -1 0.18052357E+00 0.21986370E+04</pdfrwt>
<totfact> 0.26980208E+00</totfact>
</mgrwt>
</event>
<event>
 6    1  0.9512547E-007  0.2961868E+04  0.7818608E-02  0.8254704E-01
         -2   -1    0    0    0  501 -0.00000000000E+00  0.00000000000E+00  0.78108237536E+03  0.78108237536E+03  0.00000000000E+00 0.  1.
          2   -1    0    0  501    0  0.00000000000E+00 -0.00000000000E+00 -0.28078539066E+04  0.28078539066E+04  0.00000000000E+00 0. -1.
         23    2    1    2    0    0 -0.45128916115E+03  0.75026258669E+03  0.43077396330E+03  0.98008869850E+03  0.91933636436E+02 0.  0.
         11    1    3    3    0    0 -0.40185746733E+03  0.70024932042E+03  0.37434995931E+03  0.88993057416E+03  0.00000000000E+00 0.  1.
        -11    1    3    3    0    0 -0.49431693821E+02  0.50013266270E+02  0.56424003995E+02  0.90158124337E+02  0.00000000000E+00 0. -1.
         22    1    1    2    0    0  0.45128916115E+03 -0.75026258669E+03 -0.24575454945E+04  0.26088475834E+04  0.00000000000E+00 0. -1.
<mgrwt>
<rscale>  0 0.29618678E+04</rscale>
<asrwt>0</asrwt>
<pdfrwt beam="1">  1        2 0.43197751E+00 0.29618678E+04</pdfrwt>
<pdfrwt beam="2">  1       -2 0.12016652E+00 0.29618678E+04</pdfrwt>
<totfact> 0.10388504E+00</totfact>
</mgrwt>
</event>
<event>
 6    1  0.9512547E-007  0.9910172E+03  0.7818608E-02  0.9318452E-01
          2   -1    0    0  501    0  0.00000000000E+00  0.00000000000E+00  0.21466708145E+03  0.21466708145E+03  0.00000000000E+00 0. -1.
         -2   -1    0    0    0  501 -0.00000000000E+00 -0.00000000000E+00 -0.11437653754E+04  0.11437653754E+04  0.00000000000E+00 0.  1.
         23    2    1    2    0    0  0.17481316846E+03 -0.43593515545E+03 -0.66527730544E+03  0.81972973960E+03  0.93615432628E+02 0.  0.
         11    1    3    3    0    0  0.11723959459E+03 -0.24700401475E+03 -0.45811278612E+03  0.53350110651E+03  0.00000000000E+00 0. -1.
        -11    1    3    3    0    0  0.57573573867E+02 -0.18893114070E+03 -0.20716451932E+03  0.28622863309E+03  0.00000000000E+00 0.  1.
         22    1    1    2    0    0 -0.17481316846E+03  0.43593515545E+03 -0.26382098855E+03  0.53870271730E+03  0.00000000000E+00 0.  1.
<mgrwt>
<rscale>  0 0.99101720E+03</rscale>
<asrwt>0</asrwt>
<pdfrwt beam="1">  1        2 0.33025705E-01 0.99101720E+03</pdfrwt>
<pdfrwt beam="2">  1       -2 0.17596391E+00 0.99101720E+03</pdfrwt>
<totfact> 0.30852965E+01</totfact>
</mgrwt>
</event>
<event>
 6    1  0.9512547E-007  0.3445781E+04  0.7818608E-02  0.8126761E-01
          2   -1    0    0  501    0  0.00000000000E+00  0.00000000000E+00  0.20145556983E+04  0.20145556983E+04  0.00000000000E+00 0. -1.
         -2   -1    0    0    0  501 -0.00000000000E+00 -0.00000000000E+00 -0.14734522965E+04  0.14734522965E+04  0.00000000000E+00 0.  1.
         23    2    1    2    0    0 -0.80000359543E+03 -0.67803431666E+03  0.16529756430E+04  0.19596113944E+04  0.89510074325E+02 0.  0.
         11    1    3    3    0    0 -0.22094030089E+03 -0.23930133373E+03  0.53341118576E+03  0.62498579022E+03  0.00000000000E+00 0.  1.
        -11    1    3    3    0    0 -0.57906329454E+03 -0.43873298293E+03  0.11195644572E+04  0.13346256042E+04  0.00000000000E+00 0. -1.
         22    1    1    2    0    0  0.80000359543E+03  0.67803431666E+03 -0.11118722412E+04  0.15283966004E+04  0.00000000000E+00 0.  1.
<mgrwt>
<rscale>  0 0.34457810E+04</rscale>
<asrwt>0</asrwt>
<pdfrwt beam="1">  1        2 0.30993164E+00 0.34457810E+04</pdfrwt>
<pdfrwt beam="2">  1       -2 0.22668497E+00 0.34457810E+04</pdfrwt>
<totfact> 0.48547168E-01</totfact>
</mgrwt>
</event>
<event>
 6    1  0.9512547E-007  0.1818423E+04  0.7818608E-02  0.8696563E-01
          2   -1    0    0  501    0  0.00000000000E+00  0.00000000000E+00  0.31748173331E+04  0.31748173331E+04  0.00000000000E+00 0. -1.
         -2   -1    0    0    0  501 -0.00000000000E+00 -0.00000000000E+00 -0.26038208063E+03  0.26038208063E+03  0.00000000000E+00 0.  1.
         23    2    1    2    0    0 -0.86959879193E+03 -0.11829935551E+03  0.18926392337E+04  0.20882532751E+04  0.92312921537E+02 0.  0.
         11    1    3    3    0    0 -0.19594751175E+03  0.11131229481E+02  0.40215270147E+03  0.44748868917E+03  0.00000000000E+00 0. -1.
        -11    1    3    3    0    0 -0.67365128017E+03 -0.12943058499E+03  0.14904865323E+04  0.16407645859E+04  0.00000000000E+00 0.  1.
         22    1    1    2    0    0  0.86959879193E+03  0.11829935551E+03  0.10217960187E+04  0.13469461386E+04  0.00000000000E+00 0. -1.
<mgrwt>
<rscale>  0 0.18184230E+04</rscale>
<asrwt>0</asrwt>
<pdfrwt beam="1">  1        2 0.48843341E+00 0.18184230E+04</pdfrwt>
<pdfrwt beam="2">  1       -2 0.40058784E-01 0.18184230E+04</pdfrwt>
<totfact> 0.75239063E+00</totfact>
</mgrwt>
</event>
<event>
 6    1  0.9512547E-007  0.1801526E+04  0.7818608E-02  0.8705488E-01
         -1   -1    0    0    0  501 -0.00000000000E+00  0.00000000000E+00  0.19581930217E+03  0.19581930217E+03  0.00000000000E+00 0.  1.
          1   -1    0    0  501    0  0.00000000000E+00 -0.00000000000E+00 -0.41434851829E+04  0.41434851829E+04  0.00000000000E+00 0. -1.
         23    2    1    2    0    0 -0.67328546947E+03 -0.59470708060E+03 -0.20135629589E+04  0.22067604768E+04  0.91466809313E+02 0.  0.
         13    1    3    3    0    0 -0.18200250915E+03 -0.11105899348E+03 -0.44966107400E+03  0.49764856560E+03  0.00000000000E+00 0. -1.
        -13    1    3    3    0    0 -0.49128296033E+03 -0.48364808712E+03 -0.15639018849E+04  0.17091119112E+04  0.00000000000E+00 0.  1.
         22    1    1    2    0    0  0.67328546947E+03  0.59470708060E+03 -0.19341029218E+04  0.21325440083E+04  0.00000000000E+00 0. -1.
<mgrwt>
<rscale>  0 0.18015264E+04</rscale>
<asrwt>0</asrwt>
<pdfrwt beam="1">  1        1 0.63745930E+00 0.18015264E+04</pdfrwt>
<pdfrwt beam="2">  1       -1 0.30126044E-01 0.18015264E+04</pdfrwt>
<totfact> 0.69077912E-01</totfact>
</mgrwt>
</event>
<event>
 6    1  0.9512547E-007  0.1523883E+04  0.7818608E-02  0.8868724E-01
          2   -1    0    0  501    0  0.00000000000E+00  0.00000000000E+00  0.19194703775E+04  0.19194703775E+04  0.00000000000E+00 0. -1.
         -2   -1    0    0    0  501 -0.00000000000E+00 -0.00000000000E+00 -0.30245584834E+03  0.30245584834E+03  0.00000000000E+00 0.  1.
         23    2    1    2    0    0  0.47057199571E+03  0.59565803369E+03  0.78247835301E+03  0.10937874376E+04  0.88612016428E+02 0.  0.
         13    1    3    3    0    0  0.46663776802E+03  0.58277969699E+03  0.78067383749E+03  0.10802011953E+04  0.00000000000E+00 0. -1.
        -13    1    3    3    0    0  0.39342276883E+01  0.12878336696E+02  0.18045155251E+01  0.13586242301E+02  0.00000000000E+00 0.  1.
         22    1    1    2    0    0 -0.47057199571E+03 -0.59565803369E+03  0.83453617613E+03  0.11281387882E+04  0.00000000000E+00 0.  1.
<mgrwt>
<rscale>  0 0.15238833E+04</rscale>
<asrwt>0</asrwt>
<pdfrwt beam="1">  1        2 0.29530313E+00 0.15238833E+04</pdfrwt>
<pdfrwt beam="2">  1       -2 0.46531670E-01 0.15238833E+04</pdfrwt>
<totfact> 0.31283202E+01</totfact>
</mgrwt>
</event>
<event>
 6    1  0.9512547E-007  0.3311730E+04  0.7818608E-02  0.8159917E-01
         -1   -1    0    0    0  501 -0.00000000000E+00  0.00000000000E+00  0.20263475475E+04  0.20263475475E+04  0.00000000000E+00 0.  1.
          1   -1    0    0  501    0  0.00000000000E+00 -0.00000000000E+00 -0.13531184510E+04  0.13531184510E+04  0.00000000000E+00 0. -1.
         23    2    1    2    0    0 -0.86374332130E+02  0.63651604510E+03 -0.12192162154E+04  0.13809759535E+04  0.89404716221E+02 0.  0.
         11    1    3    3    0    0 -0.74038833100E+02  0.33989782365E+03 -0.73165577449E+03  0.81014347598E+03  0.00000000000E+00 0. -1.
        -11    1    3    3    0    0 -0.12335499031E+02  0.29661822145E+03 -0.48756044094E+03  0.57083247753E+03  0.00000000000E+00 0.  1.
         22    1    1    2    0    0  0.86374332130E+02 -0.63651604510E+03  0.18924453120E+04  0.19984900450E+04  0.00000000000E+00 0.  1.
<mgrwt>
<rscale>  0 0.33117296E+04</rscale>
<asrwt>0</asrwt>
<pdfrwt beam="1">  1        1 0.20817207E+00 0.33117296E+04</pdfrwt>
<pdfrwt beam="2">  1       -1 0.31174578E+00 0.33117296E+04</pdfrwt>
<totfact> 0.19032529E-01</totfact>
</mgrwt>
</event>
<event>
 6    1  0.9512547E-007  0.2707327E+04  0.7818608E-02  0.8332631E-01
          2   -1    0    0  501    0  0.00000000000E+00  0.00000000000E+00  0.20741758019E+04  0.20741758019E+04  0.00000000000E+00 0. -1.
         -2   -1    0    0    0  501 -0.00000000000E+00 -0.00000000000E+00 -0.88343769098E+03  0.88343769098E+03  0.00000000000E+00 0.  1.
         23    2    1    2    0    0 -0.14896556246E+03 -0.11947567949E+04 -0.76212083245E+02  0.12098156406E+04  0.90614926168E+02 0.  0.
         11    1    3    3    0    0 -0.11058813337E+03 -0.64165231448E+03 -0.74662129435E+02  0.65537917383E+03  0.00000000000E+00 0.  1.
        -11    1    3    3    0    0 -0.38377429096E+02 -0.55310448046E+03 -0.15499538099E+01  0.55443646680E+03  0.00000000000E+00 0. -1.
         22    1    1    2    0    0  0.14896556246E+03  0.11947567949E+04  0.12669501942E+04  0.17477978523E+04  0.00000000000E+00 0. -1.
<mgrwt>
<rscale>  0 0.27073272E+04</rscale>
<asrwt>0</asrwt>
<pdfrwt beam="1">  1        2 0.31910397E+00 0.27073272E+04</pdfrwt>
<pdfrwt beam="2">  1       -2 0.13591349E+00 0.27073272E+04</pdfrwt>
<totfact> 0.20651921E+00</totfact>
</mgrwt>
</event>
<event>
 6    1  0.9512547E-007  0.1395816E+04  0.7818608E-02  0.8956853E-01
         -1   -1    0    0    0  501 -0.00000000000E+00  0.00000000000E+00  0.92091882659E+03  0.92091882659E+03  0.00000000000E+00 0.  1.
          1   -1    0    0  501    0  0.00000000000E+00 -0.00000000000E+00 -0.52890138141E+03  0.52890138141E+03  0.00000000000E+00 0. -1.
         23    2    1    2    0    0 -0.26393445056E+03 -0.59150911257E+03 -0.67865817371E+02  0.65544180974E+03  0.73849660458E+02 0.  0.
         13    1    3    3    0    0 -0.39202816620E+02 -0.14903323378E+03  0.30003154535E+01  0.15413230516E+03  0.00000000000E+00 0. -1.
        -13    1    3    3    0    0 -0.22473163394E+03 -0.44247587879E+03 -0.70866132825E+02  0.50130950458E+03  0.00000000000E+00 0.  1.
         22    1    1    2    0    0  0.26393445056E+03  0.59150911257E+03  0.45988326255E+03  0.79437839826E+03  0.00000000000E+00 0.  1.
<mgrwt>
<rscale>  0 0.13958155E+04</rscale>
<asrwt>0</asrwt>
<pdfrwt beam="1">  1        1 0.81369443E-01 0.13958155E+04</pdfrwt>
<pdfrwt beam="2">  1       -1 0.14167982E+00 0.13958155E+04</pdfrwt>
<totfact> 0.16242954E+01</totfact>
</mgrwt>
</event>
<event>
 6    1  0.9512547E-007  0.1638587E+04  0.7818608E-02  0.8797187E-01
         -2   -1    0    0    0  501 -0.00000000000E+00  0.00000000000E+00  0.54967445238E+03  0.54967445238E+03  0.00000000000E+00 0.  1.
          2   -1    0    0  501    0  0.00000000000E+00 -0.00000000000E+00 -0.12211624700E+04  0.12211624700E+04  0.00000000000E+00 0. -1.
         23    2    1    2    0    0 -0.48084486318E+03  0.11897164466E+03 -0.10383248813E+04  0.11544479873E+04  0.96257787400E+02 0.  0.
         13    1    3    3    0    0 -0.39032392936E+03  0.11709633321E+03 -0.76884744741E+03  0.87016706354E+03  0.00000000000E+00 0.  1.
        -13    1    3    3    0    0 -0.90520933817E+02  0.18753114541E+01 -0.26947743388E+03  0.28428092378E+03  0.00000000000E+00 0. -1.
         22    1    1    2    0    0  0.48084486318E+03 -0.11897164466E+03  0.36683686369E+03  0.61638893504E+03  0.00000000000E+00 0.  1.
<mgrwt>
<rscale>  0 0.16385870E+04</rscale>
<asrwt>0</asrwt>
<pdfrwt beam="1">  1        2 0.18787115E+00 0.16385870E+04</pdfrwt>
<pdfrwt beam="2">  1       -2 0.84565302E-01 0.16385870E+04</pdfrwt>
<totfact> 0.21446539E+01</totfact>
</mgrwt>
</event>
<event>
 6    1  0.9512547E-007  0.1385502E+04  0.7818608E-02  0.8964380E-01
          2   -1    0    0  501    0  0.00000000000E+00  0.00000000000E+00  0.11957926593E+04  0.11957926593E+04  0.00000000000E+00 0. -1.
         -2   -1    0    0    0  501 -0.00000000000E+00 -0.00000000000E+00 -0.40132726916E+03  0.40132726916E+03  0.00000000000E+00 0.  1.
         23    2    1    2    0    0 -0.65528322856E+03  0.95758345303E+02  0.17631280663E+03  0.69120691562E+03  0.90083428517E+02 0.  0.
         11    1    3    3    0    0 -0.32071776921E+03  0.92380976193E+02  0.87262688617E+02  0.34497667903E+03  0.00000000000E+00 0.  1.
        -11    1    3    3    0    0 -0.33456545935E+03  0.33773691093E+01  0.89050118008E+02  0.34623023659E+03  0.00000000000E+00 0. -1.
         22    1    1    2    0    0  0.65528322856E+03 -0.95758345303E+02  0.61815258347E+03  0.90591301281E+03  0.00000000000E+00 0.  1.
<mgrwt>
<rscale>  0 0.13855024E+04</rscale>
<asrwt>0</asrwt>
<pdfrwt beam="1">  1        2 0.18396810E+00 0.13855024E+04</pdfrwt>
<pdfrwt beam="2">  1       -2 0.61742657E-01 0.13855024E+04</pdfrwt>
<totfact> 0.45239134E+01</totfact>
</mgrwt>
</event>
<event>
 6    1  0.9512547E-007  0.1217752E+04  0.7818608E-02  0.9097459E-01
          2   -1    0    0  501    0  0.00000000000E+00  0.00000000000E+00  0.18934009539E+03  0.18934009539E+03  0.00000000000E+00 0. -1.
         -2   -1    0    0    0  501 -0.00000000000E+00 -0.00000000000E+00 -0.19580095461E+04  0.19580095461E+04  0.00000000000E+00 0.  1.
         23    2    1    2    0    0  0.10406323683E+03  0.48709144875E+03 -0.28149801487E+03  0.57898548854E+03  0.88858465303E+02 0.  0.
         13    1    3    3    0    0  0.34120653844E+02  0.13879286982E+03 -0.36713756465E+02  0.14756550967E+03  0.00000000000E+00 0.  1.
        -13    1    3    3    0    0  0.69942582986E+02  0.34829857893E+03 -0.24478425840E+03  0.43141997887E+03  0.00000000000E+00 0. -1.
         22    1    1    2    0    0 -0.10406323683E+03 -0.48709144875E+03 -0.14871714359E+04  0.15683641530E+04  0.00000000000E+00 0.  1.
<mgrwt>
<rscale>  0 0.12177516E+04</rscale>
<asrwt>0</asrwt>
<pdfrwt beam="1">  1        2 0.29129246E-01 0.12177516E+04</pdfrwt>
<pdfrwt beam="2">  1       -2 0.30123223E+00 0.12177516E+04</pdfrwt>
<totfact> 0.57154403E+00</totfact>
</mgrwt>
</event>
<event>
 6    1  0.9512547E-007  0.1481639E+04  0.7818608E-02  0.8896755E-01
          2   -1    0    0  501    0  0.00000000000E+00  0.00000000000E+00  0.90796703575E+03  0.90796703575E+03  0.00000000000E+00 0. -1.
         -2   -1    0    0    0  501 -0.00000000000E+00 -0.00000000000E+00 -0.60444213551E+03  0.60444213551E+03  0.00000000000E+00 0.  1.
         23    2    1    2    0    0  0.19563636398E+03 -0.45324997058E+03  0.71225860009E+03  0.87149391935E+03  0.92088084599E+02 0.  0.
         13    1    3    3    0    0  0.11089373742E+02 -0.12586465953E+03  0.17630934341E+03  0.21690982297E+03  0.00000000000E+00 0.  1.
        -13    1    3    3    0    0  0.18454699024E+03 -0.32738531104E+03  0.53594925668E+03  0.65458409638E+03  0.00000000000E+00 0. -1.
         22    1    1    2    0    0 -0.19563636398E+03  0.45324997058E+03 -0.40873369984E+03  0.64091525191E+03  0.00000000000E+00 0.  1.
<mgrwt>
<rscale>  0 0.14816390E+04</rscale>
<asrwt>0</asrwt>
<pdfrwt beam="1">  1        2 0.13968724E+00 0.14816390E+04</pdfrwt>
<pdfrwt beam="2">  1       -2 0.92991098E-01 0.14816390E+04</pdfrwt>
<totfact> 0.27456685E+01</totfact>
</mgrwt>
</event>
<event>
 6    1  0.9512547E-007  0.2757651E+04  0.7818608E-02  0.8316538E-01
         -1   -1    0    0    0  501 -0.00000000000E+00  0.00000000000E+00  0.14434677748E+04  0.14434677748E+04  0.00000000000E+00 0.  1.
          1   -1    0    0  501    0  0.00000000000E+00 -0.00000000000E+00 -0.13170784038E+04  0.13170784038E+04  0.00000000000E+00 0. -1.
         23    2    1    2    0    0  0.88871604521E+03 -0.16154331014E+03  0.11041272827E+04  0.14294248942E+04  0.90807607813E+02 0.  0.
         13    1    3    3    0    0  0.56457241886E+03 -0.14174673472E+03  0.74038153870E+03  0.94180623049E+03  0.00000000000E+00 0. -1.
        -13    1    3    3    0    0  0.32414362635E+03 -0.19796575421E+02  0.36374574398E+03  0.48761866367E+03  0.00000000000E+00 0.  1.
         22    1    1    2    0    0 -0.88871604521E+03  0.16154331014E+03 -0.97773791168E+03  0.13311212845E+04  0.00000000000E+00 0. -1.
<mgrwt>
<rscale>  0 0.27576513E+04</rscale>
<asrwt>0</asrwt>
<pdfrwt beam="1">  1        1 0.20262745E+00 0.27576513E+04</pdfrwt>
<pdfrwt beam="2">  1       -1 0.22207197E+00 0.27576513E+04</pdfrwt>
<totfact> 0.81453939E-01</totfact>
</mgrwt>
</event>
<event>
 6    1  0.9512547E-007  0.3864028E+04  0.7818608E-02  0.8032553E-01
         -2   -1    0    0    0  501 -0.00000000000E+00  0.00000000000E+00  0.10513501104E+04  0.10513501104E+04  0.00000000000E+00 0.  1.
          2   -1    0    0  501    0  0.00000000000E+00 -0.00000000000E+00 -0.35503659589E+04  0.35503659589E+04  0.00000000000E+00 0. -1.
         23    2    1    2    0    0 -0.77768514191E+03  0.33204457195E+03  0.81728482881E+03  0.11793049368E+04  0.88078741869E+02 0.  0.
         11    1    3    3    0    0 -0.41266904525E+03  0.12957089819E+03  0.42979287876E+03  0.60975919608E+03  0.00000000000E+00 0. -1.
        -11    1    3    3    0    0 -0.36501609667E+03  0.20247367376E+03  0.38749195005E+03  0.56954574069E+03  0.00000000000E+00 0.  1.
         22    1    1    2    0    0  0.77768514191E+03 -0.33204457195E+03 -0.33163006773E+04  0.34224111325E+04  0.00000000000E+00 0. -1.
<mgrwt>
<rscale>  0 0.38640278E+04</rscale>
<asrwt>0</asrwt>
<pdfrwt beam="1">  1        2 0.54621013E+00 0.38640278E+04</pdfrwt>
<pdfrwt beam="2">  1       -2 0.16174618E+00 0.38640278E+04</pdfrwt>
<totfact> 0.14583161E-01</totfact>
</mgrwt>
</event>
<event>
 6    1  0.9512547E-007  0.1265696E+04  0.7818608E-02  0.9057220E-01
         -2   -1    0    0    0  501 -0.00000000000E+00  0.00000000000E+00  0.12542918305E+03  0.12542918305E+03  0.00000000000E+00 0.  1.
          2   -1    0    0  501    0  0.00000000000E+00 -0.00000000000E+00 -0.31930086829E+04  0.31930086829E+04  0.00000000000E+00 0. -1.
         23    2    1    2    0    0 -0.53224477653E+03  0.31332120891E+03 -0.18640484026E+04  0.19656844575E+04  0.88228436824E+02 0.  0.
         13    1    3    3    0    0 -0.29257397809E+03  0.22158809163E+03 -0.10696093876E+04  0.11308249454E+04  0.00000000000E+00 0.  1.
        -13    1    3    3    0    0 -0.23967079844E+03  0.91733117282E+02 -0.79443901492E+03  0.83485951205E+03  0.00000000000E+00 0. -1.
         22    1    1    2    0    0  0.53224477653E+03 -0.31332120891E+03 -0.12035310973E+04  0.13527534085E+04  0.00000000000E+00 0.  1.
<mgrwt>
<rscale>  0 0.12656958E+04</rscale>
<asrwt>0</asrwt>
<pdfrwt beam="1">  1        2 0.49123202E+00 0.12656958E+04</pdfrwt>
<pdfrwt beam="2">  1       -2 0.19296801E-01 0.12656958E+04</pdfrwt>
<totfact> 0.29772265E+01</totfact>
</mgrwt>
</event>
<event>
 6    1  0.9512547E-007  0.2205935E+04  0.7818608E-02  0.8515962E-01
         -1   -1    0    0    0  501 -0.00000000000E+00  0.00000000000E+00  0.59663590064E+03  0.59663590064E+03  0.00000000000E+00 0.  1.
          1   -1    0    0  501    0  0.00000000000E+00 -0.00000000000E+00 -0.20389940932E+04  0.20389940932E+04  0.00000000000E+00 0. -1.
         23    2    1    2    0    0  0.84331133809E+03  0.39629567442E+02 -0.15673732756E+04  0.17821821123E+04  0.82277461267E+02 0.  0.
         13    1    3    3    0    0  0.50922483648E+03  0.31784486830E+02 -0.86266021345E+03  0.10022488870E+04  0.00000000000E+00 0.  1.
        -13    1    3    3    0    0  0.33408650160E+03  0.78450806114E+01 -0.70471306216E+03  0.77993322523E+03  0.00000000000E+00 0. -1.
         22    1    1    2    0    0 -0.84331133809E+03 -0.39629567442E+02  0.12501508306E+03  0.85344788157E+03  0.00000000000E+00 0.  1.
<mgrwt>
<rscale>  0 0.22059348E+04</rscale>
<asrwt>0</asrwt>
<pdfrwt beam="1">  1        1 0.31369140E+00 0.22059348E+04</pdfrwt>
<pdfrwt beam="2">  1       -1 0.91790138E-01 0.22059348E+04</pdfrwt>
<totfact> 0.29537881E+00</totfact>
</mgrwt>
</event>
<event>
 6    1  0.9512547E-007  0.4556912E+04  0.7818608E-02  0.7900748E-01
          2   -1    0    0  501    0  0.00000000000E+00  0.00000000000E+00  0.18395737977E+04  0.18395737977E+04  0.00000000000E+00 0. -1.
         -2   -1    0    0    0  501 -0.00000000000E+00 -0.00000000000E+00 -0.28220463283E+04  0.28220463283E+04  0.00000000000E+00 0.  1.
         23    2    1    2    0    0  0.71295041830E+03  0.20234007752E+04 -0.12737367760E+04  0.24966065332E+04  0.90497573631E+02 0.  0.
         13    1    3    3    0    0  0.25949398556E+03  0.64378016748E+03 -0.37833996739E+03  0.79052587782E+03  0.00000000000E+00 0.  1.
        -13    1    3    3    0    0  0.45345643274E+03  0.13796206078E+04 -0.89539680859E+03  0.17060806554E+04  0.00000000000E+00 0. -1.
         22    1    1    2    0    0 -0.71295041830E+03 -0.20234007752E+04  0.29126424536E+03  0.21650135928E+04  0.00000000000E+00 0.  1.
<mgrwt>
<rscale>  0 0.45569123E+04</rscale>
<asrwt>0</asrwt>
<pdfrwt beam="1">  1        2 0.28301135E+00 0.45569123E+04</pdfrwt>
<pdfrwt beam="2">  1       -2 0.43416097E+00 0.45569123E+04</pdfrwt>
<totfact> 0.27365286E-02</totfact>
</mgrwt>
</event>
<event>
 6    1  0.9512547E-007  0.2473142E+04  0.7818608E-02  0.8412617E-01
         -1   -1    0    0    0  501 -0.00000000000E+00  0.00000000000E+00  0.17585267744E+04  0.17585267744E+04  0.00000000000E+00 0.  1.
          1   -1    0    0  501    0  0.00000000000E+00 -0.00000000000E+00 -0.86953884751E+03  0.86953884751E+03  0.00000000000E+00 0. -1.
         23    2    1    2    0    0  0.62811227956E+03  0.93205996900E+03 -0.98507475282E+02  0.11319346146E+04  0.91167031346E+02 0.  0.
         13    1    3    3    0    0  0.36229080085E+03  0.45942453032E+03 -0.38193447692E+02  0.58633118874E+03  0.00000000000E+00 0. -1.
        -13    1    3    3    0    0  0.26582147871E+03  0.47263543868E+03 -0.60314027590E+02  0.54560342591E+03  0.00000000000E+00 0.  1.
         22    1    1    2    0    0 -0.62811227956E+03 -0.93205996900E+03  0.98749540212E+03  0.14961310072E+04  0.00000000000E+00 0.  1.
<mgrwt>
<rscale>  0 0.24731416E+04</rscale>
<asrwt>0</asrwt>
<pdfrwt beam="1">  1        1 0.13377521E+00 0.24731416E+04</pdfrwt>
<pdfrwt beam="2">  1       -1 0.27054258E+00 0.24731416E+04</pdfrwt>
<totfact> 0.88012220E-01</totfact>
</mgrwt>
</event>
<event>
 6    1  0.9512547E-007  0.2241178E+04  0.7818608E-02  0.8501482E-01
         -2   -1    0    0    0  501 -0.00000000000E+00  0.00000000000E+00  0.73564198362E+03  0.73564198362E+03  0.00000000000E+00 0.  1.
          2   -1    0    0  501    0  0.00000000000E+00 -0.00000000000E+00 -0.17069713098E+04  0.17069713098E+04  0.00000000000E+00 0. -1.
         23    2    1    2    0    0  0.37652433219E+03 -0.65143496300E+03 -0.13892074223E+04  0.15819390305E+04  0.80596217817E+02 0.  0.
         13    1    3    3    0    0  0.19150452523E+03 -0.29348337531E+03 -0.72075421586E+03  0.80143191504E+03  0.00000000000E+00 0. -1.
        -13    1    3    3    0    0  0.18501980696E+03 -0.35795158768E+03 -0.66845320644E+03  0.78050711546E+03  0.00000000000E+00 0.  1.
         22    1    1    2    0    0 -0.37652433219E+03  0.65143496300E+03  0.41787809607E+03  0.86067426296E+03  0.00000000000E+00 0.  1.
<mgrwt>
<rscale>  0 0.22411780E+04</rscale>
<asrwt>0</asrwt>
<pdfrwt beam="1">  1        2 0.26261096E+00 0.22411780E+04</pdfrwt>
<pdfrwt beam="2">  1       -2 0.11317569E+00 0.22411780E+04</pdfrwt>
<totfact> 0.54291650E+00</totfact>
</mgrwt>
</event>
<event>
 6    1  0.9512547E-007  0.4649447E+04  0.7818608E-02  0.7884983E-01
         -2   -1    0    0    0  501 -0.00000000000E+00  0.00000000000E+00  0.19443632291E+04  0.19443632291E+04  0.00000000000E+00 0.  1.
          2   -1    0    0  501    0  0.00000000000E+00 -0.00000000000E+00 -0.27794900378E+04  0.27794900378E+04  0.00000000000E+00 0. -1.
         23    2    1    2    0    0  0.13802199086E+04  0.13532092601E+04 -0.17282944243E+04  0.25945504026E+04  0.92238152645E+02 0.  0.
         11    1    3    3    0    0  0.11567127909E+04  0.11478313823E+04 -0.14126222402E+04  0.21566184077E+04  0.00000000000E+00 0.  1.
        -11    1    3    3    0    0  0.22350711773E+03  0.20537787781E+03 -0.31567218416E+03  0.43793199497E+03  0.00000000000E+00 0. -1.
         22    1    1    2    0    0 -0.13802199086E+04 -0.13532092601E+04  0.89316761564E+03  0.21293028642E+04  0.00000000000E+00 0.  1.
<mgrwt>
<rscale>  0 0.46494465E+04</rscale>
<asrwt>0</asrwt>
<pdfrwt beam="1">  1        2 0.42761385E+00 0.46494465E+04</pdfrwt>
<pdfrwt beam="2">  1       -2 0.29913280E+00 0.46494465E+04</pdfrwt>
<totfact> 0.57301089E-02</totfact>
</mgrwt>
</event>
<event>
 6    1  0.9512547E-007  0.1240287E+04  0.7818608E-02  0.9078307E-01
         -2   -1    0    0    0  501 -0.00000000000E+00  0.00000000000E+00  0.13597950246E+04  0.13597950246E+04  0.00000000000E+00 0.  1.
          2   -1    0    0  501    0  0.00000000000E+00 -0.00000000000E+00 -0.28282041066E+03  0.28282041066E+03  0.00000000000E+00 0. -1.
         23    2    1    2    0    0 -0.16010505844E+03 -0.39865074306E+03  0.11275725771E+04  0.12100461361E+04  0.90750702914E+02 0.  0.
         11    1    3    3    0    0 -0.16447955704E+02 -0.89311901005E+02  0.15807592956E+03  0.18230510254E+03  0.00000000000E+00 0. -1.
        -11    1    3    3    0    0 -0.14365710274E+03 -0.30933884205E+03  0.96949664759E+03  0.10277410336E+04  0.00000000000E+00 0.  1.
         22    1    1    2    0    0  0.16010505844E+03  0.39865074306E+03 -0.50597963222E+02  0.43256929914E+03  0.00000000000E+00 0. -1.
<mgrwt>
<rscale>  0 0.12402867E+04</rscale>
<asrwt>0</asrwt>
<pdfrwt beam="1">  1        2 0.43510833E-01 0.12402867E+04</pdfrwt>
<pdfrwt beam="2">  1       -2 0.20919923E+00 0.12402867E+04</pdfrwt>
<totfact> 0.13367723E+01</totfact>
</mgrwt>
</event>
<event>
 6    1  0.9512547E-007  0.2585004E+04  0.7818608E-02  0.8373313E-01
         -2   -1    0    0    0  501 -0.00000000000E+00  0.00000000000E+00  0.67397403137E+03  0.67397403137E+03  0.00000000000E+00 0.  1.
          2   -1    0    0  501    0  0.00000000000E+00 -0.00000000000E+00 -0.24786729638E+04  0.24786729638E+04  0.00000000000E+00 0. -1.
         23    2    1    2    0    0  0.78517775125E+03  0.59689927841E+03 -0.19192272228E+04  0.21597171996E+04  0.90290639606E+02 0.  0.
         13    1    3    3    0    0  0.72529904767E+03  0.56033746517E+03 -0.17279206319E+04  0.19559515571E+04  0.00000000000E+00 0.  1.
        -13    1    3    3    0    0  0.59878703581E+02  0.36561813247E+02 -0.19130659095E+03  0.20376564252E+03  0.00000000000E+00 0. -1.
         22    1    1    2    0    0 -0.78517775125E+03 -0.59689927841E+03  0.11452829044E+03  0.99292979558E+03  0.00000000000E+00 0.  1.
<mgrwt>
<rscale>  0 0.25850038E+04</rscale>
<asrwt>0</asrwt>
<pdfrwt beam="1">  1        2 0.38133429E+00 0.25850038E+04</pdfrwt>
<pdfrwt beam="2">  1       -2 0.10368831E+00 0.25850038E+04</pdfrwt>
<totfact> 0.24026310E+00</totfact>
</mgrwt>
</event>
<event>
 6    1  0.9512547E-007  0.6345746E+04  0.7818608E-02  0.7648952E-01
         -1   -1    0    0    0  501 -0.00000000000E+00  0.00000000000E+00  0.27996290420E+04  0.27996290420E+04  0.00000000000E+00 0.  1.
          1   -1    0    0  501    0  0.00000000000E+00 -0.00000000000E+00 -0.35958772435E+04  0.35958772435E+04  0.00000000000E+00 0. -1.
         23    2    1    2    0    0 -0.28183189183E+03 -0.19115996738E+04 -0.29337725427E+04  0.35140738574E+04  0.89728562040E+02 0.  0.
         13    1    3    3    0    0 -0.10859376088E+02 -0.23784057152E+03 -0.39324421163E+03  0.45970324503E+03  0.00000000000E+00 0.  1.
        -13    1    3    3    0    0 -0.27097251575E+03 -0.16737591022E+04 -0.25405283311E+04  0.30543706124E+04  0.00000000000E+00 0. -1.
         22    1    1    2    0    0  0.28183189183E+03  0.19115996738E+04  0.21375243413E+04  0.28814324281E+04  0.00000000000E+00 0.  1.
<mgrwt>
<rscale>  0 0.63457458E+04</rscale>
<asrwt>0</asrwt>
<pdfrwt beam="1">  1        1 0.55321188E+00 0.63457458E+04</pdfrwt>
<pdfrwt beam="2">  1       -1 0.43071216E+00 0.63457458E+04</pdfrwt>
<totfact> 0.60067783E-04</totfact>
</mgrwt>
</event>
<event>
 6    1  0.9512547E-007  0.1781936E+04  0.7818608E-02  0.8715965E-01
         -2   -1    0    0    0  501 -0.00000000000E+00  0.00000000000E+00  0.46536303461E+03  0.46536303461E+03  0.00000000000E+00 0.  1.
          2   -1    0    0  501    0  0.00000000000E+00 -0.00000000000E+00 -0.17058173374E+04  0.17058173374E+04  0.00000000000E+00 0. -1.
         23    2    1    2    0    0  0.28567150981E+03  0.81180704196E+03 -0.35784636954E+03  0.93844534421E+03  0.10948403982E+03 0.  0.
         13    1    3    3    0    0  0.17359024127E+03  0.61813921946E+03 -0.29094450920E+03  0.70489600222E+03  0.00000000000E+00 0.  1.
        -13    1    3    3    0    0  0.11208126854E+03  0.19366782250E+03 -0.66901860332E+02  0.23354934199E+03  0.00000000000E+00 0. -1.
         22    1    1    2    0    0 -0.28567150981E+03 -0.81180704196E+03 -0.88260793322E+03  0.12327350278E+04  0.00000000000E+00 0. -1.
<mgrwt>
<rscale>  0 0.17819364E+04</rscale>
<asrwt>0</asrwt>
<pdfrwt beam="1">  1        2 0.26243343E+00 0.17819364E+04</pdfrwt>
<pdfrwt beam="2">  1       -2 0.71594314E-01 0.17819364E+04</pdfrwt>
<totfact> 0.16281719E+01</totfact>
</mgrwt>
</event>
<event>
 6    1  0.9512547E-007  0.1834961E+04  0.7818608E-02  0.8687925E-01
          2   -1    0    0  501    0  0.00000000000E+00  0.00000000000E+00  0.24539242207E+04  0.24539242207E+04  0.00000000000E+00 0. -1.
         -2   -1    0    0    0  501 -0.00000000000E+00 -0.00000000000E+00 -0.34303044151E+03  0.34303044151E+03  0.00000000000E+00 0.  1.
         23    2    1    2    0    0 -0.64609797528E+03  0.27728121228E+02  0.70984618185E+02  0.65699185237E+03  0.91586220008E+02 0.  0.
         13    1    3    3    0    0 -0.25590862747E+03  0.53529187663E+02  0.42897381274E+02  0.26494298418E+03  0.00000000000E+00 0. -1.
        -13    1    3    3    0    0 -0.39018934781E+03 -0.25801066434E+02  0.28087236912E+02  0.39204886820E+03  0.00000000000E+00 0.  1.
         22    1    1    2    0    0  0.64609797528E+03 -0.27728121228E+02  0.20399091610E+04  0.21399628099E+04  0.00000000000E+00 0. -1.
<mgrwt>
<rscale>  0 0.18349613E+04</rscale>
<asrwt>0</asrwt>
<pdfrwt beam="1">  1        2 0.37752679E+00 0.18349613E+04</pdfrwt>
<pdfrwt beam="2">  1       -2 0.52773916E-01 0.18349613E+04</pdfrwt>
<totfact> 0.11813074E+01</totfact>
</mgrwt>
</event>
<event>
 6    1  0.9512547E-007  0.2046198E+04  0.7818608E-02  0.8585321E-01
         -1   -1    0    0    0  501 -0.00000000000E+00  0.00000000000E+00  0.66582192776E+03  0.66582192776E+03  0.00000000000E+00 0.  1.
          1   -1    0    0  501    0  0.00000000000E+00 -0.00000000000E+00 -0.15720899303E+04  0.15720899303E+04  0.00000000000E+00 0. -1.
         23    2    1    2    0    0 -0.27973234474E+03  0.40014659509E+03  0.52641583021E+03  0.72432325911E+03  0.95723952767E+02 0.  0.
         11    1    3    3    0    0 -0.14906947872E+03  0.19299605510E+03  0.19505713197E+03  0.31227627432E+03  0.00000000000E+00 0. -1.
        -11    1    3    3    0    0 -0.13066286602E+03  0.20715053999E+03  0.33135869824E+03  0.41204698479E+03  0.00000000000E+00 0.  1.
         22    1    1    2    0    0  0.27973234474E+03 -0.40014659509E+03 -0.14326838327E+04  0.15135885989E+04  0.00000000000E+00 0. -1.
<mgrwt>
<rscale>  0 0.20461984E+04</rscale>
<asrwt>0</asrwt>
<pdfrwt beam="1">  1        1 0.24185998E+00 0.20461984E+04</pdfrwt>
<pdfrwt beam="2">  1       -1 0.10243414E+00 0.20461984E+04</pdfrwt>
<totfact> 0.48591243E+00</totfact>
</mgrwt>
</event>
<event>
 6    1  0.9512547E-007  0.3434339E+04  0.7818608E-02  0.8129529E-01
         -1   -1    0    0    0  501 -0.00000000000E+00  0.00000000000E+00  0.21304049597E+04  0.21304049597E+04  0.00000000000E+00 0.  1.
          1   -1    0    0  501    0  0.00000000000E+00 -0.00000000000E+00 -0.13840898459E+04  0.13840898459E+04  0.00000000000E+00 0. -1.
         23    2    1    2    0    0  0.16299703799E+04  0.13331397002E+02 -0.17532701699E+03  0.16419549842E+04  0.91079315660E+02 0.  0.
         13    1    3    3    0    0  0.63706456211E+03 -0.11035748397E+02 -0.11017609704E+03  0.64661566358E+03  0.00000000000E+00 0.  1.
        -13    1    3    3    0    0  0.99290581778E+03  0.24367145398E+02 -0.65150919948E+02  0.99533932060E+03  0.00000000000E+00 0. -1.
         22    1    1    2    0    0 -0.16299703799E+04 -0.13331397002E+02  0.92164213075E+03  0.18725398214E+04  0.00000000000E+00 0.  1.
<mgrwt>
<rscale>  0 0.34343395E+04</rscale>
<asrwt>0</asrwt>
<pdfrwt beam="1">  1        1 0.21293690E+00 0.34343395E+04</pdfrwt>
<pdfrwt beam="2">  1       -1 0.32775461E+00 0.34343395E+04</pdfrwt>
<totfact> 0.14079556E-01</totfact>
</mgrwt>
</event>
<event>
 6    1  0.9512547E-007  0.1732771E+04  0.7818608E-02  0.8742891E-01
         -2   -1    0    0    0  501 -0.00000000000E+00  0.00000000000E+00  0.69290314018E+03  0.69290314018E+03  0.00000000000E+00 0.  1.
          2   -1    0    0  501    0  0.00000000000E+00 -0.00000000000E+00 -0.10833031557E+04  0.10833031557E+04  0.00000000000E+00 0. -1.
         23    2    1    2    0    0 -0.64261801532E+03 -0.42871737132E+03 -0.59236212175E+03  0.97774202590E+03  0.91269314907E+02 0.  0.
         11    1    3    3    0    0 -0.31726567653E+03 -0.18107324471E+03 -0.32717424987E+03  0.49039577815E+03  0.00000000000E+00 0. -1.
        -11    1    3    3    0    0 -0.32535233879E+03 -0.24764412661E+03 -0.26518787188E+03  0.48734624775E+03  0.00000000000E+00 0.  1.
         22    1    1    2    0    0  0.64261801532E+03  0.42871737132E+03  0.20196210622E+03  0.79846426998E+03  0.00000000000E+00 0.  1.
<mgrwt>
<rscale>  0 0.17327714E+04</rscale>
<asrwt>0</asrwt>
<pdfrwt beam="1">  1        2 0.16666202E+00 0.17327714E+04</pdfrwt>
<pdfrwt beam="2">  1       -2 0.10660048E+00 0.17327714E+04</pdfrwt>
<totfact> 0.15012272E+01</totfact>
</mgrwt>
</event>
<event>
 6    1  0.9512547E-007  0.7299797E+03  0.7818608E-02  0.9667293E-01
          1   -1    0    0  501    0  0.00000000000E+00  0.00000000000E+00  0.10665335933E+03  0.10665335933E+03  0.00000000000E+00 0. -1.
         -1   -1    0    0    0  501 -0.00000000000E+00 -0.00000000000E+00 -0.12490707374E+04  0.12490707374E+04  0.00000000000E+00 0.  1.
         23    2    1    2    0    0  0.27322806804E+03 -0.86046617356E+02 -0.98298058357E+03  0.10278861963E+04  0.90783298766E+02 0.  0.
         11    1    3    3    0    0  0.17387380475E+03 -0.99293374964E+02 -0.64744073526E+03  0.67769519695E+03  0.00000000000E+00 0. -1.
        -11    1    3    3    0    0  0.99354263286E+02  0.13246757608E+02 -0.33553984831E+03  0.35019099935E+03  0.00000000000E+00 0.  1.
         22    1    1    2    0    0 -0.27322806804E+03  0.86046617356E+02 -0.15943679448E+03  0.32783790042E+03  0.00000000000E+00 0. -1.
<mgrwt>
<rscale>  0 0.72997970E+03</rscale>
<asrwt>0</asrwt>
<pdfrwt beam="1">  1        1 0.16408209E-01 0.72997970E+03</pdfrwt>
<pdfrwt beam="2">  1       -1 0.19216473E+00 0.72997970E+03</pdfrwt>
<totfact> 0.59659765E+01</totfact>
</mgrwt>
</event>
<event>
 6    1  0.9512547E-007  0.5718067E+03  0.7818608E-02  0.9965688E-01
          2   -1    0    0  501    0  0.00000000000E+00  0.00000000000E+00  0.76170873193E+03  0.76170873193E+03  0.00000000000E+00 0. -1.
         -2   -1    0    0    0  501 -0.00000000000E+00 -0.00000000000E+00 -0.10731233099E+03  0.10731233099E+03  0.00000000000E+00 0.  1.
         23    2    1    2    0    0  0.28348092651E+02 -0.89466735327E+02  0.73427743235E+03  0.74577784701E+03  0.90627470183E+02 0.  0.
         13    1    3    3    0    0  0.15288138318E+02  0.14900066405E+02  0.20800432845E+03  0.20909696269E+03  0.00000000000E+00 0. -1.
        -13    1    3    3    0    0  0.13059954333E+02 -0.10436680173E+03  0.52627310389E+03  0.53668088432E+03  0.00000000000E+00 0.  1.
         22    1    1    2    0    0 -0.28348092651E+02  0.89466735327E+02 -0.79881031409E+02  0.12324321590E+03  0.00000000000E+00 0.  1.
<mgrwt>
<rscale>  0 0.57180675E+03</rscale>
<asrwt>0</asrwt>
<pdfrwt beam="1">  1        2 0.11718596E+00 0.57180675E+03</pdfrwt>
<pdfrwt beam="2">  1       -2 0.16509590E-01 0.57180675E+03</pdfrwt>
<totfact> 0.10984971E+03</totfact>
</mgrwt>
</event>
<event>
 6    1  0.9512547E-007  0.2491879E+04  0.7818608E-02  0.8405884E-01
          2   -1    0    0  501    0  0.00000000000E+00  0.00000000000E+00  0.29779770724E+04  0.29779770724E+04  0.00000000000E+00 0. -1.
         -2   -1    0    0    0  501 -0.00000000000E+00 -0.00000000000E+00 -0.52128186900E+03  0.52128186900E+03  0.00000000000E+00 0.  1.
         23    2    1    2    0    0 -0.53856944415E+03 -0.65689219088E+02 -0.34232212316E+03  0.64814159655E+03  0.92363269205E+02 0.  0.
         13    1    3    3    0    0 -0.25571356536E+03 -0.27505256860E+02 -0.10836109467E+03  0.27908438420E+03  0.00000000000E+00 0. -1.
        -13    1    3    3    0    0 -0.28285587879E+03 -0.38183962228E+02 -0.23396102850E+03  0.36905721236E+03  0.00000000000E+00 0.  1.
         22    1    1    2    0    0  0.53856944415E+03  0.65689219088E+02  0.27990173266E+04  0.28511173449E+04  0.00000000000E+00 0. -1.
<mgrwt>
<rscale>  0 0.24918792E+04</rscale>
<asrwt>0</asrwt>
<pdfrwt beam="1">  1        2 0.45815031E+00 0.24918792E+04</pdfrwt>
<pdfrwt beam="2">  1       -2 0.80197212E-01 0.24918792E+04</pdfrwt>
<totfact> 0.22053778E+00</totfact>
</mgrwt>
</event>
<event>
 6    1  0.9512547E-007  0.2950750E+04  0.7818608E-02  0.8257936E-01
         -2   -1    0    0    0  501 -0.00000000000E+00  0.00000000000E+00  0.82271635828E+03  0.82271635828E+03  0.00000000000E+00 0.  1.
          2   -1    0    0  501    0  0.00000000000E+00 -0.00000000000E+00 -0.26457856609E+04  0.26457856609E+04  0.00000000000E+00 0. -1.
         23    2    1    2    0    0 -0.11692617438E+04 -0.59898204958E+03 -0.12694129411E+03  0.13230876670E+04  0.92164859814E+02 0.  0.
         13    1    3    3    0    0 -0.65032267857E+03 -0.35272294423E+03 -0.11388752168E+03  0.74853418709E+03  0.00000000000E+00 0. -1.
        -13    1    3    3    0    0 -0.51893906518E+03 -0.24625910535E+03 -0.13053772429E+02  0.57455347994E+03  0.00000000000E+00 0.  1.
         22    1    1    2    0    0  0.11692617438E+04  0.59898204958E+03 -0.16961280085E+04  0.21454143521E+04  0.00000000000E+00 0. -1.
<mgrwt>
<rscale>  0 0.29507498E+04</rscale>
<asrwt>0</asrwt>
<pdfrwt beam="1">  1        2 0.40704396E+00 0.29507498E+04</pdfrwt>
<pdfrwt beam="2">  1       -2 0.12657174E+00 0.29507498E+04</pdfrwt>
<totfact> 0.11417111E+00</totfact>
</mgrwt>
</event>
<event>
 6    1  0.9512547E-007  0.1743401E+04  0.7818608E-02  0.8736991E-01
          2   -1    0    0  501    0  0.00000000000E+00  0.00000000000E+00  0.22260998972E+03  0.22260998972E+03  0.00000000000E+00 0. -1.
         -2   -1    0    0    0  501 -0.00000000000E+00 -0.00000000000E+00 -0.34134208700E+04  0.34134208700E+04  0.00000000000E+00 0.  1.
         23    2    1    2    0    0 -0.20812352589E+03  0.64963792019E+03 -0.27238221062E+04  0.28093366330E+04  0.88434280016E+02 0.  0.
         11    1    3    3    0    0 -0.70108536541E+01  0.10360564520E+03 -0.49790308021E+03  0.50861651474E+03  0.00000000000E+00 0. -1.
        -11    1    3    3    0    0 -0.20111267223E+03  0.54603227498E+03 -0.22259190260E+04  0.23007201183E+04  0.00000000000E+00 0.  1.
         22    1    1    2    0    0  0.20812352589E+03 -0.64963792019E+03 -0.46698877408E+03  0.82669422671E+03  0.00000000000E+00 0. -1.
<mgrwt>
<rscale>  0 0.17434008E+04</rscale>
<asrwt>0</asrwt>
<pdfrwt beam="1">  1        2 0.34247690E-01 0.17434008E+04</pdfrwt>
<pdfrwt beam="2">  1       -2 0.52514168E+00 0.17434008E+04</pdfrwt>
<totfact> 0.16852749E-01</totfact>
</mgrwt>
</event>
<event>
 6    1  0.9512547E-007  0.2118343E+04  0.7818608E-02  0.8553206E-01
         -1   -1    0    0    0  501 -0.00000000000E+00  0.00000000000E+00  0.11456933438E+04  0.11456933438E+04  0.00000000000E+00 0.  1.
          1   -1    0    0  501    0  0.00000000000E+00 -0.00000000000E+00 -0.97918368034E+03  0.97918368034E+03  0.00000000000E+00 0. -1.
         23    2    1    2    0    0 -0.24004106779E+03  0.59700702227E+03  0.92480608352E+03  0.11303668133E+04  0.91791838723E+02 0.  0.
         11    1    3    3    0    0 -0.18081240944E+03  0.50527080208E+03  0.81247860531E+03  0.97371104283E+03  0.00000000000E+00 0. -1.
        -11    1    3    3    0    0 -0.59228658343E+02  0.91736220194E+02  0.11232747821E+03  0.15665577048E+03  0.00000000000E+00 0.  1.
         22    1    1    2    0    0  0.24004106779E+03 -0.59700702227E+03 -0.75829642003E+03  0.99451021086E+03  0.00000000000E+00 0. -1.
<mgrwt>
<rscale>  0 0.21183430E+04</rscale>
<asrwt>0</asrwt>
<pdfrwt beam="1">  1        1 0.15064364E+00 0.21183430E+04</pdfrwt>
<pdfrwt beam="2">  1       -1 0.17626051E+00 0.21183430E+04</pdfrwt>
<totfact> 0.31951763E+00</totfact>
</mgrwt>
</event>
<event>
 6    1  0.9512547E-007  0.2281140E+04  0.7818608E-02  0.8485395E-01
          1   -1    0    0  501    0  0.00000000000E+00  0.00000000000E+00  0.67213234778E+03  0.67213234778E+03  0.00000000000E+00 0. -1.
         -1   -1    0    0    0  501 -0.00000000000E+00 -0.00000000000E+00 -0.19354819488E+04  0.19354819488E+04  0.00000000000E+00 0.  1.
         23    2    1    2    0    0  0.10118474826E+04  0.16656512160E+03 -0.68507242586E+02  0.10330580006E+04  0.10457687406E+03 0.  0.
         11    1    3    3    0    0  0.69935908099E+03  0.15099073552E+03 -0.14936727864E+02  0.71562869717E+03  0.00000000000E+00 0. -1.
        -11    1    3    3    0    0  0.31248840158E+03  0.15574386080E+02 -0.53570514722E+02  0.31742930342E+03  0.00000000000E+00 0.  1.
         22    1    1    2    0    0 -0.10118474826E+04 -0.16656512160E+03 -0.11948423584E+04  0.15745562959E+04  0.00000000000E+00 0.  1.
<mgrwt>
<rscale>  0 0.22811401E+04</rscale>
<asrwt>0</asrwt>
<pdfrwt beam="1">  1        1 0.10340498E+00 0.22811401E+04</pdfrwt>
<pdfrwt beam="2">  1       -1 0.29776645E+00 0.22811401E+04</pdfrwt>
<totfact> 0.89581095E-01</totfact>
</mgrwt>
</event>
<event>
 6    1  0.9512547E-007  0.3990542E+04  0.7818608E-02  0.8006457E-01
         -1   -1    0    0    0  501 -0.00000000000E+00  0.00000000000E+00  0.23841489095E+04  0.23841489095E+04  0.00000000000E+00 0.  1.
          1   -1    0    0  501    0  0.00000000000E+00 -0.00000000000E+00 -0.16698227167E+04  0.16698227167E+04  0.00000000000E+00 0. -1.
         23    2    1    2    0    0 -0.82611974524E+03 -0.12719601621E+04 -0.95803911351E+03  0.17962820539E+04  0.91835649620E+02 0.  0.
         11    1    3    3    0    0 -0.29799504403E+03 -0.39021451315E+03 -0.33488879652E+03  0.59432223463E+03  0.00000000000E+00 0. -1.
        -11    1    3    3    0    0 -0.52812470122E+03 -0.88174564895E+03 -0.62315031699E+03  0.12019598192E+04  0.00000000000E+00 0.  1.
         22    1    1    2    0    0  0.82611974524E+03  0.12719601621E+04  0.16723653062E+04  0.22576895723E+04  0.00000000000E+00 0. -1.
<mgrwt>
<rscale>  0 0.39905418E+04</rscale>
<asrwt>0</asrwt>
<pdfrwt beam="1">  1        1 0.25689580E+00 0.39905418E+04</pdfrwt>
<pdfrwt beam="2">  1       -1 0.36679214E+00 0.39905418E+04</pdfrwt>
<totfact> 0.46976370E-02</totfact>
</mgrwt>
</event>
<event>
 6    1  0.9512547E-007  0.1471510E+04  0.7818608E-02  0.8903622E-01
         -1   -1    0    0    0  501 -0.00000000000E+00  0.00000000000E+00  0.11658635490E+04  0.11658635490E+04  0.00000000000E+00 0.  1.
          1   -1    0    0  501    0  0.00000000000E+00 -0.00000000000E+00 -0.46432154434E+03  0.46432154434E+03  0.00000000000E+00 0. -1.
         23    2    1    2    0    0  0.72973717300E+03  0.65602440645E+02  0.36305510249E+03  0.82309562817E+03  0.94113674815E+02 0.  0.
         11    1    3    3    0    0  0.63286650006E+03  0.25997127300E+02  0.29933723157E+03  0.70057022184E+03  0.00000000000E+00 0. -1.
        -11    1    3    3    0    0  0.96870672942E+02  0.39605313344E+02  0.63717870917E+02  0.12252540633E+03  0.00000000000E+00 0.  1.
         22    1    1    2    0    0 -0.72973717300E+03 -0.65602440645E+02  0.33848690221E+03  0.80708946521E+03  0.00000000000E+00 0.  1.
<mgrwt>
<rscale>  0 0.14715102E+04</rscale>
<asrwt>0</asrwt>
<pdfrwt beam="1">  1        1 0.71434084E-01 0.14715102E+04</pdfrwt>
<pdfrwt beam="2">  1       -1 0.17936362E+00 0.14715102E+04</pdfrwt>
<totfact> 0.10004167E+01</totfact>
</mgrwt>
</event>
<event>
 6    1  0.9512547E-007  0.1279821E+04  0.7818608E-02  0.9045722E-01
         -2   -1    0    0    0  501 -0.00000000000E+00  0.00000000000E+00  0.55306320597E+03  0.55306320597E+03  0.00000000000E+00 0.  1.
          2   -1    0    0  501    0  0.00000000000E+00 -0.00000000000E+00 -0.74039565290E+03  0.74039565290E+03  0.00000000000E+00 0. -1.
         23    2    1    2    0    0  0.34357777061E+03 -0.29742680514E+03  0.35631908938E+03  0.58489313728E+03  0.92888641461E+02 0.  0.
         11    1    3    3    0    0  0.17407213528E+03 -0.10829777300E+03  0.20147304166E+03  0.28743851940E+03  0.00000000000E+00 0. -1.
        -11    1    3    3    0    0  0.16950563532E+03 -0.18912903215E+03  0.15484604772E+03  0.29745461788E+03  0.00000000000E+00 0.  1.
         22    1    1    2    0    0 -0.34357777061E+03  0.29742680514E+03 -0.54365153631E+03  0.70856572158E+03  0.00000000000E+00 0.  1.
<mgrwt>
<rscale>  0 0.12798212E+04</rscale>
<asrwt>0</asrwt>
<pdfrwt beam="1">  1        2 0.11390702E+00 0.12798212E+04</pdfrwt>
<pdfrwt beam="2">  1       -2 0.85086648E-01 0.12798212E+04</pdfrwt>
<totfact> 0.45011308E+01</totfact>
</mgrwt>
</event>
<event>
 6    1  0.9512547E-007  0.2690273E+04  0.7818608E-02  0.8338168E-01
          1   -1    0    0  501    0  0.00000000000E+00  0.00000000000E+00  0.27680573956E+04  0.27680573956E+04  0.00000000000E+00 0. -1.
         -1   -1    0    0    0  501 -0.00000000000E+00 -0.00000000000E+00 -0.65366871488E+03  0.65366871488E+03  0.00000000000E+00 0.  1.
         23    2    1    2    0    0 -0.13105331360E+03 -0.33708077480E+03  0.27041605617E+04  0.27298957185E+04  0.95120295205E+02 0.  0.
         11    1    3    3    0    0 -0.21692226426E+02 -0.14223556999E+03  0.13197954883E+04  0.13276150199E+04  0.00000000000E+00 0. -1.
        -11    1    3    3    0    0 -0.10936108717E+03 -0.19484520481E+03  0.13843650734E+04  0.14022806986E+04  0.00000000000E+00 0.  1.
         22    1    1    2    0    0  0.13105331360E+03  0.33708077480E+03 -0.58977188096E+03  0.69183039202E+03  0.00000000000E+00 0.  1.
<mgrwt>
<rscale>  0 0.26902732E+04</rscale>
<asrwt>0</asrwt>
<pdfrwt beam="1">  1        1 0.42585498E+00 0.26902732E+04</pdfrwt>
<pdfrwt beam="2">  1       -1 0.10056442E+00 0.26902732E+04</pdfrwt>
<totfact> 0.72173573E-01</totfact>
</mgrwt>
</event>
<event>
 6    1  0.9512547E-007  0.2369854E+04  0.7818608E-02  0.8450877E-01
         -2   -1    0    0    0  501 -0.00000000000E+00  0.00000000000E+00  0.89426942394E+03  0.89426942394E+03  0.00000000000E+00 0.  1.
          2   -1    0    0  501    0  0.00000000000E+00 -0.00000000000E+00 -0.15700549751E+04  0.15700549751E+04  0.00000000000E+00 0. -1.
         23    2    1    2    0    0 -0.44693682545E+03 -0.99144178016E+03  0.14614628408E+03  0.11011364915E+04  0.91834128858E+02 0.  0.
         11    1    3    3    0    0 -0.73918987426E+02 -0.23921520824E+03  0.10337213146E+02  0.25058888748E+03  0.00000000000E+00 0. -1.
        -11    1    3    3    0    0 -0.37301783802E+03 -0.75222657192E+03  0.13580907094E+03  0.85054760403E+03  0.00000000000E+00 0.  1.
         22    1    1    2    0    0  0.44693682545E+03  0.99144178016E+03 -0.82193183522E+03  0.13631879075E+04  0.00000000000E+00 0. -1.
<mgrwt>
<rscale>  0 0.23698541E+04</rscale>
<asrwt>0</asrwt>
<pdfrwt beam="1">  1        2 0.24154692E+00 0.23698541E+04</pdfrwt>
<pdfrwt beam="2">  1       -2 0.13757991E+00 0.23698541E+04</pdfrwt>
<totfact> 0.39272776E+00</totfact>
</mgrwt>
</event>
<event>
 6    1  0.9512547E-007  0.2760367E+04  0.7818608E-02  0.8315680E-01
         -2   -1    0    0    0  501 -0.00000000000E+00  0.00000000000E+00  0.14380096547E+04  0.14380096547E+04  0.00000000000E+00 0.  1.
          2   -1    0    0  501    0  0.00000000000E+00 -0.00000000000E+00 -0.13246822935E+04  0.13246822935E+04  0.00000000000E+00 0. -1.
         23    2    1    2    0    0 -0.20106865286E+03  0.14463567780E+03  0.14141150023E+04  0.14385331324E+04  0.91149606545E+02 0.  0.
         13    1    3    3    0    0 -0.14247148765E+03  0.13261636891E+03  0.89117717982E+03  0.91218528377E+03  0.00000000000E+00 0.  1.
        -13    1    3    3    0    0 -0.58597165211E+02  0.12019308890E+02  0.52293782247E+03  0.52634784860E+03  0.00000000000E+00 0. -1.
         22    1    1    2    0    0  0.20106865286E+03 -0.14463567780E+03 -0.13007876410E+04  0.13241588158E+04  0.00000000000E+00 0. -1.
<mgrwt>
<rscale>  0 0.27603666E+04</rscale>
<asrwt>0</asrwt>
<pdfrwt beam="1">  1        2 0.20379728E+00 0.27603666E+04</pdfrwt>
<pdfrwt beam="2">  1       -2 0.22123225E+00 0.27603666E+04</pdfrwt>
<totfact> 0.13553766E+00</totfact>
</mgrwt>
</event>
<event>
 6    1  0.9512547E-007  0.1581205E+04  0.7818608E-02  0.8832178E-01
         -1   -1    0    0    0  501 -0.00000000000E+00  0.00000000000E+00  0.24316243445E+03  0.24316243445E+03  0.00000000000E+00 0.  1.
          1   -1    0    0  501    0  0.00000000000E+00 -0.00000000000E+00 -0.25705138963E+04  0.25705138963E+04  0.00000000000E+00 0. -1.
         23    2    1    2    0    0  0.58098831994E+03  0.30766646010E+03 -0.38785491351E+03  0.76578645588E+03  0.61574211262E+02 0.  0.
         13    1    3    3    0    0  0.15690971603E+03  0.11481950752E+03 -0.11463146296E+03  0.22570899537E+03  0.00000000000E+00 0.  1.
        -13    1    3    3    0    0  0.42407860391E+03  0.19284695258E+03 -0.27322345056E+03  0.54007746051E+03  0.00000000000E+00 0. -1.
         22    1    1    2    0    0 -0.58098831994E+03 -0.30766646010E+03 -0.19394965483E+04  0.20478898748E+04  0.00000000000E+00 0. -1.
<mgrwt>
<rscale>  0 0.15812051E+04</rscale>
<asrwt>0</asrwt>
<pdfrwt beam="1">  1        1 0.39546368E+00 0.15812051E+04</pdfrwt>
<pdfrwt beam="2">  1       -1 0.37409605E-01 0.15812051E+04</pdfrwt>
<totfact> 0.80213010E+00</totfact>
</mgrwt>
</event>
<event>
 6    1  0.9512547E-007  0.2346545E+04  0.7818608E-02  0.8459792E-01
         -1   -1    0    0    0  501 -0.00000000000E+00  0.00000000000E+00  0.42279217243E+03  0.42279217243E+03  0.00000000000E+00 0.  1.
          1   -1    0    0  501    0  0.00000000000E+00 -0.00000000000E+00 -0.32558978174E+04  0.32558978174E+04  0.00000000000E+00 0. -1.
         23    2    1    2    0    0 -0.10212888150E+04  0.25145770426E+03 -0.60962829588E+03  0.12189921745E+04  0.89629468871E+02 0.  0.
         11    1    3    3    0    0 -0.54627341245E+03  0.12687994239E+03 -0.37580624758E+03  0.67508776960E+03  0.00000000000E+00 0. -1.
        -11    1    3    3    0    0 -0.47501540257E+03  0.12457776187E+03 -0.23382204830E+03  0.54390440493E+03  0.00000000000E+00 0.  1.
         22    1    1    2    0    0  0.10212888150E+04 -0.25145770426E+03 -0.22234773491E+04  0.24596978154E+04  0.00000000000E+00 0. -1.
<mgrwt>
<rscale>  0 0.23465448E+04</rscale>
<asrwt>0</asrwt>
<pdfrwt beam="1">  1        1 0.50090736E+00 0.23465448E+04</pdfrwt>
<pdfrwt beam="2">  1       -1 0.65044949E-01 0.23465448E+04</pdfrwt>
<totfact> 0.83306812E-01</totfact>
</mgrwt>
</event>
<event>
 6    1  0.9512547E-007  0.2047428E+04  0.7818608E-02  0.8584762E-01
         -1   -1    0    0    0  501 -0.00000000000E+00  0.00000000000E+00  0.82985116977E+03  0.82985116977E+03  0.00000000000E+00 0.  1.
          1   -1    0    0  501    0  0.00000000000E+00 -0.00000000000E+00 -0.12628650020E+04  0.12628650020E+04  0.00000000000E+00 0. -1.
         23    2    1    2    0    0 -0.28110654918E+03 -0.77656006798E+03  0.39765145793E+03  0.92136171839E+03  0.93350430897E+02 0.  0.
         13    1    3    3    0    0 -0.10813023868E+03 -0.34425355552E+03  0.12553102639E+03  0.38204803048E+03  0.00000000000E+00 0. -1.
        -13    1    3    3    0    0 -0.17297631050E+03 -0.43230651246E+03  0.27212043153E+03  0.53931368791E+03  0.00000000000E+00 0.  1.
         22    1    1    2    0    0  0.28110654918E+03  0.77656006798E+03 -0.83066529013E+03  0.11713544534E+04  0.00000000000E+00 0. -1.
<mgrwt>
<rscale>  0 0.20474277E+04</rscale>
<asrwt>0</asrwt>
<pdfrwt beam="1">  1        1 0.19428692E+00 0.20474277E+04</pdfrwt>
<pdfrwt beam="2">  1       -1 0.12766941E+00 0.20474277E+04</pdfrwt>
<totfact> 0.47173672E+00</totfact>
</mgrwt>
</event>
<event>
 6    1  0.9512547E-007  0.4061256E+04  0.7818608E-02  0.7992302E-01
          2   -1    0    0  501    0  0.00000000000E+00  0.00000000000E+00  0.20624828226E+04  0.20624828226E+04  0.00000000000E+00 0. -1.
         -2   -1    0    0    0  501 -0.00000000000E+00 -0.00000000000E+00 -0.19992654878E+04  0.19992654878E+04  0.00000000000E+00 0.  1.
         23    2    1    2    0    0 -0.74560158406E+03  0.13893790511E+04  0.13096393510E+04  0.20518070894E+04  0.91984958069E+02 0.  0.
         13    1    3    3    0    0 -0.28784904005E+03  0.60346959448E+03  0.59732696200E+03  0.89656685241E+03  0.00000000000E+00 0.  1.
        -13    1    3    3    0    0 -0.45775254401E+03  0.78590945663E+03  0.71231238898E+03  0.11552402369E+04  0.00000000000E+00 0. -1.
         22    1    1    2    0    0  0.74560158406E+03 -0.13893790511E+04 -0.12464220161E+04  0.20099412210E+04  0.00000000000E+00 0.  1.
<mgrwt>
<rscale>  0 0.40612563E+04</rscale>
<asrwt>0</asrwt>
<pdfrwt beam="1">  1        2 0.31730505E+00 0.40612563E+04</pdfrwt>
<pdfrwt beam="2">  1       -2 0.30757930E+00 0.40612563E+04</pdfrwt>
<totfact> 0.13823392E-01</totfact>
</mgrwt>
</event>
<event>
 6    1  0.9512547E-007  0.2290957E+04  0.7818608E-02  0.8481495E-01
         -1   -1    0    0    0  501 -0.00000000000E+00  0.00000000000E+00  0.32292372438E+03  0.32292372438E+03  0.00000000000E+00 0.  1.
          1   -1    0    0  501    0  0.00000000000E+00 -0.00000000000E+00 -0.40632521210E+04  0.40632521210E+04  0.00000000000E+00 0. -1.
         23    2    1    2    0    0  0.20092863203E+03 -0.71927507660E+03 -0.21656562668E+03  0.78414405626E+03  0.10125353983E+03 0.  0.
         13    1    3    3    0    0  0.14829262272E+03 -0.35119277806E+03 -0.12528039811E+03  0.40127577483E+03  0.00000000000E+00 0.  1.
        -13    1    3    3    0    0  0.52636009312E+02 -0.36808229854E+03 -0.91285228571E+02  0.38286828144E+03  0.00000000000E+00 0. -1.
         22    1    1    2    0    0 -0.20092863203E+03  0.71927507660E+03 -0.35237627699E+04  0.36020317891E+04  0.00000000000E+00 0. -1.
<mgrwt>
<rscale>  0 0.22909566E+04</rscale>
<asrwt>0</asrwt>
<pdfrwt beam="1">  1        1 0.62511573E+00 0.22909566E+04</pdfrwt>
<pdfrwt beam="2">  1       -1 0.49680572E-01 0.22909566E+04</pdfrwt>
<totfact> 0.31142355E-01</totfact>
</mgrwt>
</event>
<event>
 6    1  0.9512547E-007  0.1930750E+04  0.7818608E-02  0.8639700E-01
         -2   -1    0    0    0  501 -0.00000000000E+00  0.00000000000E+00  0.28819330439E+03  0.28819330439E+03  0.00000000000E+00 0.  1.
          2   -1    0    0  501    0  0.00000000000E+00 -0.00000000000E+00 -0.32337616954E+04  0.32337616954E+04  0.00000000000E+00 0. -1.
         23    2    1    2    0    0 -0.92614730193E+03 -0.54468885154E+02 -0.19488055048E+04  0.21602458033E+04  0.90018615337E+02 0.  0.
         13    1    3    3    0    0 -0.33750998135E+03  0.26212948137E+01 -0.62406576913E+03  0.70949132686E+03  0.00000000000E+00 0.  1.
        -13    1    3    3    0    0 -0.58863732057E+03 -0.57090179968E+02 -0.13247397356E+04  0.14507544765E+04  0.00000000000E+00 0. -1.
         22    1    1    2    0    0  0.92614730193E+03  0.54468885154E+02 -0.99676288621E+03  0.13617091964E+04  0.00000000000E+00 0. -1.
<mgrwt>
<rscale>  0 0.19307496E+04</rscale>
<asrwt>0</asrwt>
<pdfrwt beam="1">  1        2 0.49750177E+00 0.19307496E+04</pdfrwt>
<pdfrwt beam="2">  1       -2 0.44337434E-01 0.19307496E+04</pdfrwt>
<totfact> 0.55783701E+00</totfact>
</mgrwt>
</event>
<event>
 6    1  0.9512547E-007  0.4248403E+04  0.7818608E-02  0.7956228E-01
          1   -1    0    0  501    0  0.00000000000E+00  0.00000000000E+00  0.25207693178E+04  0.25207693178E+04  0.00000000000E+00 0. -1.
         -1   -1    0    0    0  501 -0.00000000000E+00 -0.00000000000E+00 -0.17900216499E+04  0.17900216499E+04  0.00000000000E+00 0.  1.
         23    2    1    2    0    0  0.71373088026E+03  0.19707118606E+04  0.21559279271E+02  0.20980855699E+04  0.91549163650E+02 0.  0.
         13    1    3    3    0    0  0.41576146489E+03  0.10804501310E+04  0.51196240591E+02  0.11588145392E+04  0.00000000000E+00 0.  1.
        -13    1    3    3    0    0  0.29796941537E+03  0.89026172957E+03 -0.29636961320E+02  0.93927103070E+03  0.00000000000E+00 0. -1.
         22    1    1    2    0    0 -0.71373088026E+03 -0.19707118606E+04  0.70918838859E+03  0.22127053978E+04  0.00000000000E+00 0. -1.
<mgrwt>
<rscale>  0 0.42484028E+04</rscale>
<asrwt>0</asrwt>
<pdfrwt beam="1">  1        1 0.38781066E+00 0.42484028E+04</pdfrwt>
<pdfrwt beam="2">  1       -1 0.27538795E+00 0.42484028E+04</pdfrwt>
<totfact> 0.47919421E-02</totfact>
</mgrwt>
</event>
<event>
 6    1  0.9512547E-007  0.2543593E+04  0.7818608E-02  0.8387618E-01
         -2   -1    0    0    0  501 -0.00000000000E+00  0.00000000000E+00  0.64141983425E+03  0.64141983425E+03  0.00000000000E+00 0.  1.
          2   -1    0    0  501    0  0.00000000000E+00 -0.00000000000E+00 -0.25216963016E+04  0.25216963016E+04  0.00000000000E+00 0. -1.
         23    2    1    2    0    0  0.11603276749E+04  0.38590953283E+03 -0.51411893646E+03  0.13296295992E+04  0.91159802307E+02 0.  0.
         13    1    3    3    0    0  0.21590779817E+03  0.75362260416E+02 -0.13546198251E+03  0.26579239325E+03  0.00000000000E+00 0. -1.
        -13    1    3    3    0    0  0.94441987677E+03  0.31054727241E+03 -0.37865695395E+03  0.10638372060E+04  0.00000000000E+00 0.  1.
         22    1    1    2    0    0 -0.11603276749E+04 -0.38590953283E+03 -0.13661575308E+04  0.18334865366E+04  0.00000000000E+00 0. -1.
<mgrwt>
<rscale>  0 0.25435928E+04</rscale>
<asrwt>0</asrwt>
<pdfrwt beam="1">  1        2 0.38795328E+00 0.25435928E+04</pdfrwt>
<pdfrwt beam="2">  1       -2 0.98679975E-01 0.25435928E+04</pdfrwt>
<totfact> 0.25610261E+00</totfact>
</mgrwt>
</event>
<event>
 6    1  0.9512547E-007  0.3694902E+04  0.7818608E-02  0.8069092E-01
          2   -1    0    0  501    0  0.00000000000E+00  0.00000000000E+00  0.37521991351E+04  0.37521991351E+04  0.00000000000E+00 0. -1.
         -2   -1    0    0    0  501 -0.00000000000E+00 -0.00000000000E+00 -0.90962011004E+03  0.90962011004E+03  0.00000000000E+00 0.  1.
         23    2    1    2    0    0 -0.14671331211E+04 -0.20425770177E+03  0.28127196487E+04  0.31802348276E+04  0.91109453591E+02 0.  0.
         11    1    3    3    0    0 -0.22342971141E+03 -0.39937414765E+02  0.36645135863E+03  0.43104806145E+03  0.00000000000E+00 0.  1.
        -11    1    3    3    0    0 -0.12437034097E+04 -0.16432028701E+03  0.24462682901E+04  0.27491867661E+04  0.00000000000E+00 0. -1.
         22    1    1    2    0    0  0.14671331211E+04  0.20425770177E+03  0.29859376320E+02  0.14815844175E+04  0.00000000000E+00 0.  1.
<mgrwt>
<rscale>  0 0.36949023E+04</rscale>
<asrwt>0</asrwt>
<pdfrwt beam="1">  1        2 0.57726140E+00 0.36949023E+04</pdfrwt>
<pdfrwt beam="2">  1       -2 0.13994156E+00 0.36949023E+04</pdfrwt>
<totfact> 0.15482577E-01</totfact>
</mgrwt>
</event>
<event>
 6    1  0.9627153E-007  0.3588269E+04  0.7818608E-02  0.8093184E-01
         -3   -1    0    0    0  501 -0.00000000000E+00  0.00000000000E+00  0.11248058652E+04  0.11248058652E+04  0.00000000000E+00 0.  1.
          3   -1    0    0  501    0  0.00000000000E+00 -0.00000000000E+00 -0.28617540948E+04  0.28617540948E+04  0.00000000000E+00 0. -1.
         23    2    1    2    0    0 -0.85914644290E+03 -0.64505176336E+03  0.72587005340E+03  0.12996103359E+04  0.88742903389E+02 0.  0.
         11    1    3    3    0    0 -0.40699036834E+03 -0.30879275145E+03  0.39862158083E+03  0.64799173449E+03  0.00000000000E+00 0. -1.
        -11    1    3    3    0    0 -0.45215607456E+03 -0.33625901191E+03  0.32724847257E+03  0.65161860137E+03  0.00000000000E+00 0.  1.
         22    1    1    2    0    0  0.85914644290E+03  0.64505176336E+03 -0.24628182829E+04  0.26869496241E+04  0.00000000000E+00 0. -1.
<mgrwt>
<rscale>  0 0.35882685E+04</rscale>
<asrwt>0</asrwt>
<pdfrwt beam="1">  1        3 0.44026985E+00 0.35882685E+04</pdfrwt>
<pdfrwt beam="2">  1       -3 0.17304706E+00 0.35882685E+04</pdfrwt>
<totfact> 0.31830883E-03</totfact>
</mgrwt>
</event>
<event>
 6    1  0.9512547E-007  0.6468379E+03  0.7818608E-02  0.9812731E-01
         -2   -1    0    0    0  501 -0.00000000000E+00  0.00000000000E+00  0.82995745304E+02  0.82995745304E+02  0.00000000000E+00 0.  1.
          2   -1    0    0  501    0  0.00000000000E+00 -0.00000000000E+00 -0.12603034590E+04  0.12603034590E+04  0.00000000000E+00 0. -1.
         23    2    1    2    0    0  0.21441197421E+03 -0.18921926331E+03 -0.31665410519E+03  0.43638076358E+03  0.91552849227E+02 0.  0.
         11    1    3    3    0    0  0.18085468881E+01 -0.17972716857E+02  0.30271962137E+00  0.18066018716E+02  0.00000000000E+00 0.  1.
        -11    1    3    3    0    0  0.21260342732E+03 -0.17124654645E+03 -0.31695682481E+03  0.41831474486E+03  0.00000000000E+00 0. -1.
         22    1    1    2    0    0 -0.21441197421E+03  0.18921926331E+03 -0.86065360856E+03  0.90691844077E+03  0.00000000000E+00 0. -1.
<mgrwt>
<rscale>  0 0.64683792E+03</rscale>
<asrwt>0</asrwt>
<pdfrwt beam="1">  1        2 0.19389284E+00 0.64683792E+03</pdfrwt>
<pdfrwt beam="2">  1       -2 0.12768576E-01 0.64683792E+03</pdfrwt>
<totfact> 0.81044523E+02</totfact>
</mgrwt>
</event>
<event>
 6    1  0.9512547E-007  0.3320894E+04  0.7818608E-02  0.8157599E-01
         -2   -1    0    0    0  501 -0.00000000000E+00  0.00000000000E+00  0.14760926493E+04  0.14760926493E+04  0.00000000000E+00 0.  1.
          2   -1    0    0  501    0  0.00000000000E+00 -0.00000000000E+00 -0.18678261469E+04  0.18678261469E+04  0.00000000000E+00 0. -1.
         23    2    1    2    0    0 -0.18049679611E+03  0.11052909211E+04  0.10365062192E+04  0.15289488785E+04  0.95354164550E+02 0.  0.
         13    1    3    3    0    0 -0.64562293992E+02  0.17625357152E+03  0.16865826519E+03  0.25234742261E+03  0.00000000000E+00 0. -1.
        -13    1    3    3    0    0 -0.11593450212E+03  0.92903734962E+03  0.86784795405E+03  0.12766014559E+04  0.00000000000E+00 0.  1.
         22    1    1    2    0    0  0.18049679611E+03 -0.11052909211E+04 -0.14282397168E+04  0.18149699178E+04  0.00000000000E+00 0. -1.
<mgrwt>
<rscale>  0 0.33208941E+04</rscale>
<asrwt>0</asrwt>
<pdfrwt beam="1">  1        2 0.28735787E+00 0.33208941E+04</pdfrwt>
<pdfrwt beam="2">  1       -2 0.22709118E+00 0.33208941E+04</pdfrwt>
<totfact> 0.58827995E-01</totfact>
</mgrwt>
</event>
<event>
 6    1  0.9512547E-007  0.3908499E+04  0.7818608E-02  0.8023264E-01
          2   -1    0    0  501    0  0.00000000000E+00  0.00000000000E+00  0.34211332064E+04  0.34211332064E+04  0.00000000000E+00 0. -1.
         -2   -1    0    0    0  501 -0.00000000000E+00 -0.00000000000E+00 -0.11163232220E+04  0.11163232220E+04  0.00000000000E+00 0.  1.
         23    2    1    2    0    0 -0.14345557604E+04  0.12322336019E+04  0.17203370434E+04  0.25580730653E+04  0.88478160394E+02 0.  0.
         13    1    3    3    0    0 -0.95504737959E+03  0.76707544062E+03  0.11299430364E+04  0.16665207752E+04  0.00000000000E+00 0. -1.
        -13    1    3    3    0    0 -0.47950838084E+03  0.46515816125E+03  0.59039400707E+03  0.89155229003E+03  0.00000000000E+00 0.  1.
         22    1    1    2    0    0  0.14345557604E+04 -0.12322336019E+04  0.58447294092E+03  0.19793833631E+04  0.00000000000E+00 0. -1.
<mgrwt>
<rscale>  0 0.39084987E+04</rscale>
<asrwt>0</asrwt>
<pdfrwt beam="1">  1        2 0.52632818E+00 0.39084987E+04</pdfrwt>
<pdfrwt beam="2">  1       -2 0.17174204E+00 0.39084987E+04</pdfrwt>
<totfact> 0.15156712E-01</totfact>
</mgrwt>
</event>
<event>
 6    1  0.9512547E-007  0.3017962E+04  0.7818608E-02  0.8238620E-01
         -2   -1    0    0    0  501 -0.00000000000E+00  0.00000000000E+00  0.14465079596E+04  0.14465079596E+04  0.00000000000E+00 0.  1.
          2   -1    0    0  501    0  0.00000000000E+00 -0.00000000000E+00 -0.15741518676E+04  0.15741518676E+04  0.00000000000E+00 0. -1.
         23    2    1    2    0    0  0.67447425148E+03  0.11953826291E+04  0.56074118657E+03  0.14851699430E+04  0.86278243107E+02 0.  0.
         13    1    3    3    0    0  0.35931460271E+03  0.66617813374E+03  0.35270230461E+03  0.83504443311E+03  0.00000000000E+00 0. -1.
        -13    1    3    3    0    0  0.31515964877E+03  0.52920449540E+03  0.20803888196E+03  0.65012550986E+03  0.00000000000E+00 0.  1.
         22    1    1    2    0    0 -0.67447425148E+03 -0.11953826291E+04 -0.68838509461E+03  0.15354898842E+04  0.00000000000E+00 0. -1.
<mgrwt>
<rscale>  0 0.30179617E+04</rscale>
<asrwt>0</asrwt>
<pdfrwt beam="1">  1        2 0.24217721E+00 0.30179617E+04</pdfrwt>
<pdfrwt beam="2">  1       -2 0.22253969E+00 0.30179617E+04</pdfrwt>
<totfact> 0.93876216E-01</totfact>
</mgrwt>
</event>
<event>
 6    1  0.9512547E-007  0.1814306E+04  0.7818608E-02  0.8698728E-01
         -1   -1    0    0    0  501 -0.00000000000E+00  0.00000000000E+00  0.47435151213E+03  0.47435151213E+03  0.00000000000E+00 0.  1.
          1   -1    0    0  501    0  0.00000000000E+00 -0.00000000000E+00 -0.17348458780E+04  0.17348458780E+04  0.00000000000E+00 0. -1.
         23    2    1    2    0    0 -0.56148629872E+03  0.31892849754E+03 -0.14038332935E+04  0.15477381712E+04  0.88109480068E+02 0.  0.
         11    1    3    3    0    0 -0.32766217855E+03  0.23165663082E+03 -0.90380680070E+03  0.98888524655E+03  0.00000000000E+00 0.  1.
        -11    1    3    3    0    0 -0.23382412017E+03  0.87271866721E+02 -0.50002649278E+03  0.55885292464E+03  0.00000000000E+00 0. -1.
         22    1    1    2    0    0  0.56148629872E+03 -0.31892849754E+03  0.14333892759E+03  0.66145921896E+03  0.00000000000E+00 0.  1.
<mgrwt>
<rscale>  0 0.18143062E+04</rscale>
<asrwt>0</asrwt>
<pdfrwt beam="1">  1        1 0.26689937E+00 0.18143062E+04</pdfrwt>
<pdfrwt beam="2">  1       -1 0.72977155E-01 0.18143062E+04</pdfrwt>
<totfact> 0.80490459E+00</totfact>
</mgrwt>
</event>
<event>
 6    1  0.9512547E-007  0.3532197E+04  0.7818608E-02  0.8106202E-01
         -1   -1    0    0    0  501 -0.00000000000E+00  0.00000000000E+00  0.16488726308E+04  0.16488726308E+04  0.00000000000E+00 0.  1.
          1   -1    0    0  501    0  0.00000000000E+00 -0.00000000000E+00 -0.18916586916E+04  0.18916586916E+04  0.00000000000E+00 0. -1.
         23    2    1    2    0    0 -0.14429243911E+04 -0.45431430396E+03  0.78982447872E+03  0.17089427191E+04  0.90720587375E+02 0.  0.
         13    1    3    3    0    0 -0.65773820656E+03 -0.24743494864E+03  0.33962719105E+03  0.78050639400E+03  0.00000000000E+00 0. -1.
        -13    1    3    3    0    0 -0.78518618451E+03 -0.20687935533E+03  0.45019728767E+03  0.92843632513E+03  0.00000000000E+00 0.  1.
         22    1    1    2    0    0  0.14429243911E+04  0.45431430396E+03 -0.10326105395E+04  0.18315886032E+04  0.00000000000E+00 0. -1.
<mgrwt>
<rscale>  0 0.35321972E+04</rscale>
<asrwt>0</asrwt>
<pdfrwt beam="1">  1        1 0.29102441E+00 0.35321972E+04</pdfrwt>
<pdfrwt beam="2">  1       -1 0.25367271E+00 0.35321972E+04</pdfrwt>
<totfact> 0.18948820E-01</totfact>
</mgrwt>
</event>
<event>
 6    1  0.9512547E-007  0.4949307E+04  0.7818608E-02  0.7836375E-01
          2   -1    0    0  501    0  0.00000000000E+00  0.00000000000E+00  0.17358014774E+04  0.17358014774E+04  0.00000000000E+00 0. -1.
         -2   -1    0    0    0  501 -0.00000000000E+00 -0.00000000000E+00 -0.35280008656E+04  0.35280008656E+04  0.00000000000E+00 0.  1.
         23    2    1    2    0    0 -0.60461139877E+03 -0.15306075310E+03  0.16497362564E+04  0.17658167056E+04  0.86581661610E+02 0.  0.
         11    1    3    3    0    0 -0.52668643976E+03 -0.10209249994E+03  0.13967993020E+04  0.14962853252E+04  0.00000000000E+00 0.  1.
        -11    1    3    3    0    0 -0.77924959007E+02 -0.50968253160E+02  0.25293695445E+03  0.26953138035E+03  0.00000000000E+00 0. -1.
         22    1    1    2    0    0  0.60461139877E+03  0.15306075310E+03 -0.34419356447E+04  0.34979856374E+04  0.00000000000E+00 0.  1.
<mgrwt>
<rscale>  0 0.49493067E+04</rscale>
<asrwt>0</asrwt>
<pdfrwt beam="1">  1        2 0.26704638E+00 0.49493067E+04</pdfrwt>
<pdfrwt beam="2">  1       -2 0.54276936E+00 0.49493067E+04</pdfrwt>
<totfact> 0.64382000E-03</totfact>
</mgrwt>
</event>
<event>
 6    1  0.9512547E-007  0.2125866E+04  0.7818608E-02  0.8549934E-01
         -1   -1    0    0    0  501 -0.00000000000E+00  0.00000000000E+00  0.13220918755E+04  0.13220918755E+04  0.00000000000E+00 0.  1.
          1   -1    0    0  501    0  0.00000000000E+00 -0.00000000000E+00 -0.85457495732E+03  0.85457495732E+03  0.00000000000E+00 0. -1.
         23    2    1    2    0    0 -0.72323581321E+03  0.80847654593E+02  0.10245154275E+04  0.12602314973E+04  0.94578965697E+02 0.  0.
         11    1    3    3    0    0 -0.58782166960E+03  0.75908022214E+02  0.89000294505E+03  0.10692995770E+04  0.00000000000E+00 0.  1.
        -11    1    3    3    0    0 -0.13541414360E+03  0.49396323794E+01  0.13451248246E+03  0.19093192031E+03  0.00000000000E+00 0. -1.
         22    1    1    2    0    0  0.72323581321E+03 -0.80847654593E+02 -0.55699850935E+03  0.91643533552E+03  0.00000000000E+00 0. -1.
<mgrwt>
<rscale>  0 0.21258660E+04</rscale>
<asrwt>0</asrwt>
<pdfrwt beam="1">  1        1 0.13147307E+00 0.21258660E+04</pdfrwt>
<pdfrwt beam="2">  1       -1 0.20339875E+00 0.21258660E+04</pdfrwt>
<totfact> 0.25974756E+00</totfact>
</mgrwt>
</event>
<event>
 6    1  0.9512547E-007  0.2544435E+04  0.7818608E-02  0.8387324E-01
         -1   -1    0    0    0  501 -0.00000000000E+00  0.00000000000E+00  0.76891438844E+03  0.76891438844E+03  0.00000000000E+00 0.  1.
          1   -1    0    0  501    0  0.00000000000E+00 -0.00000000000E+00 -0.21049637162E+04  0.21049637162E+04  0.00000000000E+00 0. -1.
         23    2    1    2    0    0  0.73741599069E+03 -0.96128127616E+03 -0.11015430595E+04  0.16398451938E+04  0.88606502979E+02 0.  0.
         13    1    3    3    0    0  0.32083132202E+03 -0.37220755199E+03 -0.40168624278E+03  0.63468341445E+03  0.00000000000E+00 0. -1.
        -13    1    3    3    0    0  0.41658466868E+03 -0.58907372417E+03 -0.69985681675E+03  0.10051617793E+04  0.00000000000E+00 0.  1.
         22    1    1    2    0    0 -0.73741599069E+03  0.96128127616E+03 -0.23450626823E+03  0.12340329109E+04  0.00000000000E+00 0.  1.
<mgrwt>
<rscale>  0 0.25444346E+04</rscale>
<asrwt>0</asrwt>
<pdfrwt beam="1">  1        1 0.32384057E+00 0.25444346E+04</pdfrwt>
<pdfrwt beam="2">  1       -1 0.11829452E+00 0.25444346E+04</pdfrwt>
<totfact> 0.14345151E+00</totfact>
</mgrwt>
</event>
<event>
 6    1  0.9512547E-007  0.6959025E+03  0.7818608E-02  0.9724265E-01
          1   -1    0    0  501    0  0.00000000000E+00  0.00000000000E+00  0.29925941170E+03  0.29925941170E+03  0.00000000000E+00 0. -1.
         -1   -1    0    0    0  501 -0.00000000000E+00 -0.00000000000E+00 -0.40456564771E+03  0.40456564771E+03  0.00000000000E+00 0.  1.
         23    2    1    2    0    0  0.32902274342E+02 -0.17687122901E+03  0.24080313041E+03  0.31375111150E+03  0.89931201718E+02 0.  0.
         13    1    3    3    0    0  0.64188094557E+02 -0.11529400526E+03  0.15323790381E+03  0.20222431678E+03  0.00000000000E+00 0. -1.
        -13    1    3    3    0    0 -0.31285820215E+02 -0.61577223748E+02  0.87565226599E+02  0.11152679472E+03  0.00000000000E+00 0.  1.
         22    1    1    2    0    0 -0.32902274342E+02  0.17687122901E+03 -0.34610936643E+03  0.39007394791E+03  0.00000000000E+00 0.  1.
<mgrwt>
<rscale>  0 0.69590252E+03</rscale>
<asrwt>0</asrwt>
<pdfrwt beam="1">  1        1 0.46039909E-01 0.69590252E+03</pdfrwt>
<pdfrwt beam="2">  1       -1 0.62240869E-01 0.69590252E+03</pdfrwt>
<totfact> 0.23361054E+02</totfact>
</mgrwt>
</event>
<event>
 6    1  0.9512547E-007  0.1538150E+04  0.7818608E-02  0.8859473E-01
         -2   -1    0    0    0  501 -0.00000000000E+00  0.00000000000E+00  0.84688189734E+03  0.84688189734E+03  0.00000000000E+00 0.  1.
          2   -1    0    0  501    0  0.00000000000E+00 -0.00000000000E+00 -0.69841637014E+03  0.69841637014E+03  0.00000000000E+00 0. -1.
         23    2    1    2    0    0  0.10855006887E+03 -0.74294645213E+03 -0.73451799801E+02  0.76235519917E+03  0.10971661054E+03 0.  0.
         11    1    3    3    0    0  0.12033024811E+03 -0.47882636482E+03 -0.63543476172E+02  0.49778693195E+03  0.00000000000E+00 0.  1.
        -11    1    3    3    0    0 -0.11780179244E+02 -0.26412008731E+03 -0.99083236293E+01  0.26456826722E+03  0.00000000000E+00 0. -1.
         22    1    1    2    0    0 -0.10855006887E+03  0.74294645213E+03  0.22191732700E+03  0.78294306830E+03  0.00000000000E+00 0.  1.
<mgrwt>
<rscale>  0 0.15381498E+04</rscale>
<asrwt>0</asrwt>
<pdfrwt beam="1">  1        2 0.10744867E+00 0.15381498E+04</pdfrwt>
<pdfrwt beam="2">  1       -2 0.13028952E+00 0.15381498E+04</pdfrwt>
<totfact> 0.17091462E+01</totfact>
</mgrwt>
</event>
<event>
 6    1  0.9512547E-007  0.1246851E+04  0.7818608E-02  0.9072808E-01
         -2   -1    0    0    0  501 -0.00000000000E+00  0.00000000000E+00  0.46580909419E+03  0.46580909419E+03  0.00000000000E+00 0.  1.
          2   -1    0    0  501    0  0.00000000000E+00 -0.00000000000E+00 -0.83437464665E+03  0.83437464665E+03  0.00000000000E+00 0. -1.
         23    2    1    2    0    0 -0.19121955548E+03  0.15206937792E+03  0.40906461129E+03  0.48507719219E+03  0.90972589680E+02 0.  0.
         13    1    3    3    0    0 -0.13673205505E+03  0.51689427592E+02  0.24135087543E+03  0.28216608031E+03  0.00000000000E+00 0. -1.
        -13    1    3    3    0    0 -0.54487500436E+02  0.10037995033E+03  0.16771373585E+03  0.20291111188E+03  0.00000000000E+00 0.  1.
         22    1    1    2    0    0  0.19121955548E+03 -0.15206937792E+03 -0.77763016374E+03  0.81510654865E+03  0.00000000000E+00 0. -1.
<mgrwt>
<rscale>  0 0.12468509E+04</rscale>
<asrwt>0</asrwt>
<pdfrwt beam="1">  1        2 0.12836533E+00 0.12468509E+04</pdfrwt>
<pdfrwt beam="2">  1       -2 0.71662939E-01 0.12468509E+04</pdfrwt>
<totfact> 0.56561328E+01</totfact>
</mgrwt>
</event>
<event>
 6    1  0.9512547E-007  0.6441470E+03  0.7818608E-02  0.9817824E-01
         -2   -1    0    0    0  501 -0.00000000000E+00  0.00000000000E+00  0.11451323054E+03  0.11451323054E+03  0.00000000000E+00 0.  1.
          2   -1    0    0  501    0  0.00000000000E+00 -0.00000000000E+00 -0.90584587173E+03  0.90584587173E+03  0.00000000000E+00 0. -1.
         23    2    1    2    0    0 -0.21332093649E+03  0.23139954071E+03 -0.44156444595E+03  0.54983879474E+03  0.91060259683E+02 0.  0.
         11    1    3    3    0    0 -0.15949513701E+03  0.19616697584E+03 -0.40015138490E+03  0.47333002438E+03  0.00000000000E+00 0. -1.
        -11    1    3    3    0    0 -0.53825799484E+02  0.35232564872E+02 -0.41413061043E+02  0.76508770364E+02  0.00000000000E+00 0.  1.
         22    1    1    2    0    0  0.21332093649E+03 -0.23139954071E+03 -0.34976819524E+03  0.47052030752E+03  0.00000000000E+00 0.  1.
<mgrwt>
<rscale>  0 0.64414699E+03</rscale>
<asrwt>0</asrwt>
<pdfrwt beam="1">  1        2 0.13936091E+00 0.64414699E+03</pdfrwt>
<pdfrwt beam="2">  1       -2 0.17617420E-01 0.64414699E+03</pdfrwt>
<totfact> 0.77841916E+02</totfact>
</mgrwt>
</event>
<event>
 6    1  0.9512547E-007  0.1639458E+04  0.7818608E-02  0.8796668E-01
         -1   -1    0    0    0  501 -0.00000000000E+00  0.00000000000E+00  0.42103194879E+03  0.42103194879E+03  0.00000000000E+00 0.  1.
          1   -1    0    0  501    0  0.00000000000E+00 -0.00000000000E+00 -0.15959725682E+04  0.15959725682E+04  0.00000000000E+00 0. -1.
         23    2    1    2    0    0 -0.62666640937E+03 -0.47357594782E+03 -0.31046093214E+03  0.84896766111E+03  0.85878590070E+02 0.  0.
         13    1    3    3    0    0 -0.33879635776E+03 -0.28159558935E+03 -0.13349633538E+03  0.46032631853E+03  0.00000000000E+00 0.  1.
        -13    1    3    3    0    0 -0.28787005162E+03 -0.19198035847E+03 -0.17696459675E+03  0.38864134258E+03  0.00000000000E+00 0. -1.
         22    1    1    2    0    0  0.62666640937E+03  0.47357594782E+03 -0.86447968725E+03  0.11680368559E+04  0.00000000000E+00 0. -1.
<mgrwt>
<rscale>  0 0.16394578E+04</rscale>
<asrwt>0</asrwt>
<pdfrwt beam="1">  1        1 0.24553424E+00 0.16394578E+04</pdfrwt>
<pdfrwt beam="2">  1       -1 0.64774146E-01 0.16394578E+04</pdfrwt>
<totfact> 0.12979264E+01</totfact>
</mgrwt>
</event>
<event>
 6    1  0.9512547E-007  0.4618140E+04  0.7818608E-02  0.7890274E-01
         -2   -1    0    0    0  501 -0.00000000000E+00  0.00000000000E+00  0.36613082093E+04  0.36613082093E+04  0.00000000000E+00 0.  1.
          2   -1    0    0  501    0  0.00000000000E+00 -0.00000000000E+00 -0.14562563128E+04  0.14562563128E+04  0.00000000000E+00 0. -1.
         23    2    1    2    0    0  0.93629680066E+03 -0.66249694969E+03 -0.11166526692E+04  0.16034109784E+04  0.91976490519E+02 0.  0.
         13    1    3    3    0    0  0.83649484180E+03 -0.62200227164E+03 -0.99722988141E+03  0.14425941504E+04  0.00000000000E+00 0.  1.
        -13    1    3    3    0    0  0.99801958851E+02 -0.40494678051E+02 -0.11942278780E+03  0.16081682806E+03  0.00000000000E+00 0. -1.
         22    1    1    2    0    0 -0.93629680066E+03  0.66249694969E+03  0.33217045656E+04  0.35141535437E+04  0.00000000000E+00 0.  1.
<mgrwt>
<rscale>  0 0.46181395E+04</rscale>
<asrwt>0</asrwt>
<pdfrwt beam="1">  1        2 0.22403943E+00 0.46181395E+04</pdfrwt>
<pdfrwt beam="2">  1       -2 0.56327818E+00 0.46181395E+04</pdfrwt>
<totfact> 0.74452941E-03</totfact>
</mgrwt>
</event>
<event>
 6    1  0.9512547E-007  0.4608060E+04  0.7818608E-02  0.7891987E-01
          2   -1    0    0  501    0  0.00000000000E+00  0.00000000000E+00  0.20445392360E+04  0.20445392360E+04  0.00000000000E+00 0. -1.
         -2   -1    0    0    0  501 -0.00000000000E+00 -0.00000000000E+00 -0.25964550591E+04  0.25964550591E+04  0.00000000000E+00 0.  1.
         23    2    1    2    0    0 -0.99433973819E+03 -0.11809900406E+04 -0.19973433043E+04  0.25261161439E+04  0.91834123307E+02 0.  0.
         11    1    3    3    0    0 -0.11790254474E+03 -0.10344232702E+03 -0.17968872488E+03  0.23851491132E+03  0.00000000000E+00 0. -1.
        -11    1    3    3    0    0 -0.87643719345E+03 -0.10775477136E+04 -0.18176545794E+04  0.22876012325E+04  0.00000000000E+00 0.  1.
         22    1    1    2    0    0  0.99433973819E+03  0.11809900406E+04  0.14454274812E+04  0.21148781512E+04  0.00000000000E+00 0. -1.
<mgrwt>
<rscale>  0 0.46080600E+04</rscale>
<asrwt>0</asrwt>
<pdfrwt beam="1">  1        2 0.31454450E+00 0.46080600E+04</pdfrwt>
<pdfrwt beam="2">  1       -2 0.39945462E+00 0.46080600E+04</pdfrwt>
<totfact> 0.35479559E-02</totfact>
</mgrwt>
</event>
<event>
 6    1  0.9512547E-007  0.3052548E+04  0.7818608E-02  0.8228883E-01
         -2   -1    0    0    0  501 -0.00000000000E+00  0.00000000000E+00  0.17437803736E+04  0.17437803736E+04  0.00000000000E+00 0.  1.
          2   -1    0    0  501    0  0.00000000000E+00 -0.00000000000E+00 -0.13358979580E+04  0.13358979580E+04  0.00000000000E+00 0. -1.
         23    2    1    2    0    0  0.13415555612E+03  0.45743470213E+03  0.16656304936E+04  0.17346227761E+04  0.85714724830E+02 0.  0.
         13    1    3    3    0    0 -0.12321667260E+02  0.27496694509E+02  0.10632409682E+03  0.11051110920E+03  0.00000000000E+00 0. -1.
        -13    1    3    3    0    0  0.14647722338E+03  0.42993800762E+03  0.15593063968E+04  0.16241116669E+04  0.00000000000E+00 0.  1.
         22    1    1    2    0    0 -0.13415555612E+03 -0.45743470213E+03 -0.12577480780E+04  0.13450555556E+04  0.00000000000E+00 0. -1.
<mgrwt>
<rscale>  0 0.30525482E+04</rscale>
<asrwt>0</asrwt>
<pdfrwt beam="1">  1        2 0.20552276E+00 0.30525482E+04</pdfrwt>
<pdfrwt beam="2">  1       -2 0.26827390E+00 0.30525482E+04</pdfrwt>
<totfact> 0.66683783E-01</totfact>
</mgrwt>
</event>
<event>
 6    1  0.9512547E-007  0.4854992E+04  0.7818608E-02  0.7851274E-01
          1   -1    0    0  501    0  0.00000000000E+00  0.00000000000E+00  0.21951121273E+04  0.21951121273E+04  0.00000000000E+00 0. -1.
         -1   -1    0    0    0  501 -0.00000000000E+00 -0.00000000000E+00 -0.26844807985E+04  0.26844807985E+04  0.00000000000E+00 0.  1.
         23    2    1    2    0    0  0.20651032893E+04 -0.10640065748E+04  0.46022337177E+03  0.23699143339E+04  0.89032644275E+02 0.  0.
         11    1    3    3    0    0  0.64338070230E+03 -0.30285278634E+03  0.10811181250E+03  0.71926817133E+03  0.00000000000E+00 0. -1.
        -11    1    3    3    0    0  0.14217225870E+04 -0.76115378845E+03  0.35211155927E+03  0.16506461626E+04  0.00000000000E+00 0.  1.
         22    1    1    2    0    0 -0.20651032893E+04  0.10640065748E+04 -0.94959204302E+03  0.25096785919E+04  0.00000000000E+00 0.  1.
<mgrwt>
<rscale>  0 0.48549918E+04</rscale>
<asrwt>0</asrwt>
<pdfrwt beam="1">  1        1 0.33770956E+00 0.48549918E+04</pdfrwt>
<pdfrwt beam="2">  1       -1 0.41299704E+00 0.48549918E+04</pdfrwt>
<totfact> 0.93458048E-03</totfact>
</mgrwt>
</event>
<event>
 6    1  0.9512547E-007  0.2125447E+04  0.7818608E-02  0.8550116E-01
          1   -1    0    0  501    0  0.00000000000E+00  0.00000000000E+00  0.14233903109E+04  0.14233903109E+04  0.00000000000E+00 0. -1.
         -1   -1    0    0    0  501 -0.00000000000E+00 -0.00000000000E+00 -0.79344451946E+03  0.79344451946E+03  0.00000000000E+00 0.  1.
         23    2    1    2    0    0  0.91081189891E+03 -0.28683171594E+03  0.79732010014E+03  0.12473685300E+04  0.91422967402E+02 0.  0.
         11    1    3    3    0    0  0.25576758206E+03 -0.12202978000E+03  0.25284686738E+03  0.37978923311E+03  0.00000000000E+00 0. -1.
        -11    1    3    3    0    0  0.65504431685E+03 -0.16480193594E+03  0.54447323276E+03  0.86757929685E+03  0.00000000000E+00 0.  1.
         22    1    1    2    0    0 -0.91081189891E+03  0.28683171594E+03 -0.16737430867E+03  0.96946630043E+03  0.00000000000E+00 0.  1.
<mgrwt>
<rscale>  0 0.21254470E+04</rscale>
<asrwt>0</asrwt>
<pdfrwt beam="1">  1        1 0.21898312E+00 0.21254470E+04</pdfrwt>
<pdfrwt beam="2">  1       -1 0.12206839E+00 0.21254470E+04</pdfrwt>
<totfact> 0.40296346E+00</totfact>
</mgrwt>
</event>
<event>
 6    1  0.9512547E-007  0.1083489E+04  0.7818608E-02  0.9221436E-01
          2   -1    0    0  501    0  0.00000000000E+00  0.00000000000E+00  0.51948259669E+03  0.51948259669E+03  0.00000000000E+00 0. -1.
         -2   -1    0    0    0  501 -0.00000000000E+00 -0.00000000000E+00 -0.56496050441E+03  0.56496050441E+03  0.00000000000E+00 0.  1.
         23    2    1    2    0    0 -0.23994724560E+03  0.31180496956E+03  0.34354666179E+03  0.53114649403E+03  0.96411978363E+02 0.  0.
         13    1    3    3    0    0 -0.42712068025E+02  0.11656865217E+03  0.75443617637E+02  0.14527322832E+03  0.00000000000E+00 0.  1.
        -13    1    3    3    0    0 -0.19723517758E+03  0.19523631739E+03  0.26810304416E+03  0.38587326571E+03  0.00000000000E+00 0. -1.
         22    1    1    2    0    0  0.23994724560E+03 -0.31180496956E+03 -0.38902456951E+03  0.55329660707E+03  0.00000000000E+00 0.  1.
<mgrwt>
<rscale>  0 0.10834891E+04</rscale>
<asrwt>0</asrwt>
<pdfrwt beam="1">  1        2 0.79920400E-01 0.10834891E+04</pdfrwt>
<pdfrwt beam="2">  1       -2 0.86917000E-01 0.10834891E+04</pdfrwt>
<totfact> 0.67049957E+01</totfact>
</mgrwt>
</event>
<event>
 6    1  0.9512547E-007  0.4364604E+04  0.7818608E-02  0.7934779E-01
          2   -1    0    0  501    0  0.00000000000E+00  0.00000000000E+00  0.21957732658E+04  0.21957732658E+04  0.00000000000E+00 0. -1.
         -2   -1    0    0    0  501 -0.00000000000E+00 -0.00000000000E+00 -0.21689136001E+04  0.21689136001E+04  0.00000000000E+00 0.  1.
         23    2    1    2    0    0 -0.55187646494E+03 -0.15200378481E+04 -0.14504477370E+04  0.21743627223E+04  0.94720210059E+02 0.  0.
         13    1    3    3    0    0 -0.37115360262E+03 -0.95563017555E+03 -0.86550950596E+03  0.13416746007E+04  0.00000000000E+00 0. -1.
        -13    1    3    3    0    0 -0.18072286232E+03 -0.56440767252E+03 -0.58493823103E+03  0.83268812161E+03  0.00000000000E+00 0.  1.
         22    1    1    2    0    0  0.55187646494E+03  0.15200378481E+04  0.14773074027E+04  0.21903241436E+04  0.00000000000E+00 0. -1.
<mgrwt>
<rscale>  0 0.43646042E+04</rscale>
<asrwt>0</asrwt>
<pdfrwt beam="1">  1        2 0.33781127E+00 0.43646042E+04</pdfrwt>
<pdfrwt beam="2">  1       -2 0.33367901E+00 0.43646042E+04</pdfrwt>
<totfact> 0.78320885E-02</totfact>
</mgrwt>
</event>
<event>
 6    1  0.9512547E-007  0.1545821E+04  0.7818608E-02  0.8854542E-01
         -1   -1    0    0    0  501 -0.00000000000E+00  0.00000000000E+00  0.41162282852E+03  0.41162282852E+03  0.00000000000E+00 0.  1.
          1   -1    0    0  501    0  0.00000000000E+00 -0.00000000000E+00 -0.14513054499E+04  0.14513054499E+04  0.00000000000E+00 0. -1.
         23    2    1    2    0    0 -0.61518152479E+03 -0.22201695748E+03 -0.31908334112E+02  0.66153373378E+03  0.94174844273E+02 0.  0.
         13    1    3    3    0    0 -0.32668744077E+03 -0.73637634389E+02 -0.38214677082E+02  0.33705718610E+03  0.00000000000E+00 0.  1.
        -13    1    3    3    0    0 -0.28849408402E+03 -0.14837932309E+03  0.63063429700E+01  0.32447654768E+03  0.00000000000E+00 0. -1.
         22    1    1    2    0    0  0.61518152479E+03  0.22201695748E+03 -0.10077742873E+04  0.12013945447E+04  0.00000000000E+00 0. -1.
<mgrwt>
<rscale>  0 0.15458208E+04</rscale>
<asrwt>0</asrwt>
<pdfrwt beam="1">  1        1 0.22327776E+00 0.15458208E+04</pdfrwt>
<pdfrwt beam="2">  1       -1 0.63326589E-01 0.15458208E+04</pdfrwt>
<totfact> 0.17238286E+01</totfact>
</mgrwt>
</event>
<event>
 6    1  0.9512547E-007  0.1984947E+04  0.7818608E-02  0.8613691E-01
         -1   -1    0    0    0  501 -0.00000000000E+00  0.00000000000E+00  0.33513398357E+03  0.33513398357E+03  0.00000000000E+00 0.  1.
          1   -1    0    0  501    0  0.00000000000E+00 -0.00000000000E+00 -0.29391352574E+04  0.29391352574E+04  0.00000000000E+00 0. -1.
         23    2    1    2    0    0 -0.12457846550E+03 -0.29183185473E+03 -0.28523421504E+04  0.28713315082E+04  0.89460950000E+02 0.  0.
         11    1    3    3    0    0 -0.18936239221E+02 -0.90034498199E+02 -0.53828905147E+03  0.54609513361E+03  0.00000000000E+00 0. -1.
        -11    1    3    3    0    0 -0.10564222628E+03 -0.20179735653E+03 -0.23140530990E+04  0.23252363746E+04  0.00000000000E+00 0.  1.
         22    1    1    2    0    0  0.12457846550E+03  0.29183185473E+03  0.24834087657E+03  0.40293773276E+03  0.00000000000E+00 0.  1.
<mgrwt>
<rscale>  0 0.19849475E+04</rscale>
<asrwt>0</asrwt>
<pdfrwt beam="1">  1        1 0.45217465E+00 0.19849475E+04</pdfrwt>
<pdfrwt beam="2">  1       -1 0.51559075E-01 0.19849475E+04</pdfrwt>
<totfact> 0.23311198E+00</totfact>
</mgrwt>
</event>
<event>
 6    1  0.9512547E-007  0.1166541E+04  0.7818608E-02  0.9142658E-01
         -2   -1    0    0    0  501 -0.00000000000E+00  0.00000000000E+00  0.23307733259E+03  0.23307733259E+03  0.00000000000E+00 0.  1.
          2   -1    0    0  501    0  0.00000000000E+00 -0.00000000000E+00 -0.14596207708E+04  0.14596207708E+04  0.00000000000E+00 0. -1.
         23    2    1    2    0    0  0.74942330082E+02  0.17158023906E+03 -0.14132336268E+04  0.14282943254E+04  0.87973091259E+02 0.  0.
         11    1    3    3    0    0  0.21230774779E+02  0.12678673940E+03 -0.10916724669E+04  0.10992153556E+04  0.00000000000E+00 0.  1.
        -11    1    3    3    0    0  0.53711555303E+02  0.44793499660E+02 -0.32156115995E+03  0.32907896981E+03  0.00000000000E+00 0. -1.
         22    1    1    2    0    0 -0.74942330082E+02 -0.17158023906E+03  0.18669018862E+03  0.26440377796E+03  0.00000000000E+00 0.  1.
<mgrwt>
<rscale>  0 0.11665411E+04</rscale>
<asrwt>0</asrwt>
<pdfrwt beam="1">  1        2 0.22455704E+00 0.11665411E+04</pdfrwt>
<pdfrwt beam="2">  1       -2 0.35858052E-01 0.11665411E+04</pdfrwt>
<totfact> 0.96692214E+01</totfact>
</mgrwt>
</event>
<event>
 6    1  0.9512547E-007  0.2094355E+04  0.7818608E-02  0.8563734E-01
          2   -1    0    0  501    0  0.00000000000E+00  0.00000000000E+00  0.32380425243E+04  0.32380425243E+04  0.00000000000E+00 0. -1.
         -2   -1    0    0    0  501 -0.00000000000E+00 -0.00000000000E+00 -0.33865557289E+03  0.33865557289E+03  0.00000000000E+00 0.  1.
         23    2    1    2    0    0 -0.57083692033E+03 -0.19580430505E+02  0.29472514015E+04  0.30035234393E+04  0.92865729340E+02 0.  0.
         11    1    3    3    0    0 -0.39666322403E+03 -0.34066103322E+02  0.22319473172E+04  0.22671768876E+04  0.00000000000E+00 0. -1.
        -11    1    3    3    0    0 -0.17417369630E+03  0.14485672818E+02  0.71530408431E+03  0.73634655172E+03  0.00000000000E+00 0.  1.
         22    1    1    2    0    0  0.57083692033E+03  0.19580430505E+02 -0.47864450118E+02  0.57317465790E+03  0.00000000000E+00 0.  1.
<mgrwt>
<rscale>  0 0.20943554E+04</rscale>
<asrwt>0</asrwt>
<pdfrwt beam="1">  1        2 0.49816037E+00 0.20943554E+04</pdfrwt>
<pdfrwt beam="2">  1       -2 0.52100860E-01 0.20943554E+04</pdfrwt>
<totfact> 0.39376101E+00</totfact>
</mgrwt>
</event>
<event>
 6    1  0.9512547E-007  0.2546975E+04  0.7818608E-02  0.8386439E-01
          1   -1    0    0  501    0  0.00000000000E+00  0.00000000000E+00  0.19268991772E+04  0.19268991772E+04  0.00000000000E+00 0. -1.
         -1   -1    0    0    0  501 -0.00000000000E+00 -0.00000000000E+00 -0.84164804771E+03  0.84164804771E+03  0.00000000000E+00 0.  1.
         23    2    1    2    0    0 -0.45059447340E+03 -0.47044651248E+03 -0.64410978968E+03  0.92056332635E+03  0.90576575832E+02 0.  0.
         13    1    3    3    0    0 -0.32158071094E+03 -0.36227862708E+03 -0.42640202927E+03  0.64535156919E+03  0.00000000000E+00 0.  1.
        -13    1    3    3    0    0 -0.12901376245E+03 -0.10816788540E+03 -0.21770776041E+03  0.27521175716E+03  0.00000000000E+00 0. -1.
         22    1    1    2    0    0  0.45059447340E+03  0.47044651248E+03  0.17293609191E+04  0.18479838985E+04  0.00000000000E+00 0. -1.
<mgrwt>
<rscale>  0 0.25469754E+04</rscale>
<asrwt>0</asrwt>
<pdfrwt beam="1">  1        1 0.29644602E+00 0.25469754E+04</pdfrwt>
<pdfrwt beam="2">  1       -1 0.12948432E+00 0.25469754E+04</pdfrwt>
<totfact> 0.15139624E+00</totfact>
</mgrwt>
</event>
<event>
 6    1  0.9512547E-007  0.2533343E+04  0.7818608E-02  0.8391202E-01
          1   -1    0    0  501    0  0.00000000000E+00  0.00000000000E+00  0.10159357484E+04  0.10159357484E+04  0.00000000000E+00 0. -1.
         -1   -1    0    0    0  501 -0.00000000000E+00 -0.00000000000E+00 -0.15792898341E+04  0.15792898341E+04  0.00000000000E+00 0.  1.
         23    2    1    2    0    0  0.58892987684E+02 -0.27268483827E+03  0.98188945005E+03  0.10250017164E+04  0.93253533066E+02 0.  0.
         11    1    3    3    0    0  0.22374877319E+02 -0.75880919557E+02  0.44575521424E+03  0.45272095171E+03  0.00000000000E+00 0.  1.
        -11    1    3    3    0    0  0.36518110365E+02 -0.19680391872E+03  0.53613423581E+03  0.57228076467E+03  0.00000000000E+00 0. -1.
         22    1    1    2    0    0 -0.58892987684E+02  0.27268483827E+03 -0.15452435357E+04  0.15702238661E+04  0.00000000000E+00 0.  1.
<mgrwt>
<rscale>  0 0.25333432E+04</rscale>
<asrwt>0</asrwt>
<pdfrwt beam="1">  1        1 0.15629781E+00 0.25333432E+04</pdfrwt>
<pdfrwt beam="2">  1       -1 0.24296767E+00 0.25333432E+04</pdfrwt>
<totfact> 0.10096253E+00</totfact>
</mgrwt>
</event>
<event>
 6    1  0.9512547E-007  0.3175960E+04  0.7818608E-02  0.8195195E-01
         -1   -1    0    0    0  501 -0.00000000000E+00  0.00000000000E+00  0.14731234789E+04  0.14731234789E+04  0.00000000000E+00 0.  1.
          1   -1    0    0  501    0  0.00000000000E+00 -0.00000000000E+00 -0.17117920504E+04  0.17117920504E+04  0.00000000000E+00 0. -1.
         23    2    1    2    0    0 -0.13493674419E+03  0.15087075495E+04 -0.59323064384E+03  0.16292418303E+04  0.89999722423E+02 0.  0.
         13    1    3    3    0    0 -0.62038035723E+02  0.93260937567E+03 -0.32466922843E+03  0.98945392685E+03  0.00000000000E+00 0.  1.
        -13    1    3    3    0    0 -0.72898708470E+02  0.57609817378E+03 -0.26856141541E+03  0.63978790343E+03  0.00000000000E+00 0. -1.
         22    1    1    2    0    0  0.13493674419E+03 -0.15087075495E+04  0.35456207239E+03  0.15556736990E+04  0.00000000000E+00 0.  1.
<mgrwt>
<rscale>  0 0.31759604E+04</rscale>
<asrwt>0</asrwt>
<pdfrwt beam="1">  1        1 0.26335262E+00 0.31759604E+04</pdfrwt>
<pdfrwt beam="2">  1       -1 0.22663438E+00 0.31759604E+04</pdfrwt>
<totfact> 0.38981535E-01</totfact>
</mgrwt>
</event>
<event>
 6    1  0.9512547E-007  0.1129452E+04  0.7818608E-02  0.9176953E-01
          2   -1    0    0  501    0  0.00000000000E+00  0.00000000000E+00  0.54409656496E+03  0.54409656496E+03  0.00000000000E+00 0. -1.
         -2   -1    0    0    0  501 -0.00000000000E+00 -0.00000000000E+00 -0.58613709865E+03  0.58613709865E+03  0.00000000000E+00 0.  1.
         23    2    1    2    0    0  0.11766565713E+03 -0.12094205560E+03 -0.55655202108E+03  0.58875951064E+03  0.91735606594E+02 0.  0.
         11    1    3    3    0    0  0.23555165042E+02 -0.89874878862E+02 -0.27569271477E+03  0.29092750407E+03  0.00000000000E+00 0. -1.
        -11    1    3    3    0    0  0.94110492090E+02 -0.31067176740E+02 -0.28085930631E+03  0.29783200656E+03  0.00000000000E+00 0.  1.
         22    1    1    2    0    0 -0.11766565713E+03  0.12094205560E+03  0.51451148739E+03  0.54147415297E+03  0.00000000000E+00 0. -1.
<mgrwt>
<rscale>  0 0.11294515E+04</rscale>
<asrwt>0</asrwt>
<pdfrwt beam="1">  1        2 0.83707164E-01 0.11294515E+04</pdfrwt>
<pdfrwt beam="2">  1       -2 0.90174938E-01 0.11294515E+04</pdfrwt>
<totfact> 0.58170670E+01</totfact>
</mgrwt>
</event>
<event>
 6    1  0.9512547E-007  0.2642863E+04  0.7818608E-02  0.8353786E-01
         -1   -1    0    0    0  501 -0.00000000000E+00  0.00000000000E+00  0.13621133002E+04  0.13621133002E+04  0.00000000000E+00 0.  1.
          1   -1    0    0  501    0  0.00000000000E+00 -0.00000000000E+00 -0.12819649017E+04  0.12819649017E+04  0.00000000000E+00 0. -1.
         23    2    1    2    0    0 -0.15719225784E+03  0.72158295565E+03 -0.10542836092E+04  0.12904433368E+04  0.91316531596E+02 0.  0.
         13    1    3    3    0    0 -0.15759595444E+02  0.16549861584E+03 -0.29658551705E+03  0.34000165531E+03  0.00000000000E+00 0.  1.
        -13    1    3    3    0    0 -0.14143266240E+03  0.55608433981E+03 -0.75769809219E+03  0.95044168148E+03  0.00000000000E+00 0. -1.
         22    1    1    2    0    0  0.15719225784E+03 -0.72158295565E+03  0.11344320078E+04  0.13536348651E+04  0.00000000000E+00 0.  1.
<mgrwt>
<rscale>  0 0.26428632E+04</rscale>
<asrwt>0</asrwt>
<pdfrwt beam="1">  1        1 0.19722537E+00 0.26428632E+04</pdfrwt>
<pdfrwt beam="2">  1       -1 0.20955589E+00 0.26428632E+04</pdfrwt>
<totfact> 0.10586125E+00</totfact>
</mgrwt>
</event>
<event>
 6    1  0.9512547E-007  0.1862666E+04  0.7818608E-02  0.8673666E-01
         -1   -1    0    0    0  501 -0.00000000000E+00  0.00000000000E+00  0.13899422392E+04  0.13899422392E+04  0.00000000000E+00 0.  1.
          1   -1    0    0  501    0  0.00000000000E+00 -0.00000000000E+00 -0.62404133128E+03  0.62404133128E+03  0.00000000000E+00 0. -1.
         23    2    1    2    0    0  0.20001247119E+03  0.41087769834E+03 -0.49085083841E+03  0.67672876174E+03  0.90563788408E+02 0.  0.
         11    1    3    3    0    0  0.12601662065E+02  0.11246446740E+03 -0.10887404677E+03  0.15703699047E+03  0.00000000000E+00 0. -1.
        -11    1    3    3    0    0  0.18741080913E+03  0.29841323094E+03 -0.38197679164E+03  0.51969177127E+03  0.00000000000E+00 0.  1.
         22    1    1    2    0    0 -0.20001247119E+03 -0.41087769834E+03  0.12567517463E+04  0.13372548087E+04  0.00000000000E+00 0.  1.
<mgrwt>
<rscale>  0 0.18626663E+04</rscale>
<asrwt>0</asrwt>
<pdfrwt beam="1">  1        1 0.96006359E-01 0.18626663E+04</pdfrwt>
<pdfrwt beam="2">  1       -1 0.21383727E+00 0.18626663E+04</pdfrwt>
<totfact> 0.36751269E+00</totfact>
</mgrwt>
</event>
<event>
 6    1  0.9512547E-007  0.9356825E+03  0.7818608E-02  0.9382044E-01
         -2   -1    0    0    0  501 -0.00000000000E+00  0.00000000000E+00  0.19608202803E+03  0.19608202803E+03  0.00000000000E+00 0.  1.
          2   -1    0    0  501    0  0.00000000000E+00 -0.00000000000E+00 -0.11162442195E+04  0.11162442195E+04  0.00000000000E+00 0. -1.
         23    2    1    2    0    0 -0.97777576154E+02 -0.21092804428E+03 -0.10266432579E+04  0.10566129084E+04  0.91560716958E+02 0.  0.
         11    1    3    3    0    0 -0.68572326772E+02 -0.10933410732E+03 -0.37830082007E+03  0.39970942131E+03  0.00000000000E+00 0. -1.
        -11    1    3    3    0    0 -0.29205249382E+02 -0.10159393696E+03 -0.64834243786E+03  0.65690348709E+03  0.00000000000E+00 0.  1.
         22    1    1    2    0    0  0.97777576154E+02  0.21092804428E+03  0.10648106650E+03  0.25571333908E+03  0.00000000000E+00 0.  1.
<mgrwt>
<rscale>  0 0.93568249E+03</rscale>
<asrwt>0</asrwt>
<pdfrwt beam="1">  1        2 0.17172988E+00 0.93568249E+03</pdfrwt>
<pdfrwt beam="2">  1       -2 0.30166467E-01 0.93568249E+03</pdfrwt>
<totfact> 0.21601144E+02</totfact>
</mgrwt>
</event>
<event>
 6    1  0.9512547E-007  0.6549532E+03  0.7818608E-02  0.9797529E-01
         -1   -1    0    0    0  501 -0.00000000000E+00  0.00000000000E+00  0.44432786826E+02  0.44432786826E+02  0.00000000000E+00 0.  1.
          1   -1    0    0  501    0  0.00000000000E+00 -0.00000000000E+00 -0.24135538255E+04  0.24135538255E+04  0.00000000000E+00 0. -1.
         23    2    1    2    0    0 -0.31872731331E+02  0.15347588617E+03 -0.22593256910E+04  0.22666080947E+04  0.91591257130E+02 0.  0.
         11    1    3    3    0    0 -0.41315043103E+02  0.11908315652E+03 -0.20773376825E+04  0.20811582299E+04  0.00000000000E+00 0. -1.
        -11    1    3    3    0    0  0.94423117721E+01  0.34392729648E+02 -0.18198800853E+03  0.18544986479E+03  0.00000000000E+00 0.  1.
         22    1    1    2    0    0  0.31872731331E+02 -0.15347588617E+03 -0.10979534771E+03  0.19137851765E+03  0.00000000000E+00 0.  1.
<mgrwt>
<rscale>  0 0.65495320E+03</rscale>
<asrwt>0</asrwt>
<pdfrwt beam="1">  1        1 0.37131597E+00 0.65495320E+03</pdfrwt>
<pdfrwt beam="2">  1       -1 0.68358134E-02 0.65495320E+03</pdfrwt>
<totfact> 0.18705959E+02</totfact>
</mgrwt>
</event>
<event>
 6    1  0.9512547E-007  0.2309745E+04  0.7818608E-02  0.8474089E-01
          2   -1    0    0  501    0  0.00000000000E+00  0.00000000000E+00  0.14794374733E+04  0.14794374733E+04  0.00000000000E+00 0. -1.
         -2   -1    0    0    0  501 -0.00000000000E+00 -0.00000000000E+00 -0.90151179603E+03  0.90151179603E+03  0.00000000000E+00 0.  1.
         23    2    1    2    0    0 -0.30224362636E+03 -0.32085801368E+03  0.13877846864E+04  0.14589011744E+04  0.90250907523E+02 0.  0.
         11    1    3    3    0    0 -0.23297721508E+03 -0.19154007371E+03  0.87359717465E+03  0.92419587001E+03  0.00000000000E+00 0. -1.
        -11    1    3    3    0    0 -0.69266411275E+02 -0.12931793996E+03  0.51418751176E+03  0.53470530442E+03  0.00000000000E+00 0.  1.
         22    1    1    2    0    0  0.30224362636E+03  0.32085801368E+03 -0.80985900915E+03  0.92204809490E+03  0.00000000000E+00 0.  1.
<mgrwt>
<rscale>  0 0.23097449E+04</rscale>
<asrwt>0</asrwt>
<pdfrwt beam="1">  1        2 0.22760576E+00 0.23097449E+04</pdfrwt>
<pdfrwt beam="2">  1       -2 0.13869412E+00 0.23097449E+04</pdfrwt>
<totfact> 0.43475465E+00</totfact>
</mgrwt>
</event>
<event>
 6    1  0.9512547E-007  0.2945994E+04  0.7818608E-02  0.8259323E-01
         -2   -1    0    0    0  501 -0.00000000000E+00  0.00000000000E+00  0.11764814620E+04  0.11764814620E+04  0.00000000000E+00 0.  1.
          2   -1    0    0  501    0  0.00000000000E+00 -0.00000000000E+00 -0.18442446084E+04  0.18442446084E+04  0.00000000000E+00 0. -1.
         23    2    1    2    0    0 -0.69435172028E+03  0.13408419509E+03  0.98904380062E+03  0.12193065905E+04  0.91640817020E+02 0.  0.
         11    1    3    3    0    0 -0.58750985980E+03  0.79351387346E+02  0.81142455880E+03  0.10049250184E+04  0.00000000000E+00 0.  1.
        -11    1    3    3    0    0 -0.10684186048E+03  0.54732807742E+02  0.17761924182E+03  0.21438157211E+03  0.00000000000E+00 0. -1.
         22    1    1    2    0    0  0.69435172028E+03 -0.13408419509E+03 -0.16568069470E+04  0.18014194799E+04  0.00000000000E+00 0. -1.
<mgrwt>
<rscale>  0 0.29459936E+04</rscale>
<asrwt>0</asrwt>
<pdfrwt beam="1">  1        2 0.28372994E+00 0.29459936E+04</pdfrwt>
<pdfrwt beam="2">  1       -2 0.18099715E+00 0.29459936E+04</pdfrwt>
<totfact> 0.12514903E+00</totfact>
</mgrwt>
</event>
<event>
 6    1  0.9512547E-007  0.2558048E+04  0.7818608E-02  0.8382593E-01
          2   -1    0    0  501    0  0.00000000000E+00  0.00000000000E+00  0.27244444722E+04  0.27244444722E+04  0.00000000000E+00 0. -1.
         -2   -1    0    0    0  501 -0.00000000000E+00 -0.00000000000E+00 -0.60045334324E+03  0.60045334324E+03  0.00000000000E+00 0.  1.
         23    2    1    2    0    0  0.20196452656E+03 -0.96291410418E+03  0.44131852902E+01  0.98810430695E+03  0.91309381785E+02 0.  0.
         13    1    3    3    0    0  0.81591693745E+02 -0.58528577114E+03 -0.16841728889E+02  0.59118548884E+03  0.00000000000E+00 0.  1.
        -13    1    3    3    0    0  0.12037283282E+03 -0.37762833304E+03  0.21254914179E+02  0.39691881811E+03  0.00000000000E+00 0. -1.
         22    1    1    2    0    0 -0.20196452656E+03  0.96291410418E+03  0.21195779436E+04  0.23367935084E+04  0.00000000000E+00 0. -1.
<mgrwt>
<rscale>  0 0.25580475E+04</rscale>
<asrwt>0</asrwt>
<pdfrwt beam="1">  1        2 0.41914530E+00 0.25580475E+04</pdfrwt>
<pdfrwt beam="2">  1       -2 0.92377439E-01 0.25580475E+04</pdfrwt>
<totfact> 0.22670818E+00</totfact>
</mgrwt>
</event>
<event>
 6    1  0.9512547E-007  0.3485031E+04  0.7818608E-02  0.8117347E-01
          2   -1    0    0  501    0  0.00000000000E+00  0.00000000000E+00  0.34959235379E+04  0.34959235379E+04  0.00000000000E+00 0. -1.
         -2   -1    0    0    0  501 -0.00000000000E+00 -0.00000000000E+00 -0.86854321566E+03  0.86854321566E+03  0.00000000000E+00 0.  1.
         23    2    1    2    0    0  0.41852216026E+03 -0.38484229792E+03  0.33758419034E+04  0.34245416866E+04  0.88953996745E+02 0.  0.
         13    1    3    3    0    0  0.26952520295E+03 -0.19229552638E+03  0.20404645384E+04  0.20671518901E+04  0.00000000000E+00 0.  1.
        -13    1    3    3    0    0  0.14899695731E+03 -0.19254677153E+03  0.13353773651E+04  0.13573897965E+04  0.00000000000E+00 0. -1.
         22    1    1    2    0    0 -0.41852216026E+03  0.38484229792E+03 -0.74846158121E+03  0.93992506693E+03  0.00000000000E+00 0.  1.
<mgrwt>
<rscale>  0 0.34850312E+04</rscale>
<asrwt>0</asrwt>
<pdfrwt beam="1">  1        2 0.53783438E+00 0.34850312E+04</pdfrwt>
<pdfrwt beam="2">  1       -2 0.13362203E+00 0.34850312E+04</pdfrwt>
<totfact> 0.27223087E-01</totfact>
</mgrwt>
</event>
<event>
 6    1  0.9512547E-007  0.2010191E+04  0.7818608E-02  0.8601871E-01
          2   -1    0    0  501    0  0.00000000000E+00  0.00000000000E+00  0.67793310657E+03  0.67793310657E+03  0.00000000000E+00 0. -1.
         -2   -1    0    0    0  501 -0.00000000000E+00 -0.00000000000E+00 -0.14901429338E+04  0.14901429338E+04  0.00000000000E+00 0.  1.
         23    2    1    2    0    0  0.44878735126E+03 -0.56326837195E+03 -0.11597372481E+04  0.13684157039E+04  0.94285251317E+02 0.  0.
         13    1    3    3    0    0  0.18264328625E+03 -0.17148795464E+03 -0.45269327733E+03  0.51739529563E+03  0.00000000000E+00 0. -1.
        -13    1    3    3    0    0  0.26614406501E+03 -0.39178041731E+03 -0.70704397079E+03  0.85102040831E+03  0.00000000000E+00 0.  1.
         22    1    1    2    0    0 -0.44878735126E+03  0.56326837195E+03  0.34752742085E+03  0.79966033648E+03  0.00000000000E+00 0. -1.
<mgrwt>
<rscale>  0 0.20101913E+04</rscale>
<asrwt>0</asrwt>
<pdfrwt beam="1">  1        2 0.10429740E+00 0.20101913E+04</pdfrwt>
<pdfrwt beam="2">  1       -2 0.22925276E+00 0.20101913E+04</pdfrwt>
<totfact> 0.34212304E+00</totfact>
</mgrwt>
</event>
<event>
 6    1  0.9512547E-007  0.1110224E+04  0.7818608E-02  0.9195284E-01
          1   -1    0    0  501    0  0.00000000000E+00  0.00000000000E+00  0.17223674255E+04  0.17223674255E+04  0.00000000000E+00 0. -1.
         -1   -1    0    0    0  501 -0.00000000000E+00 -0.00000000000E+00 -0.17891026771E+03  0.17891026771E+03  0.00000000000E+00 0.  1.
         23    2    1    2    0    0  0.65694295021E+02  0.27054415178E+03 -0.38028774474E+02  0.29547333637E+03  0.91369723418E+02 0.  0.
         11    1    3    3    0    0  0.14114164198E+02  0.18542093998E+03  0.73124091049E+01  0.18610106378E+03  0.00000000000E+00 0. -1.
        -11    1    3    3    0    0  0.51580130823E+02  0.85123211803E+02 -0.45341183579E+02  0.10937227259E+03  0.00000000000E+00 0.  1.
         22    1    1    2    0    0 -0.65694295021E+02 -0.27054415178E+03  0.15814859323E+04  0.16058043568E+04  0.00000000000E+00 0. -1.
<mgrwt>
<rscale>  0 0.11102238E+04</rscale>
<asrwt>0</asrwt>
<pdfrwt beam="1">  1        1 0.26497959E+00 0.11102238E+04</pdfrwt>
<pdfrwt beam="2">  1       -1 0.27524658E-01 0.11102238E+04</pdfrwt>
<totfact> 0.54393138E+01</totfact>
</mgrwt>
</event>
<event>
 6    1  0.9512547E-007  0.7810782E+03  0.7818608E-02  0.9587817E-01
         -1   -1    0    0    0  501 -0.00000000000E+00  0.00000000000E+00  0.15366180777E+03  0.15366180777E+03  0.00000000000E+00 0.  1.
          1   -1    0    0  501    0  0.00000000000E+00 -0.00000000000E+00 -0.99257457312E+03  0.99257457312E+03  0.00000000000E+00 0. -1.
         23    2    1    2    0    0 -0.14423734823E+03 -0.28463346896E+03 -0.74191172811E+03  0.81272502351E+03  0.90930342859E+02 0.  0.
         11    1    3    3    0    0 -0.62694606227E+02 -0.15354858708E+03 -0.27705505769E+03  0.32290445527E+03  0.00000000000E+00 0. -1.
        -11    1    3    3    0    0 -0.81542742005E+02 -0.13108488188E+03 -0.46485667042E+03  0.48982056824E+03  0.00000000000E+00 0.  1.
         22    1    1    2    0    0  0.14423734823E+03  0.28463346896E+03 -0.97001037244E+02  0.33351135738E+03  0.00000000000E+00 0.  1.
<mgrwt>
<rscale>  0 0.78107824E+03</rscale>
<asrwt>0</asrwt>
<pdfrwt beam="1">  1        1 0.15270378E+00 0.78107824E+03</pdfrwt>
<pdfrwt beam="2">  1       -1 0.23640279E-01 0.78107824E+03</pdfrwt>
<totfact> 0.23883368E+02</totfact>
</mgrwt>
</event>
<event>
 6    1  0.9512547E-007  0.4837146E+04  0.7818608E-02  0.7854132E-01
         -2   -1    0    0    0  501 -0.00000000000E+00  0.00000000000E+00  0.15777315839E+04  0.15777315839E+04  0.00000000000E+00 0.  1.
          2   -1    0    0  501    0  0.00000000000E+00 -0.00000000000E+00 -0.37075354271E+04  0.37075354271E+04  0.00000000000E+00 0. -1.
         23    2    1    2    0    0 -0.12352065108E+03 -0.19800927359E+04 -0.25750365540E+04  0.32519798299E+04  0.92384875149E+02 0.  0.
         13    1    3    3    0    0 -0.67659867084E+02 -0.15180663247E+04 -0.20169416602E+04  0.25253033253E+04  0.00000000000E+00 0. -1.
        -13    1    3    3    0    0 -0.55860783997E+02 -0.46202641124E+03 -0.55809489379E+03  0.72667650461E+03  0.00000000000E+00 0.  1.
         22    1    1    2    0    0  0.12352065108E+03  0.19800927359E+04  0.44523271077E+03  0.20332871811E+04  0.00000000000E+00 0. -1.
<mgrwt>
<rscale>  0 0.48371462E+04</rscale>
<asrwt>0</asrwt>
<pdfrwt beam="1">  1        2 0.57039006E+00 0.48371462E+04</pdfrwt>
<pdfrwt beam="2">  1       -2 0.24272794E+00 0.48371462E+04</pdfrwt>
<totfact> 0.30193624E-02</totfact>
</mgrwt>
</event>
<event>
 6    1  0.9512547E-007  0.2395278E+03  0.7818608E-02  0.1120108E+00
          2   -1    0    0  501    0  0.00000000000E+00  0.00000000000E+00  0.29116440376E+02  0.29116440376E+02  0.00000000000E+00 0. -1.
         -2   -1    0    0    0  501 -0.00000000000E+00 -0.00000000000E+00 -0.49262158426E+03  0.49262158426E+03  0.00000000000E+00 0.  1.
         23    2    1    2    0    0  0.68553732655E+02 -0.51613699551E+02 -0.38573236508E+03  0.40592700027E+03  0.92863791839E+02 0.  0.
         11    1    3    3    0    0  0.27893968903E+02 -0.19370801734E+02 -0.26795773625E+02  0.43258697913E+02  0.00000000000E+00 0. -1.
        -11    1    3    3    0    0  0.40659763752E+02 -0.32242897816E+02 -0.35893659146E+03  0.36266830236E+03  0.00000000000E+00 0.  1.
         22    1    1    2    0    0 -0.68553732655E+02  0.51613699551E+02 -0.77772778802E+02  0.11581102437E+03  0.00000000000E+00 0.  1.
<mgrwt>
<rscale>  0 0.23952776E+03</rscale>
<asrwt>0</asrwt>
<pdfrwt beam="1">  1        2 0.44794524E-02 0.23952776E+03</pdfrwt>
<pdfrwt beam="2">  1       -2 0.75787936E-01 0.23952776E+03</pdfrwt>
<totfact> 0.28941859E+03</totfact>
</mgrwt>
</event>
<event>
 6    1  0.9512547E-007  0.2134857E+04  0.7818608E-02  0.8546042E-01
         -2   -1    0    0    0  501 -0.00000000000E+00  0.00000000000E+00  0.60378561397E+03  0.60378561397E+03  0.00000000000E+00 0.  1.
          2   -1    0    0  501    0  0.00000000000E+00 -0.00000000000E+00 -0.18871003025E+04  0.18871003025E+04  0.00000000000E+00 0. -1.
         23    2    1    2    0    0 -0.33563981615E+03  0.46994627800E+03 -0.16875227622E+04  0.17859832586E+04  0.92192931358E+02 0.  0.
         13    1    3    3    0    0 -0.27427136889E+03  0.32068323763E+03 -0.12750555245E+04  0.13430670547E+04  0.00000000000E+00 0.  1.
        -13    1    3    3    0    0 -0.61368447266E+02  0.14926304038E+03 -0.41246723767E+03  0.44291620391E+03  0.00000000000E+00 0. -1.
         22    1    1    2    0    0  0.33563981615E+03 -0.46994627800E+03  0.40420807362E+03  0.70490265794E+03  0.00000000000E+00 0.  1.
<mgrwt>
<rscale>  0 0.21348574E+04</rscale>
<asrwt>0</asrwt>
<pdfrwt beam="1">  1        2 0.29032312E+00 0.21348574E+04</pdfrwt>
<pdfrwt beam="2">  1       -2 0.92890094E-01 0.21348574E+04</pdfrwt>
<totfact> 0.69668757E+00</totfact>
</mgrwt>
</event>
<event>
 6    1  0.9512547E-007  0.6111143E+03  0.7818608E-02  0.9882612E-01
         -2   -1    0    0    0  501 -0.00000000000E+00  0.00000000000E+00  0.54474775185E+02  0.54474775185E+02  0.00000000000E+00 0.  1.
          2   -1    0    0  501    0  0.00000000000E+00 -0.00000000000E+00 -0.17139156051E+04  0.17139156051E+04  0.00000000000E+00 0. -1.
         23    2    1    2    0    0 -0.88796482169E+02  0.27417922262E+03 -0.62311155209E+03  0.69273363511E+03  0.92481465715E+02 0.  0.
         13    1    3    3    0    0 -0.10170386214E+03  0.17436702452E+03 -0.40471089295E+03  0.45225926380E+03  0.00000000000E+00 0.  1.
        -13    1    3    3    0    0  0.12907379968E+02  0.99812198104E+02 -0.21840065914E+03  0.24047437132E+03  0.00000000000E+00 0. -1.
         22    1    1    2    0    0  0.88796482169E+02 -0.27417922262E+03 -0.10363292778E+04  0.10756567452E+04  0.00000000000E+00 0. -1.
<mgrwt>
<rscale>  0 0.61111428E+03</rscale>
<asrwt>0</asrwt>
<pdfrwt beam="1">  1        2 0.26367935E+00 0.61111428E+03</pdfrwt>
<pdfrwt beam="2">  1       -2 0.83807339E-02 0.61111428E+03</pdfrwt>
<totfact> 0.90099872E+02</totfact>
</mgrwt>
</event>
<event>
 6    1  0.9512547E-007  0.1478435E+04  0.7818608E-02  0.8898922E-01
         -1   -1    0    0    0  501 -0.00000000000E+00  0.00000000000E+00  0.65559529975E+03  0.65559529975E+03  0.00000000000E+00 0.  1.
          1   -1    0    0  501    0  0.00000000000E+00 -0.00000000000E+00 -0.83350529590E+03  0.83350529590E+03  0.00000000000E+00 0. -1.
         23    2    1    2    0    0  0.34764791729E+03  0.41909344239E+03  0.40931366039E+03  0.68826977041E+03  0.98383008845E+02 0.  0.
         11    1    3    3    0    0  0.69640627970E+02  0.12235486380E+03  0.15143774785E+03  0.20677021360E+03  0.00000000000E+00 0. -1.
        -11    1    3    3    0    0  0.27800728931E+03  0.29673857859E+03  0.25787591254E+03  0.48149955681E+03  0.00000000000E+00 0.  1.
         22    1    1    2    0    0 -0.34764791729E+03 -0.41909344239E+03 -0.58722365655E+03  0.80083082524E+03  0.00000000000E+00 0.  1.
<mgrwt>
<rscale>  0 0.14784345E+04</rscale>
<asrwt>0</asrwt>
<pdfrwt beam="1">  1        1 0.12823158E+00 0.14784345E+04</pdfrwt>
<pdfrwt beam="2">  1       -1 0.10086082E+00 0.14784345E+04</pdfrwt>
<totfact> 0.18738489E+01</totfact>
</mgrwt>
</event>
<event>
 6    1  0.9512547E-007  0.9764178E+03  0.7818608E-02  0.9334794E-01
         -2   -1    0    0    0  501 -0.00000000000E+00  0.00000000000E+00  0.86577341779E+03  0.86577341779E+03  0.00000000000E+00 0.  1.
          2   -1    0    0  501    0  0.00000000000E+00 -0.00000000000E+00 -0.27530060764E+03  0.27530060764E+03  0.00000000000E+00 0. -1.
         23    2    1    2    0    0  0.28518780375E+03  0.36737923958E+03  0.14159075671E+03  0.49470363086E+03  0.91565009221E+02 0.  0.
         13    1    3    3    0    0  0.12523214505E+03  0.21266700344E+03  0.10898606922E+03  0.26979308329E+03  0.00000000000E+00 0.  1.
        -13    1    3    3    0    0  0.15995565870E+03  0.15471223615E+03  0.32604687493E+02  0.22491054757E+03  0.00000000000E+00 0. -1.
         22    1    1    2    0    0 -0.28518780375E+03 -0.36737923958E+03  0.44888205343E+03  0.64637039457E+03  0.00000000000E+00 0.  1.
<mgrwt>
<rscale>  0 0.97641784E+03</rscale>
<asrwt>0</asrwt>
<pdfrwt beam="1">  1        2 0.42353940E-01 0.97641784E+03</pdfrwt>
<pdfrwt beam="2">  1       -2 0.13319591E+00 0.97641784E+03</pdfrwt>
<totfact> 0.49282926E+01</totfact>
</mgrwt>
</event>
<event>
 6    1  0.9512547E-007  0.2479114E+04  0.7818608E-02  0.8410464E-01
          2   -1    0    0  501    0  0.00000000000E+00  0.00000000000E+00  0.93453740900E+03  0.93453740900E+03  0.00000000000E+00 0. -1.
         -2   -1    0    0    0  501 -0.00000000000E+00 -0.00000000000E+00 -0.16441310995E+04  0.16441310995E+04  0.00000000000E+00 0.  1.
         23    2    1    2    0    0  0.86678951426E+03 -0.81059167943E+03 -0.72188411342E+03  0.13918517631E+04  0.88043877282E+02 0.  0.
         13    1    3    3    0    0  0.29895563690E+03 -0.33804170897E+03 -0.27290611997E+03  0.52737502800E+03  0.00000000000E+00 0. -1.
        -13    1    3    3    0    0  0.56783387735E+03 -0.47254997046E+03 -0.44897799346E+03  0.86447673506E+03  0.00000000000E+00 0.  1.
         22    1    1    2    0    0 -0.86678951426E+03  0.81059167943E+03  0.12290422906E+02  0.11868167455E+04  0.00000000000E+00 0. -1.
<mgrwt>
<rscale>  0 0.24791144E+04</rscale>
<asrwt>0</asrwt>
<pdfrwt beam="1">  1        2 0.14377499E+00 0.24791144E+04</pdfrwt>
<pdfrwt beam="2">  1       -2 0.25294324E+00 0.24791144E+04</pdfrwt>
<totfact> 0.15305866E+00</totfact>
</mgrwt>
</event>
<event>
 6    1  0.9512547E-007  0.1537871E+04  0.7818608E-02  0.8859653E-01
         -1   -1    0    0    0  501 -0.00000000000E+00  0.00000000000E+00  0.84536475546E+03  0.84536475546E+03  0.00000000000E+00 0.  1.
          1   -1    0    0  501    0  0.00000000000E+00 -0.00000000000E+00 -0.69941575133E+03  0.69941575133E+03  0.00000000000E+00 0. -1.
         23    2    1    2    0    0  0.19648003558E+03 -0.25324553331E+03  0.77235298997E+03  0.84113311073E+03  0.90763783092E+02 0.  0.
         11    1    3    3    0    0  0.12307525948E+03 -0.19782371733E+03  0.62949012419E+03  0.67122243637E+03  0.00000000000E+00 0.  1.
        -11    1    3    3    0    0  0.73404776103E+02 -0.55421815980E+02  0.14286286578E+03  0.16991067435E+03  0.00000000000E+00 0. -1.
         22    1    1    2    0    0 -0.19648003558E+03  0.25324553331E+03 -0.62640398583E+03  0.70364739607E+03  0.00000000000E+00 0. -1.
<mgrwt>
<rscale>  0 0.15378705E+04</rscale>
<asrwt>0</asrwt>
<pdfrwt beam="1">  1        1 0.10760242E+00 0.15378705E+04</pdfrwt>
<pdfrwt beam="2">  1       -1 0.13005612E+00 0.15378705E+04</pdfrwt>
<totfact> 0.13330287E+01</totfact>
</mgrwt>
</event>
<event>
 6    1  0.9512547E-007  0.7243606E+03  0.7818608E-02  0.9676456E-01
          3   -1    0    0  501    0  0.00000000000E+00  0.00000000000E+00  0.18006328891E+03  0.18006328891E+03  0.00000000000E+00 0. -1.
         -3   -1    0    0    0  501 -0.00000000000E+00 -0.00000000000E+00 -0.72849139343E+03  0.72849139343E+03  0.00000000000E+00 0.  1.
         23    2    1    2    0    0 -0.11923882060E+03  0.19824317288E+03  0.61633124456E+02  0.25610318603E+03  0.90950249773E+02 0.  0.
         13    1    3    3    0    0 -0.44579055254E+02  0.45604101394E+02  0.57909457687E+02  0.86142507050E+02  0.00000000000E+00 0.  1.
        -13    1    3    3    0    0 -0.74659765342E+02  0.15263907149E+03  0.37236667686E+01  0.16996067898E+03  0.00000000000E+00 0. -1.
         22    1    1    2    0    0  0.11923882060E+03 -0.19824317288E+03 -0.61006122898E+03  0.65245149630E+03  0.00000000000E+00 0.  1.
<mgrwt>
<rscale>  0 0.72436056E+03</rscale>
<asrwt>0</asrwt>
<pdfrwt beam="1">  1        3 0.27702044E-01 0.72436056E+03</pdfrwt>
<pdfrwt beam="2">  1       -3 0.11207560E+00 0.72436056E+03</pdfrwt>
<totfact> 0.22158881E+01</totfact>
</mgrwt>
</event>
<event>
 6    1  0.9512547E-007  0.2132897E+04  0.7818608E-02  0.8546889E-01
         -2   -1    0    0    0  501 -0.00000000000E+00  0.00000000000E+00  0.55471546305E+03  0.55471546305E+03  0.00000000000E+00 0.  1.
          2   -1    0    0  501    0  0.00000000000E+00 -0.00000000000E+00 -0.20502633277E+04  0.20502633277E+04  0.00000000000E+00 0. -1.
         23    2    1    2    0    0  0.83701251699E+03  0.11676880679E+03 -0.15397835831E+04  0.17587035951E+04  0.88769054659E+02 0.  0.
         11    1    3    3    0    0  0.77479862846E+03  0.13056824870E+03 -0.14110850107E+04  0.16150919137E+04  0.00000000000E+00 0. -1.
        -11    1    3    3    0    0  0.62213888532E+02 -0.13799441907E+02 -0.12869857237E+03  0.14361168147E+03  0.00000000000E+00 0.  1.
         22    1    1    2    0    0 -0.83701251699E+03 -0.11676880679E+03  0.44235718457E+02  0.84627519556E+03  0.00000000000E+00 0.  1.
<mgrwt>
<rscale>  0 0.21328973E+04</rscale>
<asrwt>0</asrwt>
<pdfrwt beam="1">  1        2 0.31542513E+00 0.21328973E+04</pdfrwt>
<pdfrwt beam="2">  1       -2 0.85340839E-01 0.21328973E+04</pdfrwt>
<totfact> 0.68730536E+00</totfact>
</mgrwt>
</event>
<event>
 6    1  0.9512547E-007  0.8747397E+03  0.7818608E-02  0.9457721E-01
          2   -1    0    0  501    0  0.00000000000E+00  0.00000000000E+00  0.64376291669E+03  0.64376291669E+03  0.00000000000E+00 0. -1.
         -2   -1    0    0    0  501 -0.00000000000E+00 -0.00000000000E+00 -0.29714724570E+03  0.29714724570E+03  0.00000000000E+00 0.  1.
         23    2    1    2    0    0  0.19358431431E+03 -0.26254741421E+03 -0.13031077178E+03  0.36309975814E+03  0.91948385891E+02 0.  0.
         11    1    3    3    0    0  0.98444909978E+02 -0.16055686585E+03 -0.28638437324E+02  0.19049952116E+03  0.00000000000E+00 0.  1.
        -11    1    3    3    0    0  0.95139404330E+02 -0.10199054836E+03 -0.10167233446E+03  0.17260023698E+03  0.00000000000E+00 0. -1.
         22    1    1    2    0    0 -0.19358431431E+03  0.26254741421E+03  0.47692644277E+03  0.57781040425E+03  0.00000000000E+00 0. -1.
<mgrwt>
<rscale>  0 0.87473968E+03</rscale>
<asrwt>0</asrwt>
<pdfrwt beam="1">  1        2 0.99040449E-01 0.87473968E+03</pdfrwt>
<pdfrwt beam="2">  1       -2 0.45714961E-01 0.87473968E+03</pdfrwt>
<totfact> 0.20728929E+02</totfact>
</mgrwt>
</event>
<event>
 6    1  0.9512547E-007  0.3403024E+04  0.7818608E-02  0.8137164E-01
          1   -1    0    0  501    0  0.00000000000E+00  0.00000000000E+00  0.33320454893E+04  0.33320454893E+04  0.00000000000E+00 0. -1.
         -1   -1    0    0    0  501 -0.00000000000E+00 -0.00000000000E+00 -0.86887886062E+03  0.86887886062E+03  0.00000000000E+00 0.  1.
         23    2    1    2    0    0  0.39115813194E+03 -0.16220447886E+04  0.82940375827E+03  0.18657123473E+04  0.94540934320E+02 0.  0.
         13    1    3    3    0    0  0.24495734919E+03 -0.83476856517E+03  0.40872902783E+03  0.96119825141E+03  0.00000000000E+00 0.  1.
        -13    1    3    3    0    0  0.14620078276E+03 -0.78727622343E+03  0.42067473044E+03  0.90451409591E+03  0.00000000000E+00 0. -1.
         22    1    1    2    0    0 -0.39115813194E+03  0.16220447886E+04  0.16337628704E+04  0.23352120026E+04  0.00000000000E+00 0.  1.
<mgrwt>
<rscale>  0 0.34030245E+04</rscale>
<asrwt>0</asrwt>
<pdfrwt beam="1">  1        1 0.51262238E+00 0.34030245E+04</pdfrwt>
<pdfrwt beam="2">  1       -1 0.13367367E+00 0.34030245E+04</pdfrwt>
<totfact> 0.13099944E-01</totfact>
</mgrwt>
</event>
<event>
 6    1  0.9512547E-007  0.4908436E+04  0.7818608E-02  0.7842789E-01
         -1   -1    0    0    0  501 -0.00000000000E+00  0.00000000000E+00  0.14447609970E+04  0.14447609970E+04  0.00000000000E+00 0.  1.
          1   -1    0    0  501    0  0.00000000000E+00 -0.00000000000E+00 -0.41689850376E+04  0.41689850376E+04  0.00000000000E+00 0. -1.
         23    2    1    2    0    0  0.38869353143E+03  0.23249609861E+04 -0.58443253541E+03  0.24301578178E+04  0.87059652522E+02 0.  0.
         13    1    3    3    0    0  0.14512985634E+03  0.10706145062E+04 -0.29629266639E+03  0.11202979248E+04  0.00000000000E+00 0.  1.
        -13    1    3    3    0    0  0.24356367509E+03  0.12543464799E+04 -0.28813986902E+03  0.13098598931E+04  0.00000000000E+00 0. -1.
         22    1    1    2    0    0 -0.38869353143E+03 -0.23249609861E+04 -0.21397915052E+04  0.31835882167E+04  0.00000000000E+00 0. -1.
<mgrwt>
<rscale>  0 0.49084364E+04</rscale>
<asrwt>0</asrwt>
<pdfrwt beam="1">  1        1 0.64138230E+00 0.49084364E+04</pdfrwt>
<pdfrwt beam="2">  1       -1 0.22227093E+00 0.49084364E+04</pdfrwt>
<totfact> 0.51978516E-03</totfact>
</mgrwt>
</event>
<event>
 6    1  0.9512547E-007  0.7727371E+03  0.7818608E-02  0.9600340E-01
         -1   -1    0    0    0  501 -0.00000000000E+00  0.00000000000E+00  0.64496187568E+03  0.64496187568E+03  0.00000000000E+00 0.  1.
          1   -1    0    0  501    0  0.00000000000E+00 -0.00000000000E+00 -0.23145656280E+03  0.23145656280E+03  0.00000000000E+00 0. -1.
         23    2    1    2    0    0  0.18725738296E+03 -0.25868529370E+03 -0.25831719043E+02  0.33327901230E+03  0.91783515305E+02 0.  0.
         13    1    3    3    0    0  0.55172001591E+02 -0.12278320030E+03 -0.47015556679E+02  0.14258375295E+03  0.00000000000E+00 0. -1.
        -13    1    3    3    0    0  0.13208538137E+03 -0.13590209340E+03  0.21183837636E+02  0.19069525935E+03  0.00000000000E+00 0.  1.
         22    1    1    2    0    0 -0.18725738296E+03  0.25868529370E+03  0.43933703192E+03  0.54313942618E+03  0.00000000000E+00 0.  1.
<mgrwt>
<rscale>  0 0.77273711E+03</rscale>
<asrwt>0</asrwt>
<pdfrwt beam="1">  1        1 0.35608702E-01 0.77273711E+03</pdfrwt>
<pdfrwt beam="2">  1       -1 0.99224903E-01 0.77273711E+03</pdfrwt>
<totfact> 0.12092567E+02</totfact>
</mgrwt>
</event>
<event>
 6    1  0.9512547E-007  0.3880988E+04  0.7818608E-02  0.8028995E-01
          2   -1    0    0  501    0  0.00000000000E+00  0.00000000000E+00  0.18476519773E+04  0.18476519773E+04  0.00000000000E+00 0. -1.
         -2   -1    0    0    0  501 -0.00000000000E+00 -0.00000000000E+00 -0.20380013644E+04  0.20380013644E+04  0.00000000000E+00 0.  1.
         23    2    1    2    0    0  0.58429909273E+03  0.57159158536E+03  0.16656447204E+04  0.18576403987E+04  0.91286067531E+02 0.  0.
         13    1    3    3    0    0  0.29508402634E+03  0.24371403692E+03  0.85070793773E+03  0.93283176924E+03  0.00000000000E+00 0. -1.
        -13    1    3    3    0    0  0.28921506639E+03  0.32787754844E+03  0.81493678264E+03  0.92480862945E+03  0.00000000000E+00 0.  1.
         22    1    1    2    0    0 -0.58429909273E+03 -0.57159158536E+03 -0.18559941074E+04  0.20280129430E+04  0.00000000000E+00 0.  1.
<mgrwt>
<rscale>  0 0.38809881E+04</rscale>
<asrwt>0</asrwt>
<pdfrwt beam="1">  1        2 0.28425415E+00 0.38809881E+04</pdfrwt>
<pdfrwt beam="2">  1       -2 0.31353867E+00 0.38809881E+04</pdfrwt>
<totfact> 0.16971461E-01</totfact>
</mgrwt>
</event>
<event>
 6    1  0.9512547E-007  0.1230009E+04  0.7818608E-02  0.9086988E-01
          2   -1    0    0  501    0  0.00000000000E+00  0.00000000000E+00  0.15365948258E+04  0.15365948258E+04  0.00000000000E+00 0. -1.
         -2   -1    0    0    0  501 -0.00000000000E+00 -0.00000000000E+00 -0.24614835676E+03  0.24614835676E+03  0.00000000000E+00 0.  1.
         23    2    1    2    0    0  0.11726221290E+03  0.54033938681E+03  0.10278317557E+04  0.11706291677E+04  0.90650155317E+02 0.  0.
         13    1    3    3    0    0  0.72008130342E+01  0.52491610249E+02  0.16547021660E+03  0.17374582999E+03  0.00000000000E+00 0. -1.
        -13    1    3    3    0    0  0.11006139986E+03  0.48784777656E+03  0.86236153912E+03  0.99688333770E+03  0.00000000000E+00 0.  1.
         22    1    1    2    0    0 -0.11726221290E+03 -0.54033938681E+03  0.26261471327E+03  0.61211401482E+03  0.00000000000E+00 0.  1.
<mgrwt>
<rscale>  0 0.12300086E+04</rscale>
<asrwt>0</asrwt>
<pdfrwt beam="1">  1        2 0.23639920E+00 0.12300086E+04</pdfrwt>
<pdfrwt beam="2">  1       -2 0.37868979E-01 0.12300086E+04</pdfrwt>
<totfact> 0.78411721E+01</totfact>
</mgrwt>
</event>
<event>
 6    1  0.9512547E-007  0.2909677E+04  0.7818608E-02  0.8270004E-01
         -1   -1    0    0    0  501 -0.00000000000E+00  0.00000000000E+00  0.81266880763E+03  0.81266880763E+03  0.00000000000E+00 0.  1.
          1   -1    0    0  501    0  0.00000000000E+00 -0.00000000000E+00 -0.26044498578E+04  0.26044498578E+04  0.00000000000E+00 0. -1.
         23    2    1    2    0    0  0.22470121747E+03 -0.11836617616E+04 -0.18514912198E+04  0.22108388026E+04  0.90789157972E+02 0.  0.
         11    1    3    3    0    0  0.60824690461E+02 -0.56062292500E+03 -0.87639452068E+03  0.10421444539E+04  0.00000000000E+00 0.  1.
        -11    1    3    3    0    0  0.16387652701E+03 -0.62303883655E+03 -0.97509669917E+03  0.11686943487E+04  0.00000000000E+00 0. -1.
         22    1    1    2    0    0 -0.22470121747E+03  0.11836617616E+04  0.59710169715E+02  0.12062798627E+04  0.00000000000E+00 0.  1.
<mgrwt>
<rscale>  0 0.29096771E+04</rscale>
<asrwt>0</asrwt>
<pdfrwt beam="1">  1        1 0.40068459E+00 0.29096771E+04</pdfrwt>
<pdfrwt beam="2">  1       -1 0.12502597E+00 0.29096771E+04</pdfrwt>
<totfact> 0.54929198E-01</totfact>
</mgrwt>
</event>
<event>
 6    1  0.9512547E-007  0.1341149E+04  0.7818608E-02  0.8997555E-01
         -2   -1    0    0    0  501 -0.00000000000E+00  0.00000000000E+00  0.24360040112E+03  0.24360040112E+03  0.00000000000E+00 0.  1.
          2   -1    0    0  501    0  0.00000000000E+00 -0.00000000000E+00 -0.18459348589E+04  0.18459348589E+04  0.00000000000E+00 0. -1.
         23    2    1    2    0    0  0.18599774537E+03 -0.36089738909E+03 -0.16303984340E+04  0.16825590034E+04  0.89239337889E+02 0.  0.
         11    1    3    3    0    0  0.17351388747E+03 -0.28142003518E+03 -0.12002433759E+04  0.12449451661E+04  0.00000000000E+00 0.  1.
        -11    1    3    3    0    0  0.12483857898E+02 -0.79477353916E+02 -0.43015505814E+03  0.43761383723E+03  0.00000000000E+00 0. -1.
         22    1    1    2    0    0 -0.18599774537E+03  0.36089738909E+03  0.28063976212E+02  0.40697625667E+03  0.00000000000E+00 0.  1.
<mgrwt>
<rscale>  0 0.13411495E+04</rscale>
<asrwt>0</asrwt>
<pdfrwt beam="1">  1        2 0.28398997E+00 0.13411495E+04</pdfrwt>
<pdfrwt beam="2">  1       -2 0.37476986E-01 0.13411495E+04</pdfrwt>
<totfact> 0.53413892E+01</totfact>
</mgrwt>
</event>
<event>
 6    1  0.9512547E-007  0.2808174E+04  0.7818608E-02  0.8300735E-01
          2   -1    0    0  501    0  0.00000000000E+00  0.00000000000E+00  0.20912811529E+04  0.20912811529E+04  0.00000000000E+00 0. -1.
         -2   -1    0    0    0  501 -0.00000000000E+00 -0.00000000000E+00 -0.94270470437E+03  0.94270470437E+03  0.00000000000E+00 0.  1.
         23    2    1    2    0    0 -0.56693046425E+03 -0.43019570792E+03 -0.73037245114E+03  0.10247751998E+04  0.10120175092E+03 0.  0.
         13    1    3    3    0    0 -0.20876914145E+03 -0.21234563939E+03 -0.33974085323E+03  0.45177325324E+03  0.00000000000E+00 0. -1.
        -13    1    3    3    0    0 -0.35816132279E+03 -0.21785006853E+03 -0.39063159791E+03  0.57300194658E+03  0.00000000000E+00 0.  1.
         22    1    1    2    0    0  0.56693046425E+03  0.43019570792E+03  0.18789488997E+04  0.20092106575E+04  0.00000000000E+00 0. -1.
<mgrwt>
<rscale>  0 0.28081742E+04</rscale>
<asrwt>0</asrwt>
<pdfrwt beam="1">  1        2 0.32173556E+00 0.28081742E+04</pdfrwt>
<pdfrwt beam="2">  1       -2 0.14503149E+00 0.28081742E+04</pdfrwt>
<totfact> 0.16922347E+00</totfact>
</mgrwt>
</event>
<event>
 6    1  0.9512547E-007  0.1210191E+04  0.7818608E-02  0.9103983E-01
          2   -1    0    0  501    0  0.00000000000E+00  0.00000000000E+00  0.23352301238E+04  0.23352301238E+04  0.00000000000E+00 0. -1.
         -2   -1    0    0    0  501 -0.00000000000E+00 -0.00000000000E+00 -0.15678993127E+03  0.15678993127E+03  0.00000000000E+00 0.  1.
         23    2    1    2    0    0 -0.22646174026E+03  0.42336007601E+03  0.18421379982E+04  0.19058308026E+04  0.90553686451E+02 0.  0.
         11    1    3    3    0    0 -0.19070106338E+03  0.29561468051E+03  0.14413549168E+04  0.14836640223E+04  0.00000000000E+00 0. -1.
        -11    1    3    3    0    0 -0.35760676882E+02  0.12774539549E+03  0.40078308138E+03  0.42216678032E+03  0.00000000000E+00 0.  1.
         22    1    1    2    0    0  0.22646174026E+03 -0.42336007601E+03  0.33630219433E+03  0.58618925244E+03  0.00000000000E+00 0.  1.
<mgrwt>
<rscale>  0 0.12101910E+04</rscale>
<asrwt>0</asrwt>
<pdfrwt beam="1">  1        2 0.35926615E+00 0.12101910E+04</pdfrwt>
<pdfrwt beam="2">  1       -2 0.24121530E-01 0.12101910E+04</pdfrwt>
<totfact> 0.65620009E+01</totfact>
</mgrwt>
</event>
<event>
 6    1  0.9512547E-007  0.1584473E+04  0.7818608E-02  0.8830144E-01
         -2   -1    0    0    0  501 -0.00000000000E+00  0.00000000000E+00  0.90915947352E+03  0.90915947352E+03  0.00000000000E+00 0.  1.
          2   -1    0    0  501    0  0.00000000000E+00 -0.00000000000E+00 -0.69035028406E+03  0.69035028406E+03  0.00000000000E+00 0. -1.
         23    2    1    2    0    0 -0.42559126542E+03 -0.31728163968E+03 -0.48019789091E+03  0.72178174589E+03  0.92646155711E+02 0.  0.
         13    1    3    3    0    0 -0.11688845845E+03 -0.87487605228E+02 -0.19088496829E+03  0.24032075213E+03  0.00000000000E+00 0. -1.
        -13    1    3    3    0    0 -0.30870280698E+03 -0.22979403446E+03 -0.28931292263E+03  0.48146099375E+03  0.00000000000E+00 0.  1.
         22    1    1    2    0    0  0.42559126542E+03  0.31728163968E+03  0.69900708038E+03  0.87772801169E+03  0.00000000000E+00 0.  1.
<mgrwt>
<rscale>  0 0.15844728E+04</rscale>
<asrwt>0</asrwt>
<pdfrwt beam="1">  1        2 0.10620774E+00 0.15844728E+04</pdfrwt>
<pdfrwt beam="2">  1       -2 0.13987069E+00 0.15844728E+04</pdfrwt>
<totfact> 0.14406715E+01</totfact>
</mgrwt>
</event>
<event>
 6    1  0.9512547E-007  0.3427633E+04  0.7818608E-02  0.8131158E-01
         -2   -1    0    0    0  501 -0.00000000000E+00  0.00000000000E+00  0.10142587191E+04  0.10142587191E+04  0.00000000000E+00 0.  1.
          2   -1    0    0  501    0  0.00000000000E+00 -0.00000000000E+00 -0.28958747262E+04  0.28958747262E+04  0.00000000000E+00 0. -1.
         23    2    1    2    0    0  0.49935912300E+03  0.64843395583E+03 -0.26576391580E+04  0.27822867981E+04  0.90817419487E+02 0.  0.
         11    1    3    3    0    0  0.34334182568E+03  0.37348245448E+03 -0.16392451271E+04  0.17159537697E+04  0.00000000000E+00 0.  1.
        -11    1    3    3    0    0  0.15601729733E+03  0.27495150135E+03 -0.10183940309E+04  0.10663330284E+04  0.00000000000E+00 0. -1.
         22    1    1    2    0    0 -0.49935912300E+03 -0.64843395583E+03  0.77602315096E+03  0.11278466472E+04  0.00000000000E+00 0.  1.
<mgrwt>
<rscale>  0 0.34276325E+04</rscale>
<asrwt>0</asrwt>
<pdfrwt beam="1">  1        2 0.44551918E+00 0.34276325E+04</pdfrwt>
<pdfrwt beam="2">  1       -2 0.15603981E+00 0.34276325E+04</pdfrwt>
<totfact> 0.45010960E-01</totfact>
</mgrwt>
</event>
<event>
 6    1  0.9512547E-007  0.8146804E+03  0.7818608E-02  0.9539008E-01
          1   -1    0    0  501    0  0.00000000000E+00  0.00000000000E+00  0.19237502376E+03  0.19237502376E+03  0.00000000000E+00 0. -1.
         -1   -1    0    0    0  501 -0.00000000000E+00 -0.00000000000E+00 -0.86251334118E+03  0.86251334118E+03  0.00000000000E+00 0.  1.
         23    2    1    2    0    0  0.24902593956E+03 -0.14067331288E+03  0.27504975828E+02  0.30089296433E+03  0.89314907812E+02 0.  0.
         13    1    3    3    0    0  0.19013371007E+03 -0.95503357894E+02  0.58181898399E+02  0.22058298297E+03  0.00000000000E+00 0. -1.
        -13    1    3    3    0    0  0.58892229489E+02 -0.45169954989E+02 -0.30676922571E+02  0.80309981362E+02  0.00000000000E+00 0.  1.
         22    1    1    2    0    0 -0.24902593956E+03  0.14067331288E+03 -0.69764329325E+03  0.75399540061E+03  0.00000000000E+00 0.  1.
<mgrwt>
<rscale>  0 0.81468037E+03</rscale>
<asrwt>0</asrwt>
<pdfrwt beam="1">  1        1 0.29596158E-01 0.81468037E+03</pdfrwt>
<pdfrwt beam="2">  1       -1 0.13269436E+00 0.81468037E+03</pdfrwt>
<totfact> 0.76319558E+01</totfact>
</mgrwt>
</event>
<event>
 6    1  0.9512547E-007  0.1230320E+04  0.7818608E-02  0.9086723E-01
          2   -1    0    0  501    0  0.00000000000E+00  0.00000000000E+00  0.13650960390E+04  0.13650960390E+04  0.00000000000E+00 0. -1.
         -2   -1    0    0    0  501 -0.00000000000E+00 -0.00000000000E+00 -0.27721279326E+03  0.27721279326E+03  0.00000000000E+00 0.  1.
         23    2    1    2    0    0 -0.15173936773E+03 -0.31200152840E+03  0.12200595248E+04  0.12710402527E+04  0.81414312353E+02 0.  0.
         11    1    3    3    0    0 -0.90351525098E+02 -0.25881680080E+03  0.89909037639E+03  0.93995374321E+03  0.00000000000E+00 0.  1.
        -11    1    3    3    0    0 -0.61387842627E+02 -0.53184727597E+02  0.32096914846E+03  0.33108650944E+03  0.00000000000E+00 0. -1.
         22    1    1    2    0    0  0.15173936773E+03  0.31200152840E+03 -0.13217627911E+03  0.37126857960E+03  0.00000000000E+00 0.  1.
<mgrwt>
<rscale>  0 0.12303204E+04</rscale>
<asrwt>0</asrwt>
<pdfrwt beam="1">  1        2 0.21001477E+00 0.12303204E+04</pdfrwt>
<pdfrwt beam="2">  1       -2 0.42648123E-01 0.12303204E+04</pdfrwt>
<totfact> 0.77745101E+01</totfact>
</mgrwt>
</event>
<event>
 6    1  0.9512547E-007  0.2254340E+04  0.7818608E-02  0.8496145E-01
         -2   -1    0    0    0  501 -0.00000000000E+00  0.00000000000E+00  0.15073852556E+04  0.15073852556E+04  0.00000000000E+00 0.  1.
          2   -1    0    0  501    0  0.00000000000E+00 -0.00000000000E+00 -0.84285802066E+03  0.84285802066E+03  0.00000000000E+00 0. -1.
         23    2    1    2    0    0 -0.56178357870E+03  0.63565317565E+03 -0.43812334985E+03  0.95902292666E+03  0.90095256069E+02 0.  0.
         11    1    3    3    0    0 -0.19063004173E+03  0.27882109763E+03 -0.15797361189E+03  0.37287622524E+03  0.00000000000E+00 0. -1.
        -11    1    3    3    0    0 -0.37115353697E+03  0.35683207801E+03 -0.28014973796E+03  0.58614670142E+03  0.00000000000E+00 0.  1.
         22    1    1    2    0    0  0.56178357870E+03 -0.63565317565E+03  0.11026505848E+04  0.13912203496E+04  0.00000000000E+00 0.  1.
<mgrwt>
<rscale>  0 0.22543396E+04</rscale>
<asrwt>0</asrwt>
<pdfrwt beam="1">  1        2 0.12967047E+00 0.22543396E+04</pdfrwt>
<pdfrwt beam="2">  1       -2 0.23190542E+00 0.22543396E+04</pdfrwt>
<totfact> 0.24296377E+00</totfact>
</mgrwt>
</event>
<event>
 6    1  0.9512547E-007  0.1158640E+04  0.7818608E-02  0.9149849E-01
         -1   -1    0    0    0  501 -0.00000000000E+00  0.00000000000E+00  0.58615033101E+03  0.58615033101E+03  0.00000000000E+00 0.  1.
          1   -1    0    0  501    0  0.00000000000E+00 -0.00000000000E+00 -0.57256963888E+03  0.57256963888E+03  0.00000000000E+00 0. -1.
         23    2    1    2    0    0 -0.54503415571E+03 -0.37713966701E+02  0.19384710423E+03  0.58341087601E+03  0.65627557112E+02 0.  0.
         11    1    3    3    0    0 -0.31614644901E+03 -0.54171841320E+02  0.11611612785E+03  0.34112478767E+03  0.00000000000E+00 0. -1.
        -11    1    3    3    0    0 -0.22888770669E+03  0.16457874619E+02  0.77730976379E+02  0.24228608834E+03  0.00000000000E+00 0.  1.
         22    1    1    2    0    0  0.54503415571E+03  0.37713966701E+02 -0.18026641211E+03  0.57530909388E+03  0.00000000000E+00 0. -1.
<mgrwt>
<rscale>  0 0.11586404E+04</rscale>
<asrwt>0</asrwt>
<pdfrwt beam="1">  1        1 0.88087637E-01 0.11586404E+04</pdfrwt>
<pdfrwt beam="2">  1       -1 0.90176974E-01 0.11586404E+04</pdfrwt>
<totfact> 0.43758700E+01</totfact>
</mgrwt>
</event>
<event>
 6    1  0.9512547E-007  0.2540330E+04  0.7818608E-02  0.8388757E-01
          2   -1    0    0  501    0  0.00000000000E+00  0.00000000000E+00  0.10924659138E+04  0.10924659138E+04  0.00000000000E+00 0. -1.
         -2   -1    0    0    0  501 -0.00000000000E+00 -0.00000000000E+00 -0.14767684999E+04  0.14767684999E+04  0.00000000000E+00 0.  1.
         23    2    1    2    0    0  0.14182054888E+03  0.11045266124E+04  0.42214191773E+03  0.11942999267E+04  0.89757510002E+02 0.  0.
         13    1    3    3    0    0  0.66731028280E+02  0.66560068284E+03  0.29581079542E+03  0.73142417640E+03  0.00000000000E+00 0. -1.
        -13    1    3    3    0    0  0.75089520600E+02  0.43892592957E+03  0.12633112231E+03  0.46287575030E+03  0.00000000000E+00 0.  1.
         22    1    1    2    0    0 -0.14182054888E+03 -0.11045266124E+04 -0.80644450383E+03  0.13749344869E+04  0.00000000000E+00 0.  1.
<mgrwt>
<rscale>  0 0.25403301E+04</rscale>
<asrwt>0</asrwt>
<pdfrwt beam="1">  1        2 0.16807168E+00 0.25403301E+04</pdfrwt>
<pdfrwt beam="2">  1       -2 0.22719515E+00 0.25403301E+04</pdfrwt>
<totfact> 0.17426263E+00</totfact>
</mgrwt>
</event>
<event>
 6    1  0.9512547E-007  0.1652780E+04  0.7818608E-02  0.8788764E-01
         -1   -1    0    0    0  501 -0.00000000000E+00  0.00000000000E+00  0.14752057012E+04  0.14752057012E+04  0.00000000000E+00 0.  1.
          1   -1    0    0  501    0  0.00000000000E+00 -0.00000000000E+00 -0.46293223517E+03  0.46293223517E+03  0.00000000000E+00 0. -1.
         23    2    1    2    0    0 -0.82061214343E+03  0.13212431886E+02  0.59314943026E+03  0.10165936804E+04  0.89764169775E+02 0.  0.
         11    1    3    3    0    0 -0.45244932107E+02  0.49416738254E+01  0.10593056978E+02  0.46730470548E+02  0.00000000000E+00 0.  1.
        -11    1    3    3    0    0 -0.77536721132E+03  0.82707580608E+01  0.58255637328E+03  0.96986320988E+03  0.00000000000E+00 0. -1.
         22    1    1    2    0    0  0.82061214343E+03 -0.13212431886E+02  0.41912403578E+03  0.92154425595E+03  0.00000000000E+00 0.  1.
<mgrwt>
<rscale>  0 0.16527798E+04</rscale>
<asrwt>0</asrwt>
<pdfrwt beam="1">  1        1 0.71220344E-01 0.16527798E+04</pdfrwt>
<pdfrwt beam="2">  1       -1 0.22695472E+00 0.16527798E+04</pdfrwt>
<totfact> 0.46545471E+00</totfact>
</mgrwt>
</event>
<event>
 6    1  0.9512547E-007  0.7726385E+03  0.7818608E-02  0.9600489E-01
          1   -1    0    0  501    0  0.00000000000E+00  0.00000000000E+00  0.55103876227E+03  0.55103876227E+03  0.00000000000E+00 0. -1.
         -1   -1    0    0    0  501 -0.00000000000E+00 -0.00000000000E+00 -0.27083857683E+03  0.27083857683E+03  0.00000000000E+00 0.  1.
         23    2    1    2    0    0  0.19130544342E+03 -0.28822840812E+03 -0.25598218938E+02  0.36015658793E+03  0.96871621681E+02 0.  0.
         11    1    3    3    0    0  0.29238817342E+02 -0.92551162152E+02 -0.41549414331E+02  0.10557925879E+03  0.00000000000E+00 0. -1.
        -11    1    3    3    0    0  0.16206662608E+03 -0.19567724597E+03  0.15951195394E+02  0.25457732914E+03  0.00000000000E+00 0.  1.
         22    1    1    2    0    0 -0.19130544342E+03  0.28822840812E+03  0.30579840438E+03  0.46172075116E+03  0.00000000000E+00 0. -1.
<mgrwt>
<rscale>  0 0.77263848E+03</rscale>
<asrwt>0</asrwt>
<pdfrwt beam="1">  1        1 0.84775194E-01 0.77263848E+03</pdfrwt>
<pdfrwt beam="2">  1       -1 0.41667473E-01 0.77263848E+03</pdfrwt>
<totfact> 0.22111202E+02</totfact>
</mgrwt>
</event>
<event>
 6    1  0.9512547E-007  0.1694667E+04  0.7818608E-02  0.8764412E-01
          2   -1    0    0  501    0  0.00000000000E+00  0.00000000000E+00  0.78817792467E+03  0.78817792467E+03  0.00000000000E+00 0. -1.
         -2   -1    0    0    0  501 -0.00000000000E+00 -0.00000000000E+00 -0.91092919423E+03  0.91092919423E+03  0.00000000000E+00 0.  1.
         23    2    1    2    0    0 -0.55859198807E+03  0.14714719786E+03 -0.67989042568E+03  0.89656033133E+03  0.88837659818E+02 0.  0.
         13    1    3    3    0    0 -0.45690387106E+03  0.14102633047E+03 -0.59915977401E+03  0.76657811609E+03  0.00000000000E+00 0.  1.
        -13    1    3    3    0    0 -0.10168811701E+03  0.61208673911E+01 -0.80730651670E+02  0.12998221524E+03  0.00000000000E+00 0. -1.
         22    1    1    2    0    0  0.55859198807E+03 -0.14714719786E+03  0.55713915611E+03  0.80254678758E+03  0.00000000000E+00 0. -1.
<mgrwt>
<rscale>  0 0.16946673E+04</rscale>
<asrwt>0</asrwt>
<pdfrwt beam="1">  1        2 0.12125814E+00 0.16946673E+04</pdfrwt>
<pdfrwt beam="2">  1       -2 0.14014295E+00 0.16946673E+04</pdfrwt>
<totfact> 0.11976896E+01</totfact>
</mgrwt>
</event>
<event>
 6    1  0.9512547E-007  0.1399601E+04  0.7818608E-02  0.8954107E-01
          4   -1    0    0  501    0  0.00000000000E+00  0.00000000000E+00  0.20002053083E+04  0.20002053083E+04  0.00000000000E+00 0. -1.
         -4   -1    0    0    0  501 -0.00000000000E+00 -0.00000000000E+00 -0.24483527271E+03  0.24483527271E+03  0.00000000000E+00 0.  1.
         23    2    1    2    0    0  0.27538725816E+03 -0.63377422500E+03  0.73673502428E+03  0.10141363620E+04  0.90477369593E+02 0.  0.
         13    1    3    3    0    0  0.78830838633E+02 -0.11252801847E+03  0.18123159468E+03  0.22742415652E+03  0.00000000000E+00 0. -1.
        -13    1    3    3    0    0  0.19655641953E+03 -0.52124620653E+03  0.55550342961E+03  0.78671220544E+03  0.00000000000E+00 0.  1.
         22    1    1    2    0    0 -0.27538725816E+03  0.63377422500E+03  0.10186350113E+04  0.12309042191E+04  0.00000000000E+00 0.  1.
<mgrwt>
<rscale>  0 0.13996011E+04</rscale>
<asrwt>0</asrwt>
<pdfrwt beam="1">  1        4 0.30772388E+00 0.13996011E+04</pdfrwt>
<pdfrwt beam="2">  1       -4 0.37666966E-01 0.13996011E+04</pdfrwt>
<totfact> 0.37326562E-01</totfact>
</mgrwt>
</event>
<event>
 6    1  0.1675060E-006  0.1841225E+04  0.7818608E-02  0.8684679E-01
          1   -1    0    0  501    0  0.00000000000E+00  0.00000000000E+00  0.14389079465E+04  0.14389079465E+04  0.00000000000E+00 0. -1.
         -1   -1    0    0    0  501 -0.00000000000E+00 -0.00000000000E+00 -0.58900719717E+03  0.58900719717E+03  0.00000000000E+00 0.  1.
         23    2    1    2    0    0 -0.20853281479E+02 -0.38233153623E+03 -0.49338260975E+03  0.63112509298E+03  0.90995716621E+02 0.  0.
         11    1    3    3    0    0  0.26066915445E+02 -0.22809157131E+03 -0.25243899735E+03  0.34121942554E+03  0.00000000000E+00 0.  1.
        -11    1    3    3    0    0 -0.46920196924E+02 -0.15423996492E+03 -0.24094361240E+03  0.28990566744E+03  0.00000000000E+00 0. -1.
         22    1    1    2    0    0  0.20853281479E+02  0.38233153623E+03  0.13432833591E+04  0.13967900507E+04  0.00000000000E+00 0. -1.
<mgrwt>
<rscale>  0 0.18412247E+04</rscale>
<asrwt>0</asrwt>
<pdfrwt beam="1">  1        1 0.22137045E+00 0.18412247E+04</pdfrwt>
<pdfrwt beam="2">  1       -1 0.90616492E-01 0.18412247E+04</pdfrwt>
<totfact> 0.80719936E+00</totfact>
</mgrwt>
</event>
<event>
 6    1  0.9512547E-007  0.2695807E+04  0.7818608E-02  0.8336367E-01
          2   -1    0    0  501    0  0.00000000000E+00  0.00000000000E+00  0.12090000358E+04  0.12090000358E+04  0.00000000000E+00 0. -1.
         -2   -1    0    0    0  501 -0.00000000000E+00 -0.00000000000E+00 -0.15027659160E+04  0.15027659160E+04  0.00000000000E+00 0.  1.
         23    2    1    2    0    0 -0.46080897631E+03  0.12241036888E+04 -0.46832273913E+03  0.13922035809E+04  0.90165787242E+02 0.  0.
         13    1    3    3    0    0 -0.15076823293E+03  0.31884563250E+03 -0.96868752557E+02  0.36575559141E+03  0.00000000000E+00 0.  1.
        -13    1    3    3    0    0 -0.31004074338E+03  0.90525805629E+03 -0.37145398658E+03  0.10264479895E+04  0.00000000000E+00 0. -1.
         22    1    1    2    0    0  0.46080897631E+03 -0.12241036888E+04  0.17455685890E+03  0.13195623708E+04  0.00000000000E+00 0. -1.
<mgrwt>
<rscale>  0 0.26958071E+04</rscale>
<asrwt>0</asrwt>
<pdfrwt beam="1">  1        2 0.18600000E+00 0.26958071E+04</pdfrwt>
<pdfrwt beam="2">  1       -2 0.23119476E+00 0.26958071E+04</pdfrwt>
<totfact> 0.13797076E+00</totfact>
</mgrwt>
</event>
<event>
 6    1  0.9512547E-007  0.2466927E+04  0.7818608E-02  0.8414864E-01
         -2   -1    0    0    0  501 -0.00000000000E+00  0.00000000000E+00  0.87342358833E+03  0.87342358833E+03  0.00000000000E+00 0.  1.
          2   -1    0    0  501    0  0.00000000000E+00 -0.00000000000E+00 -0.17419180296E+04  0.17419180296E+04  0.00000000000E+00 0. -1.
         23    2    1    2    0    0 -0.19304906560E+03  0.90752357224E+03 -0.12937610425E+04  0.15946954216E+04  0.91481565586E+02 0.  0.
         11    1    3    3    0    0 -0.11224511974E+03  0.37765455654E+03 -0.60452697023E+03  0.72157798520E+03  0.00000000000E+00 0. -1.
        -11    1    3    3    0    0 -0.80803945852E+02  0.52986901570E+03 -0.68923407226E+03  0.87311743645E+03  0.00000000000E+00 0.  1.
         22    1    1    2    0    0  0.19304906560E+03 -0.90752357224E+03  0.42526660122E+03  0.10206461963E+04  0.00000000000E+00 0.  1.
<mgrwt>
<rscale>  0 0.24669271E+04</rscale>
<asrwt>0</asrwt>
<pdfrwt beam="1">  1        2 0.26798739E+00 0.24669271E+04</pdfrwt>
<pdfrwt beam="2">  1       -2 0.13437286E+00 0.24669271E+04</pdfrwt>
<totfact> 0.33188717E+00</totfact>
</mgrwt>
</event>
<event>
 6    1  0.9512547E-007  0.2773074E+04  0.7818608E-02  0.8311677E-01
         -2   -1    0    0    0  501 -0.00000000000E+00  0.00000000000E+00  0.30458060884E+04  0.30458060884E+04  0.00000000000E+00 0.  1.
          2   -1    0    0  501    0  0.00000000000E+00 -0.00000000000E+00 -0.63119089156E+03  0.63119089156E+03  0.00000000000E+00 0. -1.
         23    2    1    2    0    0 -0.88664010495E+03 -0.13451782036E+03 -0.19095771769E+03  0.92141429519E+03  0.91179678271E+02 0.  0.
         11    1    3    3    0    0 -0.79966861117E+03 -0.12920563837E+03 -0.14503931348E+03  0.82292185968E+03  0.00000000000E+00 0.  1.
        -11    1    3    3    0    0 -0.86971493780E+02 -0.53121819948E+01 -0.45918404211E+02  0.98492435512E+02  0.00000000000E+00 0. -1.
         22    1    1    2    0    0  0.88664010495E+03  0.13451782036E+03  0.26055729145E+04  0.27555826848E+04  0.00000000000E+00 0.  1.
<mgrwt>
<rscale>  0 0.27730742E+04</rscale>
<asrwt>0</asrwt>
<pdfrwt beam="1">  1        2 0.97106293E-01 0.27730742E+04</pdfrwt>
<pdfrwt beam="2">  1       -2 0.46858554E+00 0.27730742E+04</pdfrwt>
<totfact> 0.10627174E-01</totfact>
</mgrwt>
</event>
<event>
 6    1  0.9512547E-007  0.3117015E+04  0.7818608E-02  0.8211084E-01
         -2   -1    0    0    0  501 -0.00000000000E+00  0.00000000000E+00  0.83601178528E+03  0.83601178528E+03  0.00000000000E+00 0.  1.
          2   -1    0    0  501    0  0.00000000000E+00 -0.00000000000E+00 -0.29053969520E+04  0.29053969520E+04  0.00000000000E+00 0. -1.
         23    2    1    2    0    0  0.12226236164E+04 -0.37064430608E+03  0.33143057523E+02  0.12811626840E+04  0.89964723123E+02 0.  0.
         13    1    3    3    0    0  0.27367273705E+03 -0.59024104299E+02 -0.22048361995E+02  0.28083223134E+03  0.00000000000E+00 0.  1.
        -13    1    3    3    0    0  0.94895087939E+03 -0.31162020178E+03  0.55191419518E+02  0.10003304526E+04  0.00000000000E+00 0. -1.
         22    1    1    2    0    0 -0.12226236164E+04  0.37064430608E+03 -0.21025282243E+04  0.24602460533E+04  0.00000000000E+00 0. -1.
<mgrwt>
<rscale>  0 0.31170153E+04</rscale>
<asrwt>0</asrwt>
<pdfrwt beam="1">  1        2 0.44698416E+00 0.31170153E+04</pdfrwt>
<pdfrwt beam="2">  1       -2 0.12861720E+00 0.31170153E+04</pdfrwt>
<totfact> 0.75382830E-01</totfact>
</mgrwt>
</event>
<event>
 6    1  0.9512547E-007  0.3085229E+04  0.7818608E-02  0.8219803E-01
         -2   -1    0    0    0  501 -0.00000000000E+00  0.00000000000E+00  0.12476900357E+04  0.12476900357E+04  0.00000000000E+00 0.  1.
          2   -1    0    0  501    0  0.00000000000E+00 -0.00000000000E+00 -0.19072524294E+04  0.19072524294E+04  0.00000000000E+00 0. -1.
         23    2    1    2    0    0 -0.74220665430E+03  0.12588169466E+04  0.17085648494E+03  0.14741431503E+04  0.91734761596E+02 0.  0.
         13    1    3    3    0    0 -0.59914912998E+03  0.97797253017E+03  0.10129877770E+03  0.11513780405E+04  0.00000000000E+00 0.  1.
        -13    1    3    3    0    0 -0.14305752432E+03  0.28084441642E+03  0.69557707235E+02  0.32276510984E+03  0.00000000000E+00 0. -1.
         22    1    1    2    0    0  0.74220665430E+03 -0.12588169466E+04 -0.83041887864E+03  0.16807993148E+04  0.00000000000E+00 0. -1.
<mgrwt>
<rscale>  0 0.30852292E+04</rscale>
<asrwt>0</asrwt>
<pdfrwt beam="1">  1        2 0.29342345E+00 0.30852292E+04</pdfrwt>
<pdfrwt beam="2">  1       -2 0.19195231E+00 0.30852292E+04</pdfrwt>
<totfact> 0.96195028E-01</totfact>
</mgrwt>
</event>
<event>
 6    1  0.9512547E-007  0.1958082E+04  0.7818608E-02  0.8626473E-01
          4   -1    0    0  501    0  0.00000000000E+00  0.00000000000E+00  0.15650455113E+04  0.15650455113E+04  0.00000000000E+00 0. -1.
         -4   -1    0    0    0  501 -0.00000000000E+00 -0.00000000000E+00 -0.61245601335E+03  0.61245601335E+03  0.00000000000E+00 0.  1.
         23    2    1    2    0    0 -0.62939531806E+03 -0.25532487390E+03  0.12570073052E+04  0.14331901255E+04  0.11241580278E+03 0.  0.
         11    1    3    3    0    0 -0.10125787993E+03 -0.28079935487E+02  0.12312435829E+03  0.16186799755E+03  0.00000000000E+00 0.  1.
        -11    1    3    3    0    0 -0.52813743813E+03 -0.22724493842E+03  0.11338829469E+04  0.12713221279E+04  0.00000000000E+00 0. -1.
         22    1    1    2    0    0  0.62939531806E+03  0.25532487390E+03 -0.30441780725E+03  0.74431139921E+03  0.00000000000E+00 0.  1.
<mgrwt>
<rscale>  0 0.19580823E+04</rscale>
<asrwt>0</asrwt>
<pdfrwt beam="1">  1        4 0.24077623E+00 0.19580823E+04</pdfrwt>
<pdfrwt beam="2">  1       -4 0.94224002E-01 0.19580823E+04</pdfrwt>
<totfact> 0.12785111E-01</totfact>
</mgrwt>
</event>
<event>
 6    1  0.9512547E-007  0.1860749E+04  0.7818608E-02  0.8674645E-01
          2   -1    0    0  501    0  0.00000000000E+00  0.00000000000E+00  0.99250022187E+03  0.99250022187E+03  0.00000000000E+00 0. -1.
         -2   -1    0    0    0  501 -0.00000000000E+00 -0.00000000000E+00 -0.87213730401E+03  0.87213730401E+03  0.00000000000E+00 0.  1.
         23    2    1    2    0    0 -0.18001516149E+02  0.29627552515E+03  0.94160362129E+03  0.99140242903E+03  0.90322506953E+02 0.  0.
         13    1    3    3    0    0  0.16050826505E+02  0.11249515579E+03  0.24348887091E+03  0.26869986857E+03  0.00000000000E+00 0. -1.
        -13    1    3    3    0    0 -0.34052342654E+02  0.18378036936E+03  0.69811475038E+03  0.72270256046E+03  0.00000000000E+00 0.  1.
         22    1    1    2    0    0  0.18001516149E+02 -0.29627552515E+03 -0.82124070344E+03  0.87323509685E+03  0.00000000000E+00 0.  1.
<mgrwt>
<rscale>  0 0.18607487E+04</rscale>
<asrwt>0</asrwt>
<pdfrwt beam="1">  1        2 0.15269234E+00 0.18607487E+04</pdfrwt>
<pdfrwt beam="2">  1       -2 0.13417497E+00 0.18607487E+04</pdfrwt>
<totfact> 0.95893690E+00</totfact>
</mgrwt>
</event>
<event>
 6    1  0.1271638E-006  0.4932724E+04  0.7818608E-02  0.7838970E-01
         -1   -1    0    0    0  501 -0.00000000000E+00  0.00000000000E+00  0.18897162440E+04  0.18897162440E+04  0.00000000000E+00 0.  1.
          1   -1    0    0  501    0  0.00000000000E+00 -0.00000000000E+00 -0.32189702046E+04  0.32189702046E+04  0.00000000000E+00 0. -1.
         23    2    1    2    0    0  0.65163834592E+03  0.23568878027E+04 -0.33830162031E+03  0.24702135591E+04  0.89187403259E+02 0.  0.
         13    1    3    3    0    0  0.26974567945E+03  0.81774875883E+03 -0.11237854386E+03  0.86839202050E+03  0.00000000000E+00 0.  1.
        -13    1    3    3    0    0  0.38189266648E+03  0.15391390438E+04 -0.22592307646E+03  0.16018215386E+04  0.00000000000E+00 0. -1.
         22    1    1    2    0    0 -0.65163834592E+03 -0.23568878027E+04 -0.99095234026E+03  0.26384728895E+04  0.00000000000E+00 0. -1.
<mgrwt>
<rscale>  0 0.49327235E+04</rscale>
<asrwt>0</asrwt>
<pdfrwt beam="1">  1        1 0.49522618E+00 0.49327235E+04</pdfrwt>
<pdfrwt beam="2">  1       -1 0.29072558E+00 0.49327235E+04</pdfrwt>
<totfact> 0.11318492E-02</totfact>
</mgrwt>
</event>
<event>
 6    1  0.9512547E-007  0.4334254E+04  0.7818608E-02  0.7940314E-01
          2   -1    0    0  501    0  0.00000000000E+00  0.00000000000E+00  0.15764602045E+04  0.15764602045E+04  0.00000000000E+00 0. -1.
         -2   -1    0    0    0  501 -0.00000000000E+00 -0.00000000000E+00 -0.29791043808E+04  0.29791043808E+04  0.00000000000E+00 0.  1.
         23    2    1    2    0    0 -0.12287553675E+04 -0.13866175746E+04  0.47803425193E+03  0.19155836380E+04  0.91629016479E+02 0.  0.
         11    1    3    3    0    0 -0.35904574526E+03 -0.40987596900E+03  0.97827151627E+02  0.55360844353E+03  0.00000000000E+00 0. -1.
        -11    1    3    3    0    0 -0.86970962226E+03 -0.97674160563E+03  0.38020710030E+03  0.13619751945E+04  0.00000000000E+00 0.  1.
         22    1    1    2    0    0  0.12287553675E+04  0.13866175746E+04 -0.18806784282E+04  0.26399809472E+04  0.00000000000E+00 0.  1.
<mgrwt>
<rscale>  0 0.43342540E+04</rscale>
<asrwt>0</asrwt>
<pdfrwt beam="1">  1        2 0.24253234E+00 0.43342540E+04</pdfrwt>
<pdfrwt beam="2">  1       -2 0.45832375E+00 0.43342540E+04</pdfrwt>
<totfact> 0.27029763E-02</totfact>
</mgrwt>
</event>
<event>
 6    1  0.9512547E-007  0.2310321E+04  0.7818608E-02  0.8473863E-01
          2   -1    0    0  501    0  0.00000000000E+00  0.00000000000E+00  0.21831008042E+04  0.21831008042E+04  0.00000000000E+00 0. -1.
         -2   -1    0    0    0  501 -0.00000000000E+00 -0.00000000000E+00 -0.61123879393E+03  0.61123879393E+03  0.00000000000E+00 0.  1.
         23    2    1    2    0    0  0.59551863029E+03  0.81403041598E+03  0.11060220279E+03  0.10187923072E+04  0.91743996290E+02 0.  0.
         11    1    3    3    0    0  0.41833939155E+03  0.50723567489E+03  0.50278980253E+02  0.65941174714E+03  0.00000000000E+00 0.  1.
        -11    1    3    3    0    0  0.17717923874E+03  0.30679474109E+03  0.60323222534E+02  0.35938056010E+03  0.00000000000E+00 0. -1.
         22    1    1    2    0    0 -0.59551863029E+03 -0.81403041598E+03  0.14612598074E+04  0.17755472908E+04  0.00000000000E+00 0. -1.
<mgrwt>
<rscale>  0 0.23103211E+04</rscale>
<asrwt>0</asrwt>
<pdfrwt beam="1">  1        2 0.33586166E+00 0.23103211E+04</pdfrwt>
<pdfrwt beam="2">  1       -2 0.94036738E-01 0.23103211E+04</pdfrwt>
<totfact> 0.45628902E+00</totfact>
</mgrwt>
</event>
<event>
 6    1  0.9512547E-007  0.1152978E+04  0.7818608E-02  0.9155041E-01
          2   -1    0    0  501    0  0.00000000000E+00  0.00000000000E+00  0.61188490703E+03  0.61188490703E+03  0.00000000000E+00 0. -1.
         -2   -1    0    0    0  501 -0.00000000000E+00 -0.00000000000E+00 -0.54314044973E+03  0.54314044973E+03  0.00000000000E+00 0.  1.
         23    2    1    2    0    0 -0.50418628831E+03  0.78866663069E+01 -0.23779154663E+03  0.56491491411E+03  0.91203221979E+02 0.  0.
         11    1    3    3    0    0 -0.31931472813E+03  0.82453751118E+01 -0.10124310866E+03  0.33508215241E+03  0.00000000000E+00 0.  1.
        -11    1    3    3    0    0 -0.18487156018E+03 -0.35870880491E+00 -0.13654843797E+03  0.22983276169E+03  0.00000000000E+00 0. -1.
         22    1    1    2    0    0  0.50418628831E+03 -0.78866663069E+01  0.30653600393E+03  0.59011044266E+03  0.00000000000E+00 0. -1.
<mgrwt>
<rscale>  0 0.11529778E+04</rscale>
<asrwt>0</asrwt>
<pdfrwt beam="1">  1        2 0.94136139E-01 0.11529778E+04</pdfrwt>
<pdfrwt beam="2">  1       -2 0.83560070E-01 0.11529778E+04</pdfrwt>
<totfact> 0.60071084E+01</totfact>
</mgrwt>
</event>
<event>
 6    1  0.9512547E-007  0.1732494E+04  0.7818608E-02  0.8743046E-01
          2   -1    0    0  501    0  0.00000000000E+00  0.00000000000E+00  0.59382854743E+03  0.59382854743E+03  0.00000000000E+00 0. -1.
         -2   -1    0    0    0  501 -0.00000000000E+00 -0.00000000000E+00 -0.12636369674E+04  0.12636369674E+04  0.00000000000E+00 0.  1.
         23    2    1    2    0    0  0.52033558829E+03  0.33084875586E+03  0.31275395491E+03  0.69744877175E+03  0.91704575741E+02 0.  0.
         11    1    3    3    0    0  0.22703750858E+03  0.17545366918E+03  0.10326940766E+03  0.30495014492E+03  0.00000000000E+00 0.  1.
        -11    1    3    3    0    0  0.29329807971E+03  0.15539508669E+03  0.20948454725E+03  0.39249862683E+03  0.00000000000E+00 0. -1.
         22    1    1    2    0    0 -0.52033558829E+03 -0.33084875586E+03 -0.98256237483E+03  0.11600167430E+04  0.00000000000E+00 0.  1.
<mgrwt>
<rscale>  0 0.17324938E+04</rscale>
<asrwt>0</asrwt>
<pdfrwt beam="1">  1        2 0.91358238E-01 0.17324938E+04</pdfrwt>
<pdfrwt beam="2">  1       -2 0.19440569E+00 0.17324938E+04</pdfrwt>
<totfact> 0.68973693E+00</totfact>
</mgrwt>
</event>
<event>
 6    1  0.9512547E-007  0.2356493E+04  0.7818608E-02  0.8455974E-01
         -2   -1    0    0    0  501 -0.00000000000E+00  0.00000000000E+00  0.93909488648E+03  0.93909488648E+03  0.00000000000E+00 0.  1.
          2   -1    0    0  501    0  0.00000000000E+00 -0.00000000000E+00 -0.14783010500E+04  0.14783010500E+04  0.00000000000E+00 0. -1.
         23    2    1    2    0    0 -0.17069975529E+03  0.10648132354E+04  0.21226794102E+03  0.11029839148E+04  0.92467317408E+02 0.  0.
         11    1    3    3    0    0 -0.58381066257E+02  0.49348391356E+03  0.13987239112E+03  0.51623541881E+03  0.00000000000E+00 0. -1.
        -11    1    3    3    0    0 -0.11231868904E+03  0.57132932188E+03  0.72395549908E+02  0.58674849603E+03  0.00000000000E+00 0.  1.
         22    1    1    2    0    0  0.17069975529E+03 -0.10648132354E+04 -0.75147410456E+03  0.13144120216E+04  0.00000000000E+00 0. -1.
<mgrwt>
<rscale>  0 0.23564931E+04</rscale>
<asrwt>0</asrwt>
<pdfrwt beam="1">  1        2 0.22743093E+00 0.23564931E+04</pdfrwt>
<pdfrwt beam="2">  1       -2 0.14447614E+00 0.23564931E+04</pdfrwt>
<totfact> 0.38988912E+00</totfact>
</mgrwt>
</event>
<event>
 6    1  0.9512547E-007  0.1372125E+04  0.7818608E-02  0.8974247E-01
          2   -1    0    0  501    0  0.00000000000E+00  0.00000000000E+00  0.27093455328E+04  0.27093455328E+04  0.00000000000E+00 0. -1.
         -2   -1    0    0    0  501 -0.00000000000E+00 -0.00000000000E+00 -0.17372533067E+03  0.17372533067E+03  0.00000000000E+00 0.  1.
         23    2    1    2    0    0  0.56859255415E+03 -0.13758675146E+03  0.53229251480E+03  0.79607555211E+03  0.90406617841E+02 0.  0.
         11    1    3    3    0    0  0.16251600977E+03 -0.72244744377E+02  0.12616881252E+03  0.21805807890E+03  0.00000000000E+00 0. -1.
        -11    1    3    3    0    0  0.40607654438E+03 -0.65342007085E+02  0.40612370228E+03  0.57801747321E+03  0.00000000000E+00 0.  1.
         22    1    1    2    0    0 -0.56859255415E+03  0.13758675146E+03  0.20033276874E+04  0.20869953114E+04  0.00000000000E+00 0. -1.
<mgrwt>
<rscale>  0 0.13721253E+04</rscale>
<asrwt>0</asrwt>
<pdfrwt beam="1">  1        2 0.41682236E+00 0.13721253E+04</pdfrwt>
<pdfrwt beam="2">  1       -2 0.26726976E-01 0.13721253E+04</pdfrwt>
<totfact> 0.32667686E+01</totfact>
</mgrwt>
</event>
<event>
 6    1  0.9512547E-007  0.2977394E+04  0.7818608E-02  0.8250216E-01
          2   -1    0    0  501    0  0.00000000000E+00  0.00000000000E+00  0.12956943996E+04  0.12956943996E+04  0.00000000000E+00 0. -1.
         -2   -1    0    0    0  501 -0.00000000000E+00 -0.00000000000E+00 -0.17104487073E+04  0.17104487073E+04  0.00000000000E+00 0.  1.
         23    2    1    2    0    0 -0.12452905155E+04  0.65049558802E+03 -0.70030768864E+03  0.15724647220E+04  0.91222065606E+02 0.  0.
         11    1    3    3    0    0 -0.21606128346E+03  0.79746404960E+02 -0.13338870309E+03  0.26614754071E+03  0.00000000000E+00 0. -1.
        -11    1    3    3    0    0 -0.10292292320E+04  0.57074918306E+03 -0.56691898555E+03  0.13063171813E+04  0.00000000000E+00 0.  1.
         22    1    1    2    0    0  0.12452905155E+04 -0.65049558802E+03  0.28555338093E+03  0.14336783849E+04  0.00000000000E+00 0. -1.
<mgrwt>
<rscale>  0 0.29773940E+04</rscale>
<asrwt>0</asrwt>
<pdfrwt beam="1">  1        2 0.19933760E+00 0.29773940E+04</pdfrwt>
<pdfrwt beam="2">  1       -2 0.26314595E+00 0.29773940E+04</pdfrwt>
<totfact> 0.76110371E-01</totfact>
</mgrwt>
</event>
<event>
 6    1  0.9654127E-007  0.3127679E+04  0.7818608E-02  0.8208182E-01
          2   -1    0    0  501    0  0.00000000000E+00  0.00000000000E+00  0.12328021069E+04  0.12328021069E+04  0.00000000000E+00 0. -1.
         -2   -1    0    0    0  501 -0.00000000000E+00 -0.00000000000E+00 -0.19837691269E+04  0.19837691269E+04  0.00000000000E+00 0.  1.
         23    2    1    2    0    0  0.94713948707E+03  0.11448060218E+04  0.12147004230E+03  0.14935504959E+04  0.91016905106E+02 0.  0.
         13    1    3    3    0    0  0.49833495125E+03  0.67315855048E+03  0.68860801144E+02  0.84037013729E+03  0.00000000000E+00 0. -1.
        -13    1    3    3    0    0  0.44880453582E+03  0.47164747137E+03  0.52609241160E+02  0.65318035861E+03  0.00000000000E+00 0.  1.
         22    1    1    2    0    0 -0.94713948707E+03 -0.11448060218E+04 -0.87243706232E+03  0.17230207379E+04  0.00000000000E+00 0.  1.
<mgrwt>
<rscale>  0 0.31276795E+04</rscale>
<asrwt>0</asrwt>
<pdfrwt beam="1">  1        2 0.18966186E+00 0.31276795E+04</pdfrwt>
<pdfrwt beam="2">  1       -2 0.30519525E+00 0.31276795E+04</pdfrwt>
<totfact> 0.45298457E-01</totfact>
</mgrwt>
</event>
<event>
 6    1  0.9512547E-007  0.5120157E+04  0.7818608E-02  0.7810235E-01
         -2   -1    0    0    0  501 -0.00000000000E+00  0.00000000000E+00  0.15010227678E+04  0.15010227678E+04  0.00000000000E+00 0.  1.
          2   -1    0    0  501    0  0.00000000000E+00 -0.00000000000E+00 -0.43663573667E+04  0.43663573667E+04  0.00000000000E+00 0. -1.
         23    2    1    2    0    0  0.12300275442E+03  0.12038095376E+04  0.11511634449E+04  0.16725567036E+04  0.89339627895E+02 0.  0.
         13    1    3    3    0    0  0.93923780417E+01  0.15164164460E+03  0.10668930787E+03  0.18565024523E+03  0.00000000000E+00 0. -1.
        -13    1    3    3    0    0  0.11361037638E+03  0.10521678931E+04  0.10444741371E+04  0.14869064583E+04  0.00000000000E+00 0.  1.
         22    1    1    2    0    0 -0.12300275442E+03 -0.12038095376E+04 -0.40164980439E+04  0.41948234310E+04  0.00000000000E+00 0. -1.
<mgrwt>
<rscale>  0 0.51201570E+04</rscale>
<asrwt>0</asrwt>
<pdfrwt beam="1">  1        2 0.67174727E+00 0.51201570E+04</pdfrwt>
<pdfrwt beam="2">  1       -2 0.23092658E+00 0.51201570E+04</pdfrwt>
<totfact> 0.99532327E-03</totfact>
</mgrwt>
</event>
<event>
 6    1  0.9512547E-007  0.2154034E+04  0.7818608E-02  0.8537807E-01
         -2   -1    0    0    0  501 -0.00000000000E+00  0.00000000000E+00  0.47065251659E+03  0.47065251659E+03  0.00000000000E+00 0.  1.
          2   -1    0    0  501    0  0.00000000000E+00 -0.00000000000E+00 -0.24645913013E+04  0.24645913013E+04  0.00000000000E+00 0. -1.
         23    2    1    2    0    0  0.39622623767E+02 -0.10120616941E+04 -0.50741128822E+03  0.11364656707E+04  0.90824998634E+02 0.  0.
         13    1    3    3    0    0  0.80097649527E+01 -0.38167009943E+03 -0.14312991197E+03  0.40770380528E+03  0.00000000000E+00 0.  1.
        -13    1    3    3    0    0  0.31612858814E+02 -0.63039159463E+03 -0.36428137625E+03  0.72876186543E+03  0.00000000000E+00 0. -1.
         22    1    1    2    0    0 -0.39622623767E+02  0.10120616941E+04 -0.14865274965E+04  0.17987781471E+04  0.00000000000E+00 0. -1.
<mgrwt>
<rscale>  0 0.21540344E+04</rscale>
<asrwt>0</asrwt>
<pdfrwt beam="1">  1        2 0.37916789E+00 0.21540344E+04</pdfrwt>
<pdfrwt beam="2">  1       -2 0.72408080E-01 0.21540344E+04</pdfrwt>
<totfact> 0.57796631E+00</totfact>
</mgrwt>
</event>
<event>
 6    1  0.9512547E-007  0.1424860E+04  0.7818608E-02  0.8936018E-01
          1   -1    0    0  501    0  0.00000000000E+00  0.00000000000E+00  0.10870577180E+04  0.10870577180E+04  0.00000000000E+00 0. -1.
         -1   -1    0    0    0  501 -0.00000000000E+00 -0.00000000000E+00 -0.46690820732E+03  0.46690820732E+03  0.00000000000E+00 0.  1.
         23    2    1    2    0    0  0.47609666196E+02  0.59631423672E+03 -0.10469810507E+03  0.61414604083E+03  0.91412893119E+02 0.  0.
         11    1    3    3    0    0  0.65964424894E+02  0.26518962008E+03 -0.38477247463E+02  0.27596619091E+03  0.00000000000E+00 0.  1.
        -11    1    3    3    0    0 -0.18354758698E+02  0.33112461664E+03 -0.66220857609E+02  0.33817984992E+03  0.00000000000E+00 0. -1.
         22    1    1    2    0    0 -0.47609666196E+02 -0.59631423672E+03  0.72484761580E+03  0.93981988453E+03  0.00000000000E+00 0.  1.
<mgrwt>
<rscale>  0 0.14248595E+04</rscale>
<asrwt>0</asrwt>
<pdfrwt beam="1">  1        1 0.16723965E+00 0.14248595E+04</pdfrwt>
<pdfrwt beam="2">  1       -1 0.71832032E-01 0.14248595E+04</pdfrwt>
<totfact> 0.24687989E+01</totfact>
</mgrwt>
</event>
<event>
 6    1  0.9512547E-007  0.5174219E+04  0.7818608E-02  0.7802180E-01
          2   -1    0    0  501    0  0.00000000000E+00  0.00000000000E+00  0.32623269628E+04  0.32623269628E+04  0.00000000000E+00 0. -1.
         -2   -1    0    0    0  501 -0.00000000000E+00 -0.00000000000E+00 -0.20516443597E+04  0.20516443597E+04  0.00000000000E+00 0.  1.
         23    2    1    2    0    0  0.14177124040E+03  0.14911431941E+04  0.27708934695E+04  0.31511340523E+04  0.90488044959E+02 0.  0.
         13    1    3    3    0    0  0.10939560728E+03  0.80176952861E+03  0.15597983264E+04  0.17572059057E+04  0.00000000000E+00 0. -1.
        -13    1    3    3    0    0  0.32375633122E+02  0.68937366547E+03  0.12110951431E+04  0.13939281466E+04  0.00000000000E+00 0.  1.
         22    1    1    2    0    0 -0.14177124040E+03 -0.14911431941E+04 -0.15602108663E+04  0.21628372702E+04  0.00000000000E+00 0.  1.
<mgrwt>
<rscale>  0 0.51742187E+04</rscale>
<asrwt>0</asrwt>
<pdfrwt beam="1">  1        2 0.50189646E+00 0.51742187E+04</pdfrwt>
<pdfrwt beam="2">  1       -2 0.31563759E+00 0.51742187E+04</pdfrwt>
<totfact> 0.21560546E-02</totfact>
</mgrwt>
</event>
<event>
 6    1  0.9512547E-007  0.2485395E+04  0.7818608E-02  0.8408207E-01
         -1   -1    0    0    0  501 -0.00000000000E+00  0.00000000000E+00  0.47251419698E+03  0.47251419698E+03  0.00000000000E+00 0.  1.
          1   -1    0    0  501    0  0.00000000000E+00 -0.00000000000E+00 -0.32682562282E+04  0.32682562282E+04  0.00000000000E+00 0. -1.
         23    2    1    2    0    0 -0.11047323706E+04  0.37549842744E+03 -0.76437179081E+03  0.13981441782E+04  0.95447518272E+02 0.  0.
         11    1    3    3    0    0 -0.76559839077E+03  0.22334173023E+03 -0.48819320755E+03  0.93506953341E+03  0.00000000000E+00 0. -1.
        -11    1    3    3    0    0 -0.33913397980E+03  0.15215669721E+03 -0.27617858326E+03  0.46307464475E+03  0.00000000000E+00 0.  1.
         22    1    1    2    0    0  0.11047323706E+04 -0.37549842744E+03 -0.20313702404E+04  0.23426262471E+04  0.00000000000E+00 0. -1.
<mgrwt>
<rscale>  0 0.24853953E+04</rscale>
<asrwt>0</asrwt>
<pdfrwt beam="1">  1        1 0.50280866E+00 0.24853953E+04</pdfrwt>
<pdfrwt beam="2">  1       -1 0.72694491E-01 0.24853953E+04</pdfrwt>
<totfact> 0.64114082E-01</totfact>
</mgrwt>
</event>
<event>
 6    1  0.9512547E-007  0.1809854E+04  0.7818608E-02  0.8701077E-01
          2   -1    0    0  501    0  0.00000000000E+00  0.00000000000E+00  0.31960702852E+04  0.31960702852E+04  0.00000000000E+00 0. -1.
         -2   -1    0    0    0  501 -0.00000000000E+00 -0.00000000000E+00 -0.25621870324E+03  0.25621870324E+03  0.00000000000E+00 0.  1.
         23    2    1    2    0    0  0.55297867043E+03 -0.52348693510E+03  0.54862253314E+03  0.94274712884E+03  0.89227147757E+02 0.  0.
         13    1    3    3    0    0  0.49546367135E+03 -0.50151451176E+03  0.50901097156E+03  0.86953621218E+03  0.00000000000E+00 0. -1.
        -13    1    3    3    0    0  0.57514999081E+02 -0.21972423340E+02  0.39611561578E+02  0.73210916654E+02  0.00000000000E+00 0.  1.
         22    1    1    2    0    0 -0.55297867043E+03  0.52348693510E+03  0.23912290488E+04  0.25095418596E+04  0.00000000000E+00 0. -1.
<mgrwt>
<rscale>  0 0.18098541E+04</rscale>
<asrwt>0</asrwt>
<pdfrwt beam="1">  1        2 0.49170309E+00 0.18098541E+04</pdfrwt>
<pdfrwt beam="2">  1       -2 0.39418264E-01 0.18098541E+04</pdfrwt>
<totfact> 0.75288479E+00</totfact>
</mgrwt>
</event>
<event>
 6    1  0.9512547E-007  0.2798898E+04  0.7818608E-02  0.8303611E-01
         -1   -1    0    0    0  501 -0.00000000000E+00  0.00000000000E+00  0.36263104308E+03  0.36263104308E+03  0.00000000000E+00 0.  1.
          1   -1    0    0  501    0  0.00000000000E+00 -0.00000000000E+00 -0.54006879187E+04  0.54006879187E+04  0.00000000000E+00 0. -1.
         23    2    1    2    0    0  0.10986779081E+04  0.78890312258E+02 -0.74916768388E+03  0.13352395444E+04  0.91080158670E+02 0.  0.
         13    1    3    3    0    0  0.45868408801E+03 -0.10546729118E+02 -0.32500939462E+03  0.56225744342E+03  0.00000000000E+00 0.  1.
        -13    1    3    3    0    0  0.63999382012E+03  0.89437041375E+02 -0.42415828926E+03  0.77298210103E+03  0.00000000000E+00 0. -1.
         22    1    1    2    0    0 -0.10986779081E+04 -0.78890312258E+02 -0.42888891918E+04  0.44280794173E+04  0.00000000000E+00 0. -1.
<mgrwt>
<rscale>  0 0.27988977E+04</rscale>
<asrwt>0</asrwt>
<pdfrwt beam="1">  1        1 0.83087510E+00 0.27988977E+04</pdfrwt>
<pdfrwt beam="2">  1       -1 0.55789389E-01 0.27988977E+04</pdfrwt>
<totfact> 0.63814212E-03</totfact>
</mgrwt>
</event>
<event>
 6    1  0.9512547E-007  0.2555952E+04  0.7818608E-02  0.8383319E-01
          2   -1    0    0  501    0  0.00000000000E+00  0.00000000000E+00  0.12701234904E+04  0.12701234904E+04  0.00000000000E+00 0. -1.
         -2   -1    0    0    0  501 -0.00000000000E+00 -0.00000000000E+00 -0.12858770181E+04  0.12858770181E+04  0.00000000000E+00 0.  1.
         23    2    1    2    0    0 -0.13941833540E+03  0.50239036686E+03 -0.11727362725E+04  0.12869683478E+04  0.95622227235E+02 0.  0.
         13    1    3    3    0    0 -0.92681876331E+02  0.44364960837E+03 -0.10402139993E+04  0.11346629762E+04  0.00000000000E+00 0. -1.
        -13    1    3    3    0    0 -0.46736459069E+02  0.58740758493E+02 -0.13252227324E+03  0.15230537160E+03  0.00000000000E+00 0.  1.
         22    1    1    2    0    0  0.13941833540E+03 -0.50239036686E+03  0.11569827449E+04  0.12690321607E+04  0.00000000000E+00 0. -1.
<mgrwt>
<rscale>  0 0.25559520E+04</rscale>
<asrwt>0</asrwt>
<pdfrwt beam="1">  1        2 0.19540362E+00 0.25559520E+04</pdfrwt>
<pdfrwt beam="2">  1       -2 0.19782723E+00 0.25559520E+04</pdfrwt>
<totfact> 0.21003712E+00</totfact>
</mgrwt>
</event>
<event>
 6    1  0.9512547E-007  0.4434357E+04  0.7818608E-02  0.7922231E-01
          1   -1    0    0  501    0  0.00000000000E+00  0.00000000000E+00  0.25050751273E+04  0.25050751273E+04  0.00000000000E+00 0. -1.
         -1   -1    0    0    0  501 -0.00000000000E+00 -0.00000000000E+00 -0.19623688187E+04  0.19623688187E+04  0.00000000000E+00 0.  1.
         23    2    1    2    0    0  0.12483902308E+03  0.11743185006E+04 -0.16179634478E+04  0.20051071457E+04  0.89667300963E+02 0.  0.
         11    1    3    3    0    0  0.12215457480E+03  0.76507199226E+03 -0.10806444670E+04  0.13296801712E+04  0.00000000000E+00 0. -1.
        -11    1    3    3    0    0  0.26844482817E+01  0.40924650829E+03 -0.53731898073E+03  0.67542697449E+03  0.00000000000E+00 0.  1.
         22    1    1    2    0    0 -0.12483902308E+03 -0.11743185006E+04  0.21606697563E+04  0.24623368004E+04  0.00000000000E+00 0. -1.
<mgrwt>
<rscale>  0 0.44343574E+04</rscale>
<asrwt>0</asrwt>
<pdfrwt beam="1">  1        1 0.38539617E+00 0.44343574E+04</pdfrwt>
<pdfrwt beam="2">  1       -1 0.30190289E+00 0.44343574E+04</pdfrwt>
<totfact> 0.32588503E-02</totfact>
</mgrwt>
</event>
<event>
 6    1  0.9512547E-007  0.3482194E+04  0.7818608E-02  0.8118023E-01
         -1   -1    0    0    0  501 -0.00000000000E+00  0.00000000000E+00  0.14419128771E+04  0.14419128771E+04  0.00000000000E+00 0.  1.
          1   -1    0    0  501    0  0.00000000000E+00 -0.00000000000E+00 -0.21023595261E+04  0.21023595261E+04  0.00000000000E+00 0. -1.
         23    2    1    2    0    0  0.13662093391E+04  0.32721524612E+03  0.71432036333E+03  0.15786727202E+04  0.91412255650E+02 0.  0.
         13    1    3    3    0    0  0.49512749057E+03  0.74910388298E+02  0.24235589209E+03  0.55632650181E+03  0.00000000000E+00 0. -1.
        -13    1    3    3    0    0  0.87108184852E+03  0.25230485782E+03  0.47196447124E+03  0.10223462184E+04  0.00000000000E+00 0.  1.
         22    1    1    2    0    0 -0.13662093391E+04 -0.32721524612E+03 -0.13747670123E+04  0.19655996830E+04  0.00000000000E+00 0. -1.
<mgrwt>
<rscale>  0 0.34821943E+04</rscale>
<asrwt>0</asrwt>
<pdfrwt beam="1">  1        1 0.32343992E+00 0.34821943E+04</pdfrwt>
<pdfrwt beam="2">  1       -1 0.22183275E+00 0.34821943E+04</pdfrwt>
<totfact> 0.22195819E-01</totfact>
</mgrwt>
</event>
<event>
 6    1  0.9512547E-007  0.1682458E+04  0.7818608E-02  0.8771433E-01
         -2   -1    0    0    0  501 -0.00000000000E+00  0.00000000000E+00  0.24859442693E+03  0.24859442693E+03  0.00000000000E+00 0.  1.
          2   -1    0    0  501    0  0.00000000000E+00 -0.00000000000E+00 -0.28466702198E+04  0.28466702198E+04  0.00000000000E+00 0. -1.
         23    2    1    2    0    0 -0.14495152466E+03 -0.80863263962E+03 -0.16136329267E+04  0.18130690894E+04  0.92252970882E+02 0.  0.
         11    1    3    3    0    0 -0.52089854427E+02 -0.34420278895E+03 -0.78287869497E+03  0.85678933461E+03  0.00000000000E+00 0.  1.
        -11    1    3    3    0    0 -0.92861670232E+02 -0.46442985066E+03 -0.83075423168E+03  0.95627975480E+03  0.00000000000E+00 0. -1.
         22    1    1    2    0    0  0.14495152466E+03  0.80863263962E+03 -0.98444286622E+03  0.12821955573E+04  0.00000000000E+00 0.  1.
<mgrwt>
<rscale>  0 0.16824581E+04</rscale>
<asrwt>0</asrwt>
<pdfrwt beam="1">  1        2 0.43794926E+00 0.16824581E+04</pdfrwt>
<pdfrwt beam="2">  1       -2 0.38245297E-01 0.16824581E+04</pdfrwt>
<totfact> 0.13375891E+01</totfact>
</mgrwt>
</event>
<event>
 6    1  0.9512547E-007  0.1372329E+04  0.7818608E-02  0.8974096E-01
          1   -1    0    0  501    0  0.00000000000E+00  0.00000000000E+00  0.18223161959E+04  0.18223161959E+04  0.00000000000E+00 0. -1.
         -1   -1    0    0    0  501 -0.00000000000E+00 -0.00000000000E+00 -0.25836429294E+03  0.25836429294E+03  0.00000000000E+00 0.  1.
         23    2    1    2    0    0 -0.57733561489E+02 -0.39685370513E+02  0.18157329999E+04  0.18193343323E+04  0.90459897164E+02 0.  0.
         11    1    3    3    0    0  0.20877915368E+01 -0.51745654084E+02  0.98686824392E+03  0.98822613932E+03  0.00000000000E+00 0.  1.
        -11    1    3    3    0    0 -0.59821353026E+02  0.12060283572E+02  0.82886475602E+03  0.83110819301E+03  0.00000000000E+00 0. -1.
         22    1    1    2    0    0  0.57733561489E+02  0.39685370513E+02 -0.25178109695E+03  0.26134615653E+03  0.00000000000E+00 0.  1.
<mgrwt>
<rscale>  0 0.13723286E+04</rscale>
<asrwt>0</asrwt>
<pdfrwt beam="1">  1        1 0.28035633E+00 0.13723286E+04</pdfrwt>
<pdfrwt beam="2">  1       -1 0.39748354E-01 0.13723286E+04</pdfrwt>
<totfact> 0.23697793E+01</totfact>
</mgrwt>
</event>
<event>
 6    1  0.9512547E-007  0.1072198E+04  0.7818608E-02  0.9232721E-01
          3   -1    0    0  501    0  0.00000000000E+00  0.00000000000E+00  0.14558013755E+04  0.14558013755E+04  0.00000000000E+00 0. -1.
         -3   -1    0    0    0  501 -0.00000000000E+00 -0.00000000000E+00 -0.19741850588E+03  0.19741850588E+03  0.00000000000E+00 0.  1.
         23    2    1    2    0    0  0.31477462983E+03 -0.11026849062E+03 -0.63837792677E+01  0.34521495642E+03  0.88827956684E+02 0.  0.
         11    1    3    3    0    0  0.12306878320E+03 -0.29088668315E+02  0.38610098649E+02  0.13222259920E+03  0.00000000000E+00 0. -1.
        -11    1    3    3    0    0  0.19170584663E+03 -0.81179822302E+02 -0.44993877916E+02  0.21299235722E+03  0.00000000000E+00 0.  1.
         22    1    1    2    0    0 -0.31477462983E+03  0.11026849062E+03  0.12647666489E+04  0.13080049249E+04  0.00000000000E+00 0. -1.
<mgrwt>
<rscale>  0 0.10721980E+04</rscale>
<asrwt>0</asrwt>
<pdfrwt beam="1">  1        3 0.22396944E+00 0.10721980E+04</pdfrwt>
<pdfrwt beam="2">  1       -3 0.30372079E-01 0.10721980E+04</pdfrwt>
<totfact> 0.29131333E+00</totfact>
</mgrwt>
</event>
<event>
 6    1  0.9512547E-007  0.2829977E+04  0.7818608E-02  0.8294022E-01
          2   -1    0    0  501    0  0.00000000000E+00  0.00000000000E+00  0.31861553191E+04  0.31861553191E+04  0.00000000000E+00 0. -1.
         -2   -1    0    0    0  501 -0.00000000000E+00 -0.00000000000E+00 -0.62840390493E+03  0.62840390493E+03  0.00000000000E+00 0.  1.
         23    2    1    2    0    0  0.69648448389E+03 -0.11449960927E+04  0.18860213511E+04  0.23154501666E+04  0.90145706675E+02 0.  0.
         13    1    3    3    0    0  0.69318793380E+02 -0.12618754616E+03  0.25276161926E+03  0.29088971810E+03  0.00000000000E+00 0.  1.
        -13    1    3    3    0    0  0.62716569051E+03 -0.10188085465E+04  0.16332597318E+04  0.20245604485E+04  0.00000000000E+00 0. -1.
         22    1    1    2    0    0 -0.69648448389E+03  0.11449960927E+04  0.67173006306E+03  0.14991090575E+04  0.00000000000E+00 0.  1.
<mgrwt>
<rscale>  0 0.28299770E+04</rscale>
<asrwt>0</asrwt>
<pdfrwt beam="1">  1        2 0.49017773E+00 0.28299770E+04</pdfrwt>
<pdfrwt beam="2">  1       -2 0.96677525E-01 0.28299770E+04</pdfrwt>
<totfact> 0.10276200E+00</totfact>
</mgrwt>
</event>
<event>
 6    1  0.9512547E-007  0.3131250E+04  0.7818608E-02  0.8207214E-01
          2   -1    0    0  501    0  0.00000000000E+00  0.00000000000E+00  0.13924447646E+04  0.13924447646E+04  0.00000000000E+00 0. -1.
         -2   -1    0    0    0  501 -0.00000000000E+00 -0.00000000000E+00 -0.17603440716E+04  0.17603440716E+04  0.00000000000E+00 0.  1.
         23    2    1    2    0    0  0.12736898186E+04  0.80609233856E+03 -0.60540301119E+03  0.16268535094E+04  0.89827183371E+02 0.  0.
         13    1    3    3    0    0  0.86200756690E+03  0.52399340611E+03 -0.44583618241E+03  0.11029034575E+04  0.00000000000E+00 0. -1.
        -13    1    3    3    0    0  0.41168225165E+03  0.28209893245E+03 -0.15956682879E+03  0.52395005188E+03  0.00000000000E+00 0.  1.
         22    1    1    2    0    0 -0.12736898186E+04 -0.80609233856E+03  0.23750370412E+03  0.15259353268E+04  0.00000000000E+00 0. -1.
<mgrwt>
<rscale>  0 0.31312502E+04</rscale>
<asrwt>0</asrwt>
<pdfrwt beam="1">  1        2 0.21422227E+00 0.31312502E+04</pdfrwt>
<pdfrwt beam="2">  1       -2 0.27082216E+00 0.31312502E+04</pdfrwt>
<totfact> 0.59297320E-01</totfact>
</mgrwt>
</event>
<event>
 6    1  0.9512547E-007  0.3517544E+04  0.7818608E-02  0.8109645E-01
         -2   -1    0    0    0  501 -0.00000000000E+00  0.00000000000E+00  0.11634157934E+04  0.11634157934E+04  0.00000000000E+00 0.  1.
          2   -1    0    0  501    0  0.00000000000E+00 -0.00000000000E+00 -0.26587912928E+04  0.26587912928E+04  0.00000000000E+00 0. -1.
         23    2    1    2    0    0  0.11323010800E+04  0.96172326237E+03 -0.17687956942E+04  0.23116522305E+04  0.89891366965E+02 0.  0.
         11    1    3    3    0    0  0.25524934400E+03  0.26286229738E+03 -0.41055164832E+03  0.55027399623E+03  0.00000000000E+00 0. -1.
        -11    1    3    3    0    0  0.87705173599E+03  0.69886096499E+03 -0.13582440459E+04  0.17613782343E+04  0.00000000000E+00 0.  1.
         22    1    1    2    0    0 -0.11323010800E+04 -0.96172326237E+03  0.27342019486E+03  0.15105548557E+04  0.00000000000E+00 0.  1.
<mgrwt>
<rscale>  0 0.35175445E+04</rscale>
<asrwt>0</asrwt>
<pdfrwt beam="1">  1        2 0.40904481E+00 0.35175445E+04</pdfrwt>
<pdfrwt beam="2">  1       -2 0.17898705E+00 0.35175445E+04</pdfrwt>
<totfact> 0.42472624E-01</totfact>
</mgrwt>
</event>
<event>
 6    1  0.9512547E-007  0.1204246E+04  0.7818608E-02  0.9109148E-01
          1   -1    0    0  501    0  0.00000000000E+00  0.00000000000E+00  0.20314052502E+04  0.20314052502E+04  0.00000000000E+00 0. -1.
         -1   -1    0    0    0  501 -0.00000000000E+00 -0.00000000000E+00 -0.17847352943E+03  0.17847352943E+03  0.00000000000E+00 0.  1.
         23    2    1    2    0    0  0.33309619779E+02  0.33068425215E+03  0.18140896984E+02  0.34522895394E+03  0.91609678028E+02 0.  0.
         11    1    3    3    0    0  0.59452369935E+02  0.26476198768E+03 -0.25102235665E+01  0.27136653374E+03  0.00000000000E+00 0. -1.
        -11    1    3    3    0    0 -0.26142750156E+02  0.65922264464E+02  0.20651120550E+02  0.73862420200E+02  0.00000000000E+00 0.  1.
         22    1    1    2    0    0 -0.33309619779E+02 -0.33068425215E+03  0.18347908238E+04  0.18646498257E+04  0.00000000000E+00 0. -1.
<mgrwt>
<rscale>  0 0.12042459E+04</rscale>
<asrwt>0</asrwt>
<pdfrwt beam="1">  1        1 0.31252387E+00 0.12042459E+04</pdfrwt>
<pdfrwt beam="2">  1       -1 0.27457467E-01 0.12042459E+04</pdfrwt>
<totfact> 0.33509772E+01</totfact>
</mgrwt>
</event>
<event>
 6    1  0.9512547E-007  0.2243138E+04  0.7818608E-02  0.8500685E-01
         -2   -1    0    0    0  501 -0.00000000000E+00  0.00000000000E+00  0.19863215443E+04  0.19863215443E+04  0.00000000000E+00 0.  1.
          2   -1    0    0  501    0  0.00000000000E+00 -0.00000000000E+00 -0.63328962927E+03  0.63328962927E+03  0.00000000000E+00 0. -1.
         23    2    1    2    0    0  0.33320248323E+03 -0.60702577784E+03  0.17052932398E+04  0.18426991897E+04  0.89504638363E+02 0.  0.
         11    1    3    3    0    0  0.18575609205E+03 -0.25156197637E+03  0.80509632745E+03  0.86369488256E+03  0.00000000000E+00 0.  1.
        -11    1    3    3    0    0  0.14744639118E+03 -0.35546380147E+03  0.90019691230E+03  0.97900430711E+03  0.00000000000E+00 0. -1.
         22    1    1    2    0    0 -0.33320248323E+03  0.60702577784E+03 -0.35226132473E+03  0.77691198388E+03  0.00000000000E+00 0. -1.
<mgrwt>
<rscale>  0 0.22431378E+04</rscale>
<asrwt>0</asrwt>
<pdfrwt beam="1">  1        2 0.97429175E-01 0.22431378E+04</pdfrwt>
<pdfrwt beam="2">  1       -2 0.30558793E+00 0.22431378E+04</pdfrwt>
<totfact> 0.12429148E+00</totfact>
</mgrwt>
</event>
<event>
 6    1  0.9512547E-007  0.2048911E+04  0.7818608E-02  0.8584089E-01
          2   -1    0    0  501    0  0.00000000000E+00  0.00000000000E+00  0.13811203005E+04  0.13811203005E+04  0.00000000000E+00 0. -1.
         -2   -1    0    0    0  501 -0.00000000000E+00 -0.00000000000E+00 -0.75989678135E+03  0.75989678135E+03  0.00000000000E+00 0.  1.
         23    2    1    2    0    0  0.88904040415E+03 -0.25557407563E+03 -0.14386941931E+03  0.94056793559E+03  0.90877298075E+02 0.  0.
         11    1    3    3    0    0  0.20624598578E+03 -0.89112901047E+02 -0.61671207197E+02  0.23298466383E+03  0.00000000000E+00 0. -1.
        -11    1    3    3    0    0  0.68279441836E+03 -0.16646117458E+03 -0.82198212110E+02  0.70758327175E+03  0.00000000000E+00 0.  1.
         22    1    1    2    0    0 -0.88904040415E+03  0.25557407563E+03  0.76509293850E+03  0.12004491463E+04  0.00000000000E+00 0. -1.
<mgrwt>
<rscale>  0 0.20489108E+04</rscale>
<asrwt>0</asrwt>
<pdfrwt beam="1">  1        2 0.21248005E+00 0.20489108E+04</pdfrwt>
<pdfrwt beam="2">  1       -2 0.11690720E+00 0.20489108E+04</pdfrwt>
<totfact> 0.77773471E+00</totfact>
</mgrwt>
</event>
<event>
 6    1  0.9512547E-007  0.2600566E+04  0.7818608E-02  0.8368009E-01
          1   -1    0    0  501    0  0.00000000000E+00  0.00000000000E+00  0.27943209683E+04  0.27943209683E+04  0.00000000000E+00 0. -1.
         -1   -1    0    0    0  501 -0.00000000000E+00 -0.00000000000E+00 -0.60506147204E+03  0.60506147204E+03  0.00000000000E+00 0.  1.
         23    2    1    2    0    0 -0.72098351265E+03  0.67803838908E+03 -0.31173467434E+01  0.99395742502E+03  0.91588003156E+02 0.  0.
         13    1    3    3    0    0 -0.61416236264E+03  0.61863489087E+03 -0.28922458164E+01  0.87172983256E+03  0.00000000000E+00 0. -1.
        -13    1    3    3    0    0 -0.10682115001E+03  0.59403498215E+02 -0.22510092701E+00  0.12222759246E+03  0.00000000000E+00 0.  1.
         22    1    1    2    0    0  0.72098351265E+03 -0.67803838908E+03  0.21923768430E+04  0.24054250153E+04  0.00000000000E+00 0. -1.
<mgrwt>
<rscale>  0 0.26005661E+04</rscale>
<asrwt>0</asrwt>
<pdfrwt beam="1">  1        1 0.42989553E+00 0.26005661E+04</pdfrwt>
<pdfrwt beam="2">  1       -1 0.93086382E-01 0.26005661E+04</pdfrwt>
<totfact> 0.82998531E-01</totfact>
</mgrwt>
</event>
<event>
 6    1  0.9512547E-007  0.1358485E+04  0.7818608E-02  0.8984430E-01
         -1   -1    0    0    0  501 -0.00000000000E+00  0.00000000000E+00  0.26042870664E+03  0.26042870664E+03  0.00000000000E+00 0.  1.
          1   -1    0    0  501    0  0.00000000000E+00 -0.00000000000E+00 -0.17715795808E+04  0.17715795808E+04  0.00000000000E+00 0. -1.
         23    2    1    2    0    0  0.69253400820E+02  0.64218334937E+03 -0.45677264841E+03  0.79551771705E+03  0.83735882745E+02 0.  0.
         13    1    3    3    0    0  0.62325685492E+02  0.21749147725E+03 -0.17065098687E+03  0.28338806091E+03  0.00000000000E+00 0.  1.
        -13    1    3    3    0    0  0.69277153281E+01  0.42469187212E+03 -0.28612166154E+03  0.51212965613E+03  0.00000000000E+00 0. -1.
         22    1    1    2    0    0 -0.69253400820E+02 -0.64218334937E+03 -0.10543782258E+04  0.12364905704E+04  0.00000000000E+00 0. -1.
<mgrwt>
<rscale>  0 0.13584847E+04</rscale>
<asrwt>0</asrwt>
<pdfrwt beam="1">  1        1 0.27255071E+00 0.13584847E+04</pdfrwt>
<pdfrwt beam="2">  1       -1 0.40065955E-01 0.13584847E+04</pdfrwt>
<totfact> 0.25310145E+01</totfact>
</mgrwt>
</event>
<event>
 6    1  0.9512547E-007  0.1491013E+04  0.7818608E-02  0.8890451E-01
         -2   -1    0    0    0  501 -0.00000000000E+00  0.00000000000E+00  0.76386472462E+03  0.76386472462E+03  0.00000000000E+00 0.  1.
          2   -1    0    0  501    0  0.00000000000E+00 -0.00000000000E+00 -0.72758936411E+03  0.72758936411E+03  0.00000000000E+00 0. -1.
         23    2    1    2    0    0 -0.59799946780E+03 -0.72007911992E+02  0.45215587670E+03  0.75950797963E+03  0.98076151022E+02 0.  0.
         13    1    3    3    0    0 -0.43687855090E+03 -0.16867851381E+02  0.29211142050E+03  0.52581030289E+03  0.00000000000E+00 0.  1.
        -13    1    3    3    0    0 -0.16112091690E+03 -0.55140060611E+02  0.16004445620E+03  0.23369767673E+03  0.00000000000E+00 0. -1.
         22    1    1    2    0    0  0.59799946780E+03  0.72007911992E+02 -0.41588051619E+03  0.73194610910E+03  0.00000000000E+00 0. -1.
<mgrwt>
<rscale>  0 0.14910129E+04</rscale>
<asrwt>0</asrwt>
<pdfrwt beam="1">  1        2 0.11193683E+00 0.14910129E+04</pdfrwt>
<pdfrwt beam="2">  1       -2 0.11751765E+00 0.14910129E+04</pdfrwt>
<totfact> 0.21083562E+01</totfact>
</mgrwt>
</event>
<event>
 6    1  0.9512547E-007  0.3279326E+04  0.7818608E-02  0.8168176E-01
          2   -1    0    0  501    0  0.00000000000E+00  0.00000000000E+00  0.26963126625E+04  0.26963126625E+04  0.00000000000E+00 0. -1.
         -2   -1    0    0    0  501 -0.00000000000E+00 -0.00000000000E+00 -0.99710063574E+03  0.99710063574E+03  0.00000000000E+00 0.  1.
         23    2    1    2    0    0 -0.91068815377E+03  0.13296695589E+04  0.11821494790E+04  0.20008626409E+04  0.92735472300E+02 0.  0.
         13    1    3    3    0    0 -0.11988308254E+03  0.12649805465E+03  0.13832244260E+03  0.22250125716E+03  0.00000000000E+00 0. -1.
        -13    1    3    3    0    0 -0.79080507123E+03  0.12031715042E+04  0.10438270364E+04  0.17783613838E+04  0.00000000000E+00 0.  1.
         22    1    1    2    0    0  0.91068815377E+03 -0.13296695589E+04  0.51706254769E+03  0.16925506573E+04  0.00000000000E+00 0.  1.
<mgrwt>
<rscale>  0 0.32793262E+04</rscale>
<asrwt>0</asrwt>
<pdfrwt beam="1">  1        2 0.41481733E+00 0.32793262E+04</pdfrwt>
<pdfrwt beam="2">  1       -2 0.15340010E+00 0.32793262E+04</pdfrwt>
<totfact> 0.63002520E-01</totfact>
</mgrwt>
</event>
<event>
 6    1  0.9512547E-007  0.4056801E+04  0.7818608E-02  0.7993185E-01
         -2   -1    0    0    0  501 -0.00000000000E+00  0.00000000000E+00  0.15550473932E+04  0.15550473932E+04  0.00000000000E+00 0.  1.
          2   -1    0    0  501    0  0.00000000000E+00 -0.00000000000E+00 -0.26458416119E+04  0.26458416119E+04  0.00000000000E+00 0. -1.
         23    2    1    2    0    0 -0.95549514297E+03  0.17597873655E+04 -0.87366401725E+03  0.21866973399E+04  0.92379116816E+02 0.  0.
         11    1    3    3    0    0 -0.19955738206E+03  0.44799266889E+03 -0.20276155280E+03  0.53069089629E+03  0.00000000000E+00 0. -1.
        -11    1    3    3    0    0 -0.75593776091E+03  0.13117946966E+04 -0.67090246445E+03  0.16560064436E+04  0.00000000000E+00 0.  1.
         22    1    1    2    0    0  0.95549514297E+03 -0.17597873655E+04 -0.21713020139E+03  0.20141916652E+04  0.00000000000E+00 0.  1.
<mgrwt>
<rscale>  0 0.40568013E+04</rscale>
<asrwt>0</asrwt>
<pdfrwt beam="1">  1        2 0.40705255E+00 0.40568013E+04</pdfrwt>
<pdfrwt beam="2">  1       -2 0.23923806E+00 0.40568013E+04</pdfrwt>
<totfact> 0.16814557E-01</totfact>
</mgrwt>
</event>
<event>
 6    1  0.9512547E-007  0.1441981E+04  0.7818608E-02  0.8923979E-01
          1   -1    0    0  501    0  0.00000000000E+00  0.00000000000E+00  0.11921349189E+04  0.11921349189E+04  0.00000000000E+00 0. -1.
         -1   -1    0    0    0  501 -0.00000000000E+00 -0.00000000000E+00 -0.43604718841E+03  0.43604718841E+03  0.00000000000E+00 0.  1.
         23    2    1    2    0    0  0.62859214558E+03 -0.34038417126E+03  0.45862274502E+03  0.85392447118E+03  0.88671927363E+02 0.  0.
         13    1    3    3    0    0  0.19438077972E+03 -0.11614805937E+03  0.19403783435E+03  0.29820285106E+03  0.00000000000E+00 0. -1.
        -13    1    3    3    0    0  0.43421136586E+03 -0.22423611189E+03  0.26458491067E+03  0.55572162012E+03  0.00000000000E+00 0.  1.
         22    1    1    2    0    0 -0.62859214558E+03  0.34038417126E+03  0.29746498548E+03  0.77425763614E+03  0.00000000000E+00 0. -1.
<mgrwt>
<rscale>  0 0.14419807E+04</rscale>
<asrwt>0</asrwt>
<pdfrwt beam="1">  1        1 0.18340537E+00 0.14419807E+04</pdfrwt>
<pdfrwt beam="2">  1       -1 0.67084183E-01 0.14419807E+04</pdfrwt>
<totfact> 0.23688786E+01</totfact>
</mgrwt>
</event>
<event>
 6    1  0.9512547E-007  0.2652074E+04  0.7818608E-02  0.8350725E-01
         -2   -1    0    0    0  501 -0.00000000000E+00  0.00000000000E+00  0.14315223585E+04  0.14315223585E+04  0.00000000000E+00 0.  1.
          2   -1    0    0  501    0  0.00000000000E+00 -0.00000000000E+00 -0.12283243866E+04  0.12283243866E+04  0.00000000000E+00 0. -1.
         23    2    1    2    0    0  0.44434931713E+03 -0.39506296643E+03 -0.10852565708E+04  0.12408202577E+04  0.91279923133E+02 0.  0.
         11    1    3    3    0    0  0.10331375236E+03 -0.14604522367E+03 -0.34324870505E+03  0.38706926034E+03  0.00000000000E+00 0. -1.
        -11    1    3    3    0    0  0.34103556477E+03 -0.24901774276E+03 -0.74200786575E+03  0.85375099736E+03  0.00000000000E+00 0.  1.
         22    1    1    2    0    0 -0.44434931713E+03  0.39506296643E+03  0.12884545427E+04  0.14190264873E+04  0.00000000000E+00 0.  1.
<mgrwt>
<rscale>  0 0.26520738E+04</rscale>
<asrwt>0</asrwt>
<pdfrwt beam="1">  1        2 0.18897298E+00 0.26520738E+04</pdfrwt>
<pdfrwt beam="2">  1       -2 0.22023421E+00 0.26520738E+04</pdfrwt>
<totfact> 0.15804928E+00</totfact>
</mgrwt>
</event>
<event>
 6    1  0.9512547E-007  0.6588136E+03  0.7818608E-02  0.9790380E-01
         -1   -1    0    0    0  501 -0.00000000000E+00  0.00000000000E+00  0.28913861180E+03  0.28913861180E+03  0.00000000000E+00 0.  1.
          1   -1    0    0  501    0  0.00000000000E+00 -0.00000000000E+00 -0.37528306278E+03  0.37528306278E+03  0.00000000000E+00 0. -1.
         23    2    1    2    0    0  0.27536338984E+03  0.79351305086E+02  0.10634576356E+03  0.31920564253E+03  0.91984752620E+02 0.  0.
         11    1    3    3    0    0  0.88569883013E+02 -0.15047392563E+02  0.48368874606E+02  0.10203232934E+03  0.00000000000E+00 0. -1.
        -11    1    3    3    0    0  0.18679350683E+03  0.94398697649E+02  0.57976888959E+02  0.21717331319E+03  0.00000000000E+00 0.  1.
         22    1    1    2    0    0 -0.27536338984E+03 -0.79351305086E+02 -0.19249021455E+03  0.34521603204E+03  0.00000000000E+00 0. -1.
<mgrwt>
<rscale>  0 0.65881355E+03</rscale>
<asrwt>0</asrwt>
<pdfrwt beam="1">  1        1 0.57735856E-01 0.65881355E+03</pdfrwt>
<pdfrwt beam="2">  1       -1 0.44482863E-01 0.65881355E+03</pdfrwt>
<totfact> 0.33116492E+02</totfact>
</mgrwt>
</event>
<event>
 6    1  0.9512547E-007  0.3160645E+04  0.7818608E-02  0.8199289E-01
          1   -1    0    0  501    0  0.00000000000E+00  0.00000000000E+00  0.20415157376E+04  0.20415157376E+04  0.00000000000E+00 0. -1.
         -1   -1    0    0    0  501 -0.00000000000E+00 -0.00000000000E+00 -0.12233163060E+04  0.12233163060E+04  0.00000000000E+00 0.  1.
         23    2    1    2    0    0  0.76255306641E+03  0.77086308705E+02  0.18354557830E+04  0.19911602011E+04  0.91605334369E+02 0.  0.
         13    1    3    3    0    0  0.25959490983E+03 -0.15912756321E+02  0.64641151731E+03  0.69677154271E+03  0.00000000000E+00 0. -1.
        -13    1    3    3    0    0  0.50295815658E+03  0.92999065026E+02  0.11890442657E+04  0.12943886584E+04  0.00000000000E+00 0.  1.
         22    1    1    2    0    0 -0.76255306641E+03 -0.77086308705E+02 -0.10172563513E+04  0.12736718425E+04  0.00000000000E+00 0.  1.
<mgrwt>
<rscale>  0 0.31606452E+04</rscale>
<asrwt>0</asrwt>
<pdfrwt beam="1">  1        1 0.31407934E+00 0.31606452E+04</pdfrwt>
<pdfrwt beam="2">  1       -1 0.18820251E+00 0.31606452E+04</pdfrwt>
<totfact> 0.42650168E-01</totfact>
</mgrwt>
</event>
<event>
 6    1  0.9512547E-007  0.5593394E+04  0.7818608E-02  0.7742967E-01
          2   -1    0    0  501    0  0.00000000000E+00  0.00000000000E+00  0.35608564006E+04  0.35608564006E+04  0.00000000000E+00 0. -1.
         -2   -1    0    0    0  501 -0.00000000000E+00 -0.00000000000E+00 -0.21965258765E+04  0.21965258765E+04  0.00000000000E+00 0.  1.
         23    2    1    2    0    0  0.35426331300E+03  0.18138935038E+04 -0.14771234995E+04  0.23677549958E+04  0.93047027647E+02 0.  0.
         13    1    3    3    0    0  0.26926641653E+03  0.12928943549E+04 -0.11041188068E+04  0.17213827452E+04  0.00000000000E+00 0.  1.
        -13    1    3    3    0    0  0.84996896464E+02  0.52099914893E+03 -0.37300469274E+03  0.64637225064E+03  0.00000000000E+00 0. -1.
         22    1    1    2    0    0 -0.35426331300E+03 -0.18138935038E+04  0.28414540236E+04  0.33896272813E+04  0.00000000000E+00 0. -1.
<mgrwt>
<rscale>  0 0.55933937E+04</rscale>
<asrwt>0</asrwt>
<pdfrwt beam="1">  1        2 0.54782406E+00 0.55933937E+04</pdfrwt>
<pdfrwt beam="2">  1       -2 0.33792706E+00 0.55933937E+04</pdfrwt>
<totfact> 0.94549425E-03</totfact>
</mgrwt>
</event>
<event>
 6    1  0.9512547E-007  0.1956446E+04  0.7818608E-02  0.8627259E-01
          2   -1    0    0  501    0  0.00000000000E+00  0.00000000000E+00  0.10442681030E+04  0.10442681030E+04  0.00000000000E+00 0. -1.
         -2   -1    0    0    0  501 -0.00000000000E+00 -0.00000000000E+00 -0.91635494297E+03  0.91635494297E+03  0.00000000000E+00 0.  1.
         23    2    1    2    0    0 -0.43160047785E+03 -0.61960698267E+03  0.68392525608E+03  0.10228910819E+04  0.91436448552E+02 0.  0.
         13    1    3    3    0    0 -0.15801372930E+03 -0.27650786879E+03  0.33528960709E+03  0.46243276351E+03  0.00000000000E+00 0. -1.
        -13    1    3    3    0    0 -0.27358674855E+03 -0.34309911389E+03  0.34863564899E+03  0.56045831841E+03  0.00000000000E+00 0.  1.
         22    1    1    2    0    0  0.43160047785E+03  0.61960698267E+03 -0.55601209605E+03  0.93773196405E+03  0.00000000000E+00 0.  1.
<mgrwt>
<rscale>  0 0.19564460E+04</rscale>
<asrwt>0</asrwt>
<pdfrwt beam="1">  1        2 0.16065663E+00 0.19564460E+04</pdfrwt>
<pdfrwt beam="2">  1       -2 0.14097768E+00 0.19564460E+04</pdfrwt>
<totfact> 0.77619164E+00</totfact>
</mgrwt>
</event>
<event>
 6    1  0.9512547E-007  0.2642214E+04  0.7818608E-02  0.8354002E-01
         -2   -1    0    0    0  501 -0.00000000000E+00  0.00000000000E+00  0.67859263954E+03  0.67859263954E+03  0.00000000000E+00 0.  1.
          2   -1    0    0  501    0  0.00000000000E+00 -0.00000000000E+00 -0.25719752970E+04  0.25719752970E+04  0.00000000000E+00 0. -1.
         23    2    1    2    0    0  0.13701562534E+03 -0.80420212406E+03 -0.22237780557E+04  0.23704114407E+04  0.90261948263E+02 0.  0.
         11    1    3    3    0    0  0.10663816432E+03 -0.45510987897E+03 -0.11709732951E+04  0.12608232065E+04  0.00000000000E+00 0.  1.
        -11    1    3    3    0    0  0.30377461022E+02 -0.34909224510E+03 -0.10528047606E+04  0.11095882343E+04  0.00000000000E+00 0. -1.
         22    1    1    2    0    0 -0.13701562534E+03  0.80420212406E+03  0.33039539826E+03  0.88015649582E+03  0.00000000000E+00 0.  1.
<mgrwt>
<rscale>  0 0.26422138E+04</rscale>
<asrwt>0</asrwt>
<pdfrwt beam="1">  1        2 0.39568851E+00 0.26422138E+04</pdfrwt>
<pdfrwt beam="2">  1       -2 0.10439887E+00 0.26422138E+04</pdfrwt>
<totfact> 0.20758843E+00</totfact>
</mgrwt>
</event>
<event>
 6    1  0.9512547E-007  0.1905649E+04  0.7818608E-02  0.8652050E-01
          1   -1    0    0  501    0  0.00000000000E+00  0.00000000000E+00  0.93411144422E+03  0.93411144422E+03  0.00000000000E+00 0. -1.
         -1   -1    0    0    0  501 -0.00000000000E+00 -0.00000000000E+00 -0.97191237464E+03  0.97191237464E+03  0.00000000000E+00 0.  1.
         23    2    1    2    0    0 -0.69950930432E+03 -0.19229761572E+02 -0.66247919524E+03  0.96799077835E+03  0.91893483335E+02 0.  0.
         11    1    3    3    0    0 -0.22398040524E+03 -0.41947425935E+02 -0.18240153485E+03  0.29188547136E+03  0.00000000000E+00 0. -1.
        -11    1    3    3    0    0 -0.47552889908E+03  0.22717664363E+02 -0.48007766038E+03  0.67610530698E+03  0.00000000000E+00 0.  1.
         22    1    1    2    0    0  0.69950930432E+03  0.19229761572E+02  0.62467826482E+03  0.93803304051E+03  0.00000000000E+00 0. -1.
<mgrwt>
<rscale>  0 0.19056489E+04</rscale>
<asrwt>0</asrwt>
<pdfrwt beam="1">  1        1 0.14370945E+00 0.19056489E+04</pdfrwt>
<pdfrwt beam="2">  1       -1 0.14952498E+00 0.19056489E+04</pdfrwt>
<totfact> 0.56177660E+00</totfact>
</mgrwt>
</event>
<event>
 6    1  0.9512547E-007  0.8761637E+03  0.7818608E-02  0.9455878E-01
         -2   -1    0    0    0  501 -0.00000000000E+00  0.00000000000E+00  0.32280709945E+03  0.32280709945E+03  0.00000000000E+00 0.  1.
          2   -1    0    0  501    0  0.00000000000E+00 -0.00000000000E+00 -0.59452131808E+03  0.59452131808E+03  0.00000000000E+00 0. -1.
         23    2    1    2    0    0  0.19593668133E+03 -0.28295763038E+03  0.13830858762E+03  0.38200150309E+03  0.91321844413E+02 0.  0.
         13    1    3    3    0    0  0.81679273235E+02 -0.66422889875E+02  0.74563029698E+02  0.12900833064E+03  0.00000000000E+00 0.  1.
        -13    1    3    3    0    0  0.11425740809E+03 -0.21653474051E+03  0.63745557927E+02  0.25299317245E+03  0.00000000000E+00 0. -1.
         22    1    1    2    0    0 -0.19593668133E+03  0.28295763038E+03 -0.41002280626E+03  0.53532691445E+03  0.00000000000E+00 0. -1.
<mgrwt>
<rscale>  0 0.87616369E+03</rscale>
<asrwt>0</asrwt>
<pdfrwt beam="1">  1        2 0.91464817E-01 0.87616369E+03</pdfrwt>
<pdfrwt beam="2">  1       -2 0.49662631E-01 0.87616369E+03</pdfrwt>
<totfact> 0.19325275E+02</totfact>
</mgrwt>
</event>
<event>
 6    1  0.9512547E-007  0.7179495E+03  0.7818608E-02  0.9687019E-01
          1   -1    0    0  501    0  0.00000000000E+00  0.00000000000E+00  0.40530072472E+03  0.40530072472E+03  0.00000000000E+00 0. -1.
         -1   -1    0    0    0  501 -0.00000000000E+00 -0.00000000000E+00 -0.31794387667E+03  0.31794387667E+03  0.00000000000E+00 0.  1.
         23    2    1    2    0    0 -0.10259698162E+03 -0.24773357711E+03  0.27559002213E+03  0.39563234019E+03  0.93150536452E+02 0.  0.
         11    1    3    3    0    0 -0.35030830374E+02 -0.19723185467E+02  0.72514373207E+02  0.82912589172E+02  0.00000000000E+00 0.  1.
        -11    1    3    3    0    0 -0.67566151249E+02 -0.22801039164E+03  0.20307564893E+03  0.31271975102E+03  0.00000000000E+00 0. -1.
         22    1    1    2    0    0  0.10259698162E+03  0.24773357711E+03 -0.18823317408E+03  0.32761226120E+03  0.00000000000E+00 0.  1.
<mgrwt>
<rscale>  0 0.71794953E+03</rscale>
<asrwt>0</asrwt>
<pdfrwt beam="1">  1        1 0.62353958E-01 0.71794953E+03</pdfrwt>
<pdfrwt beam="2">  1       -1 0.48914442E-01 0.71794953E+03</pdfrwt>
<totfact> 0.25001155E+02</totfact>
</mgrwt>
</event>
<event>
 6    1  0.9514121E-007  0.3862201E+04  0.7818608E-02  0.8032937E-01
         -1   -1    0    0    0  501 -0.00000000000E+00  0.00000000000E+00  0.10795879559E+04  0.10795879559E+04  0.00000000000E+00 0.  1.
          1   -1    0    0  501    0  0.00000000000E+00 -0.00000000000E+00 -0.34542345136E+04  0.34542345136E+04  0.00000000000E+00 0. -1.
         23    2    1    2    0    0  0.61341902839E+03  0.11111771767E+04  0.51888440851E+03  0.13741517470E+04  0.89746153638E+02 0.  0.
         13    1    3    3    0    0  0.19380846696E+03  0.27297064151E+03  0.14915415621E+03  0.36649918868E+03  0.00000000000E+00 0. -1.
        -13    1    3    3    0    0  0.41961056143E+03  0.83820653517E+03  0.36973025230E+03  0.10076525583E+04  0.00000000000E+00 0.  1.
         22    1    1    2    0    0 -0.61341902839E+03 -0.11111771767E+04 -0.28935309662E+04  0.31596707225E+04  0.00000000000E+00 0. -1.
<mgrwt>
<rscale>  0 0.38622014E+04</rscale>
<asrwt>0</asrwt>
<pdfrwt beam="1">  1        1 0.53142069E+00 0.38622014E+04</pdfrwt>
<pdfrwt beam="2">  1       -1 0.16609045E+00 0.38622014E+04</pdfrwt>
<totfact> 0.56432694E-02</totfact>
</mgrwt>
</event>
<event>
 6    1  0.1124310E-006  0.4921374E+04  0.7818608E-02  0.7840752E-01
          1   -1    0    0  501    0  0.00000000000E+00  0.00000000000E+00  0.30893498696E+04  0.30893498696E+04  0.00000000000E+00 0. -1.
         -1   -1    0    0    0  501 -0.00000000000E+00 -0.00000000000E+00 -0.19599530114E+04  0.19599530114E+04  0.00000000000E+00 0.  1.
         23    2    1    2    0    0  0.21102124011E+04  0.80354861381E+03  0.15660371970E+04  0.27494460294E+04  0.91072573561E+02 0.  0.
         11    1    3    3    0    0  0.14561313681E+04  0.54579888999E+03  0.10276517801E+04  0.18639429097E+04  0.00000000000E+00 0.  1.
        -11    1    3    3    0    0  0.65408103300E+03  0.25774972383E+03  0.53838541687E+03  0.88550311968E+03  0.00000000000E+00 0. -1.
         22    1    1    2    0    0 -0.21102124011E+04 -0.80354861381E+03 -0.43664033876E+03  0.22998568516E+04  0.00000000000E+00 0.  1.
<mgrwt>
<rscale>  0 0.49213740E+04</rscale>
<asrwt>0</asrwt>
<pdfrwt beam="1">  1        1 0.47528459E+00 0.49213740E+04</pdfrwt>
<pdfrwt beam="2">  1       -1 0.30153123E+00 0.49213740E+04</pdfrwt>
<totfact> 0.12047621E-02</totfact>
</mgrwt>
</event>
<event>
 6    1  0.9512547E-007  0.1633879E+04  0.7818608E-02  0.8800001E-01
         -1   -1    0    0    0  501 -0.00000000000E+00  0.00000000000E+00  0.43017870888E+03  0.43017870888E+03  0.00000000000E+00 0.  1.
          1   -1    0    0  501    0  0.00000000000E+00 -0.00000000000E+00 -0.15514256074E+04  0.15514256074E+04  0.00000000000E+00 0. -1.
         23    2    1    2    0    0  0.65895728400E+03 -0.12251315286E+03 -0.11234973791E+04  0.13113512004E+04  0.90340662121E+02 0.  0.
         11    1    3    3    0    0  0.36273712326E+03 -0.10422290790E+03 -0.67992942904E+03  0.77765330553E+03  0.00000000000E+00 0.  1.
        -11    1    3    3    0    0  0.29622016074E+03 -0.18290244962E+02 -0.44356795002E+03  0.53369789486E+03  0.00000000000E+00 0. -1.
         22    1    1    2    0    0 -0.65895728400E+03  0.12251315286E+03  0.22504804910E+01  0.67025311594E+03  0.00000000000E+00 0.  1.
<mgrwt>
<rscale>  0 0.16338791E+04</rscale>
<asrwt>0</asrwt>
<pdfrwt beam="1">  1        1 0.23868086E+00 0.16338791E+04</pdfrwt>
<pdfrwt beam="2">  1       -1 0.66181341E-01 0.16338791E+04</pdfrwt>
<totfact> 0.13342828E+01</totfact>
</mgrwt>
</event>
<event>
 6    1  0.1074221E-006  0.2847534E+04  0.7818608E-02  0.8288661E-01
          1   -1    0    0  501    0  0.00000000000E+00  0.00000000000E+00  0.21457502852E+04  0.21457502852E+04  0.00000000000E+00 0. -1.
         -1   -1    0    0    0  501 -0.00000000000E+00 -0.00000000000E+00 -0.94471041634E+03  0.94471041634E+03  0.00000000000E+00 0.  1.
         23    2    1    2    0    0  0.13597383068E+04 -0.14231651891E+03  0.17379574896E+03  0.13803809559E+04  0.78130446460E+02 0.  0.
         11    1    3    3    0    0  0.57498162268E+03 -0.36695631843E+02  0.10417419569E+03  0.58549355151E+03  0.00000000000E+00 0.  1.
        -11    1    3    3    0    0  0.78475668409E+03 -0.10562088706E+03  0.69621553273E+02  0.79488740441E+03  0.00000000000E+00 0. -1.
         22    1    1    2    0    0 -0.13597383068E+04  0.14231651891E+03  0.10272441199E+04  0.17100797456E+04  0.00000000000E+00 0. -1.
<mgrwt>
<rscale>  0 0.28475341E+04</rscale>
<asrwt>0</asrwt>
<pdfrwt beam="1">  1        1 0.33011543E+00 0.28475341E+04</pdfrwt>
<pdfrwt beam="2">  1       -1 0.14534007E+00 0.28475341E+04</pdfrwt>
<totfact> 0.77648193E-01</totfact>
</mgrwt>
</event>
<event>
 6    1  0.9512547E-007  0.3554908E+04  0.7818608E-02  0.8100899E-01
          1   -1    0    0  501    0  0.00000000000E+00  0.00000000000E+00  0.18566994721E+04  0.18566994721E+04  0.00000000000E+00 0. -1.
         -1   -1    0    0    0  501 -0.00000000000E+00 -0.00000000000E+00 -0.17015909598E+04  0.17015909598E+04  0.00000000000E+00 0.  1.
         23    2    1    2    0    0 -0.63889512586E+03 -0.91829929926E+03 -0.13034481606E+04  0.17201260885E+04  0.91630060911E+02 0.  0.
         11    1    3    3    0    0 -0.18314804421E+03 -0.20263425324E+03 -0.34644940903E+03  0.44117008024E+03  0.00000000000E+00 0.  1.
        -11    1    3    3    0    0 -0.45574708166E+03 -0.71566504602E+03 -0.95699875161E+03  0.12789560083E+04  0.00000000000E+00 0. -1.
         22    1    1    2    0    0  0.63889512586E+03  0.91829929926E+03  0.14585566729E+04  0.18381643433E+04  0.00000000000E+00 0. -1.
<mgrwt>
<rscale>  0 0.35549082E+04</rscale>
<asrwt>0</asrwt>
<pdfrwt beam="1">  1        1 0.28564607E+00 0.35549082E+04</pdfrwt>
<pdfrwt beam="2">  1       -1 0.26178322E+00 0.35549082E+04</pdfrwt>
<totfact> 0.17688594E-01</totfact>
</mgrwt>
</event>
<event>
 6    1  0.9512547E-007  0.2342160E+04  0.7818608E-02  0.8461481E-01
          1   -1    0    0  501    0  0.00000000000E+00  0.00000000000E+00  0.12103338276E+04  0.12103338276E+04  0.00000000000E+00 0. -1.
         -1   -1    0    0    0  501 -0.00000000000E+00 -0.00000000000E+00 -0.11330988661E+04  0.11330988661E+04  0.00000000000E+00 0.  1.
         23    2    1    2    0    0 -0.93644578687E+03  0.48067238925E+03 -0.47070405535E+03  0.11567508392E+04  0.92377155046E+02 0.  0.
         13    1    3    3    0    0 -0.95095836233E+02  0.56485753240E+02 -0.81061249754E+02  0.13713053854E+03  0.00000000000E+00 0. -1.
        -13    1    3    3    0    0 -0.84134995063E+03  0.42418663601E+03 -0.38964280559E+03  0.10196203007E+04  0.00000000000E+00 0.  1.
         22    1    1    2    0    0  0.93644578687E+03 -0.48067238925E+03  0.54793901693E+03  0.11866818545E+04  0.00000000000E+00 0. -1.
<mgrwt>
<rscale>  0 0.23421596E+04</rscale>
<asrwt>0</asrwt>
<pdfrwt beam="1">  1        1 0.18620520E+00 0.23421596E+04</pdfrwt>
<pdfrwt beam="2">  1       -1 0.17432290E+00 0.23421596E+04</pdfrwt>
<totfact> 0.21637569E+00</totfact>
</mgrwt>
</event>
<event>
 6    1  0.9512547E-007  0.2783324E+04  0.7818608E-02  0.8308464E-01
         -2   -1    0    0    0  501 -0.00000000000E+00  0.00000000000E+00  0.17924880417E+04  0.17924880417E+04  0.00000000000E+00 0.  1.
          2   -1    0    0  501    0  0.00000000000E+00 -0.00000000000E+00 -0.10804666795E+04  0.10804666795E+04  0.00000000000E+00 0. -1.
         23    2    1    2    0    0  0.96921621747E+03 -0.35039652391E+03 -0.60666845142E+03  0.11993058259E+04  0.90166811809E+02 0.  0.
         13    1    3    3    0    0  0.41203981057E+03 -0.19210533639E+03 -0.24492960367E+03  0.51640272707E+03  0.00000000000E+00 0.  1.
        -13    1    3    3    0    0  0.55717640690E+03 -0.15829118753E+03 -0.36173884774E+03  0.68290309885E+03  0.00000000000E+00 0. -1.
         22    1    1    2    0    0 -0.96921621747E+03  0.35039652391E+03  0.13186898136E+04  0.16736488953E+04  0.00000000000E+00 0.  1.
<mgrwt>
<rscale>  0 0.27833243E+04</rscale>
<asrwt>0</asrwt>
<pdfrwt beam="1">  1        2 0.16622564E+00 0.27833243E+04</pdfrwt>
<pdfrwt beam="2">  1       -2 0.27576739E+00 0.27833243E+04</pdfrwt>
<totfact> 0.87238066E-01</totfact>
</mgrwt>
</event>
<event>
 6    1  0.9512547E-007  0.2324254E+04  0.7818608E-02  0.8468419E-01
         -1   -1    0    0    0  501 -0.00000000000E+00  0.00000000000E+00  0.12097356318E+04  0.12097356318E+04  0.00000000000E+00 0.  1.
          1   -1    0    0  501    0  0.00000000000E+00 -0.00000000000E+00 -0.11163919404E+04  0.11163919404E+04  0.00000000000E+00 0. -1.
         23    2    1    2    0    0 -0.72146072103E+03 -0.81949490827E+03  0.43941509768E+03  0.11807704686E+04  0.95161939242E+02 0.  0.
         11    1    3    3    0    0 -0.65591125991E+02 -0.50257288370E+02  0.13085392173E+02  0.83661331160E+02  0.00000000000E+00 0. -1.
        -11    1    3    3    0    0 -0.65586959504E+03 -0.76923761990E+03  0.42632970551E+03  0.10971091374E+04  0.00000000000E+00 0.  1.
         22    1    1    2    0    0  0.72146072103E+03  0.81949490827E+03 -0.34607140630E+03  0.11453571037E+04  0.00000000000E+00 0.  1.
<mgrwt>
<rscale>  0 0.23242540E+04</rscale>
<asrwt>0</asrwt>
<pdfrwt beam="1">  1        1 0.17175261E+00 0.23242540E+04</pdfrwt>
<pdfrwt beam="2">  1       -1 0.18611317E+00 0.23242540E+04</pdfrwt>
<totfact> 0.20923047E+00</totfact>
</mgrwt>
</event>
<event>
 6    1  0.9512547E-007  0.4367537E+04  0.7818608E-02  0.7934247E-01
         -2   -1    0    0    0  501 -0.00000000000E+00  0.00000000000E+00  0.17303917483E+04  0.17303917483E+04  0.00000000000E+00 0.  1.
          2   -1    0    0  501    0  0.00000000000E+00 -0.00000000000E+00 -0.27559338750E+04  0.27559338750E+04  0.00000000000E+00 0. -1.
         23    2    1    2    0    0  0.59873932791E+03 -0.20037283167E+04  0.12951128242E+03  0.20972746972E+04  0.91498814337E+02 0.  0.
         11    1    3    3    0    0  0.24430722444E+03 -0.86252460247E+03  0.12029953146E+02  0.89653746690E+03  0.00000000000E+00 0. -1.
        -11    1    3    3    0    0  0.35443210346E+03 -0.11412037143E+04  0.11748132927E+03  0.12007372303E+04  0.00000000000E+00 0.  1.
         22    1    1    2    0    0 -0.59873932791E+03  0.20037283167E+04 -0.11550534091E+04  0.23890509262E+04  0.00000000000E+00 0. -1.
<mgrwt>
<rscale>  0 0.43675372E+04</rscale>
<asrwt>0</asrwt>
<pdfrwt beam="1">  1        2 0.42398982E+00 0.43675372E+04</pdfrwt>
<pdfrwt beam="2">  1       -2 0.26621412E+00 0.43675372E+04</pdfrwt>
<totfact> 0.96229085E-02</totfact>
</mgrwt>
</event>
<event>
 6    1  0.9512547E-007  0.2376046E+04  0.7818608E-02  0.8448526E-01
          2   -1    0    0  501    0  0.00000000000E+00  0.00000000000E+00  0.12239100734E+04  0.12239100734E+04  0.00000000000E+00 0. -1.
         -2   -1    0    0    0  501 -0.00000000000E+00 -0.00000000000E+00 -0.11531882615E+04  0.11531882615E+04  0.00000000000E+00 0.  1.
         23    2    1    2    0    0  0.83951599571E+02  0.70895394438E+03  0.98318322684E+03  0.12185434592E+04  0.92386893004E+02 0.  0.
         11    1    3    3    0    0  0.29161217708E+02  0.39885645239E+03  0.47778842211E+03  0.62307192405E+03  0.00000000000E+00 0. -1.
        -11    1    3    3    0    0  0.54790381863E+02  0.31009749199E+03  0.50539480473E+03  0.59547153511E+03  0.00000000000E+00 0.  1.
         22    1    1    2    0    0 -0.83951599571E+02 -0.70895394438E+03 -0.91246141498E+03  0.11585548758E+04  0.00000000000E+00 0.  1.
<mgrwt>
<rscale>  0 0.23760461E+04</rscale>
<asrwt>0</asrwt>
<pdfrwt beam="1">  1        2 0.18829386E+00 0.23760461E+04</pdfrwt>
<pdfrwt beam="2">  1       -2 0.17741358E+00 0.23760461E+04</pdfrwt>
<totfact> 0.31209816E+00</totfact>
</mgrwt>
</event>
<event>
 6    1  0.9512547E-007  0.3339787E+04  0.7818608E-02  0.8152845E-01
          2   -1    0    0  501    0  0.00000000000E+00  0.00000000000E+00  0.16844892729E+04  0.16844892729E+04  0.00000000000E+00 0. -1.
         -2   -1    0    0    0  501 -0.00000000000E+00 -0.00000000000E+00 -0.16554245191E+04  0.16554245191E+04  0.00000000000E+00 0.  1.
         23    2    1    2    0    0  0.11153188057E+04 -0.59215008982E+03  0.11047741728E+04  0.16810803099E+04  0.10453357420E+03 0.  0.
         11    1    3    3    0    0  0.84577636577E+03 -0.48609270865E+03  0.81208189260E+03  0.12692914490E+04  0.00000000000E+00 0.  1.
        -11    1    3    3    0    0  0.26954243992E+03 -0.10605738117E+03  0.29269228019E+03  0.41178886083E+03  0.00000000000E+00 0. -1.
         22    1    1    2    0    0 -0.11153188057E+04  0.59215008982E+03 -0.10757094190E+04  0.16588334821E+04  0.00000000000E+00 0.  1.
<mgrwt>
<rscale>  0 0.33397873E+04</rscale>
<asrwt>0</asrwt>
<pdfrwt beam="1">  1        2 0.25915220E+00 0.33397873E+04</pdfrwt>
<pdfrwt beam="2">  1       -2 0.25468070E+00 0.33397873E+04</pdfrwt>
<totfact> 0.50090459E-01</totfact>
</mgrwt>
</event>
<event>
 6    1  0.1152208E-006  0.3917718E+04  0.7818608E-02  0.8021354E-01
         -2   -1    0    0    0  501 -0.00000000000E+00  0.00000000000E+00  0.14516888540E+04  0.14516888540E+04  0.00000000000E+00 0.  1.
          2   -1    0    0  501    0  0.00000000000E+00 -0.00000000000E+00 -0.26432169185E+04  0.26432169185E+04  0.00000000000E+00 0. -1.
         23    2    1    2    0    0 -0.19082066554E+04  0.43703481672E+03 -0.60450401509E+03  0.20511716153E+04  0.98121457230E+02 0.  0.
         11    1    3    3    0    0 -0.87165705896E+03  0.15003887135E+03 -0.27995248852E+03  0.92772360495E+03  0.00000000000E+00 0. -1.
        -11    1    3    3    0    0 -0.10365495965E+04  0.28699594537E+03 -0.32455152657E+03  0.11234480104E+04  0.00000000000E+00 0.  1.
         22    1    1    2    0    0  0.19082066554E+04 -0.43703481672E+03 -0.58702404940E+03  0.20437341572E+04  0.00000000000E+00 0.  1.
<mgrwt>
<rscale>  0 0.39177180E+04</rscale>
<asrwt>0</asrwt>
<pdfrwt beam="1">  1        2 0.40664876E+00 0.39177180E+04</pdfrwt>
<pdfrwt beam="2">  1       -2 0.22333675E+00 0.39177180E+04</pdfrwt>
<totfact> 0.21454242E-01</totfact>
</mgrwt>
</event>
<event>
 6    1  0.9512547E-007  0.4205471E+04  0.7818608E-02  0.7964332E-01
          1   -1    0    0  501    0  0.00000000000E+00  0.00000000000E+00  0.21086822469E+04  0.21086822469E+04  0.00000000000E+00 0. -1.
         -1   -1    0    0    0  501 -0.00000000000E+00 -0.00000000000E+00 -0.20968056059E+04  0.20968056059E+04  0.00000000000E+00 0.  1.
         23    2    1    2    0    0 -0.19771083306E+04  0.71279449597E+03 -0.15400991731E+02  0.21036369033E+04  0.89541532050E+02 0.  0.
         13    1    3    3    0    0 -0.25469715862E+03  0.68300399327E+02 -0.21670119485E+02  0.26458492254E+03  0.00000000000E+00 0.  1.
        -13    1    3    3    0    0 -0.17224111720E+04  0.64449409664E+03  0.62691277541E+01  0.18390519808E+04  0.00000000000E+00 0. -1.
         22    1    1    2    0    0  0.19771083306E+04 -0.71279449597E+03  0.27277632643E+02  0.21018509495E+04  0.00000000000E+00 0.  1.
<mgrwt>
<rscale>  0 0.42054711E+04</rscale>
<asrwt>0</asrwt>
<pdfrwt beam="1">  1        1 0.32441265E+00 0.42054711E+04</pdfrwt>
<pdfrwt beam="2">  1       -1 0.32258548E+00 0.42054711E+04</pdfrwt>
<totfact> 0.45547860E-02</totfact>
</mgrwt>
</event>
<event>
 6    1  0.9512547E-007  0.1716092E+04  0.7818608E-02  0.8752239E-01
         -1   -1    0    0    0  501 -0.00000000000E+00  0.00000000000E+00  0.46812447949E+03  0.46812447949E+03  0.00000000000E+00 0.  1.
          1   -1    0    0  501    0  0.00000000000E+00 -0.00000000000E+00 -0.15727504916E+04  0.15727504916E+04  0.00000000000E+00 0. -1.
         23    2    1    2    0    0 -0.54516016003E+02 -0.25743715263E+03 -0.15221204181E+04  0.15473696899E+04  0.90865320459E+02 0.  0.
         13    1    3    3    0    0 -0.28158819490E+02 -0.24689804682E+03 -0.13103041091E+04  0.13336597853E+04  0.00000000000E+00 0. -1.
        -13    1    3    3    0    0 -0.26357196513E+02 -0.10539105813E+02 -0.21181630894E+03  0.21370990453E+03  0.00000000000E+00 0.  1.
         22    1    1    2    0    0  0.54516016003E+02  0.25743715263E+03  0.41749440598E+03  0.49350528120E+03  0.00000000000E+00 0.  1.
<mgrwt>
<rscale>  0 0.17160921E+04</rscale>
<asrwt>0</asrwt>
<pdfrwt beam="1">  1        1 0.24196162E+00 0.17160921E+04</pdfrwt>
<pdfrwt beam="2">  1       -1 0.72019149E-01 0.17160921E+04</pdfrwt>
<totfact> 0.10771884E+01</totfact>
</mgrwt>
</event>
<event>
 6    1  0.9512547E-007  0.2562129E+04  0.7818608E-02  0.8381180E-01
          2   -1    0    0  501    0  0.00000000000E+00  0.00000000000E+00  0.78191500945E+03  0.78191500945E+03  0.00000000000E+00 0. -1.
         -2   -1    0    0    0  501 -0.00000000000E+00 -0.00000000000E+00 -0.20988556024E+04  0.20988556024E+04  0.00000000000E+00 0.  1.
         23    2    1    2    0    0  0.22914100939E+03  0.90331740098E+03 -0.16449304768E+04  0.18928104441E+04  0.91908514261E+02 0.  0.
         13    1    3    3    0    0  0.14402145175E+03  0.38508839629E+03 -0.73834650750E+03  0.84509811067E+03  0.00000000000E+00 0. -1.
        -13    1    3    3    0    0  0.85119557635E+02  0.51822900470E+03 -0.90658396925E+03  0.10477123335E+04  0.00000000000E+00 0.  1.
         22    1    1    2    0    0 -0.22914100939E+03 -0.90331740098E+03  0.32798988381E+03  0.98796016771E+03  0.00000000000E+00 0. -1.
<mgrwt>
<rscale>  0 0.25621293E+04</rscale>
<asrwt>0</asrwt>
<pdfrwt beam="1">  1        2 0.12029462E+00 0.25621293E+04</pdfrwt>
<pdfrwt beam="2">  1       -2 0.32290086E+00 0.25621293E+04</pdfrwt>
<totfact> 0.72404880E-01</totfact>
</mgrwt>
</event>
<event>
 6    1  0.9512547E-007  0.3072638E+04  0.7818608E-02  0.8223287E-01
          2   -1    0    0  501    0  0.00000000000E+00  0.00000000000E+00  0.10883113943E+04  0.10883113943E+04  0.00000000000E+00 0. -1.
         -2   -1    0    0    0  501 -0.00000000000E+00 -0.00000000000E+00 -0.21687508401E+04  0.21687508401E+04  0.00000000000E+00 0.  1.
         23    2    1    2    0    0 -0.28325618880E+03 -0.66740971099E+03  0.89346176489E+03  0.11542175467E+04  0.90963888369E+02 0.  0.
         11    1    3    3    0    0 -0.16695473639E+03 -0.42848041534E+03  0.63036162592E+03  0.78027247149E+03  0.00000000000E+00 0. -1.
        -11    1    3    3    0    0 -0.11630145241E+03 -0.23892929565E+03  0.26310013897E+03  0.37394507521E+03  0.00000000000E+00 0.  1.
         22    1    1    2    0    0  0.28325618880E+03  0.66740971099E+03 -0.19739012107E+04  0.21028446876E+04  0.00000000000E+00 0.  1.
<mgrwt>
<rscale>  0 0.30726381E+04</rscale>
<asrwt>0</asrwt>
<pdfrwt beam="1">  1        2 0.16743252E+00 0.30726381E+04</pdfrwt>
<pdfrwt beam="2">  1       -2 0.33365397E+00 0.30726381E+04</pdfrwt>
<totfact> 0.37125003E-01</totfact>
</mgrwt>
</event>
<event>
 6    1  0.9512547E-007  0.1057118E+04  0.7818608E-02  0.9248026E-01
         -1   -1    0    0    0  501 -0.00000000000E+00  0.00000000000E+00  0.20234659329E+03  0.20234659329E+03  0.00000000000E+00 0.  1.
          1   -1    0    0  501    0  0.00000000000E+00 -0.00000000000E+00 -0.13806740613E+04  0.13806740613E+04  0.00000000000E+00 0. -1.
         23    2    1    2    0    0  0.25567135872E+02  0.29247685590E+03  0.57628877307E+02  0.31267248295E+03  0.90810816666E+02 0.  0.
         13    1    3    3    0    0  0.59123575647E+02  0.18179421878E+03  0.27316343237E+02  0.19310856477E+03  0.00000000000E+00 0. -1.
        -13    1    3    3    0    0 -0.33556439775E+02  0.11068263712E+03  0.30312534070E+02  0.11956391818E+03  0.00000000000E+00 0.  1.
         22    1    1    2    0    0 -0.25567135872E+02 -0.29247685590E+03 -0.12359563453E+04  0.12703481717E+04  0.00000000000E+00 0. -1.
<mgrwt>
<rscale>  0 0.10571181E+04</rscale>
<asrwt>0</asrwt>
<pdfrwt beam="1">  1        1 0.21241139E+00 0.10571181E+04</pdfrwt>
<pdfrwt beam="2">  1       -1 0.31130245E-01 0.10571181E+04</pdfrwt>
<totfact> 0.75679108E+01</totfact>
</mgrwt>
</event>
<event>
 6    1  0.9512547E-007  0.1518658E+04  0.7818608E-02  0.8872140E-01
          2   -1    0    0  501    0  0.00000000000E+00  0.00000000000E+00  0.22052700332E+04  0.22052700332E+04  0.00000000000E+00 0. -1.
         -2   -1    0    0    0  501 -0.00000000000E+00 -0.00000000000E+00 -0.26145563317E+03  0.26145563317E+03  0.00000000000E+00 0.  1.
         23    2    1    2    0    0 -0.30405468856E+03  0.19978526900E+03  0.20531810652E+04  0.20868250546E+04  0.83204054169E+02 0.  0.
         11    1    3    3    0    0  0.53884098994E+01  0.34668259123E+01  0.48790056653E+02  0.49208977548E+02  0.00000000000E+00 0. -1.
        -11    1    3    3    0    0 -0.30944309846E+03  0.19631844309E+03  0.20043910085E+04  0.20376160770E+04  0.00000000000E+00 0.  1.
         22    1    1    2    0    0  0.30405468856E+03 -0.19978526900E+03 -0.10936666520E+03  0.37990061174E+03  0.00000000000E+00 0.  1.
<mgrwt>
<rscale>  0 0.15186577E+04</rscale>
<asrwt>0</asrwt>
<pdfrwt beam="1">  1        2 0.33927230E+00 0.15186577E+04</pdfrwt>
<pdfrwt beam="2">  1       -2 0.40223945E-01 0.15186577E+04</pdfrwt>
<totfact> 0.28976993E+01</totfact>
</mgrwt>
</event>
<event>
 6    1  0.9512547E-007  0.2888865E+04  0.7818608E-02  0.8276198E-01
         -2   -1    0    0    0  501 -0.00000000000E+00  0.00000000000E+00  0.78964629183E+03  0.78964629183E+03  0.00000000000E+00 0.  1.
          2   -1    0    0  501    0  0.00000000000E+00 -0.00000000000E+00 -0.26421776674E+04  0.26421776674E+04  0.00000000000E+00 0. -1.
         23    2    1    2    0    0  0.12126539799E+03  0.92570532801E+03  0.37993926520E+03  0.10119973512E+04  0.90272601364E+02 0.  0.
         13    1    3    3    0    0  0.51867949719E+02  0.60293914067E+03  0.28191994170E+03  0.66761122301E+03  0.00000000000E+00 0.  1.
        -13    1    3    3    0    0  0.69397448267E+02  0.32276618734E+03  0.98019323495E+02  0.34438612820E+03  0.00000000000E+00 0. -1.
         22    1    1    2    0    0 -0.12126539799E+03 -0.92570532801E+03 -0.22324706408E+04  0.24198266080E+04  0.00000000000E+00 0. -1.
<mgrwt>
<rscale>  0 0.28888654E+04</rscale>
<asrwt>0</asrwt>
<pdfrwt beam="1">  1        2 0.40648887E+00 0.28888654E+04</pdfrwt>
<pdfrwt beam="2">  1       -2 0.12148404E+00 0.28888654E+04</pdfrwt>
<totfact> 0.12781220E+00</totfact>
</mgrwt>
</event>
<event>
 6    1  0.9512547E-007  0.1218247E+04  0.7818608E-02  0.9097033E-01
         -2   -1    0    0    0  501 -0.00000000000E+00  0.00000000000E+00  0.60691613198E+03  0.60691613198E+03  0.00000000000E+00 0.  1.
          2   -1    0    0  501    0  0.00000000000E+00 -0.00000000000E+00 -0.61133862442E+03  0.61133862442E+03  0.00000000000E+00 0. -1.
         23    2    1    2    0    0  0.17576774339E+02 -0.33727303129E+03  0.50042931787E+03  0.61085259062E+03  0.93001852999E+02 0.  0.
         13    1    3    3    0    0  0.33923109402E+02 -0.18715045233E+03  0.20878121382E+03  0.28242815795E+03  0.00000000000E+00 0. -1.
        -13    1    3    3    0    0 -0.16346335063E+02 -0.15012257896E+03  0.29164810405E+03  0.32842443267E+03  0.00000000000E+00 0.  1.
         22    1    1    2    0    0 -0.17576774339E+02  0.33727303129E+03 -0.50485181030E+03  0.60740216578E+03  0.00000000000E+00 0. -1.
<mgrwt>
<rscale>  0 0.12182467E+04</rscale>
<asrwt>0</asrwt>
<pdfrwt beam="1">  1        2 0.94052096E-01 0.12182467E+04</pdfrwt>
<pdfrwt beam="2">  1       -2 0.93371713E-01 0.12182467E+04</pdfrwt>
<totfact> 0.46383843E+01</totfact>
</mgrwt>
</event>
<event>
 6    1  0.9512547E-007  0.8176821E+03  0.7818608E-02  0.9534770E-01
         -1   -1    0    0    0  501 -0.00000000000E+00  0.00000000000E+00  0.67682326362E+03  0.67682326362E+03  0.00000000000E+00 0.  1.
          1   -1    0    0  501    0  0.00000000000E+00 -0.00000000000E+00 -0.24696404578E+03  0.24696404578E+03  0.00000000000E+00 0. -1.
         23    2    1    2    0    0 -0.39928486766E+02  0.21654249190E+03  0.60218293805E+03  0.64417972830E+03  0.62115188299E+02 0.  0.
         11    1    3    3    0    0 -0.44428400272E+01  0.96981373942E+01  0.90561266973E+02  0.91187366297E+02  0.00000000000E+00 0. -1.
        -11    1    3    3    0    0 -0.35485646739E+02  0.20684435451E+03  0.51162167108E+03  0.55299236201E+03  0.00000000000E+00 0.  1.
         22    1    1    2    0    0  0.39928486766E+02 -0.21654249190E+03 -0.17232372022E+03  0.27960758109E+03  0.00000000000E+00 0. -1.
<mgrwt>
<rscale>  0 0.81768212E+03</rscale>
<asrwt>0</asrwt>
<pdfrwt beam="1">  1        1 0.37994469E-01 0.81768212E+03</pdfrwt>
<pdfrwt beam="2">  1       -1 0.10412666E+00 0.81768212E+03</pdfrwt>
<totfact> 0.99274302E+01</totfact>
</mgrwt>
</event>
<event>
 6    1  0.9512547E-007  0.1034998E+04  0.7818608E-02  0.9270971E-01
         -2   -1    0    0    0  501 -0.00000000000E+00  0.00000000000E+00  0.11698734212E+03  0.11698734212E+03  0.00000000000E+00 0.  1.
          2   -1    0    0  501    0  0.00000000000E+00 -0.00000000000E+00 -0.22891802334E+04  0.22891802334E+04  0.00000000000E+00 0. -1.
         23    2    1    2    0    0  0.29103028251E+03  0.41727420401E+03 -0.91185448875E+03  0.10470247296E+04  0.77238520975E+02 0.  0.
         11    1    3    3    0    0  0.50487452678E+02  0.63863174414E+02 -0.20992643739E+03  0.22515904832E+03  0.00000000000E+00 0. -1.
        -11    1    3    3    0    0  0.24054282984E+03  0.35341102959E+03 -0.70192805135E+03  0.82186568130E+03  0.00000000000E+00 0.  1.
         22    1    1    2    0    0 -0.29103028251E+03 -0.41727420401E+03 -0.12603384025E+04  0.13591428459E+04  0.00000000000E+00 0. -1.
<mgrwt>
<rscale>  0 0.10349978E+04</rscale>
<asrwt>0</asrwt>
<pdfrwt beam="1">  1        2 0.35218159E+00 0.10349978E+04</pdfrwt>
<pdfrwt beam="2">  1       -2 0.17998052E-01 0.10349978E+04</pdfrwt>
<totfact> 0.11859576E+02</totfact>
</mgrwt>
</event>
<event>
 6    1  0.9512547E-007  0.2970122E+04  0.7818608E-02  0.8252314E-01
          2   -1    0    0  501    0  0.00000000000E+00  0.00000000000E+00  0.35033513995E+04  0.35033513995E+04  0.00000000000E+00 0. -1.
         -2   -1    0    0    0  501 -0.00000000000E+00 -0.00000000000E+00 -0.62951344996E+03  0.62951344996E+03  0.00000000000E+00 0.  1.
         23    2    1    2    0    0  0.17699081015E+03 -0.12854126816E+04  0.24393307990E+04  0.27645052576E+04  0.92428694118E+02 0.  0.
         13    1    3    3    0    0  0.11436086823E+03 -0.65544363693E+03  0.11658239008E+04  0.13423226650E+04  0.00000000000E+00 0. -1.
        -13    1    3    3    0    0  0.62629941920E+02 -0.62996904463E+03  0.12735068982E+04  0.14221825926E+04  0.00000000000E+00 0.  1.
         22    1    1    2    0    0 -0.17699081015E+03  0.12854126816E+04  0.43450715054E+03  0.13683595919E+04  0.00000000000E+00 0. -1.
<mgrwt>
<rscale>  0 0.29701224E+04</rscale>
<asrwt>0</asrwt>
<pdfrwt beam="1">  1        2 0.53897713E+00 0.29701224E+04</pdfrwt>
<pdfrwt beam="2">  1       -2 0.96848225E-01 0.29701224E+04</pdfrwt>
<totfact> 0.61768635E-01</totfact>
</mgrwt>
</event>
<event>
 6    1  0.9512547E-007  0.1493227E+04  0.7818608E-02  0.8888969E-01
         -1   -1    0    0    0  501 -0.00000000000E+00  0.00000000000E+00  0.40716263132E+03  0.40716263132E+03  0.00000000000E+00 0.  1.
          1   -1    0    0  501    0  0.00000000000E+00 -0.00000000000E+00 -0.13690642583E+04  0.13690642583E+04  0.00000000000E+00 0. -1.
         23    2    1    2    0    0 -0.33834327426E+02  0.69883360417E+03 -0.78304449081E+03  0.10540752136E+04  0.91666315060E+02 0.  0.
         13    1    3    3    0    0 -0.31681229130E+02  0.46412273848E+03 -0.45514021719E+03  0.65081966316E+03  0.00000000000E+00 0.  1.
        -13    1    3    3    0    0 -0.21530982970E+01  0.23471086570E+03 -0.32790427362E+03  0.40325555045E+03  0.00000000000E+00 0. -1.
         22    1    1    2    0    0  0.33834327426E+02 -0.69883360417E+03 -0.17885713618E+03  0.72215167603E+03  0.00000000000E+00 0.  1.
<mgrwt>
<rscale>  0 0.14932271E+04</rscale>
<asrwt>0</asrwt>
<pdfrwt beam="1">  1        1 0.21062527E+00 0.14932271E+04</pdfrwt>
<pdfrwt beam="2">  1       -1 0.62640404E-01 0.14932271E+04</pdfrwt>
<totfact> 0.20210666E+01</totfact>
</mgrwt>
</event>
<event>
 6    1  0.9715837E-007  0.1634856E+04  0.7818608E-02  0.8799416E-01
          1   -1    0    0  501    0  0.00000000000E+00  0.00000000000E+00  0.14848471697E+04  0.14848471697E+04  0.00000000000E+00 0. -1.
         -1   -1    0    0    0  501 -0.00000000000E+00 -0.00000000000E+00 -0.45000501238E+03  0.45000501238E+03  0.00000000000E+00 0.  1.
         23    2    1    2    0    0 -0.41678437545E+03  0.31153039899E+03 -0.22353716805E+03  0.57313307315E+03  0.88046856392E+02 0.  0.
         13    1    3    3    0    0 -0.16354743997E+03  0.17606274453E+03 -0.93141725176E+02  0.25772317727E+03  0.00000000000E+00 0. -1.
        -13    1    3    3    0    0 -0.25323693548E+03  0.13546765446E+03 -0.13039544288E+03  0.31540989588E+03  0.00000000000E+00 0.  1.
         22    1    1    2    0    0  0.41678437545E+03 -0.31153039899E+03  0.12583793253E+04  0.13617191089E+04  0.00000000000E+00 0. -1.
<mgrwt>
<rscale>  0 0.16348562E+04</rscale>
<asrwt>0</asrwt>
<pdfrwt beam="1">  1        1 0.22843802E+00 0.16348562E+04</pdfrwt>
<pdfrwt beam="2">  1       -1 0.69231541E-01 0.16348562E+04</pdfrwt>
<totfact> 0.13533370E+01</totfact>
</mgrwt>
</event>
<event>
 6    1  0.9512547E-007  0.4622657E+04  0.7818608E-02  0.7889508E-01
         -2   -1    0    0    0  501 -0.00000000000E+00  0.00000000000E+00  0.23798172693E+04  0.23798172693E+04  0.00000000000E+00 0.  1.
          2   -1    0    0  501    0  0.00000000000E+00 -0.00000000000E+00 -0.22448107254E+04  0.22448107254E+04  0.00000000000E+00 0. -1.
         23    2    1    2    0    0  0.18568834117E+04  0.12722248374E+04  0.58951227417E+03  0.23282945040E+04  0.82816267224E+02 0.  0.
         11    1    3    3    0    0  0.12535671291E+04  0.81568545949E+03  0.40814443553E+03  0.15502758452E+04  0.00000000000E+00 0.  1.
        -11    1    3    3    0    0  0.60331628262E+03  0.45653937796E+03  0.18136783864E+03  0.77801865877E+03  0.00000000000E+00 0. -1.
         22    1    1    2    0    0 -0.18568834117E+04 -0.12722248374E+04 -0.45450573033E+03  0.22963334907E+04  0.00000000000E+00 0. -1.
<mgrwt>
<rscale>  0 0.46226570E+04</rscale>
<asrwt>0</asrwt>
<pdfrwt beam="1">  1        2 0.34535549E+00 0.46226570E+04</pdfrwt>
<pdfrwt beam="2">  1       -2 0.36612574E+00 0.46226570E+04</pdfrwt>
<totfact> 0.44929587E-02</totfact>
</mgrwt>
</event>
<event>
 6    1  0.9512547E-007  0.2781573E+04  0.7818608E-02  0.8309012E-01
          2   -1    0    0  501    0  0.00000000000E+00  0.00000000000E+00  0.10491156826E+04  0.10491156826E+04  0.00000000000E+00 0. -1.
         -2   -1    0    0    0  501 -0.00000000000E+00 -0.00000000000E+00 -0.18437315112E+04  0.18437315112E+04  0.00000000000E+00 0.  1.
         23    2    1    2    0    0  0.12965973662E+03 -0.97780037642E+03 -0.14149406796E+04  0.17276398542E+04  0.98879298339E+02 0.  0.
         11    1    3    3    0    0  0.12080394976E+03 -0.63446377085E+03 -0.97496603001E+03  0.11694856264E+04  0.00000000000E+00 0.  1.
        -11    1    3    3    0    0  0.88557868575E+01 -0.34333660557E+03 -0.43997464961E+03  0.55815422778E+03  0.00000000000E+00 0. -1.
         22    1    1    2    0    0 -0.12965973662E+03  0.97780037642E+03  0.62032485104E+03  0.11652073396E+04  0.00000000000E+00 0. -1.
<mgrwt>
<rscale>  0 0.27815734E+04</rscale>
<asrwt>0</asrwt>
<pdfrwt beam="1">  1        2 0.16140241E+00 0.27815734E+04</pdfrwt>
<pdfrwt beam="2">  1       -2 0.28365100E+00 0.27815734E+04</pdfrwt>
<totfact> 0.81716455E-01</totfact>
</mgrwt>
</event>
<event>
 6    1  0.9512547E-007  0.4684388E+04  0.7818608E-02  0.7879128E-01
         -2   -1    0    0    0  501 -0.00000000000E+00  0.00000000000E+00  0.27917500834E+04  0.27917500834E+04  0.00000000000E+00 0.  1.
          2   -1    0    0  501    0  0.00000000000E+00 -0.00000000000E+00 -0.19650298262E+04  0.19650298262E+04  0.00000000000E+00 0. -1.
         23    2    1    2    0    0 -0.42366230814E+03 -0.24603271035E+03 -0.19113462272E+04  0.19752281991E+04  0.90885599934E+02 0.  0.
         13    1    3    3    0    0 -0.19176068842E+03 -0.16212876383E+03 -0.91781159026E+03  0.95154401521E+03  0.00000000000E+00 0. -1.
        -13    1    3    3    0    0 -0.23190161973E+03 -0.83903946527E+02 -0.99353463693E+03  0.10236841838E+04  0.00000000000E+00 0.  1.
         22    1    1    2    0    0  0.42366230814E+03  0.24603271035E+03  0.27380664844E+04  0.27815517106E+04  0.00000000000E+00 0.  1.
<mgrwt>
<rscale>  0 0.46843878E+04</rscale>
<asrwt>0</asrwt>
<pdfrwt beam="1">  1        2 0.30231228E+00 0.46843878E+04</pdfrwt>
<pdfrwt beam="2">  1       -2 0.42950001E+00 0.46843878E+04</pdfrwt>
<totfact> 0.24773663E-02</totfact>
</mgrwt>
</event>
<event>
 6    1  0.9512547E-007  0.1522266E+04  0.7818608E-02  0.8869780E-01
          1   -1    0    0  501    0  0.00000000000E+00  0.00000000000E+00  0.55022106790E+03  0.55022106790E+03  0.00000000000E+00 0. -1.
         -1   -1    0    0    0  501 -0.00000000000E+00 -0.00000000000E+00 -0.10528924288E+04  0.10528924288E+04  0.00000000000E+00 0.  1.
         23    2    1    2    0    0 -0.46704206420E+03  0.13830578408E+03  0.35980445918E+03  0.61259781288E+03  0.92520548301E+02 0.  0.
         11    1    3    3    0    0 -0.34290691138E+03  0.69850523109E+02  0.21918353176E+03  0.41292331739E+03  0.00000000000E+00 0. -1.
        -11    1    3    3    0    0 -0.12413515282E+03  0.68455260974E+02  0.14062092742E+03  0.19967449549E+03  0.00000000000E+00 0.  1.
         22    1    1    2    0    0  0.46704206420E+03 -0.13830578408E+03 -0.86247582004E+03  0.99051568377E+03  0.00000000000E+00 0.  1.
<mgrwt>
<rscale>  0 0.15222662E+04</rscale>
<asrwt>0</asrwt>
<pdfrwt beam="1">  1        1 0.84649395E-01 0.15222662E+04</pdfrwt>
<pdfrwt beam="2">  1       -1 0.16198345E+00 0.15222662E+04</pdfrwt>
<totfact> 0.10568513E+01</totfact>
</mgrwt>
</event>
<event>
 6    1  0.9512547E-007  0.4708539E+04  0.7818608E-02  0.7875111E-01
          2   -1    0    0  501    0  0.00000000000E+00  0.00000000000E+00  0.30524839453E+04  0.30524839453E+04  0.00000000000E+00 0. -1.
         -2   -1    0    0    0  501 -0.00000000000E+00 -0.00000000000E+00 -0.18157620736E+04  0.18157620736E+04  0.00000000000E+00 0.  1.
         23    2    1    2    0    0  0.39863011990E+03  0.72348805030E+03  0.28969884473E+04  0.30138388271E+04  0.91331706697E+02 0.  0.
         11    1    3    3    0    0  0.23496822292E+03  0.51449431412E+03  0.19796287704E+04  0.20588454371E+04  0.00000000000E+00 0. -1.
        -11    1    3    3    0    0  0.16366189698E+03  0.20899373618E+03  0.91735967681E+03  0.95499338999E+03  0.00000000000E+00 0.  1.
         22    1    1    2    0    0 -0.39863011990E+03 -0.72348805030E+03 -0.16602665756E+04  0.18544071919E+04  0.00000000000E+00 0.  1.
<mgrwt>
<rscale>  0 0.47085389E+04</rscale>
<asrwt>0</asrwt>
<pdfrwt beam="1">  1        2 0.46961291E+00 0.47085389E+04</pdfrwt>
<pdfrwt beam="2">  1       -2 0.27934801E+00 0.47085389E+04</pdfrwt>
<totfact> 0.51057020E-02</totfact>
</mgrwt>
</event>
<event>
 6    1  0.9512547E-007  0.1305208E+04  0.7818608E-02  0.9025446E-01
         -2   -1    0    0    0  501 -0.00000000000E+00  0.00000000000E+00  0.68091406869E+03  0.68091406869E+03  0.00000000000E+00 0.  1.
          2   -1    0    0  501    0  0.00000000000E+00 -0.00000000000E+00 -0.62547061027E+03  0.62547061027E+03  0.00000000000E+00 0. -1.
         23    2    1    2    0    0 -0.44926895233E+03  0.36625534464E+03 -0.26570334162E+03  0.64372274692E+03  0.88290090869E+02 0.  0.
         13    1    3    3    0    0 -0.37854394943E+03  0.31830535875E+03 -0.25825600122E+03  0.55795159757E+03  0.00000000000E+00 0. -1.
        -13    1    3    3    0    0 -0.70725002901E+02  0.47949985889E+02 -0.74473403973E+01  0.85771149352E+02  0.00000000000E+00 0.  1.
         22    1    1    2    0    0  0.44926895233E+03 -0.36625534464E+03  0.32114680003E+03  0.66266193204E+03  0.00000000000E+00 0.  1.
<mgrwt>
<rscale>  0 0.13052076E+04</rscale>
<asrwt>0</asrwt>
<pdfrwt beam="1">  1        2 0.96226248E-01 0.13052076E+04</pdfrwt>
<pdfrwt beam="2">  1       -2 0.10475601E+00 0.13052076E+04</pdfrwt>
<totfact> 0.34152186E+01</totfact>
</mgrwt>
</event>
<event>
 6    1  0.9512547E-007  0.1302584E+04  0.7818608E-02  0.9027519E-01
          1   -1    0    0  501    0  0.00000000000E+00  0.00000000000E+00  0.20279434064E+04  0.20279434064E+04  0.00000000000E+00 0. -1.
         -1   -1    0    0    0  501 -0.00000000000E+00 -0.00000000000E+00 -0.20916808890E+03  0.20916808890E+03  0.00000000000E+00 0.  1.
         23    2    1    2    0    0 -0.29487283740E+03  0.87386304817E+02  0.18936032204E+04  0.19205904509E+04  0.91368306131E+02 0.  0.
         13    1    3    3    0    0 -0.13687376227E+03 -0.64222024680E+01  0.82740867171E+03  0.83867799632E+03  0.00000000000E+00 0. -1.
        -13    1    3    3    0    0 -0.15799907512E+03  0.93808507285E+02  0.10661945487E+04  0.10819124546E+04  0.00000000000E+00 0.  1.
         22    1    1    2    0    0  0.29487283740E+03 -0.87386304817E+02 -0.74827902875E+02  0.31652104441E+03  0.00000000000E+00 0.  1.
<mgrwt>
<rscale>  0 0.13025837E+04</rscale>
<asrwt>0</asrwt>
<pdfrwt beam="1">  1        1 0.31199128E+00 0.13025837E+04</pdfrwt>
<pdfrwt beam="2">  1       -1 0.32179707E-01 0.13025837E+04</pdfrwt>
<totfact> 0.25297955E+01</totfact>
</mgrwt>
</event>
<event>
 6    1  0.9512547E-007  0.3016695E+04  0.7818608E-02  0.8238979E-01
         -1   -1    0    0    0  501 -0.00000000000E+00  0.00000000000E+00  0.30821996828E+04  0.30821996828E+04  0.00000000000E+00 0.  1.
          1   -1    0    0  501    0  0.00000000000E+00 -0.00000000000E+00 -0.73814575411E+03  0.73814575411E+03  0.00000000000E+00 0. -1.
         23    2    1    2    0    0 -0.13443144942E+04 -0.36862436644E+03  0.44822429686E+03  0.14672123392E+04  0.93496764991E+02 0.  0.
         11    1    3    3    0    0 -0.55431710420E+03 -0.11030002600E+03  0.20468415795E+03  0.60110660640E+03  0.00000000000E+00 0. -1.
        -11    1    3    3    0    0 -0.78999738998E+03 -0.25832434044E+03  0.24354013891E+03  0.86610573275E+03  0.00000000000E+00 0.  1.
         22    1    1    2    0    0  0.13443144942E+04  0.36862436644E+03  0.18958296318E+04  0.23531330977E+04  0.00000000000E+00 0. -1.
<mgrwt>
<rscale>  0 0.30166953E+04</rscale>
<asrwt>0</asrwt>
<pdfrwt beam="1">  1        1 0.11356089E+00 0.30166953E+04</pdfrwt>
<pdfrwt beam="2">  1       -1 0.47418456E+00 0.30166953E+04</pdfrwt>
<totfact> 0.47087340E-02</totfact>
</mgrwt>
</event>
<event>
 6    1  0.9512547E-007  0.3969981E+04  0.7818608E-02  0.8010630E-01
          2   -1    0    0  501    0  0.00000000000E+00  0.00000000000E+00  0.27050535169E+04  0.27050535169E+04  0.00000000000E+00 0. -1.
         -2   -1    0    0    0  501 -0.00000000000E+00 -0.00000000000E+00 -0.14566023588E+04  0.14566023588E+04  0.00000000000E+00 0.  1.
         23    2    1    2    0    0 -0.11869656100E+04 -0.93689049117E+03  0.19708570082E+04  0.24857915125E+04  0.90724554219E+02 0.  0.
         11    1    3    3    0    0 -0.42441136959E+03 -0.28182429467E+03  0.64695829403E+03  0.82347129757E+03  0.00000000000E+00 0. -1.
        -11    1    3    3    0    0 -0.76255424042E+03 -0.65506619650E+03  0.13238987142E+04  0.16623202149E+04  0.00000000000E+00 0.  1.
         22    1    1    2    0    0  0.11869656100E+04  0.93689049117E+03 -0.72240585013E+03  0.16758643633E+04  0.00000000000E+00 0.  1.
<mgrwt>
<rscale>  0 0.39699810E+04</rscale>
<asrwt>0</asrwt>
<pdfrwt beam="1">  1        2 0.41616208E+00 0.39699810E+04</pdfrwt>
<pdfrwt beam="2">  1       -2 0.22409267E+00 0.39699810E+04</pdfrwt>
<totfact> 0.19416400E-01</totfact>
</mgrwt>
</event>
<event>
 6    1  0.9512547E-007  0.4456404E+04  0.7818608E-02  0.7918314E-01
          2   -1    0    0  501    0  0.00000000000E+00  0.00000000000E+00  0.32077434989E+04  0.32077434989E+04  0.00000000000E+00 0. -1.
         -2   -1    0    0    0  501 -0.00000000000E+00 -0.00000000000E+00 -0.15477810484E+04  0.15477810484E+04  0.00000000000E+00 0.  1.
         23    2    1    2    0    0 -0.17172407220E+03  0.11435517082E+04 -0.12009853712E+04  0.16697147500E+04  0.91552271771E+02 0.  0.
         11    1    3    3    0    0 -0.11905012323E+03  0.81226312229E+03 -0.91073376657E+03  0.12261240986E+04  0.00000000000E+00 0.  1.
        -11    1    3    3    0    0 -0.52673948964E+02  0.33128858590E+03 -0.29025160462E+03  0.44359065142E+03  0.00000000000E+00 0. -1.
         22    1    1    2    0    0  0.17172407220E+03 -0.11435517082E+04  0.28609478217E+04  0.30858097973E+04  0.00000000000E+00 0. -1.
<mgrwt>
<rscale>  0 0.44564042E+04</rscale>
<asrwt>0</asrwt>
<pdfrwt beam="1">  1        2 0.49349900E+00 0.44564042E+04</pdfrwt>
<pdfrwt beam="2">  1       -2 0.23812016E+00 0.44564042E+04</pdfrwt>
<totfact> 0.74084283E-02</totfact>
</mgrwt>
</event>
<event>
 6    1  0.9512547E-007  0.6399396E+03  0.7818608E-02  0.9825842E-01
         -2   -1    0    0    0  501 -0.00000000000E+00  0.00000000000E+00  0.10775175471E+03  0.10775175471E+03  0.00000000000E+00 0.  1.
          2   -1    0    0  501    0  0.00000000000E+00 -0.00000000000E+00 -0.95015312256E+03  0.95015312256E+03  0.00000000000E+00 0. -1.
         23    2    1    2    0    0 -0.31312994094E+03 -0.15211278101E+02 -0.42645306198E+03  0.53704526466E+03  0.90959657672E+02 0.  0.
         11    1    3    3    0    0 -0.18724816474E+03 -0.11609067994E+02 -0.17856238146E+03  0.25900032767E+03  0.00000000000E+00 0.  1.
        -11    1    3    3    0    0 -0.12588177620E+03 -0.36022101070E+01 -0.24789068053E+03  0.27804493699E+03  0.00000000000E+00 0. -1.
         22    1    1    2    0    0  0.31312994094E+03  0.15211278101E+02 -0.41594830587E+03  0.52085961261E+03  0.00000000000E+00 0. -1.
<mgrwt>
<rscale>  0 0.63993958E+03</rscale>
<asrwt>0</asrwt>
<pdfrwt beam="1">  1        2 0.14617740E+00 0.63993958E+03</pdfrwt>
<pdfrwt beam="2">  1       -2 0.16577193E-01 0.63993958E+03</pdfrwt>
<totfact> 0.80782690E+02</totfact>
</mgrwt>
</event>
<event>
 6    1  0.9512547E-007  0.2477258E+04  0.7818608E-02  0.8411133E-01
          2   -1    0    0  501    0  0.00000000000E+00  0.00000000000E+00  0.24303287310E+04  0.24303287310E+04  0.00000000000E+00 0. -1.
         -2   -1    0    0    0  501 -0.00000000000E+00 -0.00000000000E+00 -0.63127311523E+03  0.63127311523E+03  0.00000000000E+00 0.  1.
         23    2    1    2    0    0  0.12338822980E+04  0.54237036374E+02  0.81590525350E+03  0.14829974574E+04  0.90404062884E+02 0.  0.
         13    1    3    3    0    0  0.87929773444E+03 -0.21777539477E+01  0.58426250760E+03  0.10557139415E+04  0.00000000000E+00 0.  1.
        -13    1    3    3    0    0  0.35458456359E+03  0.56414790322E+02  0.23164274590E+03  0.42728351598E+03  0.00000000000E+00 0. -1.
         22    1    1    2    0    0 -0.12338822980E+04 -0.54237036374E+02  0.98315036230E+03  0.15786043888E+04  0.00000000000E+00 0. -1.
<mgrwt>
<rscale>  0 0.24772575E+04</rscale>
<asrwt>0</asrwt>
<pdfrwt beam="1">  1        2 0.37389672E+00 0.24772575E+04</pdfrwt>
<pdfrwt beam="2">  1       -2 0.97118942E-01 0.24772575E+04</pdfrwt>
<totfact> 0.30197122E+00</totfact>
</mgrwt>
</event>
<event>
 6    1  0.9512547E-007  0.2302326E+04  0.7818608E-02  0.8477005E-01
          1   -1    0    0  501    0  0.00000000000E+00  0.00000000000E+00  0.13239689045E+04  0.13239689045E+04  0.00000000000E+00 0. -1.
         -1   -1    0    0    0  501 -0.00000000000E+00 -0.00000000000E+00 -0.10009115295E+04  0.10009115295E+04  0.00000000000E+00 0.  1.
         23    2    1    2    0    0  0.64378791959E+03 -0.13908523025E+03  0.11129108631E+04  0.12964466154E+04  0.91627782836E+02 0.  0.
         11    1    3    3    0    0  0.24502335079E+03 -0.26895957601E+02  0.34623492288E+03  0.42501583122E+03  0.00000000000E+00 0. -1.
        -11    1    3    3    0    0  0.39876456880E+03 -0.11218927265E+03  0.76667594026E+03  0.87143078417E+03  0.00000000000E+00 0.  1.
         22    1    1    2    0    0 -0.64378791959E+03  0.13908523025E+03 -0.78985348812E+03  0.10284338187E+04  0.00000000000E+00 0.  1.
<mgrwt>
<rscale>  0 0.23023256E+04</rscale>
<asrwt>0</asrwt>
<pdfrwt beam="1">  1        1 0.20368752E+00 0.23023256E+04</pdfrwt>
<pdfrwt beam="2">  1       -1 0.15398639E+00 0.23023256E+04</pdfrwt>
<totfact> 0.25535441E+00</totfact>
</mgrwt>
</event>
<event>
 6    1  0.9512547E-007  0.1609745E+04  0.7818608E-02  0.8814583E-01
         -1   -1    0    0    0  501 -0.00000000000E+00  0.00000000000E+00  0.97477273753E+03  0.97477273753E+03  0.00000000000E+00 0.  1.
          1   -1    0    0  501    0  0.00000000000E+00 -0.00000000000E+00 -0.66458554251E+03  0.66458554251E+03  0.00000000000E+00 0. -1.
         23    2    1    2    0    0 -0.27556508370E+03  0.26492227711E+03 -0.56265262245E+03  0.68648406211E+03  0.92533592384E+02 0.  0.
         13    1    3    3    0    0 -0.10558424787E+03  0.15536302800E+03 -0.31494159761E+03  0.36670684991E+03  0.00000000000E+00 0.  1.
        -13    1    3    3    0    0 -0.16998083583E+03  0.10955924911E+03 -0.24771102484E+03  0.31977721219E+03  0.00000000000E+00 0. -1.
         22    1    1    2    0    0  0.27556508370E+03 -0.26492227711E+03  0.87283981746E+03  0.95287421794E+03  0.00000000000E+00 0.  1.
<mgrwt>
<rscale>  0 0.16097452E+04</rscale>
<asrwt>0</asrwt>
<pdfrwt beam="1">  1        1 0.10224393E+00 0.16097452E+04</pdfrwt>
<pdfrwt beam="2">  1       -1 0.14996504E+00 0.16097452E+04</pdfrwt>
<totfact> 0.98635220E+00</totfact>
</mgrwt>
</event>
<event>
 6    1  0.9512547E-007  0.2037317E+04  0.7818608E-02  0.8589370E-01
         -1   -1    0    0    0  501 -0.00000000000E+00  0.00000000000E+00  0.70855456436E+03  0.70855456436E+03  0.00000000000E+00 0.  1.
          1   -1    0    0  501    0  0.00000000000E+00 -0.00000000000E+00 -0.14644820454E+04  0.14644820454E+04  0.00000000000E+00 0. -1.
         23    2    1    2    0    0 -0.30753358269E+03  0.85226556438E+03 -0.87058517503E+03  0.12597568698E+04  0.90196049010E+02 0.  0.
         13    1    3    3    0    0 -0.13103914879E+03  0.49496655235E+03 -0.48990706517E+03  0.70864100852E+03  0.00000000000E+00 0.  1.
        -13    1    3    3    0    0 -0.17649443391E+03  0.35729901204E+03 -0.38067810987E+03  0.55111586126E+03  0.00000000000E+00 0. -1.
         22    1    1    2    0    0  0.30753358269E+03 -0.85226556438E+03  0.11465769396E+03  0.91327974000E+03  0.00000000000E+00 0.  1.
<mgrwt>
<rscale>  0 0.20373173E+04</rscale>
<asrwt>0</asrwt>
<pdfrwt beam="1">  1        1 0.22530493E+00 0.20373173E+04</pdfrwt>
<pdfrwt beam="2">  1       -1 0.10900840E+00 0.20373173E+04</pdfrwt>
<totfact> 0.49922635E+00</totfact>
</mgrwt>
</event>
<event>
 6    1  0.9512547E-007  0.1418116E+04  0.7818608E-02  0.8940808E-01
          1   -1    0    0  501    0  0.00000000000E+00  0.00000000000E+00  0.50325138915E+03  0.50325138915E+03  0.00000000000E+00 0. -1.
         -1   -1    0    0    0  501 -0.00000000000E+00 -0.00000000000E+00 -0.99903047964E+03  0.99903047964E+03  0.00000000000E+00 0.  1.
         23    2    1    2    0    0  0.70182823087E+03  0.77483151286E+02 -0.25359207162E+03  0.75580946040E+03  0.91501351121E+02 0.  0.
         11    1    3    3    0    0  0.62293644489E+03  0.94110131296E+02 -0.23933051264E+03  0.67393295324E+03  0.00000000000E+00 0.  1.
        -11    1    3    3    0    0  0.78891785976E+02 -0.16626980010E+02 -0.14261558980E+02  0.81876507152E+02  0.00000000000E+00 0. -1.
         22    1    1    2    0    0 -0.70182823087E+03 -0.77483151286E+02 -0.24218701887E+03  0.74647240839E+03  0.00000000000E+00 0. -1.
<mgrwt>
<rscale>  0 0.14181163E+04</rscale>
<asrwt>0</asrwt>
<pdfrwt beam="1">  1        1 0.77423291E-01 0.14181163E+04</pdfrwt>
<pdfrwt beam="2">  1       -1 0.15369700E+00 0.14181163E+04</pdfrwt>
<totfact> 0.13968488E+01</totfact>
</mgrwt>
</event>
<event>
 6    1  0.9512547E-007  0.2333750E+04  0.7818608E-02  0.8464732E-01
          2   -1    0    0  501    0  0.00000000000E+00  0.00000000000E+00  0.18520474068E+04  0.18520474068E+04  0.00000000000E+00 0. -1.
         -2   -1    0    0    0  501 -0.00000000000E+00 -0.00000000000E+00 -0.73518476623E+03  0.73518476623E+03  0.00000000000E+00 0.  1.
         23    2    1    2    0    0 -0.41817880431E+03 -0.87324974039E+03  0.12779376288E+04  0.16057110203E+04  0.88003842138E+02 0.  0.
         11    1    3    3    0    0 -0.77360818654E+02 -0.94685934089E+02  0.16568642412E+03  0.20591773483E+03  0.00000000000E+00 0. -1.
        -11    1    3    3    0    0 -0.34081798565E+03 -0.77856380630E+03  0.11122512047E+04  0.13997932855E+04  0.00000000000E+00 0.  1.
         22    1    1    2    0    0  0.41817880431E+03  0.87324974039E+03 -0.16107498819E+03  0.98152115275E+03  0.00000000000E+00 0.  1.
<mgrwt>
<rscale>  0 0.23337498E+04</rscale>
<asrwt>0</asrwt>
<pdfrwt beam="1">  1        2 0.28493037E+00 0.23337498E+04</pdfrwt>
<pdfrwt beam="2">  1       -2 0.11310535E+00 0.23337498E+04</pdfrwt>
<totfact> 0.44822536E+00</totfact>
</mgrwt>
</event>
<event>
 6    1  0.9512547E-007  0.1590652E+04  0.7818608E-02  0.8826312E-01
         -2   -1    0    0    0  501 -0.00000000000E+00  0.00000000000E+00  0.21547108504E+03  0.21547108504E+03  0.00000000000E+00 0.  1.
          2   -1    0    0  501    0  0.00000000000E+00 -0.00000000000E+00 -0.29356302028E+04  0.29356302028E+04  0.00000000000E+00 0. -1.
         23    2    1    2    0    0  0.76553474336E+03  0.13477589669E+03 -0.10567143388E+04  0.13150031101E+04  0.91542340820E+02 0.  0.
         13    1    3    3    0    0  0.44799755287E+03  0.34560827307E+02 -0.62700191298E+03  0.77138035822E+03  0.00000000000E+00 0. -1.
        -13    1    3    3    0    0  0.31753719049E+03  0.10021506939E+03 -0.42971242583E+03  0.54362275191E+03  0.00000000000E+00 0.  1.
         22    1    1    2    0    0 -0.76553474336E+03 -0.13477589669E+03 -0.16634447790E+04  0.18360981778E+04  0.00000000000E+00 0. -1.
<mgrwt>
<rscale>  0 0.15906520E+04</rscale>
<asrwt>0</asrwt>
<pdfrwt beam="1">  1        2 0.45163539E+00 0.15906520E+04</pdfrwt>
<pdfrwt beam="2">  1       -2 0.33149400E-01 0.15906520E+04</pdfrwt>
<totfact> 0.15657377E+01</totfact>
</mgrwt>
</event>
<event>
 6    1  0.9512547E-007  0.1738983E+04  0.7818608E-02  0.8739438E-01
         -2   -1    0    0    0  501 -0.00000000000E+00  0.00000000000E+00  0.50184311014E+03  0.50184311014E+03  0.00000000000E+00 0.  1.
          2   -1    0    0  501    0  0.00000000000E+00 -0.00000000000E+00 -0.15064770847E+04  0.15064770847E+04  0.00000000000E+00 0. -1.
         23    2    1    2    0    0  0.36784921257E+03 -0.49409592726E+03  0.20071793791E+03  0.65468912936E+03  0.94267369675E+02 0.  0.
         11    1    3    3    0    0  0.11048729584E+03 -0.22295233907E+03  0.93047071198E+02  0.26565568975E+03  0.00000000000E+00 0. -1.
        -11    1    3    3    0    0  0.25736191672E+03 -0.27114358819E+03  0.10767086671E+03  0.38903343961E+03  0.00000000000E+00 0.  1.
         22    1    1    2    0    0 -0.36784921257E+03  0.49409592726E+03 -0.12053519124E+04  0.13536310654E+04  0.00000000000E+00 0. -1.
<mgrwt>
<rscale>  0 0.17389826E+04</rscale>
<asrwt>0</asrwt>
<pdfrwt beam="1">  1        2 0.23176570E+00 0.17389826E+04</pdfrwt>
<pdfrwt beam="2">  1       -2 0.77206635E-01 0.17389826E+04</pdfrwt>
<totfact> 0.17874594E+01</totfact>
</mgrwt>
</event>
<event>
 6    1  0.9512547E-007  0.2067092E+04  0.7818608E-02  0.8575880E-01
         -1   -1    0    0    0  501 -0.00000000000E+00  0.00000000000E+00  0.10353458862E+04  0.10353458862E+04  0.00000000000E+00 0.  1.
          1   -1    0    0  501    0  0.00000000000E+00 -0.00000000000E+00 -0.10317488449E+04  0.10317488449E+04  0.00000000000E+00 0. -1.
         23    2    1    2    0    0  0.84636864927E+03  0.81096464848E+02 -0.58239187789E+03  0.10344769216E+04  0.89697685264E+02 0.  0.
         11    1    3    3    0    0  0.75447911088E+03  0.93642662190E+02 -0.49620029204E+03  0.90786695432E+03  0.00000000000E+00 0. -1.
        -11    1    3    3    0    0  0.91889538396E+02 -0.12546197342E+02 -0.86191585850E+02  0.12660996724E+03  0.00000000000E+00 0.  1.
         22    1    1    2    0    0 -0.84636864927E+03 -0.81096464848E+02  0.58598891915E+03  0.10326178095E+04  0.00000000000E+00 0.  1.
<mgrwt>
<rscale>  0 0.20670916E+04</rscale>
<asrwt>0</asrwt>
<pdfrwt beam="1">  1        1 0.15873059E+00 0.20670916E+04</pdfrwt>
<pdfrwt beam="2">  1       -1 0.15928398E+00 0.20670916E+04</pdfrwt>
<totfact> 0.39016254E+00</totfact>
</mgrwt>
</event>
<event>
 6    1  0.9512547E-007  0.4752026E+04  0.7818608E-02  0.7867941E-01
          1   -1    0    0  501    0  0.00000000000E+00  0.00000000000E+00  0.34654506243E+04  0.34654506243E+04  0.00000000000E+00 0. -1.
         -1   -1    0    0    0  501 -0.00000000000E+00 -0.00000000000E+00 -0.16290630048E+04  0.16290630048E+04  0.00000000000E+00 0.  1.
         23    2    1    2    0    0  0.19039469564E+04 -0.78685554508E+03  0.21856309832E+04  0.30049857904E+04  0.93814413022E+02 0.  0.
         11    1    3    3    0    0  0.88372719982E+03 -0.32563882731E+03  0.95625643286E+03  0.13421776242E+04  0.00000000000E+00 0. -1.
        -11    1    3    3    0    0  0.10202197566E+04 -0.46121671777E+03  0.12293745504E+04  0.16628081662E+04  0.00000000000E+00 0.  1.
         22    1    1    2    0    0 -0.19039469564E+04  0.78685554508E+03 -0.34924336377E+03  0.20895278387E+04  0.00000000000E+00 0.  1.
<mgrwt>
<rscale>  0 0.47520258E+04</rscale>
<asrwt>0</asrwt>
<pdfrwt beam="1">  1        1 0.53314625E+00 0.47520258E+04</pdfrwt>
<pdfrwt beam="2">  1       -1 0.25062508E+00 0.47520258E+04</pdfrwt>
<totfact> 0.13512795E-02</totfact>
</mgrwt>
</event>
<event>
 6    1  0.9512547E-007  0.2429441E+04  0.7818608E-02  0.8428563E-01
          1   -1    0    0  501    0  0.00000000000E+00  0.00000000000E+00  0.13975420088E+04  0.13975420088E+04  0.00000000000E+00 0. -1.
         -1   -1    0    0    0  501 -0.00000000000E+00 -0.00000000000E+00 -0.10558153783E+04  0.10558153783E+04  0.00000000000E+00 0.  1.
         23    2    1    2    0    0 -0.47951814081E+03 -0.85421017757E+03  0.89410867122E+03  0.13287514144E+04  0.80853760041E+02 0.  0.
         13    1    3    3    0    0 -0.33149754124E+03 -0.65547799018E+03  0.64822339133E+03  0.97966095182E+03  0.00000000000E+00 0. -1.
        -13    1    3    3    0    0 -0.14802059957E+03 -0.19873218738E+03  0.24588527990E+03  0.34909046258E+03  0.00000000000E+00 0.  1.
         22    1    1    2    0    0  0.47951814081E+03  0.85421017757E+03 -0.55238204079E+03  0.11246059727E+04  0.00000000000E+00 0.  1.
<mgrwt>
<rscale>  0 0.24294414E+04</rscale>
<asrwt>0</asrwt>
<pdfrwt beam="1">  1        1 0.21500646E+00 0.24294414E+04</pdfrwt>
<pdfrwt beam="2">  1       -1 0.16243314E+00 0.24294414E+04</pdfrwt>
<totfact> 0.19315080E+00</totfact>
</mgrwt>
</event>
<event>
 6    1  0.9512547E-007  0.2061870E+04  0.7818608E-02  0.8578228E-01
          1   -1    0    0  501    0  0.00000000000E+00  0.00000000000E+00  0.65593770116E+03  0.65593770116E+03  0.00000000000E+00 0. -1.
         -1   -1    0    0    0  501 -0.00000000000E+00 -0.00000000000E+00 -0.16203175559E+04  0.16203175559E+04  0.00000000000E+00 0.  1.
         23    2    1    2    0    0 -0.86854197893E+03  0.54890314402E+03 -0.42172161983E+03  0.11143009591E+04  0.90319832576E+02 0.  0.
         11    1    3    3    0    0 -0.15048810598E+03  0.12180115321E+03 -0.10928121245E+03  0.22231638347E+03  0.00000000000E+00 0. -1.
        -11    1    3    3    0    0 -0.71805387294E+03  0.42710199080E+03 -0.31244040738E+03  0.89198457563E+03  0.00000000000E+00 0.  1.
         22    1    1    2    0    0  0.86854197893E+03 -0.54890314402E+03 -0.54265823496E+03  0.11619542980E+04  0.00000000000E+00 0. -1.
<mgrwt>
<rscale>  0 0.20618704E+04</rscale>
<asrwt>0</asrwt>
<pdfrwt beam="1">  1        1 0.10091349E+00 0.20618704E+04</pdfrwt>
<pdfrwt beam="2">  1       -1 0.24927962E+00 0.20618704E+04</pdfrwt>
<totfact> 0.19540003E+00</totfact>
</mgrwt>
</event>
<event>
 6    1  0.9512547E-007  0.5992586E+04  0.7818608E-02  0.7691322E-01
         -1   -1    0    0    0  501 -0.00000000000E+00  0.00000000000E+00  0.28537242963E+04  0.28537242963E+04  0.00000000000E+00 0.  1.
          1   -1    0    0  501    0  0.00000000000E+00 -0.00000000000E+00 -0.31459837762E+04  0.31459837762E+04  0.00000000000E+00 0. -1.
         23    2    1    2    0    0 -0.17428545738E+04  0.26212918334E+03  0.22789702128E+04  0.28824214469E+04  0.91620918067E+02 0.  0.
         11    1    3    3    0    0 -0.61481956749E+03  0.67705332401E+02  0.74093407115E+03  0.96517895252E+03  0.00000000000E+00 0.  1.
        -11    1    3    3    0    0 -0.11280350063E+04  0.19442385094E+03  0.15380361416E+04  0.19172424943E+04  0.00000000000E+00 0. -1.
         22    1    1    2    0    0  0.17428545738E+04 -0.26212918334E+03 -0.25712296926E+04  0.31172866256E+04  0.00000000000E+00 0. -1.
<mgrwt>
<rscale>  0 0.59925855E+04</rscale>
<asrwt>0</asrwt>
<pdfrwt beam="1">  1        1 0.48399750E+00 0.59925855E+04</pdfrwt>
<pdfrwt beam="2">  1       -1 0.43903451E+00 0.59925855E+04</pdfrwt>
<totfact> 0.12045021E-03</totfact>
</mgrwt>
</event>
<event>
 6    1  0.2564821E-006  0.3571492E+04  0.7818608E-02  0.8097053E-01
          2   -1    0    0  501    0  0.00000000000E+00  0.00000000000E+00  0.16833340367E+04  0.16833340367E+04  0.00000000000E+00 0. -1.
         -2   -1    0    0    0  501 -0.00000000000E+00 -0.00000000000E+00 -0.18943889019E+04  0.18943889019E+04  0.00000000000E+00 0.  1.
         23    2    1    2    0    0 -0.17436481120E+03 -0.30325912678E+03 -0.18586278638E+04  0.18934230928E+04  0.90467048868E+02 0.  0.
         13    1    3    3    0    0 -0.51276134406E+02 -0.17851345001E+03 -0.91515849418E+03  0.93381548673E+03  0.00000000000E+00 0.  1.
        -13    1    3    3    0    0 -0.12308867680E+03 -0.12474567677E+03 -0.94346936957E+03  0.95960760603E+03  0.00000000000E+00 0. -1.
         22    1    1    2    0    0  0.17436481120E+03  0.30325912678E+03  0.16475729985E+04  0.16842998458E+04  0.00000000000E+00 0. -1.
<mgrwt>
<rscale>  0 0.35714923E+04</rscale>
<asrwt>0</asrwt>
<pdfrwt beam="1">  1        2 0.25897447E+00 0.35714923E+04</pdfrwt>
<pdfrwt beam="2">  1       -2 0.29144445E+00 0.35714923E+04</pdfrwt>
<totfact> 0.29343658E-01</totfact>
</mgrwt>
</event>
<event>
 6    1  0.9512547E-007  0.5132385E+04  0.7818608E-02  0.7808404E-01
         -2   -1    0    0    0  501 -0.00000000000E+00  0.00000000000E+00  0.17765790536E+04  0.17765790536E+04  0.00000000000E+00 0.  1.
          2   -1    0    0  501    0  0.00000000000E+00 -0.00000000000E+00 -0.37067557265E+04  0.37067557265E+04  0.00000000000E+00 0. -1.
         23    2    1    2    0    0  0.99075772015E+03 -0.59247370233E+03 -0.34127560560E+04  0.36043277085E+04  0.10792767993E+03 0.  0.
         13    1    3    3    0    0  0.17358822735E+03 -0.11975816028E+03 -0.75428971900E+03  0.78321636207E+03  0.00000000000E+00 0. -1.
        -13    1    3    3    0    0  0.81716949281E+03 -0.47271554205E+03 -0.26584663370E+04  0.28211113464E+04  0.00000000000E+00 0.  1.
         22    1    1    2    0    0 -0.99075772015E+03  0.59247370233E+03  0.14825793831E+04  0.18790070716E+04  0.00000000000E+00 0.  1.
<mgrwt>
<rscale>  0 0.51323852E+04</rscale>
<asrwt>0</asrwt>
<pdfrwt beam="1">  1        2 0.57027011E+00 0.51323852E+04</pdfrwt>
<pdfrwt beam="2">  1       -2 0.27331985E+00 0.51323852E+04</pdfrwt>
<totfact> 0.19171839E-02</totfact>
</mgrwt>
</event>
<event>
 6    1  0.9512547E-007  0.1271791E+04  0.7818608E-02  0.9052239E-01
         -2   -1    0    0    0  501 -0.00000000000E+00  0.00000000000E+00  0.20298155968E+03  0.20298155968E+03  0.00000000000E+00 0.  1.
          2   -1    0    0  501    0  0.00000000000E+00 -0.00000000000E+00 -0.19921175048E+04  0.19921175048E+04  0.00000000000E+00 0. -1.
         23    2    1    2    0    0  0.70981003537E+02 -0.10688876997E+02 -0.19840176660E+04  0.19874179626E+04  0.91386563999E+02 0.  0.
         11    1    3    3    0    0  0.50046366799E+02  0.36452653471E+02 -0.86560640355E+03  0.86781788449E+03  0.00000000000E+00 0.  1.
        -11    1    3    3    0    0  0.20934636737E+02 -0.47141530468E+02 -0.11184112624E+04  0.11196000781E+04  0.00000000000E+00 0. -1.
         22    1    1    2    0    0 -0.70981003537E+02  0.10688876997E+02  0.19488172088E+03  0.20768110190E+03  0.00000000000E+00 0.  1.
<mgrwt>
<rscale>  0 0.12717910E+04</rscale>
<asrwt>0</asrwt>
<pdfrwt beam="1">  1        2 0.30647961E+00 0.12717910E+04</pdfrwt>
<pdfrwt beam="2">  1       -2 0.31227933E-01 0.12717910E+04</pdfrwt>
<totfact> 0.63103263E+01</totfact>
</mgrwt>
</event>
<event>
 6    1  0.9512547E-007  0.3327324E+04  0.7818608E-02  0.8155977E-01
          1   -1    0    0  501    0  0.00000000000E+00  0.00000000000E+00  0.24355078725E+04  0.24355078725E+04  0.00000000000E+00 0. -1.
         -1   -1    0    0    0  501 -0.00000000000E+00 -0.00000000000E+00 -0.11364245700E+04  0.11364245700E+04  0.00000000000E+00 0.  1.
         23    2    1    2    0    0  0.16463168786E+03 -0.13301695563E+04 -0.40585032809E+03  0.14032339099E+04  0.88860991249E+02 0.  0.
         11    1    3    3    0    0  0.16391852689E+02 -0.41643689353E+03 -0.14880891458E+03  0.44252962860E+03  0.00000000000E+00 0.  1.
        -11    1    3    3    0    0  0.14823983517E+03 -0.91373266278E+03 -0.25704141351E+03  0.96070428126E+03  0.00000000000E+00 0. -1.
         22    1    1    2    0    0 -0.16463168786E+03  0.13301695563E+04  0.17049336306E+04  0.21686985327E+04  0.00000000000E+00 0. -1.
<mgrwt>
<rscale>  0 0.33273238E+04</rscale>
<asrwt>0</asrwt>
<pdfrwt beam="1">  1        1 0.37469352E+00 0.33273238E+04</pdfrwt>
<pdfrwt beam="2">  1       -1 0.17483455E+00 0.33273238E+04</pdfrwt>
<totfact> 0.28184089E-01</totfact>
</mgrwt>
</event>
<event>
 6    1  0.9512547E-007  0.3517833E+04  0.7818608E-02  0.8109577E-01
          1   -1    0    0  501    0  0.00000000000E+00  0.00000000000E+00  0.17395492166E+04  0.17395492166E+04  0.00000000000E+00 0. -1.
         -1   -1    0    0    0  501 -0.00000000000E+00 -0.00000000000E+00 -0.17784996548E+04  0.17784996548E+04  0.00000000000E+00 0.  1.
         23    2    1    2    0    0 -0.10192893322E+04  0.12400515493E+04 -0.73567412254E+03  0.17681624522E+04  0.92214181028E+02 0.  0.
         11    1    3    3    0    0 -0.96321075474E+02  0.81846155094E+02 -0.69533707578E+02  0.14426184240E+03  0.00000000000E+00 0. -1.
        -11    1    3    3    0    0 -0.92296825672E+03  0.11582053943E+04 -0.66614041496E+03  0.16239006098E+04  0.00000000000E+00 0.  1.
         22    1    1    2    0    0  0.10192893322E+04 -0.12400515493E+04  0.69672368433E+03  0.17498864192E+04  0.00000000000E+00 0. -1.
<mgrwt>
<rscale>  0 0.35178332E+04</rscale>
<asrwt>0</asrwt>
<pdfrwt beam="1">  1        1 0.26762296E+00 0.35178332E+04</pdfrwt>
<pdfrwt beam="2">  1       -1 0.27361533E+00 0.35178332E+04</pdfrwt>
<totfact> 0.17861363E-01</totfact>
</mgrwt>
</event>
<event>
 6    1  0.9512547E-007  0.9995800E+03  0.7818608E-02  0.9309006E-01
          1   -1    0    0  501    0  0.00000000000E+00  0.00000000000E+00  0.37681432006E+03  0.37681432006E+03  0.00000000000E+00 0. -1.
         -1   -1    0    0    0  501 -0.00000000000E+00 -0.00000000000E+00 -0.66289951533E+03  0.66289951533E+03  0.00000000000E+00 0.  1.
         23    2    1    2    0    0  0.20266645102E+03  0.13048888297E+03 -0.59480811206E+03  0.64803682777E+03  0.89744086323E+02 0.  0.
         13    1    3    3    0    0  0.10577677509E+03  0.11450350272E+03 -0.31423793458E+03  0.35077807488E+03  0.00000000000E+00 0. -1.
        -13    1    3    3    0    0  0.96889675923E+02  0.15985380247E+02 -0.28057017748E+03  0.29725875289E+03  0.00000000000E+00 0.  1.
         22    1    1    2    0    0 -0.20266645102E+03 -0.13048888297E+03  0.30872291679E+03  0.39167700762E+03  0.00000000000E+00 0. -1.
<mgrwt>
<rscale>  0 0.99957997E+03</rscale>
<asrwt>0</asrwt>
<pdfrwt beam="1">  1        1 0.57971435E-01 0.99957997E+03</pdfrwt>
<pdfrwt beam="2">  1       -1 0.10198454E+00 0.99957997E+03</pdfrwt>
<totfact> 0.59363701E+01</totfact>
</mgrwt>
</event>
<event>
 6    1  0.9512547E-007  0.1344397E+04  0.7818608E-02  0.8995081E-01
          1   -1    0    0  501    0  0.00000000000E+00  0.00000000000E+00  0.27599340015E+03  0.27599340015E+03  0.00000000000E+00 0. -1.
         -1   -1    0    0    0  501 -0.00000000000E+00 -0.00000000000E+00 -0.16371788002E+04  0.16371788002E+04  0.00000000000E+00 0.  1.
         23    2    1    2    0    0 -0.59327493035E+02 -0.66203012699E+03 -0.79486202313E+03  0.10399449632E+04  0.88748240592E+02 0.  0.
         13    1    3    3    0    0  0.17315172310E+02 -0.29916007127E+03 -0.34921617310E+03  0.46016138364E+03  0.00000000000E+00 0. -1.
        -13    1    3    3    0    0 -0.76642665345E+02 -0.36287005572E+03 -0.44564585003E+03  0.57978357957E+03  0.00000000000E+00 0.  1.
         22    1    1    2    0    0  0.59327493035E+02  0.66203012699E+03 -0.56632337693E+03  0.87322723717E+03  0.00000000000E+00 0. -1.
<mgrwt>
<rscale>  0 0.13443966E+04</rscale>
<asrwt>0</asrwt>
<pdfrwt beam="1">  1        1 0.42460523E-01 0.13443966E+04</pdfrwt>
<pdfrwt beam="2">  1       -1 0.25187366E+00 0.13443966E+04</pdfrwt>
<totfact> 0.64976905E+00</totfact>
</mgrwt>
</event>
<event>
 6    1  0.9512547E-007  0.1345133E+04  0.7818608E-02  0.8994520E-01
          1   -1    0    0  501    0  0.00000000000E+00  0.00000000000E+00  0.51484934570E+03  0.51484934570E+03  0.00000000000E+00 0. -1.
         -1   -1    0    0    0  501 -0.00000000000E+00 -0.00000000000E+00 -0.87859882136E+03  0.87859882136E+03  0.00000000000E+00 0.  1.
         23    2    1    2    0    0 -0.16085506208E+03  0.59530023544E+03 -0.45299710803E+03  0.77037364407E+03  0.89512291207E+02 0.  0.
         13    1    3    3    0    0 -0.13231581645E+02  0.99179878312E+02 -0.38358212754E+02  0.10715911301E+03  0.00000000000E+00 0.  1.
        -13    1    3    3    0    0 -0.14762348044E+03  0.49612035713E+03 -0.41463889528E+03  0.66321453106E+03  0.00000000000E+00 0. -1.
         22    1    1    2    0    0  0.16085506208E+03 -0.59530023544E+03  0.89247632370E+02  0.62307452299E+03  0.00000000000E+00 0. -1.
<mgrwt>
<rscale>  0 0.13451335E+04</rscale>
<asrwt>0</asrwt>
<pdfrwt beam="1">  1        1 0.79207593E-01 0.13451335E+04</pdfrwt>
<pdfrwt beam="2">  1       -1 0.13516905E+00 0.13451335E+04</pdfrwt>
<totfact> 0.19138686E+01</totfact>
</mgrwt>
</event>
<event>
 6    1  0.9512547E-007  0.3275765E+04  0.7818608E-02  0.8169090E-01
          1   -1    0    0  501    0  0.00000000000E+00  0.00000000000E+00  0.17825427516E+04  0.17825427516E+04  0.00000000000E+00 0. -1.
         -1   -1    0    0    0  501 -0.00000000000E+00 -0.00000000000E+00 -0.15049616611E+04  0.15049616611E+04  0.00000000000E+00 0.  1.
         23    2    1    2    0    0  0.23121914767E+03  0.74437340958E+03  0.15831607945E+04  0.17669477941E+04  0.90290302135E+02 0.  0.
         13    1    3    3    0    0  0.83373592109E+02  0.38847229842E+03  0.74113586850E+03  0.84091869885E+03  0.00000000000E+00 0. -1.
        -13    1    3    3    0    0  0.14784555556E+03  0.35590111116E+03  0.84202492596E+03  0.92602909520E+03  0.00000000000E+00 0.  1.
         22    1    1    2    0    0 -0.23121914767E+03 -0.74437340958E+03 -0.13055797040E+04  0.15205566187E+04  0.00000000000E+00 0.  1.
<mgrwt>
<rscale>  0 0.32757646E+04</rscale>
<asrwt>0</asrwt>
<pdfrwt beam="1">  1        1 0.27423734E+00 0.32757646E+04</pdfrwt>
<pdfrwt beam="2">  1       -1 0.23153256E+00 0.32757646E+04</pdfrwt>
<totfact> 0.32096629E-01</totfact>
</mgrwt>
</event>
<event>
 6    1  0.1106420E-006  0.3750850E+04  0.7818608E-02  0.8056785E-01
         -2   -1    0    0    0  501 -0.00000000000E+00  0.00000000000E+00  0.10400349553E+04  0.10400349553E+04  0.00000000000E+00 0.  1.
          2   -1    0    0  501    0  0.00000000000E+00 -0.00000000000E+00 -0.33818282616E+04  0.33818282616E+04  0.00000000000E+00 0. -1.
         23    2    1    2    0    0  0.12828497508E+04  0.87065796861E+03 -0.24133826903E+04  0.28698085074E+04  0.87384654634E+02 0.  0.
         11    1    3    3    0    0  0.63766408803E+03  0.40835309189E+03 -0.12499220026E+04  0.14613941116E+04  0.00000000000E+00 0. -1.
        -11    1    3    3    0    0  0.64518566279E+03  0.46230487672E+03 -0.11634606877E+04  0.14084143958E+04  0.00000000000E+00 0.  1.
         22    1    1    2    0    0 -0.12828497508E+04 -0.87065796861E+03  0.71589383976E+02  0.15520547095E+04  0.00000000000E+00 0.  1.
<mgrwt>
<rscale>  0 0.37508504E+04</rscale>
<asrwt>0</asrwt>
<pdfrwt beam="1">  1        2 0.52028127E+00 0.37508504E+04</pdfrwt>
<pdfrwt beam="2">  1       -2 0.16000538E+00 0.37508504E+04</pdfrwt>
<totfact> 0.19862378E-01</totfact>
</mgrwt>
</event>
<event>
 6    1  0.9512547E-007  0.9082092E+03  0.7818608E-02  0.9415377E-01
          2   -1    0    0  501    0  0.00000000000E+00  0.00000000000E+00  0.56369761575E+03  0.56369761575E+03  0.00000000000E+00 0. -1.
         -2   -1    0    0    0  501 -0.00000000000E+00 -0.00000000000E+00 -0.36581843403E+03  0.36581843403E+03  0.00000000000E+00 0.  1.
         23    2    1    2    0    0  0.43493412189E+02 -0.14681813220E+03  0.53256675092E+03  0.56146305112E+03  0.90366878606E+02 0.  0.
         11    1    3    3    0    0  0.15418498622E+02 -0.64368808088E+02  0.38054394574E+03  0.38625738594E+03  0.00000000000E+00 0. -1.
        -11    1    3    3    0    0  0.28074913567E+02 -0.82449324114E+02  0.15202280517E+03  0.17520566518E+03  0.00000000000E+00 0.  1.
         22    1    1    2    0    0 -0.43493412189E+02  0.14681813220E+03 -0.33468756919E+03  0.36805299865E+03  0.00000000000E+00 0.  1.
<mgrwt>
<rscale>  0 0.90820918E+03</rscale>
<asrwt>0</asrwt>
<pdfrwt beam="1">  1        2 0.86722710E-01 0.90820918E+03</pdfrwt>
<pdfrwt beam="2">  1       -2 0.56279759E-01 0.90820918E+03</pdfrwt>
<totfact> 0.15895756E+02</totfact>
</mgrwt>
</event>
<event>
 6    1  0.9512547E-007  0.2754075E+04  0.7818608E-02  0.8317670E-01
          2   -1    0    0  501    0  0.00000000000E+00  0.00000000000E+00  0.30203444913E+04  0.30203444913E+04  0.00000000000E+00 0. -1.
         -2   -1    0    0    0  501 -0.00000000000E+00 -0.00000000000E+00 -0.62782004734E+03  0.62782004734E+03  0.00000000000E+00 0.  1.
         23    2    1    2    0    0 -0.11300802656E+03  0.40505610193E+03  0.29323963460E+04  0.29638379130E+04  0.92442331208E+02 0.  0.
         11    1    3    3    0    0 -0.27174362600E+02  0.14775401297E+02  0.21929655133E+03  0.22146723436E+03  0.00000000000E+00 0. -1.
        -11    1    3    3    0    0 -0.85833663960E+02  0.39028070063E+03  0.27130997947E+04  0.27423706787E+04  0.00000000000E+00 0.  1.
         22    1    1    2    0    0  0.11300802656E+03 -0.40505610193E+03 -0.53987190212E+03  0.68432662558E+03  0.00000000000E+00 0.  1.
<mgrwt>
<rscale>  0 0.27540754E+04</rscale>
<asrwt>0</asrwt>
<pdfrwt beam="1">  1        2 0.46466838E+00 0.27540754E+04</pdfrwt>
<pdfrwt beam="2">  1       -2 0.96587701E-01 0.27540754E+04</pdfrwt>
<totfact> 0.13233439E+00</totfact>
</mgrwt>
</event>
<event>
 6    1  0.9512547E-007  0.4296177E+03  0.7818608E-02  0.1033981E+00
         -1   -1    0    0    0  501 -0.00000000000E+00  0.00000000000E+00  0.15514831715E+03  0.15514831715E+03  0.00000000000E+00 0.  1.
          1   -1    0    0  501    0  0.00000000000E+00 -0.00000000000E+00 -0.29741111631E+03  0.29741111631E+03  0.00000000000E+00 0. -1.
         23    2    1    2    0    0  0.98472008113E+01  0.20295436445E+03 -0.86229772659E+02  0.24178196438E+03  0.98668653551E+02 0.  0.
         13    1    3    3    0    0 -0.84696067318E+00  0.10407964738E+03  0.85064613933E+01  0.10443012126E+03  0.00000000000E+00 0.  1.
        -13    1    3    3    0    0  0.10694161485E+02  0.98874717063E+02 -0.94736234052E+02  0.13735184311E+03  0.00000000000E+00 0. -1.
         22    1    1    2    0    0 -0.98472008113E+01 -0.20295436445E+03 -0.56033026502E+02  0.21077746908E+03  0.00000000000E+00 0.  1.
<mgrwt>
<rscale>  0 0.42961766E+03</rscale>
<asrwt>0</asrwt>
<pdfrwt beam="1">  1        1 0.45755556E-01 0.42961766E+03</pdfrwt>
<pdfrwt beam="2">  1       -1 0.23868972E-01 0.42961766E+03</pdfrwt>
<totfact> 0.13393548E+03</totfact>
</mgrwt>
</event>
<event>
 6    1  0.9512547E-007  0.1931590E+04  0.7818608E-02  0.8639290E-01
          2   -1    0    0  501    0  0.00000000000E+00  0.00000000000E+00  0.22517201734E+04  0.22517201734E+04  0.00000000000E+00 0. -1.
         -2   -1    0    0    0  501 -0.00000000000E+00 -0.00000000000E+00 -0.41424333232E+03  0.41424333232E+03  0.00000000000E+00 0.  1.
         23    2    1    2    0    0  0.47180861668E+02  0.95212394191E+03  0.72677930003E+03  0.12022644034E+04  0.92008207309E+02 0.  0.
         13    1    3    3    0    0 -0.10078534614E+02  0.65478538047E+03  0.50308720578E+03  0.82579792198E+03  0.00000000000E+00 0. -1.
        -13    1    3    3    0    0  0.57259396282E+02  0.29733856145E+03  0.22369209425E+03  0.37646648140E+03  0.00000000000E+00 0.  1.
         22    1    1    2    0    0 -0.47180861668E+02 -0.95212394191E+03  0.11106975410E+04  0.14636991023E+04  0.00000000000E+00 0. -1.
<mgrwt>
<rscale>  0 0.19315901E+04</rscale>
<asrwt>0</asrwt>
<pdfrwt beam="1">  1        2 0.34641848E+00 0.19315901E+04</pdfrwt>
<pdfrwt beam="2">  1       -2 0.63729744E-01 0.19315901E+04</pdfrwt>
<totfact> 0.10275523E+01</totfact>
</mgrwt>
</event>
<event>
 6    1  0.9512547E-007  0.8646758E+03  0.7818608E-02  0.9470849E-01
          2   -1    0    0  501    0  0.00000000000E+00  0.00000000000E+00  0.14098756771E+03  0.14098756771E+03  0.00000000000E+00 0. -1.
         -2   -1    0    0    0  501 -0.00000000000E+00 -0.00000000000E+00 -0.13257626162E+04  0.13257626162E+04  0.00000000000E+00 0.  1.
         23    2    1    2    0    0  0.24918071995E+03 -0.76513820168E+02 -0.11738292451E+04  0.12058570900E+04  0.90944098032E+02 0.  0.
         13    1    3    3    0    0  0.14759980145E+03 -0.21933250246E+02 -0.82714999050E+03  0.84050215684E+03  0.00000000000E+00 0.  1.
        -13    1    3    3    0    0  0.10158091850E+03 -0.54580569921E+02 -0.34667925457E+03  0.36535493313E+03  0.00000000000E+00 0. -1.
         22    1    1    2    0    0 -0.24918071995E+03  0.76513820168E+02 -0.10945803448E+02  0.26089309397E+03  0.00000000000E+00 0. -1.
<mgrwt>
<rscale>  0 0.86467577E+03</rscale>
<asrwt>0</asrwt>
<pdfrwt beam="1">  1        2 0.21690395E-01 0.86467577E+03</pdfrwt>
<pdfrwt beam="2">  1       -2 0.20396348E+00 0.86467577E+03</pdfrwt>
<totfact> 0.32694790E+01</totfact>
</mgrwt>
</event>
<event>
 6    1  0.9512547E-007  0.4575853E+04  0.7818608E-02  0.7897490E-01
         -2   -1    0    0    0  501 -0.00000000000E+00  0.00000000000E+00  0.19848500642E+04  0.19848500642E+04  0.00000000000E+00 0.  1.
          2   -1    0    0  501    0  0.00000000000E+00 -0.00000000000E+00 -0.26372812054E+04  0.26372812054E+04  0.00000000000E+00 0. -1.
         23    2    1    2    0    0 -0.20601770220E+03  0.14845846955E+04  0.14185495341E+04  0.20656892168E+04  0.91401028568E+02 0.  0.
         11    1    3    3    0    0 -0.13573943925E+03  0.87224083810E+03  0.77634786818E+03  0.11755616902E+04  0.00000000000E+00 0.  1.
        -11    1    3    3    0    0 -0.70278262952E+02  0.61234385742E+03  0.64220166592E+03  0.89012752664E+03  0.00000000000E+00 0. -1.
         22    1    1    2    0    0  0.20601770220E+03 -0.14845846955E+04 -0.20709806753E+04  0.25564420528E+04  0.00000000000E+00 0. -1.
<mgrwt>
<rscale>  0 0.45758530E+04</rscale>
<asrwt>0</asrwt>
<pdfrwt beam="1">  1        2 0.40573557E+00 0.45758530E+04</pdfrwt>
<pdfrwt beam="2">  1       -2 0.30536155E+00 0.45758530E+04</pdfrwt>
<totfact> 0.64197573E-02</totfact>
</mgrwt>
</event>
<event>
 6    1  0.9512547E-007  0.1511471E+04  0.7818608E-02  0.8876860E-01
          2   -1    0    0  501    0  0.00000000000E+00  0.00000000000E+00  0.78451958504E+03  0.78451958504E+03  0.00000000000E+00 0. -1.
         -2   -1    0    0    0  501 -0.00000000000E+00 -0.00000000000E+00 -0.72800774693E+03  0.72800774693E+03  0.00000000000E+00 0.  1.
         23    2    1    2    0    0  0.49459856930E+02 -0.69252113904E+03 -0.26309087991E+03  0.74821214644E+03  0.92589413665E+02 0.  0.
         11    1    3    3    0    0  0.20764456205E+02 -0.43045761889E+03 -0.20953624555E+03  0.47919762363E+03  0.00000000000E+00 0. -1.
        -11    1    3    3    0    0  0.28695400725E+02 -0.26206352016E+03 -0.53554634363E+02  0.26901452281E+03  0.00000000000E+00 0.  1.
         22    1    1    2    0    0 -0.49459856930E+02  0.69252113904E+03  0.31960271802E+03  0.76431518553E+03  0.00000000000E+00 0. -1.
<mgrwt>
<rscale>  0 0.15114713E+04</rscale>
<asrwt>0</asrwt>
<pdfrwt beam="1">  1        2 0.12069532E+00 0.15114713E+04</pdfrwt>
<pdfrwt beam="2">  1       -2 0.11200119E+00 0.15114713E+04</pdfrwt>
<totfact> 0.21463177E+01</totfact>
</mgrwt>
</event>
<event>
 6    1  0.9512547E-007  0.1954580E+04  0.7818608E-02  0.8628155E-01
          2   -1    0    0  501    0  0.00000000000E+00  0.00000000000E+00  0.20099028991E+04  0.20099028991E+04  0.00000000000E+00 0. -1.
         -2   -1    0    0    0  501 -0.00000000000E+00 -0.00000000000E+00 -0.47519499917E+03  0.47519499917E+03  0.00000000000E+00 0.  1.
         23    2    1    2    0    0 -0.37799632188E+03 -0.72760481029E+03  0.14402728973E+04  0.16597446715E+04  0.89868662063E+02 0.  0.
         13    1    3    3    0    0 -0.85741768617E+02 -0.25547215693E+03  0.48272065473E+03  0.55284437625E+03  0.00000000000E+00 0.  1.
        -13    1    3    3    0    0 -0.29225455326E+03 -0.47213265337E+03  0.95755224257E+03  0.11069002952E+04  0.00000000000E+00 0. -1.
         22    1    1    2    0    0  0.37799632188E+03  0.72760481029E+03  0.94435002643E+02  0.82535322683E+03  0.00000000000E+00 0.  1.
<mgrwt>
<rscale>  0 0.19545801E+04</rscale>
<asrwt>0</asrwt>
<pdfrwt beam="1">  1        2 0.30921583E+00 0.19545801E+04</pdfrwt>
<pdfrwt beam="2">  1       -2 0.73106924E-01 0.19545801E+04</pdfrwt>
<totfact> 0.10393775E+01</totfact>
</mgrwt>
</event>
<event>
 6    1  0.9512547E-007  0.3190052E+04  0.7818608E-02  0.8191449E-01
         -2   -1    0    0    0  501 -0.00000000000E+00  0.00000000000E+00  0.19090113412E+04  0.19090113412E+04  0.00000000000E+00 0.  1.
          2   -1    0    0  501    0  0.00000000000E+00 -0.00000000000E+00 -0.13326835762E+04  0.13326835762E+04  0.00000000000E+00 0. -1.
         23    2    1    2    0    0  0.79868760755E+03 -0.63242378095E+03  0.15338227397E+04  0.18436039476E+04  0.91660164326E+02 0.  0.
         13    1    3    3    0    0  0.66075314638E+03 -0.56014391571E+03  0.12711170304E+04  0.15382114393E+04  0.00000000000E+00 0.  1.
        -13    1    3    3    0    0  0.13793446117E+03 -0.72279865244E+02  0.26270570926E+03  0.30539250838E+03  0.00000000000E+00 0. -1.
         22    1    1    2    0    0 -0.79868760755E+03  0.63242378095E+03 -0.95749497475E+03  0.13980909698E+04  0.00000000000E+00 0. -1.
<mgrwt>
<rscale>  0 0.31900521E+04</rscale>
<asrwt>0</asrwt>
<pdfrwt beam="1">  1        2 0.20502824E+00 0.31900521E+04</pdfrwt>
<pdfrwt beam="2">  1       -2 0.29369405E+00 0.31900521E+04</pdfrwt>
<totfact> 0.46316387E-01</totfact>
</mgrwt>
</event>
<event>
 6    1  0.9512547E-007  0.2157354E+04  0.7818608E-02  0.8536391E-01
         -2   -1    0    0    0  501 -0.00000000000E+00  0.00000000000E+00  0.59179303821E+03  0.59179303821E+03  0.00000000000E+00 0.  1.
          2   -1    0    0  501    0  0.00000000000E+00 -0.00000000000E+00 -0.19661326398E+04  0.19661326398E+04  0.00000000000E+00 0. -1.
         23    2    1    2    0    0 -0.66112855423E+03  0.83380186742E+03 -0.49344103317E+03  0.11765137890E+04  0.91564857424E+02 0.  0.
         11    1    3    3    0    0 -0.38849849554E+03  0.44500115213E+03 -0.23384723375E+03  0.63532797448E+03  0.00000000000E+00 0.  1.
        -11    1    3    3    0    0 -0.27263005869E+03  0.38880071530E+03 -0.25959379943E+03  0.54118581450E+03  0.00000000000E+00 0. -1.
         22    1    1    2    0    0  0.66112855423E+03 -0.83380186742E+03 -0.88089856844E+03  0.13814118891E+04  0.00000000000E+00 0. -1.
<mgrwt>
<rscale>  0 0.21573536E+04</rscale>
<asrwt>0</asrwt>
<pdfrwt beam="1">  1        2 0.30248194E+00 0.21573536E+04</pdfrwt>
<pdfrwt beam="2">  1       -2 0.91045084E-01 0.21573536E+04</pdfrwt>
<totfact> 0.65848620E+00</totfact>
</mgrwt>
</event>
<event>
 6    1  0.9512547E-007  0.1232309E+04  0.7818608E-02  0.9085037E-01
         -1   -1    0    0    0  501 -0.00000000000E+00  0.00000000000E+00  0.22891748638E+04  0.22891748638E+04  0.00000000000E+00 0.  1.
          1   -1    0    0  501    0  0.00000000000E+00 -0.00000000000E+00 -0.16584433151E+03  0.16584433151E+03  0.00000000000E+00 0. -1.
         23    2    1    2    0    0  0.41637054179E+03  0.10739082973E+03  0.19367964321E+04  0.19863058619E+04  0.96609208184E+02 0.  0.
         11    1    3    3    0    0  0.12783086188E+03  0.70296508100E+02  0.52779318704E+03  0.54758376217E+03  0.00000000000E+00 0.  1.
        -11    1    3    3    0    0  0.28853967991E+03  0.37094321629E+02  0.14090032451E+04  0.14387220997E+04  0.00000000000E+00 0. -1.
         22    1    1    2    0    0 -0.41637054179E+03 -0.10739082973E+03  0.18653410013E+03  0.46871333338E+03  0.00000000000E+00 0. -1.
<mgrwt>
<rscale>  0 0.12323095E+04</rscale>
<asrwt>0</asrwt>
<pdfrwt beam="1">  1        1 0.25514514E-01 0.12323095E+04</pdfrwt>
<pdfrwt beam="2">  1       -1 0.35218073E+00 0.12323095E+04</pdfrwt>
<totfact> 0.28519580E+00</totfact>
</mgrwt>
</event>
<event>
 6    1  0.9512547E-007  0.1690226E+04  0.7818608E-02  0.8766959E-01
          2   -1    0    0  501    0  0.00000000000E+00  0.00000000000E+00  0.82675907242E+03  0.82675907242E+03  0.00000000000E+00 0. -1.
         -2   -1    0    0    0  501 -0.00000000000E+00 -0.00000000000E+00 -0.86387431605E+03  0.86387431605E+03  0.00000000000E+00 0.  1.
         23    2    1    2    0    0 -0.69177646579E+03  0.48052502558E+03 -0.10715588513E+02  0.84792589436E+03  0.96976902667E+02 0.  0.
         11    1    3    3    0    0 -0.21426269029E+03  0.10493904240E+03  0.21513364919E+02  0.23954859202E+03  0.00000000000E+00 0. -1.
        -11    1    3    3    0    0 -0.47751377551E+03  0.37558598318E+03 -0.32228953431E+02  0.60837730234E+03  0.00000000000E+00 0.  1.
         22    1    1    2    0    0  0.69177646579E+03 -0.48052502558E+03 -0.26399655115E+02  0.84270749411E+03  0.00000000000E+00 0.  1.
<mgrwt>
<rscale>  0 0.16902259E+04</rscale>
<asrwt>0</asrwt>
<pdfrwt beam="1">  1        2 0.12719370E+00 0.16902259E+04</pdfrwt>
<pdfrwt beam="2">  1       -2 0.13290374E+00 0.16902259E+04</pdfrwt>
<totfact> 0.12884032E+01</totfact>
</mgrwt>
</event>
<event>
 6    1  0.9512547E-007  0.2120425E+04  0.7818608E-02  0.8552299E-01
         -2   -1    0    0    0  501 -0.00000000000E+00  0.00000000000E+00  0.85196216018E+03  0.85196216018E+03  0.00000000000E+00 0.  1.
          2   -1    0    0  501    0  0.00000000000E+00 -0.00000000000E+00 -0.13193666598E+04  0.13193666598E+04  0.00000000000E+00 0. -1.
         23    2    1    2    0    0 -0.83008199104E+03  0.60430455177E+03 -0.49725799322E+03  0.11441426956E+04  0.87045349657E+02 0.  0.
         11    1    3    3    0    0 -0.42178714490E+03  0.29750214590E+03 -0.29749186028E+03  0.59574602756E+03  0.00000000000E+00 0. -1.
        -11    1    3    3    0    0 -0.40829484614E+03  0.30680240587E+03 -0.19976613294E+03  0.54839666803E+03  0.00000000000E+00 0.  1.
         22    1    1    2    0    0  0.83008199104E+03 -0.60430455177E+03  0.29853493561E+02  0.10271861244E+04  0.00000000000E+00 0. -1.
<mgrwt>
<rscale>  0 0.21204249E+04</rscale>
<asrwt>0</asrwt>
<pdfrwt beam="1">  1        2 0.20297948E+00 0.21204249E+04</pdfrwt>
<pdfrwt beam="2">  1       -2 0.13107110E+00 0.21204249E+04</pdfrwt>
<totfact> 0.63044161E+00</totfact>
</mgrwt>
</event>
<event>
 6    1  0.9512547E-007  0.1140373E+04  0.7818608E-02  0.9166711E-01
         -2   -1    0    0    0  501 -0.00000000000E+00  0.00000000000E+00  0.27093275333E+03  0.27093275333E+03  0.00000000000E+00 0.  1.
          2   -1    0    0  501    0  0.00000000000E+00 -0.00000000000E+00 -0.11999748924E+04  0.11999748924E+04  0.00000000000E+00 0. -1.
         23    2    1    2    0    0  0.42578167221E+03 -0.35819135709E+03 -0.59781625986E+03  0.82337257817E+03  0.10472364220E+03 0.  0.
         13    1    3    3    0    0  0.11969001285E+03 -0.16044811173E+03 -0.18288781279E+03  0.27114064211E+03  0.00000000000E+00 0. -1.
        -13    1    3    3    0    0  0.30609165936E+03 -0.19774324536E+03 -0.41492844707E+03  0.55223193606E+03  0.00000000000E+00 0.  1.
         22    1    1    2    0    0 -0.42578167221E+03  0.35819135709E+03 -0.33122587925E+03  0.64753506760E+03  0.00000000000E+00 0.  1.
<mgrwt>
<rscale>  0 0.11403727E+04</rscale>
<asrwt>0</asrwt>
<pdfrwt beam="1">  1        2 0.18461152E+00 0.11403727E+04</pdfrwt>
<pdfrwt beam="2">  1       -2 0.41681962E-01 0.11403727E+04</pdfrwt>
<totfact> 0.10225009E+02</totfact>
</mgrwt>
</event>
<event>
 6    1  0.9512547E-007  0.2973320E+04  0.7818608E-02  0.8251391E-01
         -1   -1    0    0    0  501 -0.00000000000E+00  0.00000000000E+00  0.12121151762E+04  0.12121151762E+04  0.00000000000E+00 0.  1.
          1   -1    0    0  501    0  0.00000000000E+00 -0.00000000000E+00 -0.18233899758E+04  0.18233899758E+04  0.00000000000E+00 0. -1.
         23    2    1    2    0    0 -0.40704427248E+03 -0.57741494330E+03 -0.16397497551E+04  0.17877656798E+04  0.90740344042E+02 0.  0.
         11    1    3    3    0    0 -0.36363517244E+03 -0.45629388370E+03 -0.13567357784E+04  0.14768773203E+04  0.00000000000E+00 0. -1.
        -11    1    3    3    0    0 -0.43409100037E+02 -0.12112105960E+03 -0.28301397669E+03  0.31088835946E+03  0.00000000000E+00 0.  1.
         22    1    1    2    0    0  0.40704427248E+03  0.57741494330E+03  0.10284749555E+04  0.12477394722E+04  0.00000000000E+00 0.  1.
<mgrwt>
<rscale>  0 0.29733205E+04</rscale>
<asrwt>0</asrwt>
<pdfrwt beam="1">  1        1 0.28052153E+00 0.29733205E+04</pdfrwt>
<pdfrwt beam="2">  1       -1 0.18647926E+00 0.29733205E+04</pdfrwt>
<totfact> 0.62683635E-01</totfact>
</mgrwt>
</event>
<event>
 6    1  0.9512547E-007  0.1826464E+04  0.7818608E-02  0.8692351E-01
         -1   -1    0    0    0  501 -0.00000000000E+00  0.00000000000E+00  0.13493508262E+04  0.13493508262E+04  0.00000000000E+00 0.  1.
          1   -1    0    0  501    0  0.00000000000E+00 -0.00000000000E+00 -0.61806955767E+03  0.61806955767E+03  0.00000000000E+00 0. -1.
         23    2    1    2    0    0  0.38209711993E+02  0.70154372278E+03  0.99096092081E+03  0.12183829356E+04  0.93967303830E+02 0.  0.
         13    1    3    3    0    0  0.19763907205E+02  0.65909385439E+03  0.95098892455E+03  0.11572274001E+04  0.00000000000E+00 0. -1.
        -13    1    3    3    0    0  0.18445804787E+02  0.42449868390E+02  0.39971996260E+02  0.61155535527E+02  0.00000000000E+00 0.  1.
         22    1    1    2    0    0 -0.38209711993E+02 -0.70154372278E+03 -0.25967965229E+03  0.74903744824E+03  0.00000000000E+00 0. -1.
<mgrwt>
<rscale>  0 0.18264640E+04</rscale>
<asrwt>0</asrwt>
<pdfrwt beam="1">  1        1 0.95087624E-01 0.18264640E+04</pdfrwt>
<pdfrwt beam="2">  1       -1 0.20759243E+00 0.18264640E+04</pdfrwt>
<totfact> 0.41219957E+00</totfact>
</mgrwt>
</event>
<event>
 6    1  0.9512547E-007  0.3177196E+04  0.7818608E-02  0.8194866E-01
         -1   -1    0    0    0  501 -0.00000000000E+00  0.00000000000E+00  0.11665066435E+04  0.11665066435E+04  0.00000000000E+00 0.  1.
          1   -1    0    0  501    0  0.00000000000E+00 -0.00000000000E+00 -0.21634202545E+04  0.21634202545E+04  0.00000000000E+00 0. -1.
         23    2    1    2    0    0  0.23918605504E+03 -0.13006659650E+04  0.42157412436E+03  0.13905843865E+04  0.84013523184E+02 0.  0.
         13    1    3    3    0    0  0.12740168395E+03 -0.70293634092E+03  0.18376427155E+03  0.73764489828E+03  0.00000000000E+00 0. -1.
        -13    1    3    3    0    0  0.11178437108E+03 -0.59772962413E+03  0.23780985280E+03  0.65293948821E+03  0.00000000000E+00 0.  1.
         22    1    1    2    0    0 -0.23918605504E+03  0.13006659650E+04 -0.14184877353E+04  0.19393425115E+04  0.00000000000E+00 0. -1.
<mgrwt>
<rscale>  0 0.31771963E+04</rscale>
<asrwt>0</asrwt>
<pdfrwt beam="1">  1        1 0.33283388E+00 0.31771963E+04</pdfrwt>
<pdfrwt beam="2">  1       -1 0.17946256E+00 0.31771963E+04</pdfrwt>
<totfact> 0.40610168E-01</totfact>
</mgrwt>
</event>
<event>
 6    1  0.9512547E-007  0.1155116E+04  0.7818608E-02  0.9153077E-01
          2   -1    0    0  501    0  0.00000000000E+00  0.00000000000E+00  0.81244168154E+03  0.81244168154E+03  0.00000000000E+00 0. -1.
         -2   -1    0    0    0  501 -0.00000000000E+00 -0.00000000000E+00 -0.41058107802E+03  0.41058107802E+03  0.00000000000E+00 0.  1.
         23    2    1    2    0    0  0.40617211889E+03 -0.39742475084E+03  0.25993320421E+03  0.63730473063E+03  0.12517917672E+03 0.  0.
         13    1    3    3    0    0  0.17717563984E+03 -0.12212252648E+03  0.45587255307E+02  0.21996208008E+03  0.00000000000E+00 0.  1.
        -13    1    3    3    0    0  0.22899647905E+03 -0.27530222436E+03  0.21434594891E+03  0.41734265055E+03  0.00000000000E+00 0. -1.
         22    1    1    2    0    0 -0.40617211889E+03  0.39742475084E+03  0.14192739931E+03  0.58571802893E+03  0.00000000000E+00 0.  1.
<mgrwt>
<rscale>  0 0.11551159E+04</rscale>
<asrwt>0</asrwt>
<pdfrwt beam="1">  1        2 0.12499103E+00 0.11551159E+04</pdfrwt>
<pdfrwt beam="2">  1       -2 0.63166320E-01 0.11551159E+04</pdfrwt>
<totfact> 0.77541402E+01</totfact>
</mgrwt>
</event>
<event>
 6    1  0.9512547E-007  0.2134723E+04  0.7818608E-02  0.8546100E-01
         -2   -1    0    0    0  501 -0.00000000000E+00  0.00000000000E+00  0.57433801428E+03  0.57433801428E+03  0.00000000000E+00 0.  1.
          2   -1    0    0  501    0  0.00000000000E+00 -0.00000000000E+00 -0.19836067635E+04  0.19836067635E+04  0.00000000000E+00 0. -1.
         23    2    1    2    0    0  0.76830404029E+03  0.91843343277E+02 -0.15835053176E+04  0.17647961916E+04  0.91050583421E+02 0.  0.
         13    1    3    3    0    0  0.56450066015E+03  0.82798352448E+02 -0.12462466852E+04  0.13706375753E+04  0.00000000000E+00 0. -1.
        -13    1    3    3    0    0  0.20380338014E+03  0.90449908289E+01 -0.33725863248E+03  0.39415861629E+03  0.00000000000E+00 0.  1.
         22    1    1    2    0    0 -0.76830404029E+03 -0.91843343277E+02  0.17423656843E+03  0.79314858621E+03  0.00000000000E+00 0.  1.
<mgrwt>
<rscale>  0 0.21347232E+04</rscale>
<asrwt>0</asrwt>
<pdfrwt beam="1">  1        2 0.30517027E+00 0.21347232E+04</pdfrwt>
<pdfrwt beam="2">  1       -2 0.88359694E-01 0.21347232E+04</pdfrwt>
<totfact> 0.69125076E+00</totfact>
</mgrwt>
</event>
<event>
 6    1  0.9512547E-007  0.1535735E+04  0.7818608E-02  0.8861031E-01
          1   -1    0    0  501    0  0.00000000000E+00  0.00000000000E+00  0.58611362884E+03  0.58611362884E+03  0.00000000000E+00 0. -1.
         -1   -1    0    0    0  501 -0.00000000000E+00 -0.00000000000E+00 -0.10059827891E+04  0.10059827891E+04  0.00000000000E+00 0.  1.
         23    2    1    2    0    0  0.65815968875E+03  0.30092567538E+03  0.46426891373E+02  0.73118849847E+03  0.93545315542E+02 0.  0.
         11    1    3    3    0    0  0.13740839801E+03  0.10506255420E+03  0.10606323694E+01  0.17297494928E+03  0.00000000000E+00 0. -1.
        -11    1    3    3    0    0  0.52075129073E+03  0.19586312119E+03  0.45366259003E+02  0.55821354919E+03  0.00000000000E+00 0.  1.
         22    1    1    2    0    0 -0.65815968875E+03 -0.30092567538E+03 -0.46629605159E+03  0.86090791942E+03  0.00000000000E+00 0.  1.
<mgrwt>
<rscale>  0 0.15357346E+04</rscale>
<asrwt>0</asrwt>
<pdfrwt beam="1">  1        1 0.90171328E-01 0.15357346E+04</pdfrwt>
<pdfrwt beam="2">  1       -1 0.15476658E+00 0.15357346E+04</pdfrwt>
<totfact> 0.10950105E+01</totfact>
</mgrwt>
</event>
<event>
 6    1  0.9512547E-007  0.1401367E+04  0.7818608E-02  0.8952829E-01
          1   -1    0    0  501    0  0.00000000000E+00  0.00000000000E+00  0.14747530565E+04  0.14747530565E+04  0.00000000000E+00 0. -1.
         -1   -1    0    0    0  501 -0.00000000000E+00 -0.00000000000E+00 -0.33290831825E+03  0.33290831825E+03  0.00000000000E+00 0.  1.
         23    2    1    2    0    0 -0.51449950733E+03 -0.40921477734E+03  0.27217340002E+03  0.71748032852E+03  0.92375240662E+02 0.  0.
         11    1    3    3    0    0 -0.10319965014E+03 -0.71131980486E+02  0.15088487034E+02  0.12624416374E+03  0.00000000000E+00 0.  1.
        -11    1    3    3    0    0 -0.41129985720E+03 -0.33808279686E+03  0.25708491298E+03  0.59123616478E+03  0.00000000000E+00 0. -1.
         22    1    1    2    0    0  0.51449950733E+03  0.40921477734E+03  0.86967133828E+03  0.10901810463E+04  0.00000000000E+00 0. -1.
<mgrwt>
<rscale>  0 0.14013673E+04</rscale>
<asrwt>0</asrwt>
<pdfrwt beam="1">  1        1 0.22688508E+00 0.14013673E+04</pdfrwt>
<pdfrwt beam="2">  1       -1 0.51216665E-01 0.14013673E+04</pdfrwt>
<totfact> 0.25455889E+01</totfact>
</mgrwt>
</event>
<event>
 6    1  0.9512547E-007  0.3868459E+04  0.7818608E-02  0.8031621E-01
          2   -1    0    0  501    0  0.00000000000E+00  0.00000000000E+00  0.20984973395E+04  0.20984973395E+04  0.00000000000E+00 0. -1.
         -2   -1    0    0    0  501 -0.00000000000E+00 -0.00000000000E+00 -0.17828200454E+04  0.17828200454E+04  0.00000000000E+00 0.  1.
         23    2    1    2    0    0  0.38108862044E+03  0.12960700134E+04  0.15450564868E+04  0.20547360930E+04  0.98563930784E+02 0.  0.
         11    1    3    3    0    0  0.22491119316E+03  0.64436376342E+03  0.72544739268E+03  0.99602390732E+03  0.00000000000E+00 0.  1.
        -11    1    3    3    0    0  0.15617742728E+03  0.65170624994E+03  0.81960909412E+03  0.10587121857E+04  0.00000000000E+00 0. -1.
         22    1    1    2    0    0 -0.38108862044E+03 -0.12960700134E+04 -0.12293791927E+04  0.18265812918E+04  0.00000000000E+00 0.  1.
<mgrwt>
<rscale>  0 0.38684587E+04</rscale>
<asrwt>0</asrwt>
<pdfrwt beam="1">  1        2 0.32284574E+00 0.38684587E+04</pdfrwt>
<pdfrwt beam="2">  1       -2 0.27428001E+00 0.38684587E+04</pdfrwt>
<totfact> 0.21423632E-01</totfact>
</mgrwt>
</event>
<event>
 6    1  0.9512547E-007  0.1597667E+04  0.7818608E-02  0.8821983E-01
         -3   -1    0    0    0  501 -0.00000000000E+00  0.00000000000E+00  0.59235989937E+03  0.59235989937E+03  0.00000000000E+00 0.  1.
          3   -1    0    0  501    0  0.00000000000E+00 -0.00000000000E+00 -0.10772752256E+04  0.10772752256E+04  0.00000000000E+00 0. -1.
         23    2    1    2    0    0 -0.62329555188E+03 -0.32617517981E+02 -0.75771640514E+03  0.98847312061E+03  0.11568799449E+03 0.  0.
         13    1    3    3    0    0 -0.31069371310E+03  0.24583208974E+02 -0.43909746415E+03  0.53846216259E+03  0.00000000000E+00 0. -1.
        -13    1    3    3    0    0 -0.31260183878E+03 -0.57200726955E+02 -0.31861894100E+03  0.45001095801E+03  0.00000000000E+00 0.  1.
         22    1    1    2    0    0  0.62329555188E+03  0.32617517981E+02  0.27280107895E+03  0.68116200433E+03  0.00000000000E+00 0. -1.
<mgrwt>
<rscale>  0 0.15976666E+04</rscale>
<asrwt>0</asrwt>
<pdfrwt beam="1">  1        3 0.16573465E+00 0.15976666E+04</pdfrwt>
<pdfrwt beam="2">  1       -3 0.91132293E-01 0.15976666E+04</pdfrwt>
<totfact> 0.67659910E-01</totfact>
</mgrwt>
</event>
<event>
 6    1  0.2451590E-006  0.2650240E+04  0.7818608E-02  0.8351333E-01
         -2   -1    0    0    0  501 -0.00000000000E+00  0.00000000000E+00  0.15858543233E+04  0.15858543233E+04  0.00000000000E+00 0.  1.
          2   -1    0    0  501    0  0.00000000000E+00 -0.00000000000E+00 -0.11072538188E+04  0.11072538188E+04  0.00000000000E+00 0. -1.
         23    2    1    2    0    0 -0.28063734765E+03  0.70813575684E+01  0.15540364881E+04  0.15816361355E+04  0.87954489905E+02 0.  0.
         11    1    3    3    0    0 -0.98080675140E+02  0.39881196788E+02  0.67402360048E+03  0.68228889974E+03  0.00000000000E+00 0. -1.
        -11    1    3    3    0    0 -0.18255667251E+03 -0.32799839219E+02  0.88001288759E+03  0.89934723575E+03  0.00000000000E+00 0.  1.
         22    1    1    2    0    0  0.28063734765E+03 -0.70813575684E+01 -0.10754359836E+04  0.11114720066E+04  0.00000000000E+00 0. -1.
<mgrwt>
<rscale>  0 0.26502402E+04</rscale>
<asrwt>0</asrwt>
<pdfrwt beam="1">  1        2 0.17034674E+00 0.26502402E+04</pdfrwt>
<pdfrwt beam="2">  1       -2 0.24397759E+00 0.26502402E+04</pdfrwt>
<totfact> 0.13294653E+00</totfact>
</mgrwt>
</event>
<event>
 6    1  0.9512547E-007  0.1945941E+04  0.7818608E-02  0.8632321E-01
          1   -1    0    0  501    0  0.00000000000E+00  0.00000000000E+00  0.10761276011E+04  0.10761276011E+04  0.00000000000E+00 0. -1.
         -1   -1    0    0    0  501 -0.00000000000E+00 -0.00000000000E+00 -0.87970172004E+03  0.87970172004E+03  0.00000000000E+00 0.  1.
         23    2    1    2    0    0 -0.40897487516E+03 -0.75700711969E+03 -0.35343676619E+03  0.93471759435E+03  0.91973940422E+02 0.  0.
         13    1    3    3    0    0 -0.21136344848E+03 -0.36387415626E+03 -0.22045345332E+03  0.47505645352E+03  0.00000000000E+00 0. -1.
        -13    1    3    3    0    0 -0.19761142667E+03 -0.39313296343E+03 -0.13298331288E+03  0.45966114083E+03  0.00000000000E+00 0.  1.
         22    1    1    2    0    0  0.40897487516E+03  0.75700711969E+03  0.54986264727E+03  0.10211117268E+04  0.00000000000E+00 0. -1.
<mgrwt>
<rscale>  0 0.19459407E+04</rscale>
<asrwt>0</asrwt>
<pdfrwt beam="1">  1        1 0.16555809E+00 0.19459407E+04</pdfrwt>
<pdfrwt beam="2">  1       -1 0.13533873E+00 0.19459407E+04</pdfrwt>
<totfact> 0.56385121E+00</totfact>
</mgrwt>
</event>
<event>
 6    1  0.9512547E-007  0.2394902E+04  0.7818608E-02  0.8441415E-01
          2   -1    0    0  501    0  0.00000000000E+00  0.00000000000E+00  0.34613853496E+04  0.34613853496E+04  0.00000000000E+00 0. -1.
         -2   -1    0    0    0  501 -0.00000000000E+00 -0.00000000000E+00 -0.41425287028E+03  0.41425287028E+03  0.00000000000E+00 0.  1.
         23    2    1    2    0    0  0.39162867240E+03  0.89630300751E+03  0.26388748573E+04  0.28157295520E+04  0.89108356565E+02 0.  0.
         11    1    3    3    0    0  0.24445931820E+03  0.51641773067E+03  0.16547567817E+04  0.17506192154E+04  0.00000000000E+00 0.  1.
        -11    1    3    3    0    0  0.14716935420E+03  0.37988527684E+03  0.98411807554E+03  0.10651103365E+04  0.00000000000E+00 0. -1.
         22    1    1    2    0    0 -0.39162867240E+03 -0.89630300751E+03  0.40825762204E+03  0.10599086679E+04  0.00000000000E+00 0.  1.
<mgrwt>
<rscale>  0 0.23949019E+04</rscale>
<asrwt>0</asrwt>
<pdfrwt beam="1">  1        2 0.53252080E+00 0.23949019E+04</pdfrwt>
<pdfrwt beam="2">  1       -2 0.63731213E-01 0.23949019E+04</pdfrwt>
<totfact> 0.17755340E+00</totfact>
</mgrwt>
</event>
<event>
 6    1  0.9512547E-007  0.8095941E+03  0.7818608E-02  0.9546233E-01
         -1   -1    0    0    0  501 -0.00000000000E+00  0.00000000000E+00  0.64299386892E+03  0.64299386892E+03  0.00000000000E+00 0.  1.
          1   -1    0    0  501    0  0.00000000000E+00 -0.00000000000E+00 -0.25484017744E+03  0.25484017744E+03  0.00000000000E+00 0. -1.
         23    2    1    2    0    0 -0.15500168877E+03  0.19438173153E+03 -0.14910297352E+03  0.30584206570E+03  0.97457125784E+02 0.  0.
         11    1    3    3    0    0 -0.66874908657E+02  0.17877931533E+02 -0.30418394799E+02  0.75611854797E+02  0.00000000000E+00 0. -1.
        -11    1    3    3    0    0 -0.88126780109E+02  0.17650380000E+03 -0.11868457872E+03  0.23023021090E+03  0.00000000000E+00 0.  1.
         22    1    1    2    0    0  0.15500168877E+03 -0.19438173153E+03  0.53725666501E+03  0.59199198066E+03  0.00000000000E+00 0.  1.
<mgrwt>
<rscale>  0 0.80959415E+03</rscale>
<asrwt>0</asrwt>
<pdfrwt beam="1">  1        1 0.39206181E-01 0.80959415E+03</pdfrwt>
<pdfrwt beam="2">  1       -1 0.98922133E-01 0.80959415E+03</pdfrwt>
<totfact> 0.10727846E+02</totfact>
</mgrwt>
</event>
<event>
 6    1  0.9512547E-007  0.2249340E+04  0.7818608E-02  0.8498168E-01
          1   -1    0    0  501    0  0.00000000000E+00  0.00000000000E+00  0.43797937744E+04  0.43797937744E+04  0.00000000000E+00 0. -1.
         -1   -1    0    0    0  501 -0.00000000000E+00 -0.00000000000E+00 -0.28879965205E+03  0.28879965205E+03  0.00000000000E+00 0.  1.
         23    2    1    2    0    0 -0.37343391488E+03  0.10504864883E+04  0.17719119496E+04  0.20954403267E+04  0.90683265236E+02 0.  0.
         11    1    3    3    0    0 -0.11608048076E+03  0.31510029259E+03  0.45832444163E+03  0.56817617531E+03  0.00000000000E+00 0.  1.
        -11    1    3    3    0    0 -0.25735343412E+03  0.73538619572E+03  0.13135875080E+04  0.15272641514E+04  0.00000000000E+00 0. -1.
         22    1    1    2    0    0  0.37343391488E+03 -0.10504864883E+04  0.23190821727E+04  0.25731530997E+04  0.00000000000E+00 0.  1.
<mgrwt>
<rscale>  0 0.22493403E+04</rscale>
<asrwt>0</asrwt>
<pdfrwt beam="1">  1        1 0.67381438E+00 0.22493403E+04</pdfrwt>
<pdfrwt beam="2">  1       -1 0.44430719E-01 0.22493403E+04</pdfrwt>
<totfact> 0.19527039E-01</totfact>
</mgrwt>
</event>
<event>
 6    1  0.9512547E-007  0.3899094E+04  0.7818608E-02  0.8025218E-01
         -1   -1    0    0    0  501 -0.00000000000E+00  0.00000000000E+00  0.15657053681E+04  0.15657053681E+04  0.00000000000E+00 0.  1.
          1   -1    0    0  501    0  0.00000000000E+00 -0.00000000000E+00 -0.24274898999E+04  0.24274898999E+04  0.00000000000E+00 0. -1.
         23    2    1    2    0    0  0.16735689748E+04 -0.81807665815E+03 -0.10178476430E+04  0.21238536120E+04  0.68248141909E+02 0.  0.
         11    1    3    3    0    0  0.46440184521E+03 -0.23085800341E+03 -0.31830541889E+03  0.60850869449E+03  0.00000000000E+00 0. -1.
        -11    1    3    3    0    0  0.12091671296E+04 -0.58721865474E+03 -0.69954222414E+03  0.15153449175E+04  0.00000000000E+00 0.  1.
         22    1    1    2    0    0 -0.16735689748E+04  0.81807665815E+03  0.15606311122E+03  0.18693416559E+04  0.00000000000E+00 0.  1.
<mgrwt>
<rscale>  0 0.38990942E+04</rscale>
<asrwt>0</asrwt>
<pdfrwt beam="1">  1        1 0.37345998E+00 0.38990942E+04</pdfrwt>
<pdfrwt beam="2">  1       -1 0.24087775E+00 0.38990942E+04</pdfrwt>
<totfact> 0.96016115E-02</totfact>
</mgrwt>
</event>
<event>
 6    1  0.9512547E-007  0.2340324E+04  0.7818608E-02  0.8462190E-01
          2   -1    0    0  501    0  0.00000000000E+00  0.00000000000E+00  0.51334957868E+03  0.51334957868E+03  0.00000000000E+00 0. -1.
         -2   -1    0    0    0  501 -0.00000000000E+00 -0.00000000000E+00 -0.26673416887E+04  0.26673416887E+04  0.00000000000E+00 0.  1.
         23    2    1    2    0    0  0.39725725444E+03 -0.27706615376E+03 -0.25237890218E+04  0.25713237792E+04  0.87269531323E+02 0.  0.
         11    1    3    3    0    0  0.30209735356E+03 -0.23383510320E+03 -0.18057831083E+04  0.18457503355E+04  0.00000000000E+00 0. -1.
        -11    1    3    3    0    0  0.95159900879E+02 -0.43231050562E+02 -0.71800591346E+03  0.72557344372E+03  0.00000000000E+00 0.  1.
         22    1    1    2    0    0 -0.39725725444E+03  0.27706615376E+03  0.36979691174E+03  0.60936748822E+03  0.00000000000E+00 0. -1.
<mgrwt>
<rscale>  0 0.23403237E+04</rscale>
<asrwt>0</asrwt>
<pdfrwt beam="1">  1        2 0.78976857E-01 0.23403237E+04</pdfrwt>
<pdfrwt beam="2">  1       -2 0.41036027E+00 0.23403237E+04</pdfrwt>
<totfact> 0.34275867E-01</totfact>
</mgrwt>
</event>
<event>
 6    1  0.9512547E-007  0.2870318E+04  0.7818608E-02  0.8281764E-01
         -1   -1    0    0    0  501 -0.00000000000E+00  0.00000000000E+00  0.71158564332E+03  0.71158564332E+03  0.00000000000E+00 0.  1.
          1   -1    0    0  501    0  0.00000000000E+00 -0.00000000000E+00 -0.28944950247E+04  0.28944950247E+04  0.00000000000E+00 0. -1.
         23    2    1    2    0    0  0.34968104118E+03 -0.52671732813E+03  0.52403722654E+03  0.82628428836E+03  0.91775465587E+02 0.  0.
         13    1    3    3    0    0  0.10039635275E+03 -0.20611970818E+03  0.23120842159E+03  0.32561034375E+03  0.00000000000E+00 0.  1.
        -13    1    3    3    0    0  0.24928468842E+03 -0.32059761995E+03  0.29282880495E+03  0.50067394461E+03  0.00000000000E+00 0. -1.
         22    1    1    2    0    0 -0.34968104118E+03  0.52671732813E+03 -0.27069466079E+04  0.27797963797E+04  0.00000000000E+00 0. -1.
<mgrwt>
<rscale>  0 0.28703178E+04</rscale>
<asrwt>0</asrwt>
<pdfrwt beam="1">  1        1 0.44530693E+00 0.28703178E+04</pdfrwt>
<pdfrwt beam="2">  1       -1 0.10947471E+00 0.28703178E+04</pdfrwt>
<totfact> 0.47327320E-01</totfact>
</mgrwt>
</event>
<event>
 6    1  0.9512547E-007  0.1918223E+04  0.7818608E-02  0.8645838E-01
          1   -1    0    0  501    0  0.00000000000E+00  0.00000000000E+00  0.28937792319E+04  0.28937792319E+04  0.00000000000E+00 0. -1.
         -1   -1    0    0    0  501 -0.00000000000E+00 -0.00000000000E+00 -0.31788699528E+03  0.31788699528E+03  0.00000000000E+00 0.  1.
         23    2    1    2    0    0 -0.64650073838E+03  0.30950015126E+03  0.23523759540E+04  0.24608579448E+04  0.91627763094E+02 0.  0.
         13    1    3    3    0    0 -0.53324185117E+03  0.22190702293E+03  0.19517291026E+04  0.20353958064E+04  0.00000000000E+00 0. -1.
        -13    1    3    3    0    0 -0.11325888720E+03  0.87593128334E+02  0.40064685139E+03  0.42546213838E+03  0.00000000000E+00 0.  1.
         22    1    1    2    0    0  0.64650073838E+03 -0.30950015126E+03  0.22351628262E+03  0.75080828242E+03  0.00000000000E+00 0.  1.
<mgrwt>
<rscale>  0 0.19182229E+04</rscale>
<asrwt>0</asrwt>
<pdfrwt beam="1">  1        1 0.44519679E+00 0.19182229E+04</pdfrwt>
<pdfrwt beam="2">  1       -1 0.48905694E-01 0.19182229E+04</pdfrwt>
<totfact> 0.27970330E+00</totfact>
</mgrwt>
</event>
<event>
 6    1  0.9512547E-007  0.6585056E+04  0.7818608E-02  0.7621811E-01
         -2   -1    0    0    0  501 -0.00000000000E+00  0.00000000000E+00  0.37543928086E+04  0.37543928086E+04  0.00000000000E+00 0.  1.
          2   -1    0    0  501    0  0.00000000000E+00 -0.00000000000E+00 -0.28874821546E+04  0.28874821546E+04  0.00000000000E+00 0. -1.
         23    2    1    2    0    0  0.63255077933E+01 -0.18666524511E+04 -0.23012606993E+04  0.29646829491E+04  0.95460972005E+02 0.  0.
         11    1    3    3    0    0 -0.13199080274E+02 -0.17869475786E+04 -0.21959686371E+04  0.28311895238E+04  0.00000000000E+00 0. -1.
        -11    1    3    3    0    0  0.19524588067E+02 -0.79704872584E+02 -0.10529206210E+03  0.13349342529E+03  0.00000000000E+00 0.  1.
         22    1    1    2    0    0 -0.63255077933E+01  0.18666524511E+04  0.31681713533E+04  0.36771920142E+04  0.00000000000E+00 0.  1.
<mgrwt>
<rscale>  0 0.65850565E+04</rscale>
<asrwt>0</asrwt>
<pdfrwt beam="1">  1        2 0.44422802E+00 0.65850565E+04</pdfrwt>
<pdfrwt beam="2">  1       -2 0.57759889E+00 0.65850565E+04</pdfrwt>
<totfact> 0.84947730E-04</totfact>
</mgrwt>
</event>
<event>
 6    1  0.9512547E-007  0.4925011E+03  0.7818608E-02  0.1015755E+00
         -1   -1    0    0    0  501 -0.00000000000E+00  0.00000000000E+00  0.43353730943E+02  0.43353730943E+02  0.00000000000E+00 0.  1.
          1   -1    0    0  501    0  0.00000000000E+00 -0.00000000000E+00 -0.13987109630E+04  0.13987109630E+04  0.00000000000E+00 0. -1.
         23    2    1    2    0    0  0.13875608252E+03 -0.14498336360E+03 -0.35724328589E+03  0.42397585907E+03  0.10890058587E+03 0.  0.
         11    1    3    3    0    0  0.52141923571E+02 -0.49991725464E+02 -0.42067667845E+02  0.83592113782E+02  0.00000000000E+00 0.  1.
        -11    1    3    3    0    0  0.86614158948E+02 -0.94991638141E+02 -0.31517561805E+03  0.34038374529E+03  0.00000000000E+00 0. -1.
         22    1    1    2    0    0 -0.13875608252E+03  0.14498336360E+03 -0.99811394614E+03  0.10180888348E+04  0.00000000000E+00 0. -1.
<mgrwt>
<rscale>  0 0.49250112E+03</rscale>
<asrwt>0</asrwt>
<pdfrwt beam="1">  1        1 0.21518628E+00 0.49250112E+03</pdfrwt>
<pdfrwt beam="2">  1       -1 0.66698055E-02 0.49250112E+03</pdfrwt>
<totfact> 0.94052161E+02</totfact>
</mgrwt>
</event>
<event>
 6    1  0.9512547E-007  0.2866675E+04  0.7818608E-02  0.8282862E-01
          2   -1    0    0  501    0  0.00000000000E+00  0.00000000000E+00  0.15390142265E+04  0.15390142265E+04  0.00000000000E+00 0. -1.
         -2   -1    0    0    0  501 -0.00000000000E+00 -0.00000000000E+00 -0.13349167995E+04  0.13349167995E+04  0.00000000000E+00 0.  1.
         23    2    1    2    0    0  0.98211146720E+03 -0.10408895874E+04  0.53252054388E+02  0.14349215077E+04  0.90387414710E+02 0.  0.
         11    1    3    3    0    0  0.18952233027E+03 -0.15185247336E+03  0.12830549929E+02  0.24319233201E+03  0.00000000000E+00 0. -1.
        -11    1    3    3    0    0  0.79258913693E+03 -0.88903711406E+03  0.40421504459E+02  0.11917291757E+04  0.00000000000E+00 0.  1.
         22    1    1    2    0    0 -0.98211146720E+03  0.10408895874E+04  0.15084537257E+03  0.14390095183E+04  0.00000000000E+00 0. -1.
<mgrwt>
<rscale>  0 0.28666747E+04</rscale>
<asrwt>0</asrwt>
<pdfrwt beam="1">  1        2 0.23677142E+00 0.28666747E+04</pdfrwt>
<pdfrwt beam="2">  1       -2 0.20537182E+00 0.28666747E+04</pdfrwt>
<totfact> 0.12811966E+00</totfact>
</mgrwt>
</event>
<event>
 6    1  0.9512547E-007  0.1812236E+04  0.7818608E-02  0.8699819E-01
          1   -1    0    0  501    0  0.00000000000E+00  0.00000000000E+00  0.23385586844E+04  0.23385586844E+04  0.00000000000E+00 0. -1.
         -1   -1    0    0    0  501 -0.00000000000E+00 -0.00000000000E+00 -0.35109223822E+03  0.35109223822E+03  0.00000000000E+00 0.  1.
         23    2    1    2    0    0  0.51023385311E+03  0.68443375981E+03  0.14367837286E+04  0.16737574184E+04  0.91259281619E+02 0.  0.
         11    1    3    3    0    0  0.20637067017E+03  0.32053192997E+03  0.71327948404E+03  0.80876275507E+03  0.00000000000E+00 0. -1.
        -11    1    3    3    0    0  0.30386318294E+03  0.36390182984E+03  0.72350424457E+03  0.86499466335E+03  0.00000000000E+00 0.  1.
         22    1    1    2    0    0 -0.51023385311E+03 -0.68443375981E+03  0.55068271754E+03  0.10158935042E+04  0.00000000000E+00 0. -1.
<mgrwt>
<rscale>  0 0.18122360E+04</rscale>
<asrwt>0</asrwt>
<pdfrwt beam="1">  1        1 0.35977825E+00 0.18122360E+04</pdfrwt>
<pdfrwt beam="2">  1       -1 0.54014192E-01 0.18122360E+04</pdfrwt>
<totfact> 0.57156461E+00</totfact>
</mgrwt>
</event>
<event>
 6    1  0.9512547E-007  0.9363124E+03  0.7818608E-02  0.9381294E-01
          2   -1    0    0  501    0  0.00000000000E+00  0.00000000000E+00  0.16033555691E+04  0.16033555691E+04  0.00000000000E+00 0. -1.
         -2   -1    0    0    0  501 -0.00000000000E+00 -0.00000000000E+00 -0.13669472140E+03  0.13669472140E+03  0.00000000000E+00 0.  1.
         23    2    1    2    0    0 -0.12694708787E+03 -0.39810123114E+03  0.36591565880E+03  0.56266330049E+03  0.89975368886E+02 0.  0.
         13    1    3    3    0    0  0.12117984499E+02 -0.49138404311E+02  0.30715220508E+02  0.59201799782E+02  0.00000000000E+00 0.  1.
        -13    1    3    3    0    0 -0.13906507237E+03 -0.34896282683E+03  0.33520043829E+03  0.50346150071E+03  0.00000000000E+00 0. -1.
         22    1    1    2    0    0  0.12694708787E+03  0.39810123114E+03  0.11007451889E+04  0.11773869900E+04  0.00000000000E+00 0. -1.
<mgrwt>
<rscale>  0 0.93631243E+03</rscale>
<asrwt>0</asrwt>
<pdfrwt beam="1">  1        2 0.24667007E+00 0.93631243E+03</pdfrwt>
<pdfrwt beam="2">  1       -2 0.21029958E-01 0.93631243E+03</pdfrwt>
<totfact> 0.21756536E+02</totfact>
</mgrwt>
</event>
<event>
 6    1  0.9512547E-007  0.1386457E+04  0.7818608E-02  0.8963681E-01
         -2   -1    0    0    0  501 -0.00000000000E+00  0.00000000000E+00  0.29194925609E+03  0.29194925609E+03  0.00000000000E+00 0.  1.
          2   -1    0    0  501    0  0.00000000000E+00 -0.00000000000E+00 -0.16460583273E+04  0.16460583273E+04  0.00000000000E+00 0. -1.
         23    2    1    2    0    0 -0.57556805035E+02 -0.68592159643E+03 -0.59920040089E+03  0.91639693211E+03  0.83312631142E+02 0.  0.
         13    1    3    3    0    0 -0.33383346604E+02 -0.60354239811E+03 -0.55114993252E+03  0.81801229958E+03  0.00000000000E+00 0. -1.
        -13    1    3    3    0    0 -0.24173458431E+02 -0.82379198318E+02 -0.48050468365E+02  0.98384632530E+02  0.00000000000E+00 0.  1.
         22    1    1    2    0    0  0.57556805035E+02  0.68592159643E+03 -0.75490867029E+03  0.10216106512E+04  0.00000000000E+00 0. -1.
<mgrwt>
<rscale>  0 0.13864566E+04</rscale>
<asrwt>0</asrwt>
<pdfrwt beam="1">  1        2 0.25323975E+00 0.13864566E+04</pdfrwt>
<pdfrwt beam="2">  1       -2 0.44915269E-01 0.13864566E+04</pdfrwt>
<totfact> 0.48124986E+01</totfact>
</mgrwt>
</event>
<event>
 6    1  0.9512547E-007  0.4425162E+04  0.7818608E-02  0.7923871E-01
         -1   -1    0    0    0  501 -0.00000000000E+00  0.00000000000E+00  0.34915290266E+04  0.34915290266E+04  0.00000000000E+00 0.  1.
          1   -1    0    0  501    0  0.00000000000E+00 -0.00000000000E+00 -0.14021116932E+04  0.14021116932E+04  0.00000000000E+00 0. -1.
         23    2    1    2    0    0  0.92234534119E+03  0.30833759412E+03  0.32418999446E+04  0.33856588997E+04  0.83534031818E+02 0.  0.
         13    1    3    3    0    0  0.54070487900E+03  0.20124756497E+03  0.17945474019E+04  0.18850100069E+04  0.00000000000E+00 0. -1.
        -13    1    3    3    0    0  0.38164046219E+03  0.10709002915E+03  0.14473525427E+04  0.15006488928E+04  0.00000000000E+00 0.  1.
         22    1    1    2    0    0 -0.92234534119E+03 -0.30833759412E+03 -0.11524826112E+04  0.15079818200E+04  0.00000000000E+00 0. -1.
<mgrwt>
<rscale>  0 0.44251615E+04</rscale>
<asrwt>0</asrwt>
<pdfrwt beam="1">  1        1 0.21570949E+00 0.44251615E+04</pdfrwt>
<pdfrwt beam="2">  1       -1 0.53715831E+00 0.44251615E+04</pdfrwt>
<totfact> 0.51394068E-03</totfact>
</mgrwt>
</event>
<event>
 6    1  0.9512547E-007  0.8313855E+03  0.7818608E-02  0.9515667E-01
         -2   -1    0    0    0  501 -0.00000000000E+00  0.00000000000E+00  0.77268011712E+02  0.77268011712E+02  0.00000000000E+00 0.  1.
          2   -1    0    0  501    0  0.00000000000E+00 -0.00000000000E+00 -0.22363776304E+04  0.22363776304E+04  0.00000000000E+00 0. -1.
         23    2    1    2    0    0  0.17139041069E+03 -0.32139597126E+03 -0.16205599564E+04  0.16634873675E+04  0.91135100591E+02 0.  0.
         13    1    3    3    0    0  0.91451710936E+02 -0.18926435573E+03 -0.11233336404E+04  0.11428310809E+04  0.00000000000E+00 0.  1.
        -13    1    3    3    0    0  0.79938699751E+02 -0.13213161554E+03 -0.49722631598E+03  0.52065628667E+03  0.00000000000E+00 0. -1.
         22    1    1    2    0    0 -0.17139041069E+03  0.32139597126E+03 -0.53854966236E+03  0.65015827462E+03  0.00000000000E+00 0.  1.
<mgrwt>
<rscale>  0 0.83138548E+03</rscale>
<asrwt>0</asrwt>
<pdfrwt beam="1">  1        2 0.34405808E+00 0.83138548E+03</pdfrwt>
<pdfrwt beam="2">  1       -2 0.11887387E-01 0.83138548E+03</pdfrwt>
<totfact> 0.26044206E+02</totfact>
</mgrwt>
</event>
<event>
 6    1  0.1580177E-006  0.2924412E+04  0.7818608E-02  0.8265651E-01
         -2   -1    0    0    0  501 -0.00000000000E+00  0.00000000000E+00  0.98736743481E+03  0.98736743481E+03  0.00000000000E+00 0.  1.
          2   -1    0    0  501    0  0.00000000000E+00 -0.00000000000E+00 -0.21654011736E+04  0.21654011736E+04  0.00000000000E+00 0. -1.
         23    2    1    2    0    0 -0.28846777929E+03  0.13281915892E+04 -0.12621119725E+02  0.13623795083E+04  0.92801264223E+02 0.  0.
         11    1    3    3    0    0 -0.19949280620E+03  0.85286744717E+03 -0.50318334419E+02  0.87733243240E+03  0.00000000000E+00 0. -1.
        -11    1    3    3    0    0 -0.88974973090E+02  0.47532414202E+03  0.37697214693E+02  0.48504707588E+03  0.00000000000E+00 0.  1.
         22    1    1    2    0    0  0.28846777929E+03 -0.13281915892E+04 -0.11654126191E+04  0.17903891002E+04  0.00000000000E+00 0. -1.
<mgrwt>
<rscale>  0 0.29244121E+04</rscale>
<asrwt>0</asrwt>
<pdfrwt beam="1">  1        2 0.33313864E+00 0.29244121E+04</pdfrwt>
<pdfrwt beam="2">  1       -2 0.15190268E+00 0.29244121E+04</pdfrwt>
<totfact> 0.13477448E+00</totfact>
</mgrwt>
</event>
<event>
 6    1  0.9512547E-007  0.2442116E+04  0.7818608E-02  0.8423902E-01
         -1   -1    0    0    0  501 -0.00000000000E+00  0.00000000000E+00  0.97554060919E+03  0.97554060919E+03  0.00000000000E+00 0.  1.
          1   -1    0    0  501    0  0.00000000000E+00 -0.00000000000E+00 -0.15283653493E+04  0.15283653493E+04  0.00000000000E+00 0. -1.
         23    2    1    2    0    0  0.10352339939E+04 -0.28838473934E+03 -0.86755928457E+03  0.13841144540E+04  0.90766345096E+02 0.  0.
         13    1    3    3    0    0  0.40951075452E+03 -0.82798708201E+02 -0.29553583252E+03  0.51175786506E+03  0.00000000000E+00 0. -1.
        -13    1    3    3    0    0  0.62572323939E+03 -0.20558603114E+03 -0.57202345205E+03  0.87235658890E+03  0.00000000000E+00 0.  1.
         22    1    1    2    0    0 -0.10352339939E+04  0.28838473934E+03  0.31473454450E+03  0.11197915045E+04  0.00000000000E+00 0.  1.
<mgrwt>
<rscale>  0 0.24421159E+04</rscale>
<asrwt>0</asrwt>
<pdfrwt beam="1">  1        1 0.23513313E+00 0.24421159E+04</pdfrwt>
<pdfrwt beam="2">  1       -1 0.15008317E+00 0.24421159E+04</pdfrwt>
<totfact> 0.19448504E+00</totfact>
</mgrwt>
</event>
<event>
 6    1  0.9512547E-007  0.2114755E+04  0.7818608E-02  0.8554772E-01
          2   -1    0    0  501    0  0.00000000000E+00  0.00000000000E+00  0.30452179435E+04  0.30452179435E+04  0.00000000000E+00 0. -1.
         -2   -1    0    0    0  501 -0.00000000000E+00 -0.00000000000E+00 -0.36714835554E+03  0.36714835554E+03  0.00000000000E+00 0.  1.
         23    2    1    2    0    0 -0.79414399831E+03 -0.31440729017E+03  0.23420016243E+04  0.24945110216E+04  0.89983301242E+02 0.  0.
         13    1    3    3    0    0 -0.21245823737E+03 -0.43216612213E+02  0.56615075754E+03  0.60624488324E+03  0.00000000000E+00 0.  1.
        -13    1    3    3    0    0 -0.58168576094E+03 -0.27119067795E+03  0.17758508667E+04  0.18882661383E+04  0.00000000000E+00 0. -1.
         22    1    1    2    0    0  0.79414399831E+03  0.31440729017E+03  0.33606796371E+03  0.91785527748E+03  0.00000000000E+00 0.  1.
<mgrwt>
<rscale>  0 0.21147546E+04</rscale>
<asrwt>0</asrwt>
<pdfrwt beam="1">  1        2 0.46849505E+00 0.21147546E+04</pdfrwt>
<pdfrwt beam="2">  1       -2 0.56484364E-01 0.21147546E+04</pdfrwt>
<totfact> 0.44222332E+00</totfact>
</mgrwt>
</event>
<event>
 6    1  0.9512547E-007  0.5676351E+03  0.7818608E-02  0.9974926E-01
         -1   -1    0    0    0  501 -0.00000000000E+00  0.00000000000E+00  0.47276818854E+03  0.47276818854E+03  0.00000000000E+00 0.  1.
          1   -1    0    0  501    0  0.00000000000E+00 -0.00000000000E+00 -0.17038453742E+03  0.17038453742E+03  0.00000000000E+00 0. -1.
         23    2    1    2    0    0 -0.20783372642E+03 -0.16358329990E+03  0.60421996187E+02  0.28468404350E+03  0.86254467467E+02 0.  0.
         13    1    3    3    0    0 -0.13329921760E+03 -0.13661727496E+03  0.10820331339E+02  0.19118064965E+03  0.00000000000E+00 0. -1.
        -13    1    3    3    0    0 -0.74534508813E+02 -0.26966024935E+02  0.49601664849E+02  0.93503393845E+02  0.00000000000E+00 0.  1.
         22    1    1    2    0    0  0.20783372642E+03  0.16358329990E+03  0.24196165493E+03  0.35846868245E+03  0.00000000000E+00 0. -1.
<mgrwt>
<rscale>  0 0.56763506E+03</rscale>
<asrwt>0</asrwt>
<pdfrwt beam="1">  1        1 0.26213006E-01 0.56763506E+03</pdfrwt>
<pdfrwt beam="2">  1       -1 0.72733567E-01 0.56763506E+03</pdfrwt>
<totfact> 0.35483568E+02</totfact>
</mgrwt>
</event>
<event>
 6    1  0.9512547E-007  0.2287945E+04  0.7818608E-02  0.8482690E-01
         -2   -1    0    0    0  501 -0.00000000000E+00  0.00000000000E+00  0.16862793108E+04  0.16862793108E+04  0.00000000000E+00 0.  1.
          2   -1    0    0  501    0  0.00000000000E+00 -0.00000000000E+00 -0.77607110920E+03  0.77607110920E+03  0.00000000000E+00 0. -1.
         23    2    1    2    0    0 -0.63156158254E+03 -0.84884308108E+03  0.91869932904E+03  0.14042971567E+04  0.92937819132E+02 0.  0.
         11    1    3    3    0    0 -0.27915800973E+03 -0.32559696298E+03  0.32630878198E+03  0.53890629788E+03  0.00000000000E+00 0.  1.
        -11    1    3    3    0    0 -0.35240357281E+03 -0.52324611810E+03  0.59239054706E+03  0.86539085879E+03  0.00000000000E+00 0. -1.
         22    1    1    2    0    0  0.63156158254E+03  0.84884308108E+03 -0.84911274161E+01  0.10580532633E+04  0.00000000000E+00 0. -1.
<mgrwt>
<rscale>  0 0.22879446E+04</rscale>
<asrwt>0</asrwt>
<pdfrwt beam="1">  1        2 0.11939556E+00 0.22879446E+04</pdfrwt>
<pdfrwt beam="2">  1       -2 0.25942759E+00 0.22879446E+04</pdfrwt>
<totfact> 0.18302225E+00</totfact>
</mgrwt>
</event>
<event>
 6    1  0.9512547E-007  0.2704822E+04  0.7818608E-02  0.8333442E-01
          2   -1    0    0  501    0  0.00000000000E+00  0.00000000000E+00  0.27120670417E+04  0.27120670417E+04  0.00000000000E+00 0. -1.
         -2   -1    0    0    0  501 -0.00000000000E+00 -0.00000000000E+00 -0.67439903705E+03  0.67439903705E+03  0.00000000000E+00 0.  1.
         23    2    1    2    0    0  0.79126681136E+03  0.35819791838E+03  0.23153711287E+04  0.24745845401E+04  0.90643627392E+02 0.  0.
         13    1    3    3    0    0  0.95217417931E+02  0.66793849355E+02  0.37626712446E+03  0.39383337078E+03  0.00000000000E+00 0.  1.
        -13    1    3    3    0    0  0.69604939342E+03  0.29140406902E+03  0.19391040042E+04  0.20807511693E+04  0.00000000000E+00 0. -1.
         22    1    1    2    0    0 -0.79126681136E+03 -0.35819791838E+03 -0.27770312400E+03  0.91188153867E+03  0.00000000000E+00 0.  1.
<mgrwt>
<rscale>  0 0.27048219E+04</rscale>
<asrwt>0</asrwt>
<pdfrwt beam="1">  1        2 0.41724108E+00 0.27048219E+04</pdfrwt>
<pdfrwt beam="2">  1       -2 0.10375370E+00 0.27048219E+04</pdfrwt>
<totfact> 0.17320875E+00</totfact>
</mgrwt>
</event>
<event>
 6    1  0.9512547E-007  0.3395469E+04  0.7818608E-02  0.8139019E-01
         -2   -1    0    0    0  501 -0.00000000000E+00  0.00000000000E+00  0.25188814626E+04  0.25188814626E+04  0.00000000000E+00 0.  1.
          2   -1    0    0  501    0  0.00000000000E+00 -0.00000000000E+00 -0.11442785202E+04  0.11442785202E+04  0.00000000000E+00 0. -1.
         23    2    1    2    0    0 -0.96115527264E+03  0.13753159329E+04  0.41712066723E+03  0.17312993044E+04  0.89968089368E+02 0.  0.
         11    1    3    3    0    0 -0.45932965274E+03  0.57963655203E+03  0.17927256096E+03  0.76098680241E+03  0.00000000000E+00 0.  1.
        -11    1    3    3    0    0 -0.50182561990E+03  0.79567938083E+03  0.23784810627E+03  0.97031250199E+03  0.00000000000E+00 0. -1.
         22    1    1    2    0    0  0.96115527264E+03 -0.13753159329E+04  0.95748227515E+03  0.19318606783E+04  0.00000000000E+00 0. -1.
<mgrwt>
<rscale>  0 0.33954687E+04</rscale>
<asrwt>0</asrwt>
<pdfrwt beam="1">  1        2 0.17604285E+00 0.33954687E+04</pdfrwt>
<pdfrwt beam="2">  1       -2 0.38752022E+00 0.33954687E+04</pdfrwt>
<totfact> 0.15169435E-01</totfact>
</mgrwt>
</event>
<event>
 6    1  0.9512547E-007  0.1191732E+04  0.7818608E-02  0.9120125E-01
         -1   -1    0    0    0  501 -0.00000000000E+00  0.00000000000E+00  0.51948571058E+03  0.51948571058E+03  0.00000000000E+00 0.  1.
          1   -1    0    0  501    0  0.00000000000E+00 -0.00000000000E+00 -0.68347619567E+03  0.68347619567E+03  0.00000000000E+00 0. -1.
         23    2    1    2    0    0 -0.54995941314E+03 -0.19988752377E+03  0.10415096675E+02  0.59236573429E+03  0.91533112411E+02 0.  0.
         11    1    3    3    0    0 -0.28710121562E+03 -0.95256638512E+02 -0.39565428640E+02  0.30506779301E+03  0.00000000000E+00 0. -1.
        -11    1    3    3    0    0 -0.26285819752E+03 -0.10463088526E+03  0.49980525315E+02  0.28729794128E+03  0.00000000000E+00 0.  1.
         22    1    1    2    0    0  0.54995941314E+03  0.19988752377E+03 -0.17440558176E+03  0.61059617196E+03  0.00000000000E+00 0. -1.
<mgrwt>
<rscale>  0 0.11917317E+04</rscale>
<asrwt>0</asrwt>
<pdfrwt beam="1">  1        1 0.10515018E+00 0.11917317E+04</pdfrwt>
<pdfrwt beam="2">  1       -1 0.79920879E-01 0.11917317E+04</pdfrwt>
<totfact> 0.43752838E+01</totfact>
</mgrwt>
</event>
<event>
 6    1  0.9512547E-007  0.1273199E+04  0.7818608E-02  0.9051092E-01
          2   -1    0    0  501    0  0.00000000000E+00  0.00000000000E+00  0.88965146974E+03  0.88965146974E+03  0.00000000000E+00 0. -1.
         -2   -1    0    0    0  501 -0.00000000000E+00 -0.00000000000E+00 -0.45552584024E+03  0.45552584024E+03  0.00000000000E+00 0.  1.
         23    2    1    2    0    0  0.25432836170E+03  0.50366525261E+03 -0.85076357821E+02  0.57840987073E+03  0.94648769944E+02 0.  0.
         11    1    3    3    0    0  0.14511099495E+03  0.28267628162E+03 -0.33828314479E+00  0.31774706211E+03  0.00000000000E+00 0. -1.
        -11    1    3    3    0    0  0.10921736675E+03  0.22098897099E+03 -0.84738074676E+02  0.26066280862E+03  0.00000000000E+00 0.  1.
         22    1    1    2    0    0 -0.25432836170E+03 -0.50366525261E+03  0.51920198732E+03  0.76676743924E+03  0.00000000000E+00 0. -1.
<mgrwt>
<rscale>  0 0.12731995E+04</rscale>
<asrwt>0</asrwt>
<pdfrwt beam="1">  1        2 0.13686946E+00 0.12731995E+04</pdfrwt>
<pdfrwt beam="2">  1       -2 0.70080899E-01 0.12731995E+04</pdfrwt>
<totfact> 0.54278994E+01</totfact>
</mgrwt>
</event>
<event>
 6    1  0.9512547E-007  0.8144405E+03  0.7818608E-02  0.9539347E-01
          2   -1    0    0  501    0  0.00000000000E+00  0.00000000000E+00  0.26431305792E+03  0.26431305792E+03  0.00000000000E+00 0. -1.
         -2   -1    0    0    0  501 -0.00000000000E+00 -0.00000000000E+00 -0.62739360866E+03  0.62739360866E+03  0.00000000000E+00 0.  1.
         23    2    1    2    0    0  0.53963724812E+02  0.39816953638E+03 -0.15962662875E+03  0.44132398300E+03  0.88516292652E+02 0.  0.
         11    1    3    3    0    0  0.44476001551E+02  0.26786177465E+03 -0.15026894936E+03  0.31033659497E+03  0.00000000000E+00 0. -1.
        -11    1    3    3    0    0  0.94877232608E+01  0.13030776173E+03 -0.93576793915E+01  0.13098738803E+03  0.00000000000E+00 0.  1.
         22    1    1    2    0    0 -0.53963724812E+02 -0.39816953638E+03 -0.20345392199E+03  0.45038268358E+03  0.00000000000E+00 0.  1.
<mgrwt>
<rscale>  0 0.81444048E+03</rscale>
<asrwt>0</asrwt>
<pdfrwt beam="1">  1        2 0.40663548E-01 0.81444048E+03</pdfrwt>
<pdfrwt beam="2">  1       -2 0.96522093E-01 0.81444048E+03</pdfrwt>
<totfact> 0.11431827E+02</totfact>
</mgrwt>
</event>
<event>
 6    1  0.9512547E-007  0.2091839E+04  0.7818608E-02  0.8564847E-01
          2   -1    0    0  501    0  0.00000000000E+00  0.00000000000E+00  0.26854137095E+04  0.26854137095E+04  0.00000000000E+00 0. -1.
         -2   -1    0    0    0  501 -0.00000000000E+00 -0.00000000000E+00 -0.40736661886E+03  0.40736661886E+03  0.00000000000E+00 0.  1.
         23    2    1    2    0    0  0.57352699924E+03 -0.22529414358E+03 -0.10537393892E+03  0.63099510740E+03  0.85793289827E+02 0.  0.
         13    1    3    3    0    0  0.15970629183E+03 -0.49920973852E+02  0.78308516506E+01  0.16750977738E+03  0.00000000000E+00 0. -1.
        -13    1    3    3    0    0  0.41382070740E+03 -0.17537316973E+03 -0.11320479057E+03  0.46348533002E+03  0.00000000000E+00 0.  1.
         22    1    1    2    0    0 -0.57352699924E+03  0.22529414358E+03  0.23834210295E+04  0.24617852209E+04  0.00000000000E+00 0. -1.
<mgrwt>
<rscale>  0 0.20918393E+04</rscale>
<asrwt>0</asrwt>
<pdfrwt beam="1">  1        2 0.41314056E+00 0.20918393E+04</pdfrwt>
<pdfrwt beam="2">  1       -2 0.62671789E-01 0.20918393E+04</pdfrwt>
<totfact> 0.59022792E+00</totfact>
</mgrwt>
</event>
<event>
 6    1  0.9512547E-007  0.4503772E+04  0.7818608E-02  0.7909977E-01
          1   -1    0    0  501    0  0.00000000000E+00  0.00000000000E+00  0.22204826375E+04  0.22204826375E+04  0.00000000000E+00 0. -1.
         -1   -1    0    0    0  501 -0.00000000000E+00 -0.00000000000E+00 -0.22837338349E+04  0.22837338349E+04  0.00000000000E+00 0.  1.
         23    2    1    2    0    0  0.13091788831E+04 -0.12540340434E+04 -0.13660597899E+04  0.22717602111E+04  0.90688353069E+02 0.  0.
         11    1    3    3    0    0  0.55034830226E+03 -0.54704121933E+03 -0.63807461418E+03  0.10046275741E+04  0.00000000000E+00 0. -1.
        -11    1    3    3    0    0  0.75883058083E+03 -0.70699282409E+03 -0.72798517571E+03  0.12671326370E+04  0.00000000000E+00 0.  1.
         22    1    1    2    0    0 -0.13091788831E+04  0.12540340434E+04  0.13028085925E+04  0.22324562613E+04  0.00000000000E+00 0. -1.
<mgrwt>
<rscale>  0 0.45037723E+04</rscale>
<asrwt>0</asrwt>
<pdfrwt beam="1">  1        1 0.34161272E+00 0.45037723E+04</pdfrwt>
<pdfrwt beam="2">  1       -1 0.35134366E+00 0.45037723E+04</pdfrwt>
<totfact> 0.24120195E-02</totfact>
</mgrwt>
</event>
<event>
 6    1  0.9512547E-007  0.1653776E+04  0.7818608E-02  0.8788176E-01
          2   -1    0    0  501    0  0.00000000000E+00  0.00000000000E+00  0.27181890809E+04  0.27181890809E+04  0.00000000000E+00 0. -1.
         -2   -1    0    0    0  501 -0.00000000000E+00 -0.00000000000E+00 -0.25154387353E+03  0.25154387353E+03  0.00000000000E+00 0.  1.
         23    2    1    2    0    0  0.71638100979E+03  0.38037620444E+03  0.15018948002E+04  0.17093238318E+04  0.90620986812E+02 0.  0.
         11    1    3    3    0    0  0.47973999716E+03  0.30137754856E+03  0.10561779636E+04  0.11985369341E+04  0.00000000000E+00 0.  1.
        -11    1    3    3    0    0  0.23664101263E+03  0.78998655874E+02  0.44571683658E+03  0.51078689774E+03  0.00000000000E+00 0. -1.
         22    1    1    2    0    0 -0.71638100979E+03 -0.38037620444E+03  0.96475040721E+03  0.12604091226E+04  0.00000000000E+00 0.  1.
<mgrwt>
<rscale>  0 0.16537761E+04</rscale>
<asrwt>0</asrwt>
<pdfrwt beam="1">  1        2 0.41818292E+00 0.16537761E+04</pdfrwt>
<pdfrwt beam="2">  1       -2 0.38699059E-01 0.16537761E+04</pdfrwt>
<totfact> 0.15653937E+01</totfact>
</mgrwt>
</event>
<event>
 6    1  0.9512547E-007  0.8988180E+03  0.7818608E-02  0.9427060E-01
         -1   -1    0    0    0  501 -0.00000000000E+00  0.00000000000E+00  0.83840990094E+03  0.83840990094E+03  0.00000000000E+00 0.  1.
          1   -1    0    0  501    0  0.00000000000E+00 -0.00000000000E+00 -0.24089461620E+03  0.24089461620E+03  0.00000000000E+00 0. -1.
         23    2    1    2    0    0 -0.36124709613E+03 -0.25901186094E+03  0.31827156476E+03  0.55436293589E+03  0.91841532994E+02 0.  0.
         11    1    3    3    0    0 -0.11557251994E+03 -0.40437482399E+02  0.60702507093E+02  0.13666379080E+03  0.00000000000E+00 0.  1.
        -11    1    3    3    0    0 -0.24567457619E+03 -0.21857437854E+03  0.25756905767E+03  0.41769914509E+03  0.00000000000E+00 0. -1.
         22    1    1    2    0    0  0.36124709613E+03  0.25901186094E+03  0.27924371998E+03  0.52494158125E+03  0.00000000000E+00 0. -1.
<mgrwt>
<rscale>  0 0.89881796E+03</rscale>
<asrwt>0</asrwt>
<pdfrwt beam="1">  1        1 0.37060711E-01 0.89881796E+03</pdfrwt>
<pdfrwt beam="2">  1       -1 0.12898614E+00 0.89881796E+03</pdfrwt>
<totfact> 0.60891767E+01</totfact>
</mgrwt>
</event>
<event>
 6    1  0.9512547E-007  0.5428449E+04  0.7818608E-02  0.7765612E-01
         -1   -1    0    0    0  501 -0.00000000000E+00  0.00000000000E+00  0.25091531080E+04  0.25091531080E+04  0.00000000000E+00 0.  1.
          1   -1    0    0  501    0  0.00000000000E+00 -0.00000000000E+00 -0.29360560331E+04  0.29360560331E+04  0.00000000000E+00 0. -1.
         23    2    1    2    0    0  0.89320042069E+03 -0.25440095415E+04 -0.51978186718E+03  0.27473548017E+04  0.89407371610E+02 0.  0.
         13    1    3    3    0    0  0.25760888154E+03 -0.81275343316E+03 -0.13150499481E+03  0.86268420794E+03  0.00000000000E+00 0.  1.
        -13    1    3    3    0    0  0.63559153916E+03 -0.17312561083E+04 -0.38827687237E+03  0.18846705937E+04  0.00000000000E+00 0. -1.
         22    1    1    2    0    0 -0.89320042069E+03  0.25440095415E+04  0.92878942026E+02  0.26978543394E+04  0.00000000000E+00 0.  1.
<mgrwt>
<rscale>  0 0.54284488E+04</rscale>
<asrwt>0</asrwt>
<pdfrwt beam="1">  1        1 0.45170093E+00 0.54284488E+04</pdfrwt>
<pdfrwt beam="2">  1       -1 0.38602356E+00 0.54284488E+04</pdfrwt>
<totfact> 0.41381999E-03</totfact>
</mgrwt>
</event>
<event>
 6    1  0.9512547E-007  0.3970413E+04  0.7818608E-02  0.8010542E-01
         -2   -1    0    0    0  501 -0.00000000000E+00  0.00000000000E+00  0.20031964200E+04  0.20031964200E+04  0.00000000000E+00 0.  1.
          2   -1    0    0  501    0  0.00000000000E+00 -0.00000000000E+00 -0.19673779432E+04  0.19673779432E+04  0.00000000000E+00 0. -1.
         23    2    1    2    0    0 -0.18504029258E+04 -0.10988851096E+02  0.73417354328E+03  0.19927443549E+04  0.88924292754E+02 0.  0.
         11    1    3    3    0    0 -0.54417357020E+03  0.35394494690E+02  0.22934177789E+03  0.59158709912E+03  0.00000000000E+00 0.  1.
        -11    1    3    3    0    0 -0.13062293555E+04 -0.46383345786E+02  0.50483176539E+03  0.14011572558E+04  0.00000000000E+00 0. -1.
         22    1    1    2    0    0  0.18504029258E+04  0.10988851096E+02 -0.69835506649E+03  0.19778300082E+04  0.00000000000E+00 0. -1.
<mgrwt>
<rscale>  0 0.39704128E+04</rscale>
<asrwt>0</asrwt>
<pdfrwt beam="1">  1        2 0.30267353E+00 0.39704128E+04</pdfrwt>
<pdfrwt beam="2">  1       -2 0.30818406E+00 0.39704128E+04</pdfrwt>
<totfact> 0.15597072E-01</totfact>
</mgrwt>
</event>
<event>
 6    1  0.9512547E-007  0.3303999E+04  0.7818608E-02  0.8161879E-01
          1   -1    0    0  501    0  0.00000000000E+00  0.00000000000E+00  0.24374344646E+04  0.24374344646E+04  0.00000000000E+00 0. -1.
         -1   -1    0    0    0  501 -0.00000000000E+00 -0.00000000000E+00 -0.11196615992E+04  0.11196615992E+04  0.00000000000E+00 0.  1.
         23    2    1    2    0    0 -0.83665732186E+03  0.44933467033E+03 -0.79427268076E+03  0.12413600017E+04  0.90600453191E+02 0.  0.
         11    1    3    3    0    0 -0.33160572414E+03  0.13525671355E+03 -0.32787458702E+03  0.48554966755E+03  0.00000000000E+00 0. -1.
        -11    1    3    3    0    0 -0.50505159773E+03  0.31407795678E+03 -0.46639809374E+03  0.75581033410E+03  0.00000000000E+00 0.  1.
         22    1    1    2    0    0  0.83665732186E+03 -0.44933467033E+03  0.21120455462E+04  0.23157360621E+04  0.00000000000E+00 0. -1.
<mgrwt>
<rscale>  0 0.33039987E+04</rscale>
<asrwt>0</asrwt>
<pdfrwt beam="1">  1        1 0.37498992E+00 0.33039987E+04</pdfrwt>
<pdfrwt beam="2">  1       -1 0.17225563E+00 0.33039987E+04</pdfrwt>
<totfact> 0.29399447E-01</totfact>
</mgrwt>
</event>
<event>
 6    1  0.9512547E-007  0.1604314E+04  0.7818608E-02  0.8817902E-01
          1   -1    0    0  501    0  0.00000000000E+00  0.00000000000E+00  0.15716273110E+04  0.15716273110E+04  0.00000000000E+00 0. -1.
         -1   -1    0    0    0  501 -0.00000000000E+00 -0.00000000000E+00 -0.40942035378E+03  0.40942035378E+03  0.00000000000E+00 0.  1.
         23    2    1    2    0    0  0.34434646897E+03  0.40052838326E+03 -0.15824068336E+03  0.55887346728E+03  0.91115103408E+02 0.  0.
         11    1    3    3    0    0  0.25059061450E+03  0.25358049927E+03 -0.14221805731E+03  0.38382900035E+03  0.00000000000E+00 0.  1.
        -11    1    3    3    0    0  0.93755854472E+02  0.14694788399E+03 -0.16022626050E+02  0.17504446693E+03  0.00000000000E+00 0. -1.
         22    1    1    2    0    0 -0.34434646897E+03 -0.40052838326E+03  0.13204476406E+04  0.14221741975E+04  0.00000000000E+00 0. -1.
<mgrwt>
<rscale>  0 0.16043144E+04</rscale>
<asrwt>0</asrwt>
<pdfrwt beam="1">  1        1 0.24178882E+00 0.16043144E+04</pdfrwt>
<pdfrwt beam="2">  1       -1 0.62987747E-01 0.16043144E+04</pdfrwt>
<totfact> 0.14311787E+01</totfact>
</mgrwt>
</event>
<event>
 6    1  0.9512547E-007  0.4619431E+03  0.7818608E-02  0.1024219E+00
          2   -1    0    0  501    0  0.00000000000E+00  0.00000000000E+00  0.43144783088E+03  0.43144783088E+03  0.00000000000E+00 0. -1.
         -2   -1    0    0    0  501 -0.00000000000E+00 -0.00000000000E+00 -0.12364846825E+03  0.12364846825E+03  0.00000000000E+00 0.  1.
         23    2    1    2    0    0  0.11459680398E+03 -0.93788089629E+02  0.35805033904E+03  0.39871921043E+03  0.94065563553E+02 0.  0.
         13    1    3    3    0    0 -0.33146431487E+01 -0.28546068368E+02  0.13578884591E+03  0.13879652572E+03  0.00000000000E+00 0. -1.
        -13    1    3    3    0    0  0.11791144713E+03 -0.65242021261E+02  0.22226149312E+03  0.25992268471E+03  0.00000000000E+00 0.  1.
         22    1    1    2    0    0 -0.11459680398E+03  0.93788089629E+02 -0.50250976407E+02  0.15637708869E+03  0.00000000000E+00 0.  1.
<mgrwt>
<rscale>  0 0.46194313E+03</rscale>
<asrwt>0</asrwt>
<pdfrwt beam="1">  1        2 0.66376588E-01 0.46194313E+03</pdfrwt>
<pdfrwt beam="2">  1       -2 0.19022842E-01 0.46194313E+03</pdfrwt>
<totfact> 0.16929711E+03</totfact>
</mgrwt>
</event>
<event>
 6    1  0.9512547E-007  0.3187384E+04  0.7818608E-02  0.8192157E-01
          2   -1    0    0  501    0  0.00000000000E+00  0.00000000000E+00  0.25752217634E+04  0.25752217634E+04  0.00000000000E+00 0. -1.
         -2   -1    0    0    0  501 -0.00000000000E+00 -0.00000000000E+00 -0.98626620544E+03  0.98626620544E+03  0.00000000000E+00 0.  1.
         23    2    1    2    0    0 -0.65235800450E+03 -0.94985820761E+03  0.20231785862E+04  0.23300858336E+04  0.90812000715E+02 0.  0.
         11    1    3    3    0    0 -0.23999993623E+02 -0.74606991046E+02  0.13163351119E+03  0.15319785924E+03  0.00000000000E+00 0.  1.
        -11    1    3    3    0    0 -0.62835801087E+03 -0.87525121657E+03  0.18915450750E+04  0.21768879743E+04  0.00000000000E+00 0. -1.
         22    1    1    2    0    0  0.65235800450E+03  0.94985820761E+03 -0.43422302822E+03  0.12314021353E+04  0.00000000000E+00 0.  1.
<mgrwt>
<rscale>  0 0.31873840E+04</rscale>
<asrwt>0</asrwt>
<pdfrwt beam="1">  1        2 0.39618796E+00 0.31873840E+04</pdfrwt>
<pdfrwt beam="2">  1       -2 0.15173326E+00 0.31873840E+04</pdfrwt>
<totfact> 0.77065166E-01</totfact>
</mgrwt>
</event>
<event>
 6    1  0.9512547E-007  0.3699020E+04  0.7818608E-02  0.8068179E-01
         -2   -1    0    0    0  501 -0.00000000000E+00  0.00000000000E+00  0.20181225471E+04  0.20181225471E+04  0.00000000000E+00 0.  1.
          2   -1    0    0  501    0  0.00000000000E+00 -0.00000000000E+00 -0.16949852789E+04  0.16949852789E+04  0.00000000000E+00 0. -1.
         23    2    1    2    0    0 -0.15497296785E+04  0.36085477364E+03 -0.78248028403E+03  0.17755143661E+04  0.91091301493E+02 0.  0.
         13    1    3    3    0    0 -0.51285672556E+03  0.14651034872E+03 -0.30021095380E+03  0.61205712153E+03  0.00000000000E+00 0.  1.
        -13    1    3    3    0    0 -0.10368729529E+04  0.21434442492E+03 -0.48226933023E+03  0.11634572446E+04  0.00000000000E+00 0. -1.
         22    1    1    2    0    0  0.15497296785E+04 -0.36085477364E+03  0.11056175522E+04  0.19375934599E+04  0.00000000000E+00 0.  1.
<mgrwt>
<rscale>  0 0.36990204E+04</rscale>
<asrwt>0</asrwt>
<pdfrwt beam="1">  1        2 0.26076697E+00 0.36990204E+04</pdfrwt>
<pdfrwt beam="2">  1       -2 0.31048039E+00 0.36990204E+04</pdfrwt>
<totfact> 0.21868465E-01</totfact>
</mgrwt>
</event>
<event>
 6    1  0.9512547E-007  0.2420450E+04  0.7818608E-02  0.8431887E-01
          1   -1    0    0  501    0  0.00000000000E+00  0.00000000000E+00  0.10864992542E+04  0.10864992542E+04  0.00000000000E+00 0. -1.
         -1   -1    0    0    0  501 -0.00000000000E+00 -0.00000000000E+00 -0.13480405831E+04  0.13480405831E+04  0.00000000000E+00 0.  1.
         23    2    1    2    0    0  0.67587667761E+03 -0.96058585113E+03  0.15466508021E+03  0.11884410308E+04  0.94532194703E+02 0.  0.
         11    1    3    3    0    0  0.39023892920E+03 -0.60521577366E+03  0.58638128128E+02  0.72250327655E+03  0.00000000000E+00 0.  1.
        -11    1    3    3    0    0  0.28563774841E+03 -0.35537007747E+03  0.96026952084E+02  0.46593775421E+03  0.00000000000E+00 0. -1.
         22    1    1    2    0    0 -0.67587667761E+03  0.96058585113E+03 -0.41620640902E+03  0.12460988065E+04  0.00000000000E+00 0.  1.
<mgrwt>
<rscale>  0 0.24204504E+04</rscale>
<asrwt>0</asrwt>
<pdfrwt beam="1">  1        1 0.16715373E+00 0.24204504E+04</pdfrwt>
<pdfrwt beam="2">  1       -1 0.20739086E+00 0.24204504E+04</pdfrwt>
<totfact> 0.15549879E+00</totfact>
</mgrwt>
</event>
<event>
 6    1  0.9512547E-007  0.2415173E+04  0.7818608E-02  0.8433845E-01
          1   -1    0    0  501    0  0.00000000000E+00  0.00000000000E+00  0.14661822683E+04  0.14661822683E+04  0.00000000000E+00 0. -1.
         -1   -1    0    0    0  501 -0.00000000000E+00 -0.00000000000E+00 -0.99459983968E+03  0.99459983968E+03  0.00000000000E+00 0.  1.
         23    2    1    2    0    0 -0.41891866529E+02 -0.73358635899E+03 -0.73803373635E+03  0.10454817366E+04  0.91838941032E+02 0.  0.
         13    1    3    3    0    0  0.51309948221E+01 -0.46854421694E+02 -0.21242144590E+02  0.51700025599E+02  0.00000000000E+00 0. -1.
        -13    1    3    3    0    0 -0.47022861351E+02 -0.68673193729E+03 -0.71679159176E+03  0.99378171104E+03  0.00000000000E+00 0.  1.
         22    1    1    2    0    0  0.41891866529E+02  0.73358635899E+03  0.12096161649E+04  0.14153003713E+04  0.00000000000E+00 0. -1.
<mgrwt>
<rscale>  0 0.24151726E+04</rscale>
<asrwt>0</asrwt>
<pdfrwt beam="1">  1        1 0.22556650E+00 0.24151726E+04</pdfrwt>
<pdfrwt beam="2">  1       -1 0.15301536E+00 0.24151726E+04</pdfrwt>
<totfact> 0.20430517E+00</totfact>
</mgrwt>
</event>
<event>
 6    1  0.9512547E-007  0.1213023E+04  0.7818608E-02  0.9101533E-01
          2   -1    0    0  501    0  0.00000000000E+00  0.00000000000E+00  0.23452797546E+03  0.23452797546E+03  0.00000000000E+00 0. -1.
         -2   -1    0    0    0  501 -0.00000000000E+00 -0.00000000000E+00 -0.15684962536E+04  0.15684962536E+04  0.00000000000E+00 0.  1.
         23    2    1    2    0    0 -0.35805231156E+03  0.33170607688E+03 -0.14414772658E+03  0.51698250183E+03  0.90895329179E+02 0.  0.
         13    1    3    3    0    0 -0.14748875325E+03  0.13736153210E+03 -0.10656603674E+03  0.22798562021E+03  0.00000000000E+00 0.  1.
        -13    1    3    3    0    0 -0.21056355832E+03  0.19434454478E+03 -0.37581689840E+02  0.28899688162E+03  0.00000000000E+00 0. -1.
         22    1    1    2    0    0  0.35805231156E+03 -0.33170607688E+03 -0.11898205515E+04  0.12860417272E+04  0.00000000000E+00 0.  1.
<mgrwt>
<rscale>  0 0.12130231E+04</rscale>
<asrwt>0</asrwt>
<pdfrwt beam="1">  1        2 0.36081225E-01 0.12130231E+04</pdfrwt>
<pdfrwt beam="2">  1       -2 0.24130713E+00 0.12130231E+04</pdfrwt>
<totfact> 0.10384741E+01</totfact>
</mgrwt>
</event>
<event>
 6    1  0.9512547E-007  0.4860127E+04  0.7818608E-02  0.7850454E-01
         -2   -1    0    0    0  501 -0.00000000000E+00  0.00000000000E+00  0.49293572590E+04  0.49293572590E+04  0.00000000000E+00 0.  1.
          2   -1    0    0  501    0  0.00000000000E+00 -0.00000000000E+00 -0.11979674463E+04  0.11979674463E+04  0.00000000000E+00 0. -1.
         23    2    1    2    0    0 -0.92425472540E+03 -0.19920839928E+04  0.55705903290E+03  0.22673996630E+04  0.90227678366E+02 0.  0.
         11    1    3    3    0    0 -0.56544085895E+03 -0.11770688648E+04  0.37309721960E+03  0.13580927850E+04  0.00000000000E+00 0. -1.
        -11    1    3    3    0    0 -0.35881386645E+03 -0.81501512805E+03  0.18396181329E+03  0.90930687804E+03  0.00000000000E+00 0.  1.
         22    1    1    2    0    0  0.92425472540E+03  0.19920839928E+04  0.31743307799E+04  0.38599250423E+04  0.00000000000E+00 0.  1.
<mgrwt>
<rscale>  0 0.48601274E+04</rscale>
<asrwt>0</asrwt>
<pdfrwt beam="1">  1        2 0.18430269E+00 0.48601274E+04</pdfrwt>
<pdfrwt beam="2">  1       -2 0.75836264E+00 0.48601274E+04</pdfrwt>
<totfact> 0.18417853E-03</totfact>
</mgrwt>
</event>
<event>
 6    1  0.9512547E-007  0.2104123E+04  0.7818608E-02  0.8559429E-01
         -2   -1    0    0    0  501 -0.00000000000E+00  0.00000000000E+00  0.15462484084E+04  0.15462484084E+04  0.00000000000E+00 0.  1.
          2   -1    0    0  501    0  0.00000000000E+00 -0.00000000000E+00 -0.71581846215E+03  0.71581846215E+03  0.00000000000E+00 0. -1.
         23    2    1    2    0    0  0.60121033654E+03  0.37212848174E+03  0.12506113546E+04  0.14395792465E+04  0.91794177279E+02 0.  0.
         13    1    3    3    0    0  0.22779264977E+03  0.16438773511E+03  0.57908079736E+03  0.64362053154E+03  0.00000000000E+00 0.  1.
        -13    1    3    3    0    0  0.37341768677E+03  0.20774074664E+03  0.67153055727E+03  0.79595871498E+03  0.00000000000E+00 0. -1.
         22    1    1    2    0    0 -0.60121033654E+03 -0.37212848174E+03 -0.42018140840E+03  0.82248762402E+03  0.00000000000E+00 0. -1.
<mgrwt>
<rscale>  0 0.21041228E+04</rscale>
<asrwt>0</asrwt>
<pdfrwt beam="1">  1        2 0.11012592E+00 0.21041228E+04</pdfrwt>
<pdfrwt beam="2">  1       -2 0.23788437E+00 0.21041228E+04</pdfrwt>
<totfact> 0.28000231E+00</totfact>
</mgrwt>
</event>
<event>
 6    1  0.9512547E-007  0.3980215E+04  0.7818608E-02  0.8008550E-01
         -2   -1    0    0    0  501 -0.00000000000E+00  0.00000000000E+00  0.18822494853E+04  0.18822494853E+04  0.00000000000E+00 0.  1.
          2   -1    0    0  501    0  0.00000000000E+00 -0.00000000000E+00 -0.21041459800E+04  0.21041459800E+04  0.00000000000E+00 0. -1.
         23    2    1    2    0    0  0.77901733909E+03  0.49147994694E+03 -0.18767019205E+04  0.20925101599E+04  0.90377641283E+02 0.  0.
         11    1    3    3    0    0  0.12181671940E+03  0.71321763885E+02 -0.22050188951E+03  0.26181518368E+03  0.00000000000E+00 0.  1.
        -11    1    3    3    0    0  0.65720061969E+03  0.42015818306E+03 -0.16562000310E+04  0.18306949762E+04  0.00000000000E+00 0. -1.
         22    1    1    2    0    0 -0.77901733909E+03 -0.49147994694E+03  0.16548054258E+04  0.18938853055E+04  0.00000000000E+00 0.  1.
<mgrwt>
<rscale>  0 0.39802149E+04</rscale>
<asrwt>0</asrwt>
<pdfrwt beam="1">  1        2 0.32371477E+00 0.39802149E+04</pdfrwt>
<pdfrwt beam="2">  1       -2 0.28957684E+00 0.39802149E+04</pdfrwt>
<totfact> 0.16999086E-01</totfact>
</mgrwt>
</event>
<event>
 6    1  0.1091146E-006  0.2916257E+04  0.7818608E-02  0.8268057E-01
          1   -1    0    0  501    0  0.00000000000E+00  0.00000000000E+00  0.14075347768E+04  0.14075347768E+04  0.00000000000E+00 0. -1.
         -1   -1    0    0    0  501 -0.00000000000E+00 -0.00000000000E+00 -0.15105403623E+04  0.15105403623E+04  0.00000000000E+00 0.  1.
         23    2    1    2    0    0  0.14652222197E+03 -0.90954837618E+03 -0.11806430748E+04  0.15003129699E+04  0.90961132104E+02 0.  0.
         13    1    3    3    0    0  0.32202426891E+02 -0.23966737836E+03 -0.37663430703E+03  0.44758334395E+03  0.00000000000E+00 0. -1.
        -13    1    3    3    0    0  0.11431979508E+03 -0.66988099782E+03 -0.80400876772E+03  0.10527296260E+04  0.00000000000E+00 0.  1.
         22    1    1    2    0    0 -0.14652222197E+03  0.90954837618E+03  0.10776374893E+04  0.14177621692E+04  0.00000000000E+00 0. -1.
<mgrwt>
<rscale>  0 0.29162566E+04</rscale>
<asrwt>0</asrwt>
<pdfrwt beam="1">  1        1 0.21654381E+00 0.29162566E+04</pdfrwt>
<pdfrwt beam="2">  1       -1 0.23239082E+00 0.29162566E+04</pdfrwt>
<totfact> 0.59208693E-01</totfact>
</mgrwt>
</event>
<event>
 6    1  0.9512547E-007  0.2086172E+04  0.7818608E-02  0.8567359E-01
          2   -1    0    0  501    0  0.00000000000E+00  0.00000000000E+00  0.86443141538E+03  0.86443141538E+03  0.00000000000E+00 0. -1.
         -2   -1    0    0    0  501 -0.00000000000E+00 -0.00000000000E+00 -0.12586640458E+04  0.12586640458E+04  0.00000000000E+00 0.  1.
         23    2    1    2    0    0 -0.11336152008E+03  0.71060495742E+03  0.56871625924E+03  0.92098032366E+03  0.83404636013E+02 0.  0.
         11    1    3    3    0    0 -0.72316262496E+02  0.49549088754E+03  0.44234711841E+03  0.66814057999E+03  0.00000000000E+00 0. -1.
        -11    1    3    3    0    0 -0.41045257580E+02  0.21511406987E+03  0.12636914083E+03  0.25283974367E+03  0.00000000000E+00 0.  1.
         22    1    1    2    0    0  0.11336152008E+03 -0.71060495742E+03 -0.96294888962E+03  0.12021151375E+04  0.00000000000E+00 0.  1.
<mgrwt>
<rscale>  0 0.20861723E+04</rscale>
<asrwt>0</asrwt>
<pdfrwt beam="1">  1        2 0.13298945E+00 0.20861723E+04</pdfrwt>
<pdfrwt beam="2">  1       -2 0.19364062E+00 0.20861723E+04</pdfrwt>
<totfact> 0.41912152E+00</totfact>
</mgrwt>
</event>
<event>
 6    1  0.9512547E-007  0.1300204E+04  0.7818608E-02  0.9029403E-01
         -2   -1    0    0    0  501 -0.00000000000E+00  0.00000000000E+00  0.48437575988E+03  0.48437575988E+03  0.00000000000E+00 0.  1.
          2   -1    0    0  501    0  0.00000000000E+00 -0.00000000000E+00 -0.87253080649E+03  0.87253080649E+03  0.00000000000E+00 0. -1.
         23    2    1    2    0    0  0.17640714595E+03  0.50819041807E+03 -0.57006997948E+03  0.78904212394E+03  0.90723258776E+02 0.  0.
         11    1    3    3    0    0  0.38635739676E+02  0.19419343083E+03 -0.16045886544E+03  0.25485457904E+03  0.00000000000E+00 0. -1.
        -11    1    3    3    0    0  0.13777140628E+03  0.31399698724E+03 -0.40961111404E+03  0.53418754490E+03  0.00000000000E+00 0.  1.
         22    1    1    2    0    0 -0.17640714595E+03 -0.50819041807E+03  0.18191493287E+03  0.56786444242E+03  0.00000000000E+00 0.  1.
<mgrwt>
<rscale>  0 0.13002042E+04</rscale>
<asrwt>0</asrwt>
<pdfrwt beam="1">  1        2 0.13423551E+00 0.13002042E+04</pdfrwt>
<pdfrwt beam="2">  1       -2 0.74519348E-01 0.13002042E+04</pdfrwt>
<totfact> 0.48625053E+01</totfact>
</mgrwt>
</event>
<event>
 6    1  0.9512547E-007  0.2626735E+04  0.7818608E-02  0.8359176E-01
         -1   -1    0    0    0  501 -0.00000000000E+00  0.00000000000E+00  0.59723574638E+03  0.59723574638E+03  0.00000000000E+00 0.  1.
          1   -1    0    0  501    0  0.00000000000E+00 -0.00000000000E+00 -0.28881968776E+04  0.28881968776E+04  0.00000000000E+00 0. -1.
         23    2    1    2    0    0 -0.63661664962E+02 -0.82711622725E+03  0.20155675114E+03  0.85849154075E+03  0.90600996920E+02 0.  0.
         13    1    3    3    0    0 -0.55494372302E+02 -0.68638331492E+03  0.20158348903E+03  0.71752183480E+03  0.00000000000E+00 0. -1.
        -13    1    3    3    0    0 -0.81672926599E+01 -0.14073291232E+03 -0.26737889898E-01  0.14096970595E+03  0.00000000000E+00 0.  1.
         22    1    1    2    0    0  0.63661664962E+02  0.82711622725E+03 -0.24925178824E+04  0.26269410833E+04  0.00000000000E+00 0. -1.
<mgrwt>
<rscale>  0 0.26267352E+04</rscale>
<asrwt>0</asrwt>
<pdfrwt beam="1">  1        1 0.44433798E+00 0.26267352E+04</pdfrwt>
<pdfrwt beam="2">  1       -1 0.91882422E-01 0.26267352E+04</pdfrwt>
<totfact> 0.73012812E-01</totfact>
</mgrwt>
</event>
<event>
 6    1  0.9512547E-007  0.4709610E+03  0.7818608E-02  0.1021649E+00
         -2   -1    0    0    0  501 -0.00000000000E+00  0.00000000000E+00  0.60846938798E+02  0.60846938798E+02  0.00000000000E+00 0.  1.
          2   -1    0    0  501    0  0.00000000000E+00 -0.00000000000E+00 -0.91132040807E+03  0.91132040807E+03  0.00000000000E+00 0. -1.
         23    2    1    2    0    0 -0.16742999024E+03 -0.15264804399E+03 -0.45016781604E+03  0.51219034421E+03  0.91398354097E+02 0.  0.
         13    1    3    3    0    0 -0.15946516793E+03 -0.10105582569E+03 -0.38408865008E+03  0.42797839993E+03  0.00000000000E+00 0. -1.
        -13    1    3    3    0    0 -0.79648223118E+01 -0.51592218308E+02 -0.66079165962E+02  0.84211944275E+02  0.00000000000E+00 0.  1.
         22    1    1    2    0    0  0.16742999024E+03  0.15264804399E+03 -0.40030565322E+03  0.45997700265E+03  0.00000000000E+00 0. -1.
<mgrwt>
<rscale>  0 0.47096096E+03</rscale>
<asrwt>0</asrwt>
<pdfrwt beam="1">  1        2 0.14020314E+00 0.47096096E+03</pdfrwt>
<pdfrwt beam="2">  1       -2 0.93610678E-02 0.47096096E+03</pdfrwt>
<totfact> 0.22075626E+03</totfact>
</mgrwt>
</event>
<event>
 6    1  0.9512547E-007  0.2980060E+04  0.7818608E-02  0.8249448E-01
          2   -1    0    0  501    0  0.00000000000E+00  0.00000000000E+00  0.19275237057E+04  0.19275237057E+04  0.00000000000E+00 0. -1.
         -2   -1    0    0    0  501 -0.00000000000E+00 -0.00000000000E+00 -0.11518354286E+04  0.11518354286E+04  0.00000000000E+00 0.  1.
         23    2    1    2    0    0  0.17730617932E+03  0.73565285640E+03 -0.93637211342E+03  0.12075222324E+04  0.93244842080E+02 0.  0.
         11    1    3    3    0    0  0.28312499129E+02  0.31033754896E+03 -0.37075695811E+03  0.48432604089E+03  0.00000000000E+00 0. -1.
        -11    1    3    3    0    0  0.14899368019E+03  0.42531530744E+03 -0.56561515532E+03  0.72319619150E+03  0.00000000000E+00 0.  1.
         22    1    1    2    0    0 -0.17730617932E+03 -0.73565285640E+03  0.17120603906E+04  0.18718369019E+04  0.00000000000E+00 0. -1.
<mgrwt>
<rscale>  0 0.29800605E+04</rscale>
<asrwt>0</asrwt>
<pdfrwt beam="1">  1        2 0.29654211E+00 0.29800605E+04</pdfrwt>
<pdfrwt beam="2">  1       -2 0.17720545E+00 0.29800605E+04</pdfrwt>
<totfact> 0.11919741E+00</totfact>
</mgrwt>
</event>
<event>
 6    1  0.9512547E-007  0.1483635E+04  0.7818608E-02  0.8895409E-01
          1   -1    0    0  501    0  0.00000000000E+00  0.00000000000E+00  0.13610676557E+04  0.13610676557E+04  0.00000000000E+00 0. -1.
         -1   -1    0    0    0  501 -0.00000000000E+00 -0.00000000000E+00 -0.40431019922E+03  0.40431019922E+03  0.00000000000E+00 0.  1.
         23    2    1    2    0    0 -0.64615705157E+03  0.35864264407E+03  0.48463894195E+03  0.88842895492E+03  0.91036379888E+02 0.  0.
         13    1    3    3    0    0 -0.42014398395E+03  0.19381563580E+03  0.33458196559E+03  0.57099085775E+03  0.00000000000E+00 0.  1.
        -13    1    3    3    0    0 -0.22601306761E+03  0.16482700826E+03  0.15005697635E+03  0.31743809717E+03  0.00000000000E+00 0. -1.
         22    1    1    2    0    0  0.64615705157E+03 -0.35864264407E+03  0.47211851450E+03  0.87694889997E+03  0.00000000000E+00 0. -1.
<mgrwt>
<rscale>  0 0.14836354E+04</rscale>
<asrwt>0</asrwt>
<pdfrwt beam="1">  1        1 0.20939502E+00 0.14836354E+04</pdfrwt>
<pdfrwt beam="2">  1       -1 0.62201570E-01 0.14836354E+04</pdfrwt>
<totfact> 0.20781595E+01</totfact>
</mgrwt>
</event>
<event>
 6    1  0.9512547E-007  0.8509232E+03  0.7818608E-02  0.9489099E-01
         -1   -1    0    0    0  501 -0.00000000000E+00  0.00000000000E+00  0.30811556289E+03  0.30811556289E+03  0.00000000000E+00 0.  1.
          1   -1    0    0  501    0  0.00000000000E+00 -0.00000000000E+00 -0.58749900552E+03  0.58749900552E+03  0.00000000000E+00 0. -1.
         23    2    1    2    0    0 -0.39525054103E+03  0.10887192325E+03 -0.41777457938E+02  0.42176576360E+03  0.89804885690E+02 0.  0.
         11    1    3    3    0    0 -0.50245248137E+02  0.43976268517E+01 -0.34697177315E+02  0.61219426622E+02  0.00000000000E+00 0. -1.
        -11    1    3    3    0    0 -0.34500529289E+03  0.10447429640E+03 -0.70802806226E+01  0.36054633697E+03  0.00000000000E+00 0.  1.
         22    1    1    2    0    0  0.39525054103E+03 -0.10887192325E+03 -0.23760598469E+03  0.47384880481E+03  0.00000000000E+00 0. -1.
<mgrwt>
<rscale>  0 0.85092323E+03</rscale>
<asrwt>0</asrwt>
<pdfrwt beam="1">  1        1 0.90384462E-01 0.85092323E+03</pdfrwt>
<pdfrwt beam="2">  1       -1 0.47402395E-01 0.85092323E+03</pdfrwt>
<totfact> 0.15829627E+02</totfact>
</mgrwt>
</event>
<event>
 6    1  0.1663527E-006  0.2069787E+04  0.7818608E-02  0.8574670E-01
          2   -1    0    0  501    0  0.00000000000E+00  0.00000000000E+00  0.24819093289E+04  0.24819093289E+04  0.00000000000E+00 0. -1.
         -2   -1    0    0    0  501 -0.00000000000E+00 -0.00000000000E+00 -0.43152441161E+03  0.43152441161E+03  0.00000000000E+00 0.  1.
         23    2    1    2    0    0  0.69310610761E+03 -0.20110558064E+03 -0.13093701626E+02  0.72739084484E+03  0.89924774988E+02 0.  0.
         13    1    3    3    0    0  0.37170596214E+03 -0.15408867682E+03 -0.21103179037E+01  0.40238426417E+03  0.00000000000E+00 0. -1.
        -13    1    3    3    0    0  0.32140014548E+03 -0.47016903814E+02 -0.10983383723E+02  0.32500658066E+03  0.00000000000E+00 0.  1.
         22    1    1    2    0    0 -0.69310610761E+03  0.20110558064E+03  0.20634786189E+04  0.21860428956E+04  0.00000000000E+00 0. -1.
<mgrwt>
<rscale>  0 0.20697869E+04</rscale>
<asrwt>0</asrwt>
<pdfrwt beam="1">  1        2 0.38183220E+00 0.20697869E+04</pdfrwt>
<pdfrwt beam="2">  1       -2 0.66388372E-01 0.20697869E+04</pdfrwt>
<totfact> 0.68741523E+00</totfact>
</mgrwt>
</event>
<event>
 6    1  0.9512547E-007  0.1231082E+04  0.7818608E-02  0.9086077E-01
         -2   -1    0    0    0  501 -0.00000000000E+00  0.00000000000E+00  0.20834349123E+03  0.20834349123E+03  0.00000000000E+00 0.  1.
          2   -1    0    0  501    0  0.00000000000E+00 -0.00000000000E+00 -0.18185866937E+04  0.18185866937E+04  0.00000000000E+00 0. -1.
         23    2    1    2    0    0  0.39764700951E+03  0.46063689313E+03 -0.92619958597E+03  0.11113838121E+04  0.83778358098E+02 0.  0.
         13    1    3    3    0    0  0.85415476486E+02  0.66347064896E+02 -0.21020038851E+03  0.23639361238E+03  0.00000000000E+00 0. -1.
        -13    1    3    3    0    0  0.31223153303E+03  0.39428982824E+03 -0.71599919746E+03  0.87499019973E+03  0.00000000000E+00 0.  1.
         22    1    1    2    0    0 -0.39764700951E+03 -0.46063689313E+03 -0.68404361647E+03  0.91554637278E+03  0.00000000000E+00 0. -1.
<mgrwt>
<rscale>  0 0.12310820E+04</rscale>
<asrwt>0</asrwt>
<pdfrwt beam="1">  1        2 0.27978257E+00 0.12310820E+04</pdfrwt>
<pdfrwt beam="2">  1       -2 0.32052844E-01 0.12310820E+04</pdfrwt>
<totfact> 0.75159816E+01</totfact>
</mgrwt>
</event>
<event>
 6    1  0.9512547E-007  0.1315068E+04  0.7818608E-02  0.9017700E-01
         -2   -1    0    0    0  501 -0.00000000000E+00  0.00000000000E+00  0.32562934548E+03  0.32562934548E+03  0.00000000000E+00 0.  1.
          2   -1    0    0  501    0  0.00000000000E+00 -0.00000000000E+00 -0.13277404173E+04  0.13277404173E+04  0.00000000000E+00 0. -1.
         23    2    1    2    0    0 -0.53964357156E+03 -0.33319666373E+03 -0.30087308866E+03  0.70786994253E+03  0.91214247804E+02 0.  0.
         13    1    3    3    0    0 -0.19072088227E+03 -0.16857629326E+03 -0.13180656920E+03  0.28664506496E+03  0.00000000000E+00 0. -1.
        -13    1    3    3    0    0 -0.34892268929E+03 -0.16462037047E+03 -0.16906651946E+03  0.42122487756E+03  0.00000000000E+00 0.  1.
         22    1    1    2    0    0  0.53964357156E+03  0.33319666373E+03 -0.70123798315E+03  0.94549982024E+03  0.00000000000E+00 0. -1.
<mgrwt>
<rscale>  0 0.13150684E+04</rscale>
<asrwt>0</asrwt>
<pdfrwt beam="1">  1        2 0.20426776E+00 0.13150684E+04</pdfrwt>
<pdfrwt beam="2">  1       -2 0.50096822E-01 0.13150684E+04</pdfrwt>
<totfact> 0.58770534E+01</totfact>
</mgrwt>
</event>
<event>
 6    1  0.9512547E-007  0.3078680E+04  0.7818608E-02  0.8221614E-01
         -2   -1    0    0    0  501 -0.00000000000E+00  0.00000000000E+00  0.92845725623E+03  0.92845725623E+03  0.00000000000E+00 0.  1.
          2   -1    0    0  501    0  0.00000000000E+00 -0.00000000000E+00 -0.25521550581E+04  0.25521550581E+04  0.00000000000E+00 0. -1.
         23    2    1    2    0    0  0.96998091309E+03 -0.37584782698E+03  0.46838168591E+03  0.11441788905E+04  0.87403483569E+02 0.  0.
         11    1    3    3    0    0  0.26872282740E+03 -0.64410222589E+02  0.11241032725E+03  0.29832317445E+03  0.00000000000E+00 0. -1.
        -11    1    3    3    0    0  0.70125808569E+03 -0.31143760440E+03  0.35597135866E+03  0.84585571605E+03  0.00000000000E+00 0.  1.
         22    1    1    2    0    0 -0.96998091309E+03  0.37584782698E+03 -0.20920794878E+04  0.23364334239E+04  0.00000000000E+00 0. -1.
<mgrwt>
<rscale>  0 0.30786795E+04</rscale>
<asrwt>0</asrwt>
<pdfrwt beam="1">  1        2 0.39263923E+00 0.30786795E+04</pdfrwt>
<pdfrwt beam="2">  1       -2 0.14283958E+00 0.30786795E+04</pdfrwt>
<totfact> 0.94074501E-01</totfact>
</mgrwt>
</event>
<event>
 6    1  0.9512547E-007  0.1855683E+04  0.7818608E-02  0.8677236E-01
          2   -1    0    0  501    0  0.00000000000E+00  0.00000000000E+00  0.17510535868E+04  0.17510535868E+04  0.00000000000E+00 0. -1.
         -2   -1    0    0    0  501 -0.00000000000E+00 -0.00000000000E+00 -0.49164115890E+03  0.49164115890E+03  0.00000000000E+00 0.  1.
         23    2    1    2    0    0  0.49850771858E+03 -0.30568419375E+03 -0.23569033250E+03  0.63730225913E+03  0.93013250982E+02 0.  0.
         13    1    3    3    0    0  0.16643664804E+03 -0.12564830260E+03 -0.12729880362E+03  0.24432281752E+03  0.00000000000E+00 0.  1.
        -13    1    3    3    0    0  0.33207107054E+03 -0.18003589115E+03 -0.10839152888E+03  0.39297944161E+03  0.00000000000E+00 0. -1.
         22    1    1    2    0    0 -0.49850771858E+03  0.30568419375E+03  0.14951027604E+04  0.16053924866E+04  0.00000000000E+00 0. -1.
<mgrwt>
<rscale>  0 0.18556832E+04</rscale>
<asrwt>0</asrwt>
<pdfrwt beam="1">  1        2 0.26939286E+00 0.18556832E+04</pdfrwt>
<pdfrwt beam="2">  1       -2 0.75637102E-01 0.18556832E+04</pdfrwt>
<totfact> 0.13528822E+01</totfact>
</mgrwt>
</event>
<event>
 6    1  0.9512547E-007  0.3165566E+04  0.7818608E-02  0.8197971E-01
          2   -1    0    0  501    0  0.00000000000E+00  0.00000000000E+00  0.15952223281E+04  0.15952223281E+04  0.00000000000E+00 0. -1.
         -2   -1    0    0    0  501 -0.00000000000E+00 -0.00000000000E+00 -0.15704402889E+04  0.15704402889E+04  0.00000000000E+00 0.  1.
         23    2    1    2    0    0 -0.15183380422E+04  0.11656530057E+03  0.43914052817E+03  0.15874893574E+04  0.91324567151E+02 0.  0.
         11    1    3    3    0    0 -0.26623023309E+03 -0.52884622141E+01  0.10121871885E+03  0.28487143397E+03  0.00000000000E+00 0. -1.
        -11    1    3    3    0    0 -0.12521078091E+04  0.12185376278E+03  0.33792180932E+03  0.13026179234E+04  0.00000000000E+00 0.  1.
         22    1    1    2    0    0  0.15183380422E+04 -0.11656530057E+03 -0.41435848897E+03  0.15781732595E+04  0.00000000000E+00 0.  1.
<mgrwt>
<rscale>  0 0.31655656E+04</rscale>
<asrwt>0</asrwt>
<pdfrwt beam="1">  1        2 0.24541882E+00 0.31655656E+04</pdfrwt>
<pdfrwt beam="2">  1       -2 0.24160620E+00 0.31655656E+04</pdfrwt>
<totfact> 0.68604129E-01</totfact>
</mgrwt>
</event>
<event>
 6    1  0.9512547E-007  0.7622740E+03  0.7818608E-02  0.9616289E-01
         -2   -1    0    0    0  501 -0.00000000000E+00  0.00000000000E+00  0.14370234551E+03  0.14370234551E+03  0.00000000000E+00 0.  1.
          2   -1    0    0  501    0  0.00000000000E+00 -0.00000000000E+00 -0.10108771942E+04  0.10108771942E+04  0.00000000000E+00 0. -1.
         23    2    1    2    0    0  0.17131044835E+03  0.28101242075E+03 -0.71405753395E+03  0.79159171292E+03  0.91782502868E+02 0.  0.
         11    1    3    3    0    0  0.49624726137E+01  0.25658911763E+02 -0.13215721983E+03  0.13471650470E+03  0.00000000000E+00 0.  1.
        -11    1    3    3    0    0  0.16634797574E+03  0.25535350899E+03 -0.58190031413E+03  0.65687520821E+03  0.00000000000E+00 0. -1.
         22    1    1    2    0    0 -0.17131044835E+03 -0.28101242075E+03 -0.15311731475E+03  0.36298782680E+03  0.00000000000E+00 0.  1.
<mgrwt>
<rscale>  0 0.76227403E+03</rscale>
<asrwt>0</asrwt>
<pdfrwt beam="1">  1        2 0.15551957E+00 0.76227403E+03</pdfrwt>
<pdfrwt beam="2">  1       -2 0.22108052E-01 0.76227403E+03</pdfrwt>
<totfact> 0.44561359E+02</totfact>
</mgrwt>
</event>
<event>
 6    1  0.9512547E-007  0.1587550E+04  0.7818608E-02  0.8828233E-01
          2   -1    0    0  501    0  0.00000000000E+00  0.00000000000E+00  0.20103731195E+04  0.20103731195E+04  0.00000000000E+00 0. -1.
         -2   -1    0    0    0  501 -0.00000000000E+00 -0.00000000000E+00 -0.31341375633E+03  0.31341375633E+03  0.00000000000E+00 0.  1.
         23    2    1    2    0    0  0.26946156042E+03 -0.73542403895E+03  0.10171649759E+04  0.12866858882E+04  0.86475066092E+02 0.  0.
         11    1    3    3    0    0  0.97642990931E+02 -0.21059730221E+03  0.24659859424E+03  0.33866833932E+03  0.00000000000E+00 0.  1.
        -11    1    3    3    0    0  0.17181856949E+03 -0.52482673674E+03  0.77056638169E+03  0.94801754890E+03  0.00000000000E+00 0. -1.
         22    1    1    2    0    0 -0.26946156042E+03  0.73542403895E+03  0.67979438726E+03  0.10371009876E+04  0.00000000000E+00 0.  1.
<mgrwt>
<rscale>  0 0.15875498E+04</rscale>
<asrwt>0</asrwt>
<pdfrwt beam="1">  1        2 0.30928816E+00 0.15875498E+04</pdfrwt>
<pdfrwt beam="2">  1       -2 0.48217502E-01 0.15875498E+04</pdfrwt>
<totfact> 0.25791409E+01</totfact>
</mgrwt>
</event>
<event>
 6    1  0.9512547E-007  0.2621867E+04  0.7818608E-02  0.8360811E-01
          2   -1    0    0  501    0  0.00000000000E+00  0.00000000000E+00  0.18652325073E+04  0.18652325073E+04  0.00000000000E+00 0. -1.
         -2   -1    0    0    0  501 -0.00000000000E+00 -0.00000000000E+00 -0.92135800160E+03  0.92135800160E+03  0.00000000000E+00 0.  1.
         23    2    1    2    0    0 -0.98234343773E+03  0.83254875794E+03  0.22090746370E+03  0.13098314196E+04  0.93392592089E+02 0.  0.
         13    1    3    3    0    0 -0.20027304236E+03  0.21410098331E+03  0.30386907637E+02  0.29474037169E+03  0.00000000000E+00 0.  1.
        -13    1    3    3    0    0 -0.78207039537E+03  0.61844777463E+03  0.19052055606E+03  0.10150910479E+04  0.00000000000E+00 0. -1.
         22    1    1    2    0    0  0.98234343773E+03 -0.83254875794E+03  0.72296704202E+03  0.14767590893E+04  0.00000000000E+00 0. -1.
<mgrwt>
<rscale>  0 0.26218672E+04</rscale>
<asrwt>0</asrwt>
<pdfrwt beam="1">  1        2 0.28695885E+00 0.26218672E+04</pdfrwt>
<pdfrwt beam="2">  1       -2 0.14174738E+00 0.26218672E+04</pdfrwt>
<totfact> 0.24377142E+00</totfact>
</mgrwt>
</event>
<event>
 6    1  0.9512547E-007  0.3355020E+04  0.7818608E-02  0.8149035E-01
         -2   -1    0    0    0  501 -0.00000000000E+00  0.00000000000E+00  0.10753991921E+04  0.10753991921E+04  0.00000000000E+00 0.  1.
          2   -1    0    0  501    0  0.00000000000E+00 -0.00000000000E+00 -0.26167390914E+04  0.26167390914E+04  0.00000000000E+00 0. -1.
         23    2    1    2    0    0 -0.16125269503E+04  0.21113755364E+03 -0.12183328901E+04  0.20340804558E+04  0.91247124149E+02 0.  0.
         13    1    3    3    0    0 -0.80273556988E+03  0.11434809788E+03 -0.55159247474E+03  0.98067025082E+03  0.00000000000E+00 0. -1.
        -13    1    3    3    0    0 -0.80979138041E+03  0.96789455760E+02 -0.66674041534E+03  0.10534102050E+04  0.00000000000E+00 0.  1.
         22    1    1    2    0    0  0.16125269503E+04 -0.21113755364E+03 -0.32300700920E+03  0.16580578277E+04  0.00000000000E+00 0.  1.
<mgrwt>
<rscale>  0 0.33550196E+04</rscale>
<asrwt>0</asrwt>
<pdfrwt beam="1">  1        2 0.40257524E+00 0.33550196E+04</pdfrwt>
<pdfrwt beam="2">  1       -2 0.16544603E+00 0.33550196E+04</pdfrwt>
<totfact> 0.56829659E-01</totfact>
</mgrwt>
</event>
<event>
 6    1  0.9512547E-007  0.2225431E+04  0.7818608E-02  0.8507917E-01
          1   -1    0    0  501    0  0.00000000000E+00  0.00000000000E+00  0.15817083516E+04  0.15817083516E+04  0.00000000000E+00 0. -1.
         -1   -1    0    0    0  501 -0.00000000000E+00 -0.00000000000E+00 -0.78278395917E+03  0.78278395917E+03  0.00000000000E+00 0.  1.
         23    2    1    2    0    0  0.70593809365E+03 -0.77258065290E+03  0.79528249989E+03  0.13179538639E+04  0.96429640320E+02 0.  0.
         11    1    3    3    0    0  0.16425003974E+03 -0.19693770131E+03  0.24638683368E+03  0.35562481011E+03  0.00000000000E+00 0. -1.
        -11    1    3    3    0    0  0.54168805391E+03 -0.57564295159E+03  0.54889566622E+03  0.96232905384E+03  0.00000000000E+00 0.  1.
         22    1    1    2    0    0 -0.70593809365E+03  0.77258065290E+03  0.36418925461E+01  0.10465384468E+04  0.00000000000E+00 0.  1.
<mgrwt>
<rscale>  0 0.22254311E+04</rscale>
<asrwt>0</asrwt>
<pdfrwt beam="1">  1        1 0.24333975E+00 0.22254311E+04</pdfrwt>
<pdfrwt beam="2">  1       -1 0.12042830E+00 0.22254311E+04</pdfrwt>
<totfact> 0.32067235E+00</totfact>
</mgrwt>
</event>
<event>
 6    1  0.9512547E-007  0.3085647E+04  0.7818608E-02  0.8219688E-01
          2   -1    0    0  501    0  0.00000000000E+00  0.00000000000E+00  0.19797066902E+04  0.19797066902E+04  0.00000000000E+00 0. -1.
         -2   -1    0    0    0  501 -0.00000000000E+00 -0.00000000000E+00 -0.12023522465E+04  0.12023522465E+04  0.00000000000E+00 0.  1.
         23    2    1    2    0    0 -0.71285066491E+03 -0.12118394102E+04  0.10408533682E+04  0.17516245588E+04  0.90011300564E+02 0.  0.
         11    1    3    3    0    0 -0.35467155333E+03 -0.63493188358E+03  0.59036827322E+03  0.93673107429E+03  0.00000000000E+00 0.  1.
        -11    1    3    3    0    0 -0.35817911159E+03 -0.57690752661E+03  0.45048509497E+03  0.81489348447E+03  0.00000000000E+00 0. -1.
         22    1    1    2    0    0  0.71285066491E+03  0.12118394102E+04 -0.26349892444E+03  0.14304343780E+04  0.00000000000E+00 0.  1.
<mgrwt>
<rscale>  0 0.30856473E+04</rscale>
<asrwt>0</asrwt>
<pdfrwt beam="1">  1        2 0.30457026E+00 0.30856473E+04</pdfrwt>
<pdfrwt beam="2">  1       -2 0.18497727E+00 0.30856473E+04</pdfrwt>
<totfact> 0.97705279E-01</totfact>
</mgrwt>
</event>
<event>
 6    1  0.9512547E-007  0.2018101E+04  0.7818608E-02  0.8598204E-01
         -1   -1    0    0    0  501 -0.00000000000E+00  0.00000000000E+00  0.56356499783E+03  0.56356499783E+03  0.00000000000E+00 0.  1.
          1   -1    0    0  501    0  0.00000000000E+00 -0.00000000000E+00 -0.18066825381E+04  0.18066825381E+04  0.00000000000E+00 0. -1.
         23    2    1    2    0    0  0.65906000433E+03  0.48475729562E+03  0.66711960433E+02  0.82590202866E+03  0.91180865927E+02 0.  0.
         13    1    3    3    0    0  0.18645691134E+03  0.19003574690E+03  0.20777651581E+02  0.26704208599E+03  0.00000000000E+00 0.  1.
        -13    1    3    3    0    0  0.47260309300E+03  0.29472154872E+03  0.45934308852E+02  0.55885994267E+03  0.00000000000E+00 0. -1.
         22    1    1    2    0    0 -0.65906000433E+03 -0.48475729562E+03 -0.13098295007E+04  0.15443455073E+04  0.00000000000E+00 0. -1.
<mgrwt>
<rscale>  0 0.20181011E+04</rscale>
<asrwt>0</asrwt>
<pdfrwt beam="1">  1        1 0.27795116E+00 0.20181011E+04</pdfrwt>
<pdfrwt beam="2">  1       -1 0.86702307E-01 0.20181011E+04</pdfrwt>
<totfact> 0.48956490E+00</totfact>
</mgrwt>
</event>
<event>
 6    1  0.9512547E-007  0.1805004E+04  0.7818608E-02  0.8703643E-01
         -2   -1    0    0    0  501 -0.00000000000E+00  0.00000000000E+00  0.58656765166E+03  0.58656765166E+03  0.00000000000E+00 0.  1.
          2   -1    0    0  501    0  0.00000000000E+00 -0.00000000000E+00 -0.13886037028E+04  0.13886037028E+04  0.00000000000E+00 0. -1.
         23    2    1    2    0    0 -0.19173230861E+03 -0.20941944456E+03 -0.13361387666E+04  0.13702883140E+04  0.10865301545E+03 0.  0.
         13    1    3    3    0    0 -0.91530682339E+00 -0.62622203034E+02 -0.24164883336E+03  0.24963280386E+03  0.00000000000E+00 0.  1.
        -13    1    3    3    0    0 -0.19081700178E+03 -0.14679724153E+03 -0.10944899333E+04  0.11206555101E+04  0.00000000000E+00 0. -1.
         22    1    1    2    0    0  0.19173230861E+03  0.20941944456E+03  0.53410271552E+03  0.60488304047E+03  0.00000000000E+00 0.  1.
<mgrwt>
<rscale>  0 0.18050042E+04</rscale>
<asrwt>0</asrwt>
<pdfrwt beam="1">  1        2 0.21363134E+00 0.18050042E+04</pdfrwt>
<pdfrwt beam="2">  1       -2 0.90241177E-01 0.18050042E+04</pdfrwt>
<totfact> 0.14561503E+01</totfact>
</mgrwt>
</event>
<event>
 6    1  0.9512547E-007  0.3926577E+04  0.7818608E-02  0.8019524E-01
          2   -1    0    0  501    0  0.00000000000E+00  0.00000000000E+00  0.11288608597E+04  0.11288608597E+04  0.00000000000E+00 0. -1.
         -2   -1    0    0    0  501 -0.00000000000E+00 -0.00000000000E+00 -0.34145047743E+04  0.34145047743E+04  0.00000000000E+00 0.  1.
         23    2    1    2    0    0  0.60443310971E+03  0.56070435183E+03  0.91701914403E+03  0.12362854382E+04  0.88027381421E+02 0.  0.
         11    1    3    3    0    0  0.44261029977E+03  0.35804402837E+03  0.64980068676E+03  0.86390991210E+03  0.00000000000E+00 0. -1.
        -11    1    3    3    0    0  0.16182280994E+03  0.20266032345E+03  0.26721845727E+03  0.37237552608E+03  0.00000000000E+00 0.  1.
         22    1    1    2    0    0 -0.60443310971E+03 -0.56070435183E+03 -0.32026630587E+04  0.33070801958E+04  0.00000000000E+00 0.  1.
<mgrwt>
<rscale>  0 0.39265765E+04</rscale>
<asrwt>0</asrwt>
<pdfrwt beam="1">  1        2 0.17367091E+00 0.39265765E+04</pdfrwt>
<pdfrwt beam="2">  1       -2 0.52530842E+00 0.39265765E+04</pdfrwt>
<totfact> 0.19332450E-02</totfact>
</mgrwt>
</event>
<event>
 6    1  0.9512547E-007  0.1509268E+04  0.7818608E-02  0.8878313E-01
          2   -1    0    0  501    0  0.00000000000E+00  0.00000000000E+00  0.15871908086E+04  0.15871908086E+04  0.00000000000E+00 0. -1.
         -2   -1    0    0    0  501 -0.00000000000E+00 -0.00000000000E+00 -0.35879289774E+03  0.35879289774E+03  0.00000000000E+00 0.  1.
         23    2    1    2    0    0  0.69292501112E+03 -0.23644065518E+03  0.83833174285E+03  0.11164049760E+04  0.86664322741E+02 0.  0.
         13    1    3    3    0    0  0.57214754001E+03 -0.19314666651E+03  0.73772799927E+03  0.95336301755E+03  0.00000000000E+00 0.  1.
        -13    1    3    3    0    0  0.12077747111E+03 -0.43293988666E+02  0.10060374358E+03  0.16304195842E+03  0.00000000000E+00 0. -1.
         22    1    1    2    0    0 -0.69292501112E+03  0.23644065518E+03  0.39006616798E+03  0.82957873035E+03  0.00000000000E+00 0.  1.
<mgrwt>
<rscale>  0 0.15092684E+04</rscale>
<asrwt>0</asrwt>
<pdfrwt beam="1">  1        2 0.24418320E+00 0.15092684E+04</pdfrwt>
<pdfrwt beam="2">  1       -2 0.55198908E-01 0.15092684E+04</pdfrwt>
<totfact> 0.33773072E+01</totfact>
</mgrwt>
</event>
<event>
 6    1  0.9512547E-007  0.1982364E+04  0.7818608E-02  0.8614911E-01
          4   -1    0    0  501    0  0.00000000000E+00  0.00000000000E+00  0.12799015254E+04  0.12799015254E+04  0.00000000000E+00 0. -1.
         -4   -1    0    0    0  501 -0.00000000000E+00 -0.00000000000E+00 -0.76759199149E+03  0.76759199149E+03  0.00000000000E+00 0.  1.
         23    2    1    2    0    0  0.66051325187E+03  0.11182226796E+03  0.10083488139E+04  0.12139247177E+04  0.89799299910E+02 0.  0.
         11    1    3    3    0    0  0.17441793132E+03  0.58792919388E+00  0.21468564084E+03  0.27660781769E+03  0.00000000000E+00 0.  1.
        -11    1    3    3    0    0  0.48609532055E+03  0.11123433877E+03  0.79366317309E+03  0.93731690004E+03  0.00000000000E+00 0. -1.
         22    1    1    2    0    0 -0.66051325187E+03 -0.11182226796E+03 -0.49603928006E+03  0.83356879912E+03  0.00000000000E+00 0.  1.
<mgrwt>
<rscale>  0 0.19823644E+04</rscale>
<asrwt>0</asrwt>
<pdfrwt beam="1">  1        4 0.19690793E+00 0.19823644E+04</pdfrwt>
<pdfrwt beam="2">  1       -4 0.11809108E+00 0.19823644E+04</pdfrwt>
<totfact> 0.14145956E-01</totfact>
</mgrwt>
</event>
<event>
 6    1  0.9512547E-007  0.3047408E+04  0.7818608E-02  0.8230321E-01
         -2   -1    0    0    0  501 -0.00000000000E+00  0.00000000000E+00  0.63698118330E+03  0.63698118330E+03  0.00000000000E+00 0.  1.
          2   -1    0    0  501    0  0.00000000000E+00 -0.00000000000E+00 -0.36448074263E+04  0.36448074263E+04  0.00000000000E+00 0. -1.
         23    2    1    2    0    0  0.62923932931E+03 -0.92349917023E+03 -0.52761362558E+02  0.11224846833E+04  0.91625607526E+02 0.  0.
         11    1    3    3    0    0  0.28479493318E+03 -0.38439891655E+03 -0.63845318076E+02  0.48264573514E+03  0.00000000000E+00 0.  1.
        -11    1    3    3    0    0  0.34444439613E+03 -0.53910025368E+03  0.11083955518E+02  0.63983894819E+03  0.00000000000E+00 0. -1.
         22    1    1    2    0    0 -0.62923932931E+03  0.92349917023E+03 -0.29550648804E+04  0.31593039263E+04  0.00000000000E+00 0. -1.
<mgrwt>
<rscale>  0 0.30474079E+04</rscale>
<asrwt>0</asrwt>
<pdfrwt beam="1">  1        2 0.56073961E+00 0.30474079E+04</pdfrwt>
<pdfrwt beam="2">  1       -2 0.97997104E-01 0.30474079E+04</pdfrwt>
<totfact> 0.47294275E-01</totfact>
</mgrwt>
</event>
<event>
 6    1  0.9512547E-007  0.2047769E+04  0.7818608E-02  0.8584607E-01
         -2   -1    0    0    0  501 -0.00000000000E+00  0.00000000000E+00  0.11410677212E+04  0.11410677212E+04  0.00000000000E+00 0.  1.
          2   -1    0    0  501    0  0.00000000000E+00 -0.00000000000E+00 -0.91873550321E+03  0.91873550321E+03  0.00000000000E+00 0. -1.
         23    2    1    2    0    0 -0.55281465236E+03  0.68908452695E+02  0.97289576168E+03  0.11250850595E+04  0.94540009272E+02 0.  0.
         13    1    3    3    0    0 -0.12371999126E+03  0.70298819112E+01  0.30043896829E+03  0.32499173704E+03  0.00000000000E+00 0.  1.
        -13    1    3    3    0    0 -0.42909466111E+03  0.61878570784E+02  0.67245679340E+03  0.80009332249E+03  0.00000000000E+00 0. -1.
         22    1    1    2    0    0  0.55281465236E+03 -0.68908452695E+02 -0.75056354367E+03  0.93471816490E+03  0.00000000000E+00 0. -1.
<mgrwt>
<rscale>  0 0.20477690E+04</rscale>
<asrwt>0</asrwt>
<pdfrwt beam="1">  1        2 0.14134392E+00 0.20477690E+04</pdfrwt>
<pdfrwt beam="2">  1       -2 0.17554888E+00 0.20477690E+04</pdfrwt>
<totfact> 0.51315181E+00</totfact>
</mgrwt>
</event>
<event>
 6    1  0.9512547E-007  0.3788590E+04  0.7818608E-02  0.8048608E-01
         -1   -1    0    0    0  501 -0.00000000000E+00  0.00000000000E+00  0.19796559904E+04  0.19796559904E+04  0.00000000000E+00 0.  1.
          1   -1    0    0  501    0  0.00000000000E+00 -0.00000000000E+00 -0.18126149086E+04  0.18126149086E+04  0.00000000000E+00 0. -1.
         23    2    1    2    0    0 -0.15901223690E+04  0.60736626191E+03 -0.74656557667E+03  0.18604168541E+04  0.80048649972E+02 0.  0.
         11    1    3    3    0    0 -0.48295802250E+03  0.14772065482E+03 -0.23502493444E+03  0.55705167011E+03  0.00000000000E+00 0. -1.
        -11    1    3    3    0    0 -0.11071643465E+04  0.45964560709E+03 -0.51154064223E+03  0.13033651840E+04  0.00000000000E+00 0.  1.
         22    1    1    2    0    0  0.15901223690E+04 -0.60736626191E+03  0.91360665842E+03  0.19318540449E+04  0.00000000000E+00 0.  1.
<mgrwt>
<rscale>  0 0.37885902E+04</rscale>
<asrwt>0</asrwt>
<pdfrwt beam="1">  1        1 0.27886383E+00 0.37885902E+04</pdfrwt>
<pdfrwt beam="2">  1       -1 0.30456246E+00 0.37885902E+04</pdfrwt>
<totfact> 0.98125163E-02</totfact>
</mgrwt>
</event>
<event>
 6    1  0.9512547E-007  0.3629461E+04  0.7818608E-02  0.8083776E-01
         -2   -1    0    0    0  501 -0.00000000000E+00  0.00000000000E+00  0.11258331573E+04  0.11258331573E+04  0.00000000000E+00 0.  1.
          2   -1    0    0  501    0  0.00000000000E+00 -0.00000000000E+00 -0.29251648376E+04  0.29251648376E+04  0.00000000000E+00 0. -1.
         23    2    1    2    0    0  0.96511253183E+03  0.14737205308E+04 -0.13812983602E+04  0.22404604342E+04  0.91560883570E+02 0.  0.
         11    1    3    3    0    0  0.69329758501E+03  0.10673551044E+04 -0.94540663732E+03  0.15854659158E+04  0.00000000000E+00 0. -1.
        -11    1    3    3    0    0  0.27181494682E+03  0.40636542647E+03 -0.43589172285E+03  0.65499451844E+03  0.00000000000E+00 0.  1.
         22    1    1    2    0    0 -0.96511253183E+03 -0.14737205308E+04 -0.41803332018E+03  0.18105375607E+04  0.00000000000E+00 0.  1.
<mgrwt>
<rscale>  0 0.36294614E+04</rscale>
<asrwt>0</asrwt>
<pdfrwt beam="1">  1        2 0.45002536E+00 0.36294614E+04</pdfrwt>
<pdfrwt beam="2">  1       -2 0.17320510E+00 0.36294614E+04</pdfrwt>
<totfact> 0.31863939E-01</totfact>
</mgrwt>
</event>
<event>
 6    1  0.9512547E-007  0.3038233E+04  0.7818608E-02  0.8232897E-01
         -2   -1    0    0    0  501 -0.00000000000E+00  0.00000000000E+00  0.16921120573E+04  0.16921120573E+04  0.00000000000E+00 0.  1.
          2   -1    0    0  501    0  0.00000000000E+00 -0.00000000000E+00 -0.13638077139E+04  0.13638077139E+04  0.00000000000E+00 0. -1.
         23    2    1    2    0    0  0.26030347653E+03  0.45841318108E+03 -0.12672326334E+04  0.13755511246E+04  0.91442905362E+02 0.  0.
         13    1    3    3    0    0  0.21597580314E+03  0.32831574278E+03 -0.85449765856E+03  0.94053337154E+03  0.00000000000E+00 0.  1.
        -13    1    3    3    0    0  0.44327673393E+02  0.13009743830E+03 -0.41273497480E+03  0.43501775309E+03  0.00000000000E+00 0. -1.
         22    1    1    2    0    0 -0.26030347653E+03 -0.45841318108E+03  0.15955369767E+04  0.16803686466E+04  0.00000000000E+00 0.  1.
<mgrwt>
<rscale>  0 0.30382334E+04</rscale>
<asrwt>0</asrwt>
<pdfrwt beam="1">  1        2 0.20981657E+00 0.30382334E+04</pdfrwt>
<pdfrwt beam="2">  1       -2 0.26032493E+00 0.30382334E+04</pdfrwt>
<totfact> 0.71944833E-01</totfact>
</mgrwt>
</event>
<event>
 6    1  0.9512547E-007  0.2026967E+04  0.7818608E-02  0.8594116E-01
          2   -1    0    0  501    0  0.00000000000E+00  0.00000000000E+00  0.97450035676E+03  0.97450035676E+03  0.00000000000E+00 0. -1.
         -2   -1    0    0    0  501 -0.00000000000E+00 -0.00000000000E+00 -0.10540258547E+04  0.10540258547E+04  0.00000000000E+00 0.  1.
         23    2    1    2    0    0 -0.42620921634E+02  0.10016964371E+04  0.93272122747E+02  0.10111416663E+04  0.92170957475E+02 0.  0.
         11    1    3    3    0    0  0.29373045699E+02  0.29361564586E+03  0.30087924126E+02  0.29661120425E+03  0.00000000000E+00 0. -1.
        -11    1    3    3    0    0 -0.71993967332E+02  0.70808079121E+03  0.63184198622E+02  0.71453046203E+03  0.00000000000E+00 0.  1.
         22    1    1    2    0    0  0.42620921634E+02 -0.10016964371E+04 -0.17279762065E+03  0.10173845451E+04  0.00000000000E+00 0.  1.
<mgrwt>
<rscale>  0 0.20269668E+04</rscale>
<asrwt>0</asrwt>
<pdfrwt beam="1">  1        2 0.14992313E+00 0.20269668E+04</pdfrwt>
<pdfrwt beam="2">  1       -2 0.16215782E+00 0.20269668E+04</pdfrwt>
<totfact> 0.58890030E+00</totfact>
</mgrwt>
</event>
<event>
 6    1  0.9512547E-007  0.2281439E+04  0.7818608E-02  0.8485276E-01
          2   -1    0    0  501    0  0.00000000000E+00  0.00000000000E+00  0.15317992255E+04  0.15317992255E+04  0.00000000000E+00 0. -1.
         -2   -1    0    0    0  501 -0.00000000000E+00 -0.00000000000E+00 -0.84948533351E+03  0.84948533351E+03  0.00000000000E+00 0.  1.
         23    2    1    2    0    0 -0.10926503008E+04 -0.28011108752E+03  0.18474757340E+03  0.11484345509E+04  0.11146008574E+03 0.  0.
         13    1    3    3    0    0 -0.76553078574E+03 -0.24770052424E+03  0.13958884936E+03  0.81662597343E+03  0.00000000000E+00 0.  1.
        -13    1    3    3    0    0 -0.32711951503E+03 -0.32410563281E+02  0.45158724043E+02  0.33180857747E+03  0.00000000000E+00 0. -1.
         22    1    1    2    0    0  0.10926503008E+04  0.28011108752E+03  0.49756631863E+03  0.12328500081E+04  0.00000000000E+00 0. -1.
<mgrwt>
<rscale>  0 0.22814390E+04</rscale>
<asrwt>0</asrwt>
<pdfrwt beam="1">  1        2 0.23566142E+00 0.22814390E+04</pdfrwt>
<pdfrwt beam="2">  1       -2 0.13069005E+00 0.22814390E+04</pdfrwt>
<totfact> 0.47398361E+00</totfact>
</mgrwt>
</event>
<event>
 6    1  0.9512547E-007  0.3258506E+04  0.7818608E-02  0.8173534E-01
         -2   -1    0    0    0  501 -0.00000000000E+00  0.00000000000E+00  0.52587888681E+03  0.52587888681E+03  0.00000000000E+00 0.  1.
          2   -1    0    0  501    0  0.00000000000E+00 -0.00000000000E+00 -0.50476750000E+04  0.50476750000E+04  0.00000000000E+00 0. -1.
         23    2    1    2    0    0  0.13602424719E+04 -0.18416014904E+03 -0.37597570047E+04  0.40035608467E+04  0.92477977732E+02 0.  0.
         13    1    3    3    0    0  0.10143727737E+04 -0.99510550534E+02 -0.28303121306E+04  0.30082422160E+04  0.00000000000E+00 0.  1.
        -13    1    3    3    0    0  0.34586969823E+03 -0.84649598509E+02 -0.92944487412E+03  0.99531863075E+03  0.00000000000E+00 0. -1.
         22    1    1    2    0    0 -0.13602424719E+04  0.18416014904E+03 -0.76203910848E+03  0.15699930400E+04  0.00000000000E+00 0.  1.
<mgrwt>
<rscale>  0 0.32585062E+04</rscale>
<asrwt>0</asrwt>
<pdfrwt beam="1">  1        2 0.77656539E+00 0.32585062E+04</pdfrwt>
<pdfrwt beam="2">  1       -2 0.80904444E-01 0.32585062E+04</pdfrwt>
<totfact> 0.33519451E-02</totfact>
</mgrwt>
</event>
<event>
 6    1  0.9512547E-007  0.4472959E+04  0.7818608E-02  0.7915388E-01
         -1   -1    0    0    0  501 -0.00000000000E+00  0.00000000000E+00  0.22681867636E+04  0.22681867636E+04  0.00000000000E+00 0.  1.
          1   -1    0    0  501    0  0.00000000000E+00 -0.00000000000E+00 -0.22052152513E+04  0.22052152513E+04  0.00000000000E+00 0. -1.
         23    2    1    2    0    0  0.27476482258E+03 -0.74268715604E+03  0.21223027246E+04  0.22670645608E+04  0.91284985705E+02 0.  0.
         13    1    3    3    0    0  0.70143009055E+02 -0.11453408670E+03  0.29947078234E+03  0.32820854378E+03  0.00000000000E+00 0.  1.
        -13    1    3    3    0    0  0.20462181353E+03 -0.62815306934E+03  0.18228319422E+04  0.19388560170E+04  0.00000000000E+00 0. -1.
         22    1    1    2    0    0 -0.27476482258E+03  0.74268715604E+03 -0.20593312123E+04  0.22063374541E+04  0.00000000000E+00 0. -1.
<mgrwt>
<rscale>  0 0.44729588E+04</rscale>
<asrwt>0</asrwt>
<pdfrwt beam="1">  1        1 0.33926389E+00 0.44729588E+04</pdfrwt>
<pdfrwt beam="2">  1       -1 0.34895181E+00 0.44729588E+04</pdfrwt>
<totfact> 0.25689243E-02</totfact>
</mgrwt>
</event>
<event>
 6    1  0.9512547E-007  0.5608925E+04  0.7818608E-02  0.7740876E-01
         -2   -1    0    0    0  501 -0.00000000000E+00  0.00000000000E+00  0.20470856173E+04  0.20470856173E+04  0.00000000000E+00 0.  1.
          2   -1    0    0  501    0  0.00000000000E+00 -0.00000000000E+00 -0.38420522786E+04  0.38420522786E+04  0.00000000000E+00 0. -1.
         23    2    1    2    0    0  0.18192543603E+04  0.16606790767E+04  0.50808809376E+03  0.25169572026E+04  0.96843303743E+02 0.  0.
         13    1    3    3    0    0  0.14836084230E+04  0.13389313019E+04  0.44890174319E+03  0.20482538317E+04  0.00000000000E+00 0. -1.
        -13    1    3    3    0    0  0.33564593731E+03  0.32174777478E+03  0.59186350576E+02  0.46870337091E+03  0.00000000000E+00 0.  1.
         22    1    1    2    0    0 -0.18192543603E+04 -0.16606790767E+04 -0.23030547551E+04  0.33721806933E+04  0.00000000000E+00 0. -1.
<mgrwt>
<rscale>  0 0.56089250E+04</rscale>
<asrwt>0</asrwt>
<pdfrwt beam="1">  1        2 0.59108497E+00 0.56089250E+04</pdfrwt>
<pdfrwt beam="2">  1       -2 0.31493625E+00 0.56089250E+04</pdfrwt>
<totfact> 0.81083736E-03</totfact>
</mgrwt>
</event>
<event>
 6    1  0.9512547E-007  0.2426682E+04  0.7818608E-02  0.8429581E-01
         -2   -1    0    0    0  501 -0.00000000000E+00  0.00000000000E+00  0.44580626981E+03  0.44580626981E+03  0.00000000000E+00 0.  1.
          2   -1    0    0  501    0  0.00000000000E+00 -0.00000000000E+00 -0.33023236613E+04  0.33023236613E+04  0.00000000000E+00 0. -1.
         23    2    1    2    0    0 -0.11604899556E+04 -0.20591685593E+03 -0.99653164851E+03  0.15461568040E+04  0.91579732390E+02 0.  0.
         13    1    3    3    0    0 -0.94266642533E+03 -0.17764250540E+03 -0.85389942634E+03  0.12842589612E+04  0.00000000000E+00 0. -1.
        -13    1    3    3    0    0 -0.21782353027E+03 -0.28274350536E+02 -0.14263222216E+03  0.26189784275E+03  0.00000000000E+00 0.  1.
         22    1    1    2    0    0  0.11604899556E+04  0.20591685593E+03 -0.18599857430E+04  0.22019731272E+04  0.00000000000E+00 0. -1.
<mgrwt>
<rscale>  0 0.24266822E+04</rscale>
<asrwt>0</asrwt>
<pdfrwt beam="1">  1        2 0.50804980E+00 0.24266822E+04</pdfrwt>
<pdfrwt beam="2">  1       -2 0.68585579E-01 0.24266822E+04</pdfrwt>
<totfact> 0.19376748E+00</totfact>
</mgrwt>
</event>
<event>
 6    1  0.9512547E-007  0.1176463E+04  0.7818608E-02  0.9133712E-01
          1   -1    0    0  501    0  0.00000000000E+00  0.00000000000E+00  0.64858823117E+03  0.64858823117E+03  0.00000000000E+00 0. -1.
         -1   -1    0    0    0  501 -0.00000000000E+00 -0.00000000000E+00 -0.53349127716E+03  0.53349127716E+03  0.00000000000E+00 0.  1.
         23    2    1    2    0    0 -0.90767107077E+02 -0.51509980536E+03 -0.20476836077E+03  0.56898873463E+03  0.90838435443E+02 0.  0.
         11    1    3    3    0    0  0.14864236070E+02 -0.14768799526E+03 -0.63081215195E+02  0.16128214151E+03  0.00000000000E+00 0.  1.
        -11    1    3    3    0    0 -0.10563134315E+03 -0.36741181010E+03 -0.14168714558E+03  0.40770659312E+03  0.00000000000E+00 0. -1.
         22    1    1    2    0    0  0.90767107077E+02  0.51509980536E+03  0.31986531478E+03  0.61309077371E+03  0.00000000000E+00 0. -1.
<mgrwt>
<rscale>  0 0.11764628E+04</rscale>
<asrwt>0</asrwt>
<pdfrwt beam="1">  1        1 0.99782805E-01 0.11764628E+04</pdfrwt>
<pdfrwt beam="2">  1       -1 0.82075581E-01 0.11764628E+04</pdfrwt>
<totfact> 0.44753154E+01</totfact>
</mgrwt>
</event>
<event>
 6    1  0.9512547E-007  0.1966570E+04  0.7818608E-02  0.8622412E-01
         -2   -1    0    0    0  501 -0.00000000000E+00  0.00000000000E+00  0.72991177457E+03  0.72991177457E+03  0.00000000000E+00 0.  1.
          2   -1    0    0  501    0  0.00000000000E+00 -0.00000000000E+00 -0.13246113294E+04  0.13246113294E+04  0.00000000000E+00 0. -1.
         23    2    1    2    0    0 -0.82454477086E+02  0.67006206051E+03 -0.10414064566E+04  0.12449991934E+04  0.98557993732E+02 0.  0.
         11    1    3    3    0    0 -0.14262757812E+02  0.48228601057E+03 -0.73730992443E+03  0.88115217013E+03  0.00000000000E+00 0. -1.
        -11    1    3    3    0    0 -0.68191719275E+02  0.18777604995E+03 -0.30409653214E+03  0.36384702331E+03  0.00000000000E+00 0.  1.
         22    1    1    2    0    0  0.82454477086E+02 -0.67006206051E+03  0.44670690172E+03  0.80952391056E+03  0.00000000000E+00 0.  1.
<mgrwt>
<rscale>  0 0.19665700E+04</rscale>
<asrwt>0</asrwt>
<pdfrwt beam="1">  1        2 0.20378636E+00 0.19665700E+04</pdfrwt>
<pdfrwt beam="2">  1       -2 0.11229412E+00 0.19665700E+04</pdfrwt>
<totfact> 0.93127343E+00</totfact>
</mgrwt>
</event>
<event>
 6    1  0.9512547E-007  0.6038791E+04  0.7818608E-02  0.7685611E-01
          1   -1    0    0  501    0  0.00000000000E+00  0.00000000000E+00  0.24883493717E+04  0.24883493717E+04  0.00000000000E+00 0. -1.
         -1   -1    0    0    0  501 -0.00000000000E+00 -0.00000000000E+00 -0.36637733563E+04  0.36637733563E+04  0.00000000000E+00 0.  1.
         23    2    1    2    0    0  0.24359698303E+04 -0.10084961335E+04  0.91026758984E+03  0.27904084616E+04  0.82333661830E+02 0.  0.
         11    1    3    3    0    0  0.10709112978E+04 -0.48760054594E+03  0.40392623365E+03  0.12440907131E+04  0.00000000000E+00 0.  1.
        -11    1    3    3    0    0  0.13650585325E+04 -0.52089558758E+03  0.50634135619E+03  0.15463177485E+04  0.00000000000E+00 0. -1.
         22    1    1    2    0    0 -0.24359698303E+04  0.10084961335E+04 -0.20856915745E+04  0.33617142665E+04  0.00000000000E+00 0.  1.
<mgrwt>
<rscale>  0 0.60387907E+04</rscale>
<asrwt>0</asrwt>
<pdfrwt beam="1">  1        1 0.38282298E+00 0.60387907E+04</pdfrwt>
<pdfrwt beam="2">  1       -1 0.56365744E+00 0.60387907E+04</pdfrwt>
<totfact> 0.59866026E-04</totfact>
</mgrwt>
</event>
<event>
 6    1  0.9512547E-007  0.5395505E+04  0.7818608E-02  0.7770234E-01
         -2   -1    0    0    0  501 -0.00000000000E+00  0.00000000000E+00  0.27440998518E+04  0.27440998518E+04  0.00000000000E+00 0.  1.
          2   -1    0    0  501    0  0.00000000000E+00 -0.00000000000E+00 -0.26521878579E+04  0.26521878579E+04  0.00000000000E+00 0. -1.
         23    2    1    2    0    0 -0.27314235795E+03 -0.26268306513E+04 -0.50070613214E+03  0.26896214462E+04  0.92254400641E+02 0.  0.
         13    1    3    3    0    0 -0.24434130655E+03 -0.23569874813E+04 -0.47754394327E+03  0.24172589599E+04  0.00000000000E+00 0. -1.
        -13    1    3    3    0    0 -0.28801051400E+02 -0.26984317000E+03 -0.23162188870E+02  0.27236248631E+03  0.00000000000E+00 0.  1.
         22    1    1    2    0    0  0.27314235795E+03  0.26268306513E+04  0.59261812603E+03  0.27066662635E+04  0.00000000000E+00 0. -1.
<mgrwt>
<rscale>  0 0.53955049E+04</rscale>
<asrwt>0</asrwt>
<pdfrwt beam="1">  1        2 0.40802890E+00 0.53955049E+04</pdfrwt>
<pdfrwt beam="2">  1       -2 0.42216921E+00 0.53955049E+04</pdfrwt>
<totfact> 0.10631611E-02</totfact>
</mgrwt>
</event>
<event>
 6    1  0.9512547E-007  0.3826174E+04  0.7818608E-02  0.8040561E-01
         -1   -1    0    0    0  501 -0.00000000000E+00  0.00000000000E+00  0.11130231140E+04  0.11130231140E+04  0.00000000000E+00 0.  1.
          1   -1    0    0  501    0  0.00000000000E+00 -0.00000000000E+00 -0.32882531515E+04  0.32882531515E+04  0.00000000000E+00 0. -1.
         23    2    1    2    0    0 -0.51193309948E+02 -0.10392056811E+04 -0.29334528043E+04  0.31138482221E+04  0.91302750884E+02 0.  0.
         13    1    3    3    0    0 -0.77741610988E+02 -0.80950977729E+03 -0.22800538020E+04  0.24207426913E+04  0.00000000000E+00 0.  1.
        -13    1    3    3    0    0  0.26548301040E+02 -0.22969590384E+03 -0.65339900236E+03  0.69310553080E+03  0.00000000000E+00 0. -1.
         22    1    1    2    0    0  0.51193309948E+02  0.10392056811E+04  0.75822276684E+03  0.12874280434E+04  0.00000000000E+00 0.  1.
<mgrwt>
<rscale>  0 0.38261739E+04</rscale>
<asrwt>0</asrwt>
<pdfrwt beam="1">  1        1 0.50588510E+00 0.38261739E+04</pdfrwt>
<pdfrwt beam="2">  1       -1 0.17123432E+00 0.38261739E+04</pdfrwt>
<totfact> 0.69669285E-02</totfact>
</mgrwt>
</event>
<event>
 6    1  0.9512547E-007  0.2785435E+04  0.7818608E-02  0.8307805E-01
         -2   -1    0    0    0  501 -0.00000000000E+00  0.00000000000E+00  0.84375420445E+03  0.84375420445E+03  0.00000000000E+00 0.  1.
          2   -1    0    0  501    0  0.00000000000E+00 -0.00000000000E+00 -0.22988466748E+04  0.22988466748E+04  0.00000000000E+00 0. -1.
         23    2    1    2    0    0  0.11919855729E+03 -0.11973963414E+04  0.59408177503E+02  0.12082589997E+04  0.91619781026E+02 0.  0.
         13    1    3    3    0    0  0.12000645100E+03 -0.98755715254E+03  0.21709431396E+02  0.99505878079E+03  0.00000000000E+00 0.  1.
        -13    1    3    3    0    0 -0.80789370769E+00 -0.20983918891E+03  0.37698746107E+02  0.21320021893E+03  0.00000000000E+00 0. -1.
         22    1    1    2    0    0 -0.11919855729E+03  0.11973963414E+04 -0.15145006479E+04  0.19343418795E+04  0.00000000000E+00 0. -1.
<mgrwt>
<rscale>  0 0.27854346E+04</rscale>
<asrwt>0</asrwt>
<pdfrwt beam="1">  1        2 0.35366872E+00 0.27854346E+04</pdfrwt>
<pdfrwt beam="2">  1       -2 0.12980834E+00 0.27854346E+04</pdfrwt>
<totfact> 0.17241614E+00</totfact>
</mgrwt>
</event>
<event>
 6    1  0.9512547E-007  0.3319569E+04  0.7818608E-02  0.8157934E-01
         -2   -1    0    0    0  501 -0.00000000000E+00  0.00000000000E+00  0.13737551525E+04  0.13737551525E+04  0.00000000000E+00 0.  1.
          2   -1    0    0  501    0  0.00000000000E+00 -0.00000000000E+00 -0.20053683243E+04  0.20053683243E+04  0.00000000000E+00 0. -1.
         23    2    1    2    0    0 -0.11162408626E+04 -0.12265744381E+04 -0.29934649352E+03  0.16877099671E+04  0.90984032521E+02 0.  0.
         13    1    3    3    0    0 -0.98052014636E+03 -0.10553930745E+04 -0.23225704037E+03  0.14591838924E+04  0.00000000000E+00 0.  1.
        -13    1    3    3    0    0 -0.13572071628E+03 -0.17118136360E+03 -0.67089453159E+02  0.22852607465E+03  0.00000000000E+00 0. -1.
         22    1    1    2    0    0  0.11162408626E+04  0.12265744381E+04 -0.33226667831E+03  0.16914135098E+04  0.00000000000E+00 0.  1.
<mgrwt>
<rscale>  0 0.33195693E+04</rscale>
<asrwt>0</asrwt>
<pdfrwt beam="1">  1        2 0.30851820E+00 0.33195693E+04</pdfrwt>
<pdfrwt beam="2">  1       -2 0.21134695E+00 0.33195693E+04</pdfrwt>
<totfact> 0.62111163E-01</totfact>
</mgrwt>
</event>
<event>
 6    1  0.9512547E-007  0.2096029E+04  0.7818608E-02  0.8562995E-01
          1   -1    0    0  501    0  0.00000000000E+00  0.00000000000E+00  0.85026714870E+03  0.85026714870E+03  0.00000000000E+00 0. -1.
         -1   -1    0    0    0  501 -0.00000000000E+00 -0.00000000000E+00 -0.12917520040E+04  0.12917520040E+04  0.00000000000E+00 0.  1.
         23    2    1    2    0    0 -0.75354592430E+03 -0.71752284520E+03 -0.11586934209E+03  0.10517458127E+04  0.10036461864E+03 0.  0.
         11    1    3    3    0    0 -0.35662529735E+03 -0.30485947420E+03 -0.88154168141E+01  0.46925325071E+03  0.00000000000E+00 0.  1.
        -11    1    3    3    0    0 -0.39692062695E+03 -0.41266337100E+03 -0.10705392528E+03  0.58249256200E+03  0.00000000000E+00 0. -1.
         22    1    1    2    0    0  0.75354592430E+03  0.71752284520E+03 -0.32561551317E+03  0.10902733400E+04  0.00000000000E+00 0.  1.
<mgrwt>
<rscale>  0 0.20960289E+04</rscale>
<asrwt>0</asrwt>
<pdfrwt beam="1">  1        1 0.13081033E+00 0.20960289E+04</pdfrwt>
<pdfrwt beam="2">  1       -1 0.19873108E+00 0.20960289E+04</pdfrwt>
<totfact> 0.28279903E+00</totfact>
</mgrwt>
</event>
<event>
 6    1  0.9512547E-007  0.3028640E+04  0.7818608E-02  0.8235600E-01
         -2   -1    0    0    0  501 -0.00000000000E+00  0.00000000000E+00  0.86954497573E+03  0.86954497573E+03  0.00000000000E+00 0.  1.
          2   -1    0    0  501    0  0.00000000000E+00 -0.00000000000E+00 -0.26372007203E+04  0.26372007203E+04  0.00000000000E+00 0. -1.
         23    2    1    2    0    0  0.14150627694E+04 -0.39703084118E+03 -0.13004076545E+04  0.19645534551E+04  0.91509999918E+02 0.  0.
         13    1    3    3    0    0  0.96675214992E+03 -0.26708193170E+03 -0.94310916554E+03  0.13767343156E+04  0.00000000000E+00 0.  1.
        -13    1    3    3    0    0  0.44831061949E+03 -0.12994890948E+03 -0.35729848891E+03  0.58781913953E+03  0.00000000000E+00 0. -1.
         22    1    1    2    0    0 -0.14150627694E+04  0.39703084118E+03 -0.46724809013E+03  0.15421922409E+04  0.00000000000E+00 0.  1.
<mgrwt>
<rscale>  0 0.30286397E+04</rscale>
<asrwt>0</asrwt>
<pdfrwt beam="1">  1        2 0.40572318E+00 0.30286397E+04</pdfrwt>
<pdfrwt beam="2">  1       -2 0.13377615E+00 0.30286397E+04</pdfrwt>
<totfact> 0.99748409E-01</totfact>
</mgrwt>
</event>
<event>
 6    1  0.9512547E-007  0.2149933E+04  0.7818608E-02  0.8539561E-01
         -2   -1    0    0    0  501 -0.00000000000E+00  0.00000000000E+00  0.60125520184E+03  0.60125520184E+03  0.00000000000E+00 0.  1.
          2   -1    0    0  501    0  0.00000000000E+00 -0.00000000000E+00 -0.19219005880E+04  0.19219005880E+04  0.00000000000E+00 0. -1.
         23    2    1    2    0    0 -0.10024215024E+04 -0.40727802775E+02 -0.21419843937E+03  0.10295921091E+04  0.87586056517E+02 0.  0.
         13    1    3    3    0    0 -0.25306643238E+03 -0.45038520805E+02 -0.38592501656E+02  0.25992396722E+03  0.00000000000E+00 0. -1.
        -13    1    3    3    0    0 -0.74935507001E+03  0.43107180296E+01 -0.17560593771E+03  0.76966814187E+03  0.00000000000E+00 0.  1.
         22    1    1    2    0    0  0.10024215024E+04  0.40727802775E+02 -0.11064469468E+04  0.14935636807E+04  0.00000000000E+00 0.  1.
<mgrwt>
<rscale>  0 0.21499328E+04</rscale>
<asrwt>0</asrwt>
<pdfrwt beam="1">  1        2 0.29567701E+00 0.21499328E+04</pdfrwt>
<pdfrwt beam="2">  1       -2 0.92500800E-01 0.21499328E+04</pdfrwt>
<totfact> 0.67207074E+00</totfact>
</mgrwt>
</event>
<event>
 6    1  0.9833526E-007  0.2546223E+04  0.7818608E-02  0.8386701E-01
         -1   -1    0    0    0  501 -0.00000000000E+00  0.00000000000E+00  0.10414399510E+04  0.10414399510E+04  0.00000000000E+00 0.  1.
          1   -1    0    0  501    0  0.00000000000E+00 -0.00000000000E+00 -0.15563192299E+04  0.15563192299E+04  0.00000000000E+00 0. -1.
         23    2    1    2    0    0  0.11409997342E+04 -0.12548545551E+03 -0.81568597165E+03  0.14111203735E+04  0.91050046799E+02 0.  0.
         11    1    3    3    0    0  0.63193352465E+03 -0.11269394866E+03 -0.47221074925E+03  0.79688323947E+03  0.00000000000E+00 0. -1.
        -11    1    3    3    0    0  0.50906620957E+03 -0.12791506850E+02 -0.34347522239E+03  0.61423713399E+03  0.00000000000E+00 0.  1.
         22    1    1    2    0    0 -0.11409997342E+04  0.12548545551E+03  0.30080669276E+03  0.11866388075E+04  0.00000000000E+00 0.  1.
<mgrwt>
<rscale>  0 0.25462231E+04</rscale>
<asrwt>0</asrwt>
<pdfrwt beam="1">  1        1 0.23943373E+00 0.25462231E+04</pdfrwt>
<pdfrwt beam="2">  1       -1 0.16022153E+00 0.25462231E+04</pdfrwt>
<totfact> 0.15405352E+00</totfact>
</mgrwt>
</event>
<event>
 6    1  0.9512547E-007  0.1204012E+04  0.7818608E-02  0.9109352E-01
         -1   -1    0    0    0  501 -0.00000000000E+00  0.00000000000E+00  0.63272136764E+03  0.63272136764E+03  0.00000000000E+00 0.  1.
          1   -1    0    0  501    0  0.00000000000E+00 -0.00000000000E+00 -0.57278166779E+03  0.57278166779E+03  0.00000000000E+00 0. -1.
         23    2    1    2    0    0 -0.11675528639E+03  0.24214288666E+03 -0.50543334875E+03  0.57947455481E+03  0.89793736888E+02 0.  0.
         13    1    3    3    0    0 -0.25630960977E+02  0.35897389375E+02 -0.30179513432E+02  0.53445034901E+02  0.00000000000E+00 0. -1.
        -13    1    3    3    0    0 -0.91124325415E+02  0.20624549729E+03 -0.47525383532E+03  0.52602951991E+03  0.00000000000E+00 0.  1.
         22    1    1    2    0    0  0.11675528639E+03 -0.24214288666E+03  0.56537304860E+03  0.62602848062E+03  0.00000000000E+00 0.  1.
<mgrwt>
<rscale>  0 0.12040120E+04</rscale>
<asrwt>0</asrwt>
<pdfrwt beam="1">  1        1 0.88120257E-01 0.12040120E+04</pdfrwt>
<pdfrwt beam="2">  1       -1 0.97341748E-01 0.12040120E+04</pdfrwt>
<totfact> 0.36736327E+01</totfact>
</mgrwt>
</event>
<event>
 6    1  0.9512547E-007  0.1019744E+04  0.7818608E-02  0.9287151E-01
          1   -1    0    0  501    0  0.00000000000E+00  0.00000000000E+00  0.95752170674E+03  0.95752170674E+03  0.00000000000E+00 0. -1.
         -1   -1    0    0    0  501 -0.00000000000E+00 -0.00000000000E+00 -0.27150241444E+03  0.27150241444E+03  0.00000000000E+00 0.  1.
         23    2    1    2    0    0  0.34960712974E+03 -0.30906658861E+03  0.58084469772E+03  0.75068428726E+03  0.91646248763E+02 0.  0.
         13    1    3    3    0    0  0.12499534711E+03 -0.81761184997E+02  0.12961780129E+03  0.19776122619E+03  0.00000000000E+00 0. -1.
        -13    1    3    3    0    0  0.22461178263E+03 -0.22730540362E+03  0.45122689643E+03  0.55292306107E+03  0.00000000000E+00 0.  1.
         22    1    1    2    0    0 -0.34960712974E+03  0.30906658861E+03  0.10517459458E+03  0.47833983392E+03  0.00000000000E+00 0.  1.
<mgrwt>
<rscale>  0 0.10197440E+04</rscale>
<asrwt>0</asrwt>
<pdfrwt beam="1">  1        1 0.14731103E+00 0.10197440E+04</pdfrwt>
<pdfrwt beam="2">  1       -1 0.41769603E-01 0.10197440E+04</pdfrwt>
<totfact> 0.92002892E+01</totfact>
</mgrwt>
</event>
<event>
 6    1  0.9512547E-007  0.1590183E+04  0.7818608E-02  0.8826602E-01
          2   -1    0    0  501    0  0.00000000000E+00  0.00000000000E+00  0.18933271046E+04  0.18933271046E+04  0.00000000000E+00 0. -1.
         -2   -1    0    0    0  501 -0.00000000000E+00 -0.00000000000E+00 -0.33389411807E+03  0.33389411807E+03  0.00000000000E+00 0.  1.
         23    2    1    2    0    0 -0.48817124063E+03  0.46550355513E+02  0.16541973297E+04  0.17277631399E+04  0.91206174280E+02 0.  0.
         11    1    3    3    0    0 -0.40042464901E+03  0.91200022644E+01  0.12569486245E+04  0.13192205723E+04  0.00000000000E+00 0. -1.
        -11    1    3    3    0    0 -0.87746591622E+02  0.37430353248E+02  0.39724870523E+03  0.40854256754E+03  0.00000000000E+00 0.  1.
         22    1    1    2    0    0  0.48817124063E+03 -0.46550355513E+02 -0.94764343123E+02  0.49945808283E+03  0.00000000000E+00 0.  1.
<mgrwt>
<rscale>  0 0.15901834E+04</rscale>
<asrwt>0</asrwt>
<pdfrwt beam="1">  1        2 0.29128109E+00 0.15901834E+04</pdfrwt>
<pdfrwt beam="2">  1       -2 0.51368327E-01 0.15901834E+04</pdfrwt>
<totfact> 0.26317160E+01</totfact>
</mgrwt>
</event>
<event>
 6    1  0.9512547E-007  0.9982473E+03  0.7818608E-02  0.9310469E-01
         -2   -1    0    0    0  501 -0.00000000000E+00  0.00000000000E+00  0.16460503907E+03  0.16460503907E+03  0.00000000000E+00 0.  1.
          2   -1    0    0  501    0  0.00000000000E+00 -0.00000000000E+00 -0.15134678016E+04  0.15134678016E+04  0.00000000000E+00 0. -1.
         23    2    1    2    0    0 -0.31857992507E+03 -0.29067212528E+03 -0.10880166239E+04  0.11740647444E+04  0.93082743221E+02 0.  0.
         13    1    3    3    0    0 -0.88000990370E+02 -0.73980346956E+02 -0.19164621304E+03  0.22348498163E+03  0.00000000000E+00 0.  1.
        -13    1    3    3    0    0 -0.23057893470E+03 -0.21669177832E+03 -0.89637041081E+03  0.95057976273E+03  0.00000000000E+00 0. -1.
         22    1    1    2    0    0  0.31857992507E+03  0.29067212528E+03 -0.26084613866E+03  0.50400809629E+03  0.00000000000E+00 0.  1.
<mgrwt>
<rscale>  0 0.99824732E+03</rscale>
<asrwt>0</asrwt>
<pdfrwt beam="1">  1        2 0.23284121E+00 0.99824732E+03</pdfrwt>
<pdfrwt beam="2">  1       -2 0.25323851E-01 0.99824732E+03</pdfrwt>
<totfact> 0.17440592E+02</totfact>
</mgrwt>
</event>
<event>
 6    1  0.9512547E-007  0.1292874E+04  0.7818608E-02  0.9035236E-01
          2   -1    0    0  501    0  0.00000000000E+00  0.00000000000E+00  0.98708825262E+03  0.98708825262E+03  0.00000000000E+00 0. -1.
         -2   -1    0    0    0  501 -0.00000000000E+00 -0.00000000000E+00 -0.42334662354E+03  0.42334662354E+03  0.00000000000E+00 0.  1.
         23    2    1    2    0    0 -0.49244367406E+03 -0.24059736100E+03 -0.83882417042E+02  0.56202178847E+03  0.91893245602E+02 0.  0.
         13    1    3    3    0    0 -0.42690579725E+03 -0.17412027447E+03 -0.55076093737E+02  0.46432726154E+03  0.00000000000E+00 0.  1.
        -13    1    3    3    0    0 -0.65537876809E+02 -0.66477086532E+02 -0.28806323305E+02  0.97694526934E+02  0.00000000000E+00 0. -1.
         22    1    1    2    0    0  0.49244367406E+03  0.24059736100E+03  0.64762404613E+03  0.84841308769E+03  0.00000000000E+00 0. -1.
<mgrwt>
<rscale>  0 0.12928735E+04</rscale>
<asrwt>0</asrwt>
<pdfrwt beam="1">  1        2 0.15185973E+00 0.12928735E+04</pdfrwt>
<pdfrwt beam="2">  1       -2 0.65130250E-01 0.12928735E+04</pdfrwt>
<totfact> 0.54746337E+01</totfact>
</mgrwt>
</event>
<event>
 6    1  0.9512547E-007  0.1476769E+04  0.7818608E-02  0.8900050E-01
          2   -1    0    0  501    0  0.00000000000E+00  0.00000000000E+00  0.57655899499E+03  0.57655899499E+03  0.00000000000E+00 0. -1.
         -2   -1    0    0    0  501 -0.00000000000E+00 -0.00000000000E+00 -0.94563042900E+03  0.94563042900E+03  0.00000000000E+00 0.  1.
         23    2    1    2    0    0 -0.66150865991E+03  0.14878701614E+03  0.10903882841E+03  0.69253846946E+03  0.89379988156E+02 0.  0.
         11    1    3    3    0    0 -0.50820560643E+03  0.13029614685E+03  0.49235067652E+02  0.52694792549E+03  0.00000000000E+00 0. -1.
        -11    1    3    3    0    0 -0.15330305347E+03  0.18490869284E+02  0.59803760763E+02  0.16559054397E+03  0.00000000000E+00 0.  1.
         22    1    1    2    0    0  0.66150865991E+03 -0.14878701614E+03 -0.47811026243E+03  0.82965095452E+03  0.00000000000E+00 0.  1.
<mgrwt>
<rscale>  0 0.14767691E+04</rscale>
<asrwt>0</asrwt>
<pdfrwt beam="1">  1        2 0.88701385E-01 0.14767691E+04</pdfrwt>
<pdfrwt beam="2">  1       -2 0.14548160E+00 0.14767691E+04</pdfrwt>
<totfact> 0.16349076E+01</totfact>
</mgrwt>
</event>
<event>
 6    1  0.9512547E-007  0.5313718E+04  0.7818608E-02  0.7781855E-01
          2   -1    0    0  501    0  0.00000000000E+00  0.00000000000E+00  0.33515542248E+04  0.33515542248E+04  0.00000000000E+00 0. -1.
         -2   -1    0    0    0  501 -0.00000000000E+00 -0.00000000000E+00 -0.21061570748E+04  0.21061570748E+04  0.00000000000E+00 0.  1.
         23    2    1    2    0    0 -0.11313198696E+04 -0.13193243334E+04  0.26858619371E+04  0.32004031358E+04  0.90689261335E+02 0.  0.
         13    1    3    3    0    0 -0.33167145220E+03 -0.32725208817E+03  0.70002860570E+03  0.84091612555E+03  0.00000000000E+00 0.  1.
        -13    1    3    3    0    0 -0.79964841740E+03 -0.99207224520E+03  0.19858333314E+04  0.23594870102E+04  0.00000000000E+00 0. -1.
         22    1    1    2    0    0  0.11313198696E+04  0.13193243334E+04 -0.14404647871E+04  0.22573081639E+04  0.00000000000E+00 0.  1.
<mgrwt>
<rscale>  0 0.53137180E+04</rscale>
<asrwt>0</asrwt>
<pdfrwt beam="1">  1        2 0.51562373E+00 0.53137180E+04</pdfrwt>
<pdfrwt beam="2">  1       -2 0.32402417E+00 0.53137180E+04</pdfrwt>
<totfact> 0.16490585E-02</totfact>
</mgrwt>
</event>
<event>
 6    1  0.1214821E-006  0.2917958E+04  0.7818608E-02  0.8267555E-01
          1   -1    0    0  501    0  0.00000000000E+00  0.00000000000E+00  0.30110348909E+04  0.30110348909E+04  0.00000000000E+00 0. -1.
         -1   -1    0    0    0  501 -0.00000000000E+00 -0.00000000000E+00 -0.70693934345E+03  0.70693934345E+03  0.00000000000E+00 0.  1.
         23    2    1    2    0    0 -0.32930526460E+02 -0.99954333191E+03  0.25042162514E+04  0.26980626754E+04  0.90949845492E+02 0.  0.
         11    1    3    3    0    0  0.19409074504E+02 -0.48828544806E+03  0.11442899544E+04  0.12442664066E+04  0.00000000000E+00 0.  1.
        -11    1    3    3    0    0 -0.52339600964E+02 -0.51125788386E+03  0.13599262971E+04  0.14537962688E+04  0.00000000000E+00 0. -1.
         22    1    1    2    0    0  0.32930526460E+02  0.99954333191E+03 -0.20012070399E+03  0.10199115590E+04  0.00000000000E+00 0.  1.
<mgrwt>
<rscale>  0 0.29179575E+04</rscale>
<asrwt>0</asrwt>
<pdfrwt beam="1">  1        1 0.46323613E+00 0.29179575E+04</pdfrwt>
<pdfrwt beam="2">  1       -1 0.10875990E+00 0.29179575E+04</pdfrwt>
<totfact> 0.39392159E-01</totfact>
</mgrwt>
</event>
<event>
 6    1  0.9512547E-007  0.5130957E+04  0.7818608E-02  0.7808617E-01
          1   -1    0    0  501    0  0.00000000000E+00  0.00000000000E+00  0.25480494011E+04  0.25480494011E+04  0.00000000000E+00 0. -1.
         -1   -1    0    0    0  501 -0.00000000000E+00 -0.00000000000E+00 -0.25830272225E+04  0.25830272225E+04  0.00000000000E+00 0.  1.
         23    2    1    2    0    0  0.23077034233E+04  0.10247682734E+04  0.43185215838E+03  0.25632808112E+04  0.90923737213E+02 0.  0.
         13    1    3    3    0    0  0.27360022945E+03  0.12577099447E+03  0.81366595237E+02  0.31192298958E+03  0.00000000000E+00 0.  1.
        -13    1    3    3    0    0  0.20341031939E+04  0.89899727897E+03  0.35048556315E+03  0.22513578216E+04  0.00000000000E+00 0. -1.
         22    1    1    2    0    0 -0.23077034233E+04 -0.10247682734E+04 -0.46682997971E+03  0.25677958124E+04  0.00000000000E+00 0.  1.
<mgrwt>
<rscale>  0 0.51309574E+04</rscale>
<asrwt>0</asrwt>
<pdfrwt beam="1">  1        1 0.39200760E+00 0.51309574E+04</pdfrwt>
<pdfrwt beam="2">  1       -1 0.39738880E+00 0.51309574E+04</pdfrwt>
<totfact> 0.66844959E-03</totfact>
</mgrwt>
</event>
<event>
 6    1  0.9512547E-007  0.2383992E+04  0.7818608E-02  0.8445521E-01
          2   -1    0    0  501    0  0.00000000000E+00  0.00000000000E+00  0.10795575685E+04  0.10795575685E+04  0.00000000000E+00 0. -1.
         -2   -1    0    0    0  501 -0.00000000000E+00 -0.00000000000E+00 -0.13161452372E+04  0.13161452372E+04  0.00000000000E+00 0.  1.
         23    2    1    2    0    0 -0.71126314937E+03  0.10534640080E+03 -0.10708602838E+04  0.12943382302E+04  0.10759449245E+03 0.  0.
         11    1    3    3    0    0 -0.25165411425E+03  0.79955996202E+02 -0.33809147191E+03  0.42898554512E+03  0.00000000000E+00 0. -1.
        -11    1    3    3    0    0 -0.45960903512E+03  0.25390404595E+02 -0.73276881189E+03  0.86535268503E+03  0.00000000000E+00 0.  1.
         22    1    1    2    0    0  0.71126314937E+03 -0.10534640080E+03  0.83427261515E+03  0.11013645755E+04  0.00000000000E+00 0. -1.
<mgrwt>
<rscale>  0 0.23839921E+04</rscale>
<asrwt>0</asrwt>
<pdfrwt beam="1">  1        2 0.16608578E+00 0.23839921E+04</pdfrwt>
<pdfrwt beam="2">  1       -2 0.20248388E+00 0.23839921E+04</pdfrwt>
<totfact> 0.25871040E+00</totfact>
</mgrwt>
</event>
<event>
 6    1  0.9512547E-007  0.3086112E+04  0.7818608E-02  0.8219560E-01
          1   -1    0    0  501    0  0.00000000000E+00  0.00000000000E+00  0.13928142091E+04  0.13928142091E+04  0.00000000000E+00 0. -1.
         -1   -1    0    0    0  501 -0.00000000000E+00 -0.00000000000E+00 -0.17095044025E+04  0.17095044025E+04  0.00000000000E+00 0.  1.
         23    2    1    2    0    0  0.92058059679E+03  0.12049840493E+04 -0.43810455867E+03  0.15810702288E+04  0.91609332428E+02 0.  0.
         11    1    3    3    0    0  0.61095280800E+03  0.73438542200E+03 -0.25511085035E+03  0.98877036142E+03  0.00000000000E+00 0. -1.
        -11    1    3    3    0    0  0.30962778879E+03  0.47059862728E+03 -0.18299370832E+03  0.59229986736E+03  0.00000000000E+00 0.  1.
         22    1    1    2    0    0 -0.92058059679E+03 -0.12049840493E+04  0.12141436531E+03  0.15212483828E+04  0.00000000000E+00 0. -1.
<mgrwt>
<rscale>  0 0.30861121E+04</rscale>
<asrwt>0</asrwt>
<pdfrwt beam="1">  1        1 0.21427911E+00 0.30861121E+04</pdfrwt>
<pdfrwt beam="2">  1       -1 0.26300068E+00 0.30861121E+04</pdfrwt>
<totfact> 0.37669776E-01</totfact>
</mgrwt>
</event>
<event>
 6    1  0.9512547E-007  0.1007669E+04  0.7818608E-02  0.9300174E-01
          2   -1    0    0  501    0  0.00000000000E+00  0.00000000000E+00  0.62324831115E+03  0.62324831115E+03  0.00000000000E+00 0. -1.
         -2   -1    0    0    0  501 -0.00000000000E+00 -0.00000000000E+00 -0.40730006694E+03  0.40730006694E+03  0.00000000000E+00 0.  1.
         23    2    1    2    0    0  0.17894796569E+03 -0.17060932749E+03  0.55292877804E+03  0.61259407768E+03  0.91713430721E+02 0.  0.
         11    1    3    3    0    0  0.72667805900E+02 -0.90719526517E+02  0.35990844389E+03  0.37821254671E+03  0.00000000000E+00 0.  1.
        -11    1    3    3    0    0  0.10628015979E+03 -0.79889800977E+02  0.19302033414E+03  0.23438153097E+03  0.00000000000E+00 0. -1.
         22    1    1    2    0    0 -0.17894796569E+03  0.17060932749E+03 -0.33698053383E+03  0.41795430041E+03  0.00000000000E+00 0.  1.
<mgrwt>
<rscale>  0 0.10076688E+04</rscale>
<asrwt>0</asrwt>
<pdfrwt beam="1">  1        2 0.95884356E-01 0.10076688E+04</pdfrwt>
<pdfrwt beam="2">  1       -2 0.62661549E-01 0.10076688E+04</pdfrwt>
<totfact> 0.11167262E+02</totfact>
</mgrwt>
</event>
<event>
 6    1  0.9512547E-007  0.3127819E+04  0.7818608E-02  0.8208145E-01
         -1   -1    0    0    0  501 -0.00000000000E+00  0.00000000000E+00  0.18521773328E+04  0.18521773328E+04  0.00000000000E+00 0.  1.
          1   -1    0    0  501    0  0.00000000000E+00 -0.00000000000E+00 -0.13205067152E+04  0.13205067152E+04  0.00000000000E+00 0. -1.
         23    2    1    2    0    0  0.70716308248E+03  0.23425518160E+03  0.16592938007E+04  0.18212073895E+04  0.92657018350E+02 0.  0.
         13    1    3    3    0    0  0.89658110028E+02 -0.11209788552E+01  0.21165153388E+03  0.22986127355E+03  0.00000000000E+00 0.  1.
        -13    1    3    3    0    0  0.61750497246E+03  0.23537616045E+03  0.14476422668E+04  0.15913461159E+04  0.00000000000E+00 0. -1.
         22    1    1    2    0    0 -0.70716308248E+03 -0.23425518160E+03 -0.11276231832E+04  0.13514766585E+04  0.00000000000E+00 0. -1.
<mgrwt>
<rscale>  0 0.31278188E+04</rscale>
<asrwt>0</asrwt>
<pdfrwt beam="1">  1        1 0.20315488E+00 0.31278188E+04</pdfrwt>
<pdfrwt beam="2">  1       -1 0.28495036E+00 0.31278188E+04</pdfrwt>
<totfact> 0.30433059E-01</totfact>
</mgrwt>
</event>
<event>
 6    1  0.9512547E-007  0.7816045E+03  0.7818608E-02  0.9587032E-01
         -1   -1    0    0    0  501 -0.00000000000E+00  0.00000000000E+00  0.17558975039E+03  0.17558975039E+03  0.00000000000E+00 0.  1.
          1   -1    0    0  501    0  0.00000000000E+00 -0.00000000000E+00 -0.86979108127E+03  0.86979108127E+03  0.00000000000E+00 0. -1.
         23    2    1    2    0    0 -0.36161380257E+03  0.11638345033E+03 -0.43742479411E+03  0.58685728858E+03  0.93548794383E+02 0.  0.
         13    1    3    3    0    0 -0.32643797839E+03  0.74235022492E+02 -0.39283667022E+03  0.51613296908E+03  0.00000000000E+00 0.  1.
        -13    1    3    3    0    0 -0.35175824178E+02  0.42148427842E+02 -0.44588123895E+02  0.70724319499E+02  0.00000000000E+00 0. -1.
         22    1    1    2    0    0  0.36161380257E+03 -0.11638345033E+03 -0.25677653678E+03  0.45852354308E+03  0.00000000000E+00 0.  1.
<mgrwt>
<rscale>  0 0.78160450E+03</rscale>
<asrwt>0</asrwt>
<pdfrwt beam="1">  1        1 0.13381401E+00 0.78160450E+03</pdfrwt>
<pdfrwt beam="2">  1       -1 0.27013808E-01 0.78160450E+03</pdfrwt>
<totfact> 0.23857350E+02</totfact>
</mgrwt>
</event>
<event>
 6    1  0.9512547E-007  0.2387325E+04  0.7818608E-02  0.8444264E-01
         -2   -1    0    0    0  501 -0.00000000000E+00  0.00000000000E+00  0.79571450934E+03  0.79571450934E+03  0.00000000000E+00 0.  1.
          2   -1    0    0  501    0  0.00000000000E+00 -0.00000000000E+00 -0.17906299914E+04  0.17906299914E+04  0.00000000000E+00 0. -1.
         23    2    1    2    0    0  0.98502117095E+03 -0.31238290062E+03 -0.11418027972E+04  0.15425889416E+04  0.89538993374E+02 0.  0.
         11    1    3    3    0    0  0.50536121298E+02 -0.32294457963E+02 -0.88589916531E+02  0.10698132960E+03  0.00000000000E+00 0.  1.
        -11    1    3    3    0    0  0.93448504965E+03 -0.28008844265E+03 -0.10532128807E+04  0.14356076120E+04  0.00000000000E+00 0. -1.
         22    1    1    2    0    0 -0.98502117095E+03  0.31238290062E+03  0.14688731514E+03  0.10437555591E+04  0.00000000000E+00 0. -1.
<mgrwt>
<rscale>  0 0.23873251E+04</rscale>
<asrwt>0</asrwt>
<pdfrwt beam="1">  1        2 0.27548154E+00 0.23873251E+04</pdfrwt>
<pdfrwt beam="2">  1       -2 0.12241762E+00 0.23873251E+04</pdfrwt>
<totfact> 0.39719707E+00</totfact>
</mgrwt>
</event>
<event>
 6    1  0.9512547E-007  0.2572663E+04  0.7818608E-02  0.8377547E-01
         -2   -1    0    0    0  501 -0.00000000000E+00  0.00000000000E+00  0.11448051878E+04  0.11448051878E+04  0.00000000000E+00 0.  1.
          2   -1    0    0  501    0  0.00000000000E+00 -0.00000000000E+00 -0.14453540988E+04  0.14453540988E+04  0.00000000000E+00 0. -1.
         23    2    1    2    0    0  0.84578520449E+02 -0.45228825226E+03  0.10571526220E+04  0.11566071801E+04  0.91925586529E+02 0.  0.
         11    1    3    3    0    0  0.10214669439E+03 -0.38550469199E+03  0.93023946278E+03  0.10121231510E+04  0.00000000000E+00 0. -1.
        -11    1    3    3    0    0 -0.17568173937E+02 -0.66783560268E+02  0.12691315925E+03  0.14448402904E+03  0.00000000000E+00 0.  1.
         22    1    1    2    0    0 -0.84578520449E+02  0.45228825226E+03 -0.13577015330E+04  0.14335521065E+04  0.00000000000E+00 0. -1.
<mgrwt>
<rscale>  0 0.25726631E+04</rscale>
<asrwt>0</asrwt>
<pdfrwt beam="1">  1        2 0.22236217E+00 0.25726631E+04</pdfrwt>
<pdfrwt beam="2">  1       -2 0.17612388E+00 0.25726631E+04</pdfrwt>
<totfact> 0.23322996E+00</totfact>
</mgrwt>
</event>
<event>
 6    1  0.9512547E-007  0.2035271E+04  0.7818608E-02  0.8590305E-01
          2   -1    0    0  501    0  0.00000000000E+00  0.00000000000E+00  0.66131789119E+03  0.66131789119E+03  0.00000000000E+00 0. -1.
         -2   -1    0    0    0  501 -0.00000000000E+00 -0.00000000000E+00 -0.15659373905E+04  0.15659373905E+04  0.00000000000E+00 0.  1.
         23    2    1    2    0    0 -0.62770820206E+03 -0.79559175983E+03 -0.52596486480E+03  0.11454220379E+04  0.91480984852E+02 0.  0.
         11    1    3    3    0    0 -0.12714635333E+03 -0.20272942173E+03 -0.91883637335E+02  0.25633574938E+03  0.00000000000E+00 0.  1.
        -11    1    3    3    0    0 -0.50056184873E+03 -0.59286233810E+03 -0.43408122747E+03  0.88908628849E+03  0.00000000000E+00 0. -1.
         22    1    1    2    0    0  0.62770820206E+03  0.79559175983E+03 -0.37865463453E+03  0.10818332438E+04  0.00000000000E+00 0.  1.
<mgrwt>
<rscale>  0 0.20352714E+04</rscale>
<asrwt>0</asrwt>
<pdfrwt beam="1">  1        2 0.10174121E+00 0.20352714E+04</pdfrwt>
<pdfrwt beam="2">  1       -2 0.24091344E+00 0.20352714E+04</pdfrwt>
<totfact> 0.29799815E+00</totfact>
</mgrwt>
</event>
<event>
 6    1  0.9512547E-007  0.2317873E+04  0.7818608E-02  0.8470907E-01
          1   -1    0    0  501    0  0.00000000000E+00  0.00000000000E+00  0.85424397736E+03  0.85424397736E+03  0.00000000000E+00 0. -1.
         -1   -1    0    0    0  501 -0.00000000000E+00 -0.00000000000E+00 -0.15723071584E+04  0.15723071584E+04  0.00000000000E+00 0.  1.
         23    2    1    2    0    0  0.85125646728E+03  0.59428442798E+03 -0.89461264575E+03  0.13734693403E+04  0.90965313592E+02 0.  0.
         11    1    3    3    0    0  0.72220656846E+03  0.47983820494E+03 -0.70863692674E+03  0.11198184337E+04  0.00000000000E+00 0. -1.
        -11    1    3    3    0    0  0.12904989882E+03  0.11444622304E+03 -0.18597571901E+03  0.25365090660E+03  0.00000000000E+00 0.  1.
         22    1    1    2    0    0 -0.85125646728E+03 -0.59428442798E+03  0.17654946476E+03  0.10530817955E+04  0.00000000000E+00 0. -1.
<mgrwt>
<rscale>  0 0.23178731E+04</rscale>
<asrwt>0</asrwt>
<pdfrwt beam="1">  1        1 0.13142215E+00 0.23178731E+04</pdfrwt>
<pdfrwt beam="2">  1       -1 0.24189341E+00 0.23178731E+04</pdfrwt>
<totfact> 0.14122441E+00</totfact>
</mgrwt>
</event>
<event>
 6    1  0.9512547E-007  0.1427014E+04  0.7818608E-02  0.8934494E-01
          2   -1    0    0  501    0  0.00000000000E+00  0.00000000000E+00  0.25474414589E+04  0.25474414589E+04  0.00000000000E+00 0. -1.
         -2   -1    0    0    0  501 -0.00000000000E+00 -0.00000000000E+00 -0.19984439343E+03  0.19984439343E+03  0.00000000000E+00 0.  1.
         23    2    1    2    0    0 -0.69789607943E+03 -0.13372785224E+03  0.11324350242E+04  0.13396066053E+04  0.84821557685E+02 0.  0.
         13    1    3    3    0    0 -0.20277465707E+03 -0.74531057331E+02  0.31118824419E+03  0.37882788094E+03  0.00000000000E+00 0. -1.
        -13    1    3    3    0    0 -0.49512142236E+03 -0.59196794910E+02  0.82124678005E+03  0.96077872434E+03  0.00000000000E+00 0.  1.
         22    1    1    2    0    0  0.69789607943E+03  0.13372785224E+03  0.12151620413E+04  0.14076792471E+04  0.00000000000E+00 0.  1.
<mgrwt>
<rscale>  0 0.14270135E+04</rscale>
<asrwt>0</asrwt>
<pdfrwt beam="1">  1        2 0.39191405E+00 0.14270135E+04</pdfrwt>
<pdfrwt beam="2">  1       -2 0.30745293E-01 0.14270135E+04</pdfrwt>
<totfact> 0.31198718E+01</totfact>
</mgrwt>
</event>
<event>
 6    1  0.9512547E-007  0.2121704E+04  0.7818608E-02  0.8551743E-01
          2   -1    0    0  501    0  0.00000000000E+00  0.00000000000E+00  0.24447579463E+04  0.24447579463E+04  0.00000000000E+00 0. -1.
         -2   -1    0    0    0  501 -0.00000000000E+00 -0.00000000000E+00 -0.46033454998E+03  0.46033454998E+03  0.00000000000E+00 0.  1.
         23    2    1    2    0    0 -0.24682447923E+02 -0.29457441595E+03  0.23862585716E+04  0.24062389929E+04  0.91503062256E+02 0.  0.
         11    1    3    3    0    0 -0.36723445334E+02 -0.16339664730E+03  0.10214499358E+04  0.10350879417E+04  0.00000000000E+00 0.  1.
        -11    1    3    3    0    0  0.12040997411E+02 -0.13117776865E+03  0.13648086358E+04  0.13711510511E+04  0.00000000000E+00 0. -1.
         22    1    1    2    0    0  0.24682447923E+02  0.29457441595E+03 -0.40183517529E+03  0.49885350341E+03  0.00000000000E+00 0.  1.
<mgrwt>
<rscale>  0 0.21217036E+04</rscale>
<asrwt>0</asrwt>
<pdfrwt beam="1">  1        2 0.37611660E+00 0.21217036E+04</pdfrwt>
<pdfrwt beam="2">  1       -2 0.70820701E-01 0.21217036E+04</pdfrwt>
<totfact> 0.62468421E+00</totfact>
</mgrwt>
</event>
<event>
 6    1  0.9512547E-007  0.1913275E+04  0.7818608E-02  0.8648277E-01
          1   -1    0    0  501    0  0.00000000000E+00  0.00000000000E+00  0.10403903128E+04  0.10403903128E+04  0.00000000000E+00 0. -1.
         -1   -1    0    0    0  501 -0.00000000000E+00 -0.00000000000E+00 -0.87962662667E+03  0.87962662667E+03  0.00000000000E+00 0.  1.
         23    2    1    2    0    0  0.49821764954E+03  0.69917501831E+03 -0.33783320217E+03  0.92721011558E+03  0.92308143685E+02 0.  0.
         13    1    3    3    0    0  0.19968238700E+03  0.35947432425E+03 -0.16433092086E+03  0.44283122860E+03  0.00000000000E+00 0. -1.
        -13    1    3    3    0    0  0.29853526255E+03  0.33970069406E+03 -0.17350228131E+03  0.48437888698E+03  0.00000000000E+00 0.  1.
         22    1    1    2    0    0 -0.49821764954E+03 -0.69917501831E+03  0.49859688830E+03  0.99280682389E+03  0.00000000000E+00 0. -1.
<mgrwt>
<rscale>  0 0.19132747E+04</rscale>
<asrwt>0</asrwt>
<pdfrwt beam="1">  1        1 0.16006005E+00 0.19132747E+04</pdfrwt>
<pdfrwt beam="2">  1       -1 0.13532717E+00 0.19132747E+04</pdfrwt>
<totfact> 0.60231445E+00</totfact>
</mgrwt>
</event>
<event>
 6    1  0.9512547E-007  0.8835261E+03  0.7818608E-02  0.9446412E-01
         -1   -1    0    0    0  501 -0.00000000000E+00  0.00000000000E+00  0.15648888995E+03  0.15648888995E+03  0.00000000000E+00 0.  1.
          1   -1    0    0  501    0  0.00000000000E+00 -0.00000000000E+00 -0.12470827800E+04  0.12470827800E+04  0.00000000000E+00 0. -1.
         23    2    1    2    0    0 -0.12070838701E+03 -0.31805907840E+03 -0.11609280134E+03  0.37139704133E+03  0.93413766352E+02 0.  0.
         13    1    3    3    0    0 -0.77901651854E+02 -0.10203629985E+03 -0.15567329405E+02  0.12931517928E+03  0.00000000000E+00 0. -1.
        -13    1    3    3    0    0 -0.42806735157E+02 -0.21602277855E+03 -0.10052547193E+03  0.24208186205E+03  0.00000000000E+00 0.  1.
         22    1    1    2    0    0  0.12070838701E+03  0.31805907840E+03 -0.97450108871E+03  0.10321746286E+04  0.00000000000E+00 0. -1.
<mgrwt>
<rscale>  0 0.88352612E+03</rscale>
<asrwt>0</asrwt>
<pdfrwt beam="1">  1        1 0.19185888E+00 0.88352612E+03</pdfrwt>
<pdfrwt beam="2">  1       -1 0.24075214E-01 0.88352612E+03</pdfrwt>
<totfact> 0.14867408E+02</totfact>
</mgrwt>
</event>
<event>
 6    1  0.9512547E-007  0.4844140E+04  0.7818608E-02  0.7853010E-01
          2   -1    0    0  501    0  0.00000000000E+00  0.00000000000E+00  0.33219726179E+04  0.33219726179E+04  0.00000000000E+00 0. -1.
         -2   -1    0    0    0  501 -0.00000000000E+00 -0.00000000000E+00 -0.17659453582E+04  0.17659453582E+04  0.00000000000E+00 0.  1.
         23    2    1    2    0    0  0.26012408247E+03 -0.20247697096E+04 -0.58929386035E+03  0.21265399822E+04  0.86879956589E+02 0.  0.
         13    1    3    3    0    0  0.14034289297E+03 -0.94002027487E+03 -0.23402087062E+03  0.97882583367E+03  0.00000000000E+00 0. -1.
        -13    1    3    3    0    0  0.11978118950E+03 -0.10847494347E+04 -0.35527298974E+03  0.11477141485E+04  0.00000000000E+00 0.  1.
         22    1    1    2    0    0 -0.26012408247E+03  0.20247697096E+04  0.21453211200E+04  0.29613779940E+04  0.00000000000E+00 0. -1.
<mgrwt>
<rscale>  0 0.48441396E+04</rscale>
<asrwt>0</asrwt>
<pdfrwt beam="1">  1        2 0.51107271E+00 0.48441396E+04</pdfrwt>
<pdfrwt beam="2">  1       -2 0.27168390E+00 0.48441396E+04</pdfrwt>
<totfact> 0.37516103E-02</totfact>
</mgrwt>
</event>
<event>
 6    1  0.9512547E-007  0.2929948E+04  0.7818608E-02  0.8264022E-01
          2   -1    0    0  501    0  0.00000000000E+00  0.00000000000E+00  0.18463319756E+04  0.18463319756E+04  0.00000000000E+00 0. -1.
         -2   -1    0    0    0  501 -0.00000000000E+00 -0.00000000000E+00 -0.11623852423E+04  0.11623852423E+04  0.00000000000E+00 0.  1.
         23    2    1    2    0    0  0.48840850728E+03 -0.87089672436E+03 -0.75620929387E+03  0.12562751056E+04  0.96802222794E+02 0.  0.
         11    1    3    3    0    0  0.39918789495E+03 -0.62507602011E+03 -0.55766620342E+03  0.92793458866E+03  0.00000000000E+00 0. -1.
        -11    1    3    3    0    0  0.89220612333E+02 -0.24582070425E+03 -0.19854309045E+03  0.32834051694E+03  0.00000000000E+00 0.  1.
         22    1    1    2    0    0 -0.48840850728E+03  0.87089672436E+03  0.14401560271E+04  0.17524421123E+04  0.00000000000E+00 0. -1.
<mgrwt>
<rscale>  0 0.29299482E+04</rscale>
<asrwt>0</asrwt>
<pdfrwt beam="1">  1        2 0.28405107E+00 0.29299482E+04</pdfrwt>
<pdfrwt beam="2">  1       -2 0.17882850E+00 0.29299482E+04</pdfrwt>
<totfact> 0.12937257E+00</totfact>
</mgrwt>
</event>
<event>
 6    1  0.9512547E-007  0.1247757E+04  0.7818608E-02  0.9072052E-01
         -2   -1    0    0    0  501 -0.00000000000E+00  0.00000000000E+00  0.94965470297E+02  0.94965470297E+02  0.00000000000E+00 0.  1.
          2   -1    0    0  501    0  0.00000000000E+00 -0.00000000000E+00 -0.40985899174E+04  0.40985899174E+04  0.00000000000E+00 0. -1.
         23    2    1    2    0    0  0.41891513690E+03  0.41883348364E+03 -0.26331380194E+04  0.27005234298E+04  0.92193201760E+02 0.  0.
         11    1    3    3    0    0  0.23802880100E+03  0.29952272336E+03 -0.17168945052E+04  0.17590049215E+04  0.00000000000E+00 0.  1.
        -11    1    3    3    0    0  0.18088633590E+03  0.11931076028E+03 -0.91624351425E+03  0.94151850828E+03  0.00000000000E+00 0. -1.
         22    1    1    2    0    0 -0.41891513690E+03 -0.41883348364E+03 -0.13704864276E+04  0.14930319579E+04  0.00000000000E+00 0. -1.
<mgrwt>
<rscale>  0 0.12477572E+04</rscale>
<asrwt>0</asrwt>
<pdfrwt beam="1">  1        2 0.63055213E+00 0.12477572E+04</pdfrwt>
<pdfrwt beam="2">  1       -2 0.14610076E-01 0.12477572E+04</pdfrwt>
<totfact> 0.10664647E+01</totfact>
</mgrwt>
</event>
<event>
 6    1  0.9512547E-007  0.4432562E+04  0.7818608E-02  0.7922551E-01
         -2   -1    0    0    0  501 -0.00000000000E+00  0.00000000000E+00  0.22181877910E+04  0.22181877910E+04  0.00000000000E+00 0.  1.
          2   -1    0    0  501    0  0.00000000000E+00 -0.00000000000E+00 -0.22143761991E+04  0.22143761991E+04  0.00000000000E+00 0. -1.
         23    2    1    2    0    0 -0.13251632219E+04 -0.12090146471E+04 -0.12977122358E+04  0.22163198123E+04  0.10120514794E+03 0.  0.
         13    1    3    3    0    0 -0.92185602464E+03 -0.83142314944E+03 -0.95424953418E+03  0.15657826021E+04  0.00000000000E+00 0. -1.
        -13    1    3    3    0    0 -0.40330719722E+03 -0.37759149765E+03 -0.34346270161E+03  0.65053721018E+03  0.00000000000E+00 0.  1.
         22    1    1    2    0    0  0.13251632219E+04  0.12090146471E+04  0.13015238277E+04  0.22162441778E+04  0.00000000000E+00 0.  1.
<mgrwt>
<rscale>  0 0.44325624E+04</rscale>
<asrwt>0</asrwt>
<pdfrwt beam="1">  1        2 0.34067326E+00 0.44325624E+04</pdfrwt>
<pdfrwt beam="2">  1       -2 0.34125966E+00 0.44325624E+04</pdfrwt>
<totfact> 0.68177953E-02</totfact>
</mgrwt>
</event>
<event>
 6    1  0.9512547E-007  0.3560783E+04  0.7818608E-02  0.8099534E-01
          2   -1    0    0  501    0  0.00000000000E+00  0.00000000000E+00  0.65551351682E+03  0.65551351682E+03  0.00000000000E+00 0. -1.
         -2   -1    0    0    0  501 -0.00000000000E+00 -0.00000000000E+00 -0.48355898558E+04  0.48355898558E+04  0.00000000000E+00 0.  1.
         23    2    1    2    0    0 -0.39663193238E+03  0.17038620287E+04 -0.15914049920E+04  0.23667343091E+04  0.91644631770E+02 0.  0.
         11    1    3    3    0    0 -0.39979743371E+02  0.30336310639E+03 -0.25429285196E+03  0.39785978529E+03  0.00000000000E+00 0. -1.
        -11    1    3    3    0    0 -0.35665218901E+03  0.14004989223E+04 -0.13371121400E+04  0.19688745238E+04  0.00000000000E+00 0.  1.
         22    1    1    2    0    0  0.39663193238E+03 -0.17038620287E+04 -0.25886713470E+04  0.31243690636E+04  0.00000000000E+00 0. -1.
<mgrwt>
<rscale>  0 0.35607833E+04</rscale>
<asrwt>0</asrwt>
<pdfrwt beam="1">  1        2 0.10084824E+00 0.35607833E+04</pdfrwt>
<pdfrwt beam="2">  1       -2 0.74393684E+00 0.35607833E+04</pdfrwt>
<totfact> 0.55413438E-03</totfact>
</mgrwt>
</event>
<event>
 6    1  0.9512547E-007  0.2857390E+04  0.7818608E-02  0.8285669E-01
          2   -1    0    0  501    0  0.00000000000E+00  0.00000000000E+00  0.23918379866E+04  0.23918379866E+04  0.00000000000E+00 0. -1.
         -2   -1    0    0    0  501 -0.00000000000E+00 -0.00000000000E+00 -0.85338971778E+03  0.85338971778E+03  0.00000000000E+00 0.  1.
         23    2    1    2    0    0  0.64433445875E+03 -0.24490200555E+03 -0.64929753157E+03  0.95145884632E+03  0.92427077620E+02 0.  0.
         13    1    3    3    0    0  0.25760481701E+03 -0.64858702349E+02 -0.29453349381E+03  0.39663190996E+03  0.00000000000E+00 0.  1.
        -13    1    3    3    0    0  0.38672964174E+03 -0.18004330320E+03 -0.35476403776E+03  0.55482693637E+03  0.00000000000E+00 0. -1.
         22    1    1    2    0    0 -0.64433445875E+03  0.24490200555E+03  0.21877458004E+04  0.22937688581E+04  0.00000000000E+00 0. -1.
<mgrwt>
<rscale>  0 0.28573904E+04</rscale>
<asrwt>0</asrwt>
<pdfrwt beam="1">  1        2 0.36797507E+00 0.28573904E+04</pdfrwt>
<pdfrwt beam="2">  1       -2 0.13129073E+00 0.28573904E+04</pdfrwt>
<totfact> 0.14738814E+00</totfact>
</mgrwt>
</event>
<event>
 6    1  0.9512547E-007  0.4970855E+04  0.7818608E-02  0.7833019E-01
          2   -1    0    0  501    0  0.00000000000E+00  0.00000000000E+00  0.35067728102E+04  0.35067728102E+04  0.00000000000E+00 0. -1.
         -2   -1    0    0    0  501 -0.00000000000E+00 -0.00000000000E+00 -0.17615483968E+04  0.17615483968E+04  0.00000000000E+00 0.  1.
         23    2    1    2    0    0 -0.64877168009E+03  0.49971918279E+01  0.34147790884E+04  0.34771365495E+04  0.93982428978E+02 0.  0.
         13    1    3    3    0    0 -0.13938559866E+03  0.38917386371E+02  0.80105965504E+03  0.81402670657E+03  0.00000000000E+00 0.  1.
        -13    1    3    3    0    0 -0.50938608143E+03 -0.33920194543E+02  0.26137194333E+04  0.26631098430E+04  0.00000000000E+00 0. -1.
         22    1    1    2    0    0  0.64877168009E+03 -0.49971918279E+01 -0.16695546749E+04  0.17911846575E+04  0.00000000000E+00 0.  1.
<mgrwt>
<rscale>  0 0.49708551E+04</rscale>
<asrwt>0</asrwt>
<pdfrwt beam="1">  1        2 0.53950351E+00 0.49708551E+04</pdfrwt>
<pdfrwt beam="2">  1       -2 0.27100745E+00 0.49708551E+04</pdfrwt>
<totfact> 0.27983228E-02</totfact>
</mgrwt>
</event>
<event>
 6    1  0.9512547E-007  0.2436092E+04  0.7818608E-02  0.8426114E-01
         -2   -1    0    0    0  501 -0.00000000000E+00  0.00000000000E+00  0.11966943501E+04  0.11966943501E+04  0.00000000000E+00 0.  1.
          2   -1    0    0  501    0  0.00000000000E+00 -0.00000000000E+00 -0.12397782945E+04  0.12397782945E+04  0.00000000000E+00 0. -1.
         23    2    1    2    0    0  0.77436376117E+03 -0.70825545733E+03  0.59352255678E+03  0.12090636399E+04  0.91108904087E+02 0.  0.
         13    1    3    3    0    0  0.43542300631E+03 -0.41361021566E+03  0.38936149811E+03  0.71572968440E+03  0.00000000000E+00 0.  1.
        -13    1    3    3    0    0  0.33894075486E+03 -0.29464524167E+03  0.20416105867E+03  0.49333395547E+03  0.00000000000E+00 0. -1.
         22    1    1    2    0    0 -0.77436376117E+03  0.70825545733E+03 -0.63660650114E+03  0.12274090047E+04  0.00000000000E+00 0. -1.
<mgrwt>
<rscale>  0 0.24360917E+04</rscale>
<asrwt>0</asrwt>
<pdfrwt beam="1">  1        2 0.19073512E+00 0.24360917E+04</pdfrwt>
<pdfrwt beam="2">  1       -2 0.18410682E+00 0.24360917E+04</pdfrwt>
<totfact> 0.27324629E+00</totfact>
</mgrwt>
</event>
<event>
 6    1  0.9512547E-007  0.1613844E+04  0.7818608E-02  0.8812088E-01
         -4   -1    0    0    0  501 -0.00000000000E+00  0.00000000000E+00  0.35833923399E+03  0.35833923399E+03  0.00000000000E+00 0.  1.
          4   -1    0    0  501    0  0.00000000000E+00 -0.00000000000E+00 -0.18170579920E+04  0.18170579920E+04  0.00000000000E+00 0. -1.
         23    2    1    2    0    0  0.74119289013E+03  0.30861784494E+03 -0.79761536812E+03  0.11353637810E+04  0.90822712950E+02 0.  0.
         13    1    3    3    0    0  0.17748652013E+03  0.73148654819E+02 -0.24789323510E+03  0.31353348551E+03  0.00000000000E+00 0. -1.
        -13    1    3    3    0    0  0.56370637000E+03  0.23546919013E+03 -0.54972213302E+03  0.82183029550E+03  0.00000000000E+00 0.  1.
         22    1    1    2    0    0 -0.74119289013E+03 -0.30861784494E+03 -0.66110338993E+03  0.10400334450E+04  0.00000000000E+00 0. -1.
<mgrwt>
<rscale>  0 0.16138441E+04</rscale>
<asrwt>0</asrwt>
<pdfrwt beam="1">  1        4 0.27954738E+00 0.16138441E+04</pdfrwt>
<pdfrwt beam="2">  1       -4 0.55129113E-01 0.16138441E+04</pdfrwt>
<totfact> 0.25017991E-01</totfact>
</mgrwt>
</event>
<event>
 6    1  0.9512547E-007  0.2433545E+04  0.7818608E-02  0.8427050E-01
         -1   -1    0    0    0  501 -0.00000000000E+00  0.00000000000E+00  0.86017659690E+03  0.86017659690E+03  0.00000000000E+00 0.  1.
          1   -1    0    0  501    0  0.00000000000E+00 -0.00000000000E+00 -0.17211998296E+04  0.17211998296E+04  0.00000000000E+00 0. -1.
         23    2    1    2    0    0 -0.70008537996E+03 -0.58308986814E+03 -0.12838178187E+04  0.15769519169E+04  0.92064232184E+02 0.  0.
         11    1    3    3    0    0 -0.55705953953E+03 -0.50939008981E+03 -0.10574709219E+04  0.12992452982E+04  0.00000000000E+00 0. -1.
        -11    1    3    3    0    0 -0.14302584042E+03 -0.73699778336E+02 -0.22634689677E+03  0.27770661863E+03  0.00000000000E+00 0.  1.
         22    1    1    2    0    0  0.70008537996E+03  0.58308986814E+03  0.42279458603E+03  0.10044245096E+04  0.00000000000E+00 0.  1.
<mgrwt>
<rscale>  0 0.24335454E+04</rscale>
<asrwt>0</asrwt>
<pdfrwt beam="1">  1        1 0.26479997E+00 0.24335454E+04</pdfrwt>
<pdfrwt beam="2">  1       -1 0.13233486E+00 0.24335454E+04</pdfrwt>
<totfact> 0.19965431E+00</totfact>
</mgrwt>
</event>
<event>
 6    1  0.9512547E-007  0.3189109E+04  0.7818608E-02  0.8191699E-01
          2   -1    0    0  501    0  0.00000000000E+00  0.00000000000E+00  0.29391973178E+04  0.29391973178E+04  0.00000000000E+00 0. -1.
         -2   -1    0    0    0  501 -0.00000000000E+00 -0.00000000000E+00 -0.86506750552E+03  0.86506750552E+03  0.00000000000E+00 0.  1.
         23    2    1    2    0    0 -0.11632723206E+04  0.41069398009E+03 -0.16499231099E+03  0.12477946162E+04  0.88864527919E+02 0.  0.
         13    1    3    3    0    0 -0.60004954604E+03  0.22518911304E+03 -0.42728790971E+02  0.64233584978E+03  0.00000000000E+00 0.  1.
        -13    1    3    3    0    0 -0.56322277456E+03  0.18550486705E+03 -0.12226352001E+03  0.60545876640E+03  0.00000000000E+00 0. -1.
         22    1    1    2    0    0  0.11632723206E+04 -0.41069398009E+03  0.22391221233E+04  0.25564702071E+04  0.00000000000E+00 0. -1.
<mgrwt>
<rscale>  0 0.31891090E+04</rscale>
<asrwt>0</asrwt>
<pdfrwt beam="1">  1        2 0.45218420E+00 0.31891090E+04</pdfrwt>
<pdfrwt beam="2">  1       -2 0.13308731E+00 0.31891090E+04</pdfrwt>
<totfact> 0.65479434E-01</totfact>
</mgrwt>
</event>
<event>
 6    1  0.9512547E-007  0.1471384E+04  0.7818608E-02  0.8903708E-01
         -2   -1    0    0    0  501 -0.00000000000E+00  0.00000000000E+00  0.26097158132E+03  0.26097158132E+03  0.00000000000E+00 0.  1.
          2   -1    0    0  501    0  0.00000000000E+00 -0.00000000000E+00 -0.20739532544E+04  0.20739532544E+04  0.00000000000E+00 0. -1.
         23    2    1    2    0    0 -0.41996163347E+03  0.59528741445E+03 -0.10373463059E+04  0.12708077828E+04  0.90167528554E+02 0.  0.
         11    1    3    3    0    0 -0.26095578685E+03  0.41796977537E+03 -0.75302446705E+03  0.89991249786E+03  0.00000000000E+00 0.  1.
        -11    1    3    3    0    0 -0.15900584662E+03  0.17731763908E+03 -0.28432183882E+03  0.37089528497E+03  0.00000000000E+00 0. -1.
         22    1    1    2    0    0  0.41996163347E+03 -0.59528741445E+03 -0.77563536722E+03  0.10641170529E+04  0.00000000000E+00 0.  1.
<mgrwt>
<rscale>  0 0.14713842E+04</rscale>
<asrwt>0</asrwt>
<pdfrwt beam="1">  1        2 0.31906973E+00 0.14713842E+04</pdfrwt>
<pdfrwt beam="2">  1       -2 0.40149475E-01 0.14713842E+04</pdfrwt>
<totfact> 0.34565042E+01</totfact>
</mgrwt>
</event>
<event>
 6    1  0.9512547E-007  0.3249448E+04  0.7818608E-02  0.8175879E-01
         -2   -1    0    0    0  501 -0.00000000000E+00  0.00000000000E+00  0.18005414623E+04  0.18005414623E+04  0.00000000000E+00 0.  1.
          2   -1    0    0  501    0  0.00000000000E+00 -0.00000000000E+00 -0.14660741745E+04  0.14660741745E+04  0.00000000000E+00 0. -1.
         23    2    1    2    0    0  0.41106857511E+03  0.66929223633E+03 -0.12609082220E+04  0.14883714218E+04  0.91817612603E+02 0.  0.
         13    1    3    3    0    0  0.25878695736E+03  0.42586716112E+03 -0.88084165144E+03  0.10120353468E+04  0.00000000000E+00 0. -1.
        -13    1    3    3    0    0  0.15228161775E+03  0.24342507521E+03 -0.38006657056E+03  0.47633607506E+03  0.00000000000E+00 0.  1.
         22    1    1    2    0    0 -0.41106857511E+03 -0.66929223633E+03  0.15953755098E+04  0.17782442150E+04  0.00000000000E+00 0.  1.
<mgrwt>
<rscale>  0 0.32494475E+04</rscale>
<asrwt>0</asrwt>
<pdfrwt beam="1">  1        2 0.22554987E+00 0.32494475E+04</pdfrwt>
<pdfrwt beam="2">  1       -2 0.27700638E+00 0.32494475E+04</pdfrwt>
<totfact> 0.48870630E-01</totfact>
</mgrwt>
</event>
<event>
 6    1  0.9512547E-007  0.1970937E+04  0.7818608E-02  0.8620330E-01
         -1   -1    0    0    0  501 -0.00000000000E+00  0.00000000000E+00  0.79916914742E+03  0.79916914742E+03  0.00000000000E+00 0.  1.
          1   -1    0    0  501    0  0.00000000000E+00 -0.00000000000E+00 -0.12151976239E+04  0.12151976239E+04  0.00000000000E+00 0. -1.
         23    2    1    2    0    0 -0.52073578753E+03  0.30363898670E+03 -0.10027104217E+04  0.11732020434E+04  0.87249356142E+02 0.  0.
         11    1    3    3    0    0 -0.14727060844E+03  0.11025544359E+03 -0.37396264064E+03  0.41676486362E+03  0.00000000000E+00 0. -1.
        -11    1    3    3    0    0 -0.37346517909E+03  0.19338354311E+03 -0.62874778102E+03  0.75643717973E+03  0.00000000000E+00 0.  1.
         22    1    1    2    0    0  0.52073578753E+03 -0.30363898670E+03  0.58668194522E+03  0.84116472793E+03  0.00000000000E+00 0.  1.
<mgrwt>
<rscale>  0 0.19709373E+04</rscale>
<asrwt>0</asrwt>
<pdfrwt beam="1">  1        1 0.18695348E+00 0.19709373E+04</pdfrwt>
<pdfrwt beam="2">  1       -1 0.12294910E+00 0.19709373E+04</pdfrwt>
<totfact> 0.56487431E+00</totfact>
</mgrwt>
</event>
<event>
 6    1  0.9512547E-007  0.8030511E+03  0.7818608E-02  0.9555611E-01
         -2   -1    0    0    0  501 -0.00000000000E+00  0.00000000000E+00  0.53055759901E+03  0.53055759901E+03  0.00000000000E+00 0.  1.
          2   -1    0    0  501    0  0.00000000000E+00 -0.00000000000E+00 -0.30387419032E+03  0.30387419032E+03  0.00000000000E+00 0. -1.
         23    2    1    2    0    0 -0.39155845199E+03  0.49547370947E+02  0.69519545158E+02  0.40961012875E+03  0.84702580369E+02 0.  0.
         13    1    3    3    0    0 -0.24506600838E+03  0.50827344463E+02  0.71371239292E+01  0.25038311834E+03  0.00000000000E+00 0.  1.
        -13    1    3    3    0    0 -0.14649244361E+03 -0.12799735161E+01  0.62382421229E+02  0.15922701041E+03  0.00000000000E+00 0. -1.
         22    1    1    2    0    0  0.39155845199E+03 -0.49547370947E+02  0.15716386353E+03  0.42482166058E+03  0.00000000000E+00 0. -1.
<mgrwt>
<rscale>  0 0.80305108E+03</rscale>
<asrwt>0</asrwt>
<pdfrwt beam="1">  1        2 0.46749875E-01 0.80305108E+03</pdfrwt>
<pdfrwt beam="2">  1       -2 0.81624246E-01 0.80305108E+03</pdfrwt>
<totfact> 0.14404077E+02</totfact>
</mgrwt>
</event>
<event>
 6    1  0.9512547E-007  0.1410003E+04  0.7818608E-02  0.8946609E-01
          2   -1    0    0  501    0  0.00000000000E+00  0.00000000000E+00  0.62412148206E+03  0.62412148206E+03  0.00000000000E+00 0. -1.
         -2   -1    0    0    0  501 -0.00000000000E+00 -0.00000000000E+00 -0.79636325780E+03  0.79636325780E+03  0.00000000000E+00 0.  1.
         23    2    1    2    0    0 -0.39706826686E+03  0.49863511489E+03 -0.38274628663E+03  0.74920809387E+03  0.92292262059E+02 0.  0.
         11    1    3    3    0    0 -0.13961587601E+03  0.11699484627E+03 -0.85488822071E+02  0.20121810452E+03  0.00000000000E+00 0. -1.
        -11    1    3    3    0    0 -0.25745239086E+03  0.38164026862E+03 -0.29725746456E+03  0.54798998935E+03  0.00000000000E+00 0.  1.
         22    1    1    2    0    0  0.39706826686E+03 -0.49863511489E+03  0.21050451090E+03  0.67127664599E+03  0.00000000000E+00 0.  1.
<mgrwt>
<rscale>  0 0.14100034E+04</rscale>
<asrwt>0</asrwt>
<pdfrwt beam="1">  1        2 0.96018689E-01 0.14100034E+04</pdfrwt>
<pdfrwt beam="2">  1       -2 0.12251742E+00 0.14100034E+04</pdfrwt>
<totfact> 0.23175545E+01</totfact>
</mgrwt>
</event>
<event>
 6    1  0.9512547E-007  0.3741279E+04  0.7818608E-02  0.8058875E-01
          2   -1    0    0  501    0  0.00000000000E+00  0.00000000000E+00  0.15808945045E+04  0.15808945045E+04  0.00000000000E+00 0. -1.
         -2   -1    0    0    0  501 -0.00000000000E+00 -0.00000000000E+00 -0.22134883708E+04  0.22134883708E+04  0.00000000000E+00 0.  1.
         23    2    1    2    0    0  0.14381441188E+04  0.46570040392E+03  0.79901137304E+03  0.17124057060E+04  0.93695010935E+02 0.  0.
         11    1    3    3    0    0  0.10188005332E+04  0.33923194501E+03  0.61392086504E+03  0.12369040656E+04  0.00000000000E+00 0.  1.
        -11    1    3    3    0    0  0.41934358554E+03  0.12646845890E+03  0.18509050799E+03  0.47550164035E+03  0.00000000000E+00 0. -1.
         22    1    1    2    0    0 -0.14381441188E+04 -0.46570040392E+03 -0.14316052394E+04  0.20819771694E+04  0.00000000000E+00 0.  1.
<mgrwt>
<rscale>  0 0.37412787E+04</rscale>
<asrwt>0</asrwt>
<pdfrwt beam="1">  1        2 0.24321454E+00 0.37412787E+04</pdfrwt>
<pdfrwt beam="2">  1       -2 0.34053667E+00 0.37412787E+04</pdfrwt>
<totfact> 0.16426145E-01</totfact>
</mgrwt>
</event>
<event>
 6    1  0.9512547E-007  0.2915338E+04  0.7818608E-02  0.8268328E-01
         -2   -1    0    0    0  501 -0.00000000000E+00  0.00000000000E+00  0.64073665849E+03  0.64073665849E+03  0.00000000000E+00 0.  1.
          2   -1    0    0  501    0  0.00000000000E+00 -0.00000000000E+00 -0.33161818357E+04  0.33161818357E+04  0.00000000000E+00 0. -1.
         23    2    1    2    0    0  0.85512861513E+03  0.11632924696E+04 -0.10812104216E+04  0.18060863821E+04  0.91857092818E+02 0.  0.
         13    1    3    3    0    0  0.44317957253E+03  0.55682791781E+03 -0.57870765601E+03  0.91726114857E+03  0.00000000000E+00 0.  1.
        -13    1    3    3    0    0  0.41194904261E+03  0.60646455183E+03 -0.50250276555E+03  0.88882523351E+03  0.00000000000E+00 0. -1.
         22    1    1    2    0    0 -0.85512861513E+03 -0.11632924696E+04 -0.15942347556E+04  0.21508321121E+04  0.00000000000E+00 0. -1.
<mgrwt>
<rscale>  0 0.29153382E+04</rscale>
<asrwt>0</asrwt>
<pdfrwt beam="1">  1        2 0.51018181E+00 0.29153382E+04</pdfrwt>
<pdfrwt beam="2">  1       -2 0.98574872E-01 0.29153382E+04</pdfrwt>
<totfact> 0.79978170E-01</totfact>
</mgrwt>
</event>
<event>
 6    1  0.9512547E-007  0.2392056E+04  0.7818608E-02  0.8442484E-01
         -2   -1    0    0    0  501 -0.00000000000E+00  0.00000000000E+00  0.13643307043E+04  0.13643307043E+04  0.00000000000E+00 0.  1.
          2   -1    0    0  501    0  0.00000000000E+00 -0.00000000000E+00 -0.10484872739E+04  0.10484872739E+04  0.00000000000E+00 0. -1.
         23    2    1    2    0    0 -0.47553436405E+03  0.98847696200E+03  0.63473014201E+03  0.12704921182E+04  0.89711946524E+02 0.  0.
         11    1    3    3    0    0 -0.91129552829E+02  0.23893486749E+03  0.11247055120E+03  0.27936372561E+03  0.00000000000E+00 0. -1.
        -11    1    3    3    0    0 -0.38440481122E+03  0.74954209451E+03  0.52225959080E+03  0.99112839255E+03  0.00000000000E+00 0.  1.
         22    1    1    2    0    0  0.47553436405E+03 -0.98847696200E+03 -0.31888671156E+03  0.11423258601E+04  0.00000000000E+00 0. -1.
<mgrwt>
<rscale>  0 0.23920563E+04</rscale>
<asrwt>0</asrwt>
<pdfrwt beam="1">  1        2 0.16130573E+00 0.23920563E+04</pdfrwt>
<pdfrwt beam="2">  1       -2 0.20989703E+00 0.23920563E+04</pdfrwt>
<totfact> 0.24205222E+00</totfact>
</mgrwt>
</event>
<event>
 6    1  0.9512547E-007  0.5870530E+03  0.7818608E-02  0.9932637E-01
         -1   -1    0    0    0  501 -0.00000000000E+00  0.00000000000E+00  0.68571396616E+03  0.68571396616E+03  0.00000000000E+00 0.  1.
          1   -1    0    0  501    0  0.00000000000E+00 -0.00000000000E+00 -0.12564686971E+03  0.12564686971E+03  0.00000000000E+00 0. -1.
         23    2    1    2    0    0  0.24257278684E+03 -0.90216766525E+02  0.45630537076E+03  0.53252913467E+03  0.91608220222E+02 0.  0.
         11    1    3    3    0    0  0.29738627020E+02 -0.13580874554E+00  0.12713579503E+02  0.32342533680E+02  0.00000000000E+00 0. -1.
        -11    1    3    3    0    0  0.21283415982E+03 -0.90080957779E+02  0.44359179126E+03  0.50018660099E+03  0.00000000000E+00 0.  1.
         22    1    1    2    0    0 -0.24257278684E+03  0.90216766525E+02  0.10376172569E+03  0.27883170120E+03  0.00000000000E+00 0. -1.
<mgrwt>
<rscale>  0 0.58705302E+03</rscale>
<asrwt>0</asrwt>
<pdfrwt beam="1">  1        1 0.19330288E-01 0.58705302E+03</pdfrwt>
<pdfrwt beam="2">  1       -1 0.10549445E+00 0.58705302E+03</pdfrwt>
<totfact> 0.23535552E+02</totfact>
</mgrwt>
</event>
<event>
 6    1  0.9512547E-007  0.2231445E+04  0.7818608E-02  0.8505453E-01
          3   -1    0    0  501    0  0.00000000000E+00  0.00000000000E+00  0.12555835637E+04  0.12555835637E+04  0.00000000000E+00 0. -1.
         -3   -1    0    0    0  501 -0.00000000000E+00 -0.00000000000E+00 -0.99144039132E+03  0.99144039132E+03  0.00000000000E+00 0.  1.
         23    2    1    2    0    0 -0.82053603646E+01 -0.38236751990E+03  0.11856526410E+04  0.12493005721E+04  0.93313912694E+02 0.  0.
         13    1    3    3    0    0 -0.41785266749E+02 -0.20336254422E+03  0.71874514337E+03  0.74812894212E+03  0.00000000000E+00 0.  1.
        -13    1    3    3    0    0  0.33579906384E+02 -0.17900497568E+03  0.46690749760E+03  0.50117163003E+03  0.00000000000E+00 0. -1.
         22    1    1    2    0    0  0.82053603646E+01  0.38236751990E+03 -0.92150946855E+03  0.99772338293E+03  0.00000000000E+00 0.  1.
<mgrwt>
<rscale>  0 0.22314446E+04</rscale>
<asrwt>0</asrwt>
<pdfrwt beam="1">  1        3 0.19316670E+00 0.22314446E+04</pdfrwt>
<pdfrwt beam="2">  1       -3 0.15252929E+00 0.22314446E+04</pdfrwt>
<totfact> 0.11960227E-01</totfact>
</mgrwt>
</event>
<event>
 6    1  0.9512547E-007  0.4337693E+04  0.7818608E-02  0.7939685E-01
          2   -1    0    0  501    0  0.00000000000E+00  0.00000000000E+00  0.22420368045E+04  0.22420368045E+04  0.00000000000E+00 0. -1.
         -2   -1    0    0    0  501 -0.00000000000E+00 -0.00000000000E+00 -0.20980454898E+04  0.20980454898E+04  0.00000000000E+00 0.  1.
         23    2    1    2    0    0 -0.44187986837E+03 -0.39993457963E+02  0.21952142650E+04  0.22414225108E+04  0.90287916077E+02 0.  0.
         13    1    3    3    0    0 -0.25625240383E+02 -0.13031220241E+02  0.70253102629E+02  0.75907602219E+02  0.00000000000E+00 0.  1.
        -13    1    3    3    0    0 -0.41625462799E+03 -0.26962237722E+02  0.21249611624E+04  0.21655149086E+04  0.00000000000E+00 0. -1.
         22    1    1    2    0    0  0.44187986837E+03  0.39993457963E+02 -0.20512229503E+04  0.20986597835E+04  0.00000000000E+00 0.  1.
<mgrwt>
<rscale>  0 0.43376930E+04</rscale>
<asrwt>0</asrwt>
<pdfrwt beam="1">  1        2 0.34492874E+00 0.43376930E+04</pdfrwt>
<pdfrwt beam="2">  1       -2 0.32277623E+00 0.43376930E+04</pdfrwt>
<totfact> 0.86392877E-02</totfact>
</mgrwt>
</event>
<event>
 6    1  0.9512547E-007  0.3299455E+04  0.7818608E-02  0.8163034E-01
          1   -1    0    0  501    0  0.00000000000E+00  0.00000000000E+00  0.22478832659E+04  0.22478832659E+04  0.00000000000E+00 0. -1.
         -1   -1    0    0    0  501 -0.00000000000E+00 -0.00000000000E+00 -0.12107395724E+04  0.12107395724E+04  0.00000000000E+00 0.  1.
         23    2    1    2    0    0 -0.76936127138E+03  0.11812338570E+04 -0.37735687184E+03  0.14616145659E+04  0.81784715878E+02 0.  0.
         11    1    3    3    0    0 -0.15175041877E+03  0.28247495267E+03 -0.64049038443E+02  0.32699016469E+03  0.00000000000E+00 0.  1.
        -11    1    3    3    0    0 -0.61761085262E+03  0.89875890431E+03 -0.31330783340E+03  0.11346244012E+04  0.00000000000E+00 0. -1.
         22    1    1    2    0    0  0.76936127138E+03 -0.11812338570E+04  0.14145005653E+04  0.19970082724E+04  0.00000000000E+00 0. -1.
<mgrwt>
<rscale>  0 0.32994552E+04</rscale>
<asrwt>0</asrwt>
<pdfrwt beam="1">  1        1 0.34582819E+00 0.32994552E+04</pdfrwt>
<pdfrwt beam="2">  1       -1 0.18626763E+00 0.32994552E+04</pdfrwt>
<totfact> 0.31470191E-01</totfact>
</mgrwt>
</event>
<event>
 6    1  0.9512547E-007  0.7944182E+03  0.7818608E-02  0.9568132E-01
          2   -1    0    0  501    0  0.00000000000E+00  0.00000000000E+00  0.19664923452E+03  0.19664923452E+03  0.00000000000E+00 0. -1.
         -2   -1    0    0    0  501 -0.00000000000E+00 -0.00000000000E+00 -0.80231720758E+03  0.80231720758E+03  0.00000000000E+00 0.  1.
         23    2    1    2    0    0 -0.33828127744E+03 -0.27632599560E+02 -0.52667687492E+02  0.35011584368E+03  0.67892823384E+02 0.  0.
         13    1    3    3    0    0 -0.18294664633E+03  0.11422351185E+01 -0.58368811538E+02  0.19203566925E+03  0.00000000000E+00 0. -1.
        -13    1    3    3    0    0 -0.15533463111E+03 -0.28774834679E+02  0.57011240456E+01  0.15808017443E+03  0.00000000000E+00 0.  1.
         22    1    1    2    0    0  0.33828127744E+03  0.27632599560E+02 -0.55300028557E+03  0.64885059842E+03  0.00000000000E+00 0.  1.
<mgrwt>
<rscale>  0 0.79441819E+03</rscale>
<asrwt>0</asrwt>
<pdfrwt beam="1">  1        2 0.30253728E-01 0.79441819E+03</pdfrwt>
<pdfrwt beam="2">  1       -2 0.12343342E+00 0.79441819E+03</pdfrwt>
<totfact> 0.87899499E+01</totfact>
</mgrwt>
</event>
<event>
 6    1  0.9512547E-007  0.6313843E+03  0.7818608E-02  0.9842351E-01
          3   -1    0    0  501    0  0.00000000000E+00  0.00000000000E+00  0.98401308969E+02  0.98401308969E+02  0.00000000000E+00 0. -1.
         -3   -1    0    0    0  501 -0.00000000000E+00 -0.00000000000E+00 -0.10128070710E+04  0.10128070710E+04  0.00000000000E+00 0.  1.
         23    2    1    2    0    0 -0.89202656274E+02  0.29127763367E+03 -0.38143084112E+03  0.49731747754E+03  0.95054790231E+02 0.  0.
         11    1    3    3    0    0  0.12768942109E+02  0.20433961599E+02 -0.91367543017E+01  0.25769612888E+02  0.00000000000E+00 0. -1.
        -11    1    3    3    0    0 -0.10197159838E+03  0.27084367207E+03 -0.37229408682E+03  0.47154786465E+03  0.00000000000E+00 0.  1.
         22    1    1    2    0    0  0.89202656274E+02 -0.29127763367E+03 -0.53297492087E+03  0.61389090239E+03  0.00000000000E+00 0.  1.
<mgrwt>
<rscale>  0 0.63138433E+03</rscale>
<asrwt>0</asrwt>
<pdfrwt beam="1">  1        3 0.15138664E-01 0.63138433E+03</pdfrwt>
<pdfrwt beam="2">  1       -3 0.15581646E+00 0.63138433E+03</pdfrwt>
<totfact> 0.29086860E+01</totfact>
</mgrwt>
</event>
<event>
 6    1  0.9512547E-007  0.3452598E+04  0.7818608E-02  0.8125116E-01
          2   -1    0    0  501    0  0.00000000000E+00  0.00000000000E+00  0.43402055100E+04  0.43402055100E+04  0.00000000000E+00 0. -1.
         -2   -1    0    0    0  501 -0.00000000000E+00 -0.00000000000E+00 -0.68662839752E+03  0.68662839752E+03  0.00000000000E+00 0.  1.
         23    2    1    2    0    0 -0.78567133826E+03 -0.11231780658E+04  0.33530227752E+04  0.36235729449E+04  0.93331330533E+02 0.  0.
         13    1    3    3    0    0 -0.97286756078E+02 -0.14744138547E+03  0.51942491838E+03  0.54864006497E+03  0.00000000000E+00 0. -1.
        -13    1    3    3    0    0 -0.68838458218E+03 -0.97573668035E+03  0.28335978568E+04  0.30749328800E+04  0.00000000000E+00 0.  1.
         22    1    1    2    0    0  0.78567133826E+03  0.11231780658E+04  0.30055433727E+03  0.14032609625E+04  0.00000000000E+00 0. -1.
<mgrwt>
<rscale>  0 0.34525981E+04</rscale>
<asrwt>0</asrwt>
<pdfrwt beam="1">  1        2 0.66772391E+00 0.34525981E+04</pdfrwt>
<pdfrwt beam="2">  1       -2 0.10563514E+00 0.34525981E+04</pdfrwt>
<totfact> 0.10382072E-01</totfact>
</mgrwt>
</event>
<event>
 6    1  0.9512547E-007  0.3867939E+04  0.7818608E-02  0.8031730E-01
          2   -1    0    0  501    0  0.00000000000E+00  0.00000000000E+00  0.15834193314E+04  0.15834193314E+04  0.00000000000E+00 0. -1.
         -2   -1    0    0    0  501 -0.00000000000E+00 -0.00000000000E+00 -0.23621277871E+04  0.23621277871E+04  0.00000000000E+00 0.  1.
         23    2    1    2    0    0  0.25944596537E+03  0.19032583936E+04 -0.16969694734E+03  0.19304541333E+04  0.90285022416E+02 0.  0.
         11    1    3    3    0    0  0.99432238743E+02  0.10500966263E+04 -0.10507507854E+03  0.10600143711E+04  0.00000000000E+00 0. -1.
        -11    1    3    3    0    0  0.16001372663E+03  0.85316176722E+03 -0.64621868806E+02  0.87043976224E+03  0.00000000000E+00 0.  1.
         22    1    1    2    0    0 -0.25944596537E+03 -0.19032583936E+04 -0.60901150844E+03  0.20150929852E+04  0.00000000000E+00 0.  1.
<mgrwt>
<rscale>  0 0.38679394E+04</rscale>
<asrwt>0</asrwt>
<pdfrwt beam="1">  1        2 0.24360298E+00 0.38679394E+04</pdfrwt>
<pdfrwt beam="2">  1       -2 0.36340427E+00 0.38679394E+04</pdfrwt>
<totfact> 0.11616848E-01</totfact>
</mgrwt>
</event>
<event>
 6    1  0.9512547E-007  0.8539133E+03  0.7818608E-02  0.9485100E-01
          1   -1    0    0  501    0  0.00000000000E+00  0.00000000000E+00  0.74808282292E+03  0.74808282292E+03  0.00000000000E+00 0. -1.
         -1   -1    0    0    0  501 -0.00000000000E+00 -0.00000000000E+00 -0.24367890110E+03  0.24367890110E+03  0.00000000000E+00 0.  1.
         23    2    1    2    0    0  0.34733216816E+03  0.10316489098E+03 -0.98274688099E+00  0.36991100667E+03  0.74502062356E+02 0.  0.
         13    1    3    3    0    0  0.29884713601E+03  0.59817571894E+02  0.24315888790E+01  0.30478462106E+03  0.00000000000E+00 0.  1.
        -13    1    3    3    0    0  0.48485032156E+02  0.43347319086E+02 -0.34143357600E+01  0.65126385619E+02  0.00000000000E+00 0. -1.
         22    1    1    2    0    0 -0.34733216816E+03 -0.10316489098E+03  0.50538666870E+03  0.62185071735E+03  0.00000000000E+00 0. -1.
<mgrwt>
<rscale>  0 0.85391335E+03</rscale>
<asrwt>0</asrwt>
<pdfrwt beam="1">  1        1 0.11508966E+00 0.85391335E+03</pdfrwt>
<pdfrwt beam="2">  1       -1 0.37489062E-01 0.85391335E+03</pdfrwt>
<totfact> 0.17000178E+02</totfact>
</mgrwt>
</event>
<event>
 6    1  0.9512547E-007  0.2141022E+04  0.7818608E-02  0.8543385E-01
          2   -1    0    0  501    0  0.00000000000E+00  0.00000000000E+00  0.21318262970E+04  0.21318262970E+04  0.00000000000E+00 0. -1.
         -2   -1    0    0    0  501 -0.00000000000E+00 -0.00000000000E+00 -0.53756424389E+03  0.53756424389E+03  0.00000000000E+00 0.  1.
         23    2    1    2    0    0 -0.63438652769E+03 -0.60493913201E+03  0.36612622869E+02  0.88202673699E+03  0.90736214746E+02 0.  0.
         11    1    3    3    0    0 -0.14058557613E+03 -0.18001943553E+03  0.31324749196E+02  0.23054834915E+03  0.00000000000E+00 0. -1.
        -11    1    3    3    0    0 -0.49380095155E+03 -0.42491969648E+03  0.52878736730E+01  0.65147838784E+03  0.00000000000E+00 0.  1.
         22    1    1    2    0    0  0.63438652769E+03  0.60493913201E+03  0.15576494303E+04  0.17873638039E+04  0.00000000000E+00 0.  1.
<mgrwt>
<rscale>  0 0.21410218E+04</rscale>
<asrwt>0</asrwt>
<pdfrwt beam="1">  1        2 0.32797327E+00 0.21410218E+04</pdfrwt>
<pdfrwt beam="2">  1       -2 0.82702192E-01 0.21410218E+04</pdfrwt>
<totfact> 0.66417579E+00</totfact>
</mgrwt>
</event>
<event>
 6    1  0.9512547E-007  0.2227181E+04  0.7818608E-02  0.8507199E-01
          3   -1    0    0  501    0  0.00000000000E+00  0.00000000000E+00  0.11899440524E+04  0.11899440524E+04  0.00000000000E+00 0. -1.
         -3   -1    0    0    0  501 -0.00000000000E+00 -0.00000000000E+00 -0.10421364853E+04  0.10421364853E+04  0.00000000000E+00 0.  1.
         23    2    1    2    0    0 -0.62266093689E+03 -0.79366121178E+03 -0.39316050664E+03  0.10874184835E+04  0.10148405214E+03 0.  0.
         13    1    3    3    0    0 -0.54591079401E+03 -0.74258384981E+03 -0.35860826251E+03  0.98896372783E+03  0.00000000000E+00 0.  1.
        -13    1    3    3    0    0 -0.76750142882E+02 -0.51077361968E+02 -0.34552244129E+02  0.98454755661E+02  0.00000000000E+00 0. -1.
         22    1    1    2    0    0  0.62266093689E+03  0.79366121178E+03  0.54096807378E+03  0.11446620542E+04  0.00000000000E+00 0.  1.
<mgrwt>
<rscale>  0 0.22271813E+04</rscale>
<asrwt>0</asrwt>
<pdfrwt beam="1">  1        3 0.18306832E+00 0.22271813E+04</pdfrwt>
<pdfrwt beam="2">  1       -3 0.16032869E+00 0.22271813E+04</pdfrwt>
<totfact> 0.12206622E-01</totfact>
</mgrwt>
</event>
<event>
 6    1  0.9512547E-007  0.5431449E+04  0.7818608E-02  0.7765193E-01
          2   -1    0    0  501    0  0.00000000000E+00  0.00000000000E+00  0.35466685418E+04  0.35466685418E+04  0.00000000000E+00 0. -1.
         -2   -1    0    0    0  501 -0.00000000000E+00 -0.00000000000E+00 -0.20794614876E+04  0.20794614876E+04  0.00000000000E+00 0.  1.
         23    2    1    2    0    0 -0.64852531635E+03  0.24835597278E+04  0.16498376025E+04  0.30528037918E+04  0.94830740435E+02 0.  0.
         11    1    3    3    0    0 -0.38590592815E+03  0.14001900629E+04  0.88253125957E+03  0.16995049343E+04  0.00000000000E+00 0.  1.
        -11    1    3    3    0    0 -0.26261938820E+03  0.10833696649E+04  0.76730634292E+03  0.13532988575E+04  0.00000000000E+00 0. -1.
         22    1    1    2    0    0  0.64852531635E+03 -0.24835597278E+04 -0.18263054828E+03  0.25733262375E+04  0.00000000000E+00 0.  1.
<mgrwt>
<rscale>  0 0.54314494E+04</rscale>
<asrwt>0</asrwt>
<pdfrwt beam="1">  1        2 0.54564131E+00 0.54314494E+04</pdfrwt>
<pdfrwt beam="2">  1       -2 0.31991715E+00 0.54314494E+04</pdfrwt>
<totfact> 0.12683504E-02</totfact>
</mgrwt>
</event>
<event>
 6    1  0.9512547E-007  0.2931942E+04  0.7818608E-02  0.8263437E-01
          2   -1    0    0  501    0  0.00000000000E+00  0.00000000000E+00  0.37638765008E+03  0.37638765008E+03  0.00000000000E+00 0. -1.
         -2   -1    0    0    0  501 -0.00000000000E+00 -0.00000000000E+00 -0.57097274035E+04  0.57097274035E+04  0.00000000000E+00 0.  1.
         23    2    1    2    0    0  0.70609082701E+03 -0.12626156142E+04 -0.31425763476E+04  0.34608137860E+04  0.93185382263E+02 0.  0.
         13    1    3    3    0    0  0.23417183882E+03 -0.49657884781E+03 -0.11328974625E+04  0.12589216269E+04  0.00000000000E+00 0.  1.
        -13    1    3    3    0    0  0.47191898819E+03 -0.76603676643E+03 -0.20096788852E+04  0.22018921591E+04  0.00000000000E+00 0. -1.
         22    1    1    2    0    0 -0.70609082701E+03  0.12626156142E+04 -0.21907634058E+04  0.26253012675E+04  0.00000000000E+00 0. -1.
<mgrwt>
<rscale>  0 0.29319419E+04</rscale>
<asrwt>0</asrwt>
<pdfrwt beam="1">  1        2 0.57905796E-01 0.29319419E+04</pdfrwt>
<pdfrwt beam="2">  1       -2 0.87841954E+00 0.29319419E+04</pdfrwt>
<totfact> 0.12470146E-03</totfact>
</mgrwt>
</event>
<event>
 6    1  0.9512547E-007  0.1080907E+04  0.7818608E-02  0.9224004E-01
          2   -1    0    0  501    0  0.00000000000E+00  0.00000000000E+00  0.92694265476E+03  0.92694265476E+03  0.00000000000E+00 0. -1.
         -2   -1    0    0    0  501 -0.00000000000E+00 -0.00000000000E+00 -0.31511113550E+03  0.31511113550E+03  0.00000000000E+00 0.  1.
         23    2    1    2    0    0 -0.15882442516E+03  0.80943912808E+02  0.88961533345E+03  0.91199173173E+03  0.92392435848E+02 0.  0.
         11    1    3    3    0    0 -0.11835372943E+03  0.10066542295E+03  0.71247694371E+03  0.72922186471E+03  0.00000000000E+00 0.  1.
        -11    1    3    3    0    0 -0.40470695735E+02 -0.19721510141E+02  0.17713838973E+03  0.18276986703E+03  0.00000000000E+00 0. -1.
         22    1    1    2    0    0  0.15882442516E+03 -0.80943912808E+02 -0.27778381419E+03  0.33006205852E+03  0.00000000000E+00 0.  1.
<mgrwt>
<rscale>  0 0.10809069E+04</rscale>
<asrwt>0</asrwt>
<pdfrwt beam="1">  1        2 0.14260656E+00 0.10809069E+04</pdfrwt>
<pdfrwt beam="2">  1       -2 0.48478637E-01 0.10809069E+04</pdfrwt>
<totfact> 0.11263210E+02</totfact>
</mgrwt>
</event>
<event>
 6    1  0.9512547E-007  0.6936446E+03  0.7818608E-02  0.9728163E-01
          2   -1    0    0  501    0  0.00000000000E+00  0.00000000000E+00  0.59616922980E+03  0.59616922980E+03  0.00000000000E+00 0. -1.
         -2   -1    0    0    0  501 -0.00000000000E+00 -0.00000000000E+00 -0.20176436419E+03  0.20176436419E+03  0.00000000000E+00 0.  1.
         23    2    1    2    0    0 -0.17003930517E+03  0.27264605478E+03  0.90378743121E+02  0.35557500681E+03  0.12253991910E+03 0.  0.
         11    1    3    3    0    0 -0.42900592150E+02  0.18373602721E+03  0.53327319069E+02  0.19606935370E+03  0.00000000000E+00 0. -1.
        -11    1    3    3    0    0 -0.12713871302E+03  0.88910027576E+02  0.37051424052E+02  0.15950565312E+03  0.00000000000E+00 0.  1.
         22    1    1    2    0    0  0.17003930517E+03 -0.27264605478E+03  0.30402612249E+03  0.44235858717E+03  0.00000000000E+00 0. -1.
<mgrwt>
<rscale>  0 0.69364459E+03</rscale>
<asrwt>0</asrwt>
<pdfrwt beam="1">  1        2 0.91718342E-01 0.69364459E+03</pdfrwt>
<pdfrwt beam="2">  1       -2 0.31040672E-01 0.69364459E+03</pdfrwt>
<totfact> 0.48383283E+02</totfact>
</mgrwt>
</event>
<event>
 6    1  0.9512547E-007  0.1950835E+04  0.7818608E-02  0.8629958E-01
         -2   -1    0    0    0  501 -0.00000000000E+00  0.00000000000E+00  0.50922916089E+03  0.50922916089E+03  0.00000000000E+00 0.  1.
          2   -1    0    0  501    0  0.00000000000E+00 -0.00000000000E+00 -0.18683912980E+04  0.18683912980E+04  0.00000000000E+00 0. -1.
         23    2    1    2    0    0  0.36105047245E+02 -0.78316687606E+03  0.21842202574E+02  0.78959435192E+03  0.91259128728E+02 0.  0.
         11    1    3    3    0    0  0.31661671306E+02 -0.51798707177E+03  0.56926781572E+02  0.52206678348E+03  0.00000000000E+00 0.  1.
        -11    1    3    3    0    0  0.44433759399E+01 -0.26517980429E+03 -0.35084578998E+02  0.26752756844E+03  0.00000000000E+00 0. -1.
         22    1    1    2    0    0 -0.36105047245E+02  0.78316687606E+03 -0.13810043397E+04  0.15880261070E+04  0.00000000000E+00 0. -1.
<mgrwt>
<rscale>  0 0.19508350E+04</rscale>
<asrwt>0</asrwt>
<pdfrwt beam="1">  1        2 0.28744482E+00 0.19508350E+04</pdfrwt>
<pdfrwt beam="2">  1       -2 0.78342947E-01 0.19508350E+04</pdfrwt>
<totfact> 0.10683952E+01</totfact>
</mgrwt>
</event>
<event>
 6    1  0.9512547E-007  0.1313044E+04  0.7818608E-02  0.9019285E-01
          2   -1    0    0  501    0  0.00000000000E+00  0.00000000000E+00  0.12248083415E+04  0.12248083415E+04  0.00000000000E+00 0. -1.
         -2   -1    0    0    0  501 -0.00000000000E+00 -0.00000000000E+00 -0.35190888678E+03  0.35190888678E+03  0.00000000000E+00 0.  1.
         23    2    1    2    0    0  0.38207714200E+03  0.65739819741E+02  0.10713198584E+04  0.11411999232E+04  0.65622856833E+02 0.  0.
         11    1    3    3    0    0  0.13877305552E+03  0.10337177490E+02  0.46979180632E+03  0.48996852905E+03  0.00000000000E+00 0. -1.
        -11    1    3    3    0    0  0.24330408648E+03  0.55402642251E+02  0.60152805213E+03  0.65123139418E+03  0.00000000000E+00 0.  1.
         22    1    1    2    0    0 -0.38207714200E+03 -0.65739819741E+02 -0.19842040377E+03  0.43551730502E+03  0.00000000000E+00 0.  1.
<mgrwt>
<rscale>  0 0.13130437E+04</rscale>
<asrwt>0</asrwt>
<pdfrwt beam="1">  1        2 0.18843205E+00 0.13130437E+04</pdfrwt>
<pdfrwt beam="2">  1       -2 0.54139829E-01 0.13130437E+04</pdfrwt>
<totfact> 0.57583477E+01</totfact>
</mgrwt>
</event>
<event>
 6    1  0.9512547E-007  0.1333332E+04  0.7818608E-02  0.9003542E-01
          2   -1    0    0  501    0  0.00000000000E+00  0.00000000000E+00  0.24435248031E+04  0.24435248031E+04  0.00000000000E+00 0. -1.
         -2   -1    0    0    0  501 -0.00000000000E+00 -0.00000000000E+00 -0.18188630951E+03  0.18188630951E+03  0.00000000000E+00 0.  1.
         23    2    1    2    0    0  0.96181853880E+02  0.46993888132E+03  0.23398064321E+03  0.54178689999E+03  0.93234126899E+02 0.  0.
         13    1    3    3    0    0  0.64283642449E+02  0.25661211280E+03  0.78668980160E+02  0.27599089036E+03  0.00000000000E+00 0. -1.
        -13    1    3    3    0    0  0.31898211431E+02  0.21332676852E+03  0.15531166305E+03  0.26579600963E+03  0.00000000000E+00 0.  1.
         22    1    1    2    0    0 -0.96181853880E+02 -0.46993888132E+03  0.20276578504E+04  0.20836242126E+04  0.00000000000E+00 0. -1.
<mgrwt>
<rscale>  0 0.13333322E+04</rscale>
<asrwt>0</asrwt>
<pdfrwt beam="1">  1        2 0.37592687E+00 0.13333322E+04</pdfrwt>
<pdfrwt beam="2">  1       -2 0.27982511E-01 0.13333322E+04</pdfrwt>
<totfact> 0.42996308E+01</totfact>
</mgrwt>
</event>
<event>
 6    1  0.9512547E-007  0.1655771E+04  0.7818608E-02  0.8786999E-01
         -1   -1    0    0    0  501 -0.00000000000E+00  0.00000000000E+00  0.17432472734E+04  0.17432472734E+04  0.00000000000E+00 0.  1.
          1   -1    0    0  501    0  0.00000000000E+00 -0.00000000000E+00 -0.39317130598E+03  0.39317130598E+03  0.00000000000E+00 0. -1.
         23    2    1    2    0    0 -0.27302903501E+03 -0.51901601189E+03 -0.72295318896E+02  0.59789248253E+03  0.91248742325E+02 0.  0.
         13    1    3    3    0    0 -0.21316516393E+03 -0.40691940895E+03 -0.18071405649E+02  0.45972749341E+03  0.00000000000E+00 0.  1.
        -13    1    3    3    0    0 -0.59863871078E+02 -0.11209660294E+03 -0.54223913248E+02  0.13816498913E+03  0.00000000000E+00 0. -1.
         22    1    1    2    0    0  0.27302903501E+03  0.51901601189E+03  0.14223712863E+04  0.15385260968E+04  0.00000000000E+00 0.  1.
<mgrwt>
<rscale>  0 0.16557715E+04</rscale>
<asrwt>0</asrwt>
<pdfrwt beam="1">  1        1 0.60487894E-01 0.16557715E+04</pdfrwt>
<pdfrwt beam="2">  1       -1 0.26819188E+00 0.16557715E+04</pdfrwt>
<totfact> 0.31148445E+00</totfact>
</mgrwt>
</event>
<event>
 6    1  0.9512547E-007  0.3102073E+04  0.7818608E-02  0.8215169E-01
          1   -1    0    0  501    0  0.00000000000E+00  0.00000000000E+00  0.14282972270E+04  0.14282972270E+04  0.00000000000E+00 0. -1.
         -1   -1    0    0    0  501 -0.00000000000E+00 -0.00000000000E+00 -0.16843228538E+04  0.16843228538E+04  0.00000000000E+00 0.  1.
         23    2    1    2    0    0  0.91908862788E+03  0.32148379997E+03  0.10815969897E+04  0.14581382876E+04  0.90771570719E+02 0.  0.
         11    1    3    3    0    0  0.45856920964E+03  0.19757639978E+03  0.51028752282E+03  0.71394363204E+03  0.00000000000E+00 0.  1.
        -11    1    3    3    0    0  0.46051941824E+03  0.12390740018E+03  0.57130946690E+03  0.74419465556E+03  0.00000000000E+00 0. -1.
         22    1    1    2    0    0 -0.91908862788E+03 -0.32148379997E+03 -0.13376226165E+04  0.16544817931E+04  0.00000000000E+00 0.  1.
<mgrwt>
<rscale>  0 0.31020726E+04</rscale>
<asrwt>0</asrwt>
<pdfrwt beam="1">  1        1 0.21973803E+00 0.31020726E+04</pdfrwt>
<pdfrwt beam="2">  1       -1 0.25912659E+00 0.31020726E+04</pdfrwt>
<totfact> 0.37641845E-01</totfact>
</mgrwt>
</event>
<event>
 6    1  0.9512547E-007  0.2827230E+04  0.7818608E-02  0.8294864E-01
          2   -1    0    0  501    0  0.00000000000E+00  0.00000000000E+00  0.20887356356E+04  0.20887356356E+04  0.00000000000E+00 0. -1.
         -2   -1    0    0    0  501 -0.00000000000E+00 -0.00000000000E+00 -0.95670686826E+03  0.95670686826E+03  0.00000000000E+00 0.  1.
         23    2    1    2    0    0 -0.11537077455E+04  0.85090867639E+02 -0.30575896270E+03  0.12000385984E+04  0.91225416916E+02 0.  0.
         11    1    3    3    0    0 -0.57634234614E+03  0.17081633438E+01 -0.13064119770E+03  0.59096576916E+03  0.00000000000E+00 0.  1.
        -11    1    3    3    0    0 -0.57736539931E+03  0.83382704295E+02 -0.17511776500E+03  0.60907282923E+03  0.00000000000E+00 0. -1.
         22    1    1    2    0    0  0.11537077455E+04 -0.85090867639E+02  0.14377877300E+04  0.18454039055E+04  0.00000000000E+00 0. -1.
<mgrwt>
<rscale>  0 0.28272303E+04</rscale>
<asrwt>0</asrwt>
<pdfrwt beam="1">  1        2 0.32134394E+00 0.28272303E+04</pdfrwt>
<pdfrwt beam="2">  1       -2 0.14718567E+00 0.28272303E+04</pdfrwt>
<totfact> 0.16305953E+00</totfact>
</mgrwt>
</event>
<event>
 6    1  0.9512547E-007  0.2499449E+04  0.7818608E-02  0.8403182E-01
          1   -1    0    0  501    0  0.00000000000E+00  0.00000000000E+00  0.10408058496E+04  0.10408058496E+04  0.00000000000E+00 0. -1.
         -1   -1    0    0    0  501 -0.00000000000E+00 -0.00000000000E+00 -0.15005791795E+04  0.15005791795E+04  0.00000000000E+00 0.  1.
         23    2    1    2    0    0  0.91675152127E+03 -0.54378097457E+03  0.43001770741E+03  0.11529113382E+04  0.90322893512E+02 0.  0.
         11    1    3    3    0    0  0.78178091359E+03 -0.44027788283E+03  0.33256432890E+03  0.95688298335E+03  0.00000000000E+00 0. -1.
        -11    1    3    3    0    0  0.13497060768E+03 -0.10350309175E+03  0.97453378509E+02  0.19602835489E+03  0.00000000000E+00 0.  1.
         22    1    1    2    0    0 -0.91675152127E+03  0.54378097457E+03 -0.88979103736E+03  0.13884736909E+04  0.00000000000E+00 0.  1.
<mgrwt>
<rscale>  0 0.24994492E+04</rscale>
<asrwt>0</asrwt>
<pdfrwt beam="1">  1        1 0.16012398E+00 0.24994492E+04</pdfrwt>
<pdfrwt beam="2">  1       -1 0.23085834E+00 0.24994492E+04</pdfrwt>
<totfact> 0.11642258E+00</totfact>
</mgrwt>
</event>
<event>
 6    1  0.9512547E-007  0.1006251E+04  0.7818608E-02  0.9301715E-01
          2   -1    0    0  501    0  0.00000000000E+00  0.00000000000E+00  0.73526081174E+03  0.73526081174E+03  0.00000000000E+00 0. -1.
         -2   -1    0    0    0  501 -0.00000000000E+00 -0.00000000000E+00 -0.34427989153E+03  0.34427989153E+03  0.00000000000E+00 0.  1.
         23    2    1    2    0    0 -0.33797560154E+03 -0.31325964321E+03 -0.87605404087E+01  0.46949779769E+03  0.89399796788E+02 0.  0.
         13    1    3    3    0    0 -0.47530156786E+02 -0.16571611224E+02 -0.19980337957E+02  0.54156698639E+02  0.00000000000E+00 0.  1.
        -13    1    3    3    0    0 -0.29044544476E+03 -0.29668803199E+03  0.11219797549E+02  0.41534109905E+03  0.00000000000E+00 0. -1.
         22    1    1    2    0    0  0.33797560154E+03  0.31325964321E+03  0.39974146063E+03  0.61004290558E+03  0.00000000000E+00 0. -1.
<mgrwt>
<rscale>  0 0.10062515E+04</rscale>
<asrwt>0</asrwt>
<pdfrwt beam="1">  1        2 0.11311705E+00 0.10062515E+04</pdfrwt>
<pdfrwt beam="2">  1       -2 0.52966137E-01 0.10062515E+04</pdfrwt>
<totfact> 0.12912233E+02</totfact>
</mgrwt>
</event>
<event>
 6    1  0.1091470E-006  0.2447033E+04  0.7818608E-02  0.8422102E-01
          2   -1    0    0  501    0  0.00000000000E+00  0.00000000000E+00  0.17219352669E+04  0.17219352669E+04  0.00000000000E+00 0. -1.
         -2   -1    0    0    0  501 -0.00000000000E+00 -0.00000000000E+00 -0.86936611038E+03  0.86936611038E+03  0.00000000000E+00 0.  1.
         23    2    1    2    0    0 -0.85535505868E+03  0.83766583238E+03  0.16912335984E+03  0.12127461625E+04  0.93990535025E+02 0.  0.
         11    1    3    3    0    0 -0.27904656676E+03  0.23890011276E+03  0.15911724616E+02  0.36768659654E+03  0.00000000000E+00 0. -1.
        -11    1    3    3    0    0 -0.57630849192E+03  0.59876571963E+03  0.15321163522E+03  0.84505956596E+03  0.00000000000E+00 0.  1.
         22    1    1    2    0    0  0.85535505868E+03 -0.83766583238E+03  0.68344579666E+03  0.13785552147E+04  0.00000000000E+00 0. -1.
<mgrwt>
<rscale>  0 0.24470326E+04</rscale>
<asrwt>0</asrwt>
<pdfrwt beam="1">  1        2 0.26491312E+00 0.24470326E+04</pdfrwt>
<pdfrwt beam="2">  1       -2 0.13374863E+00 0.24470326E+04</pdfrwt>
<totfact> 0.34512464E+00</totfact>
</mgrwt>
</event>
<event>
 6    1  0.9512547E-007  0.2710562E+04  0.7818608E-02  0.8331586E-01
         -2   -1    0    0    0  501 -0.00000000000E+00  0.00000000000E+00  0.10019685207E+04  0.10019685207E+04  0.00000000000E+00 0.  1.
          2   -1    0    0  501    0  0.00000000000E+00 -0.00000000000E+00 -0.18331775687E+04  0.18331775687E+04  0.00000000000E+00 0. -1.
         23    2    1    2    0    0  0.70558222114E+02 -0.77258684817E+03  0.74429353136E+03  0.10789919737E+04  0.91552814831E+02 0.  0.
         11    1    3    3    0    0  0.84260141921E+02 -0.42916442470E+03  0.40691170946E+03  0.59737677745E+03  0.00000000000E+00 0. -1.
        -11    1    3    3    0    0 -0.13701919807E+02 -0.34342242347E+03  0.33738182190E+03  0.48161519629E+03  0.00000000000E+00 0.  1.
         22    1    1    2    0    0 -0.70558222114E+02  0.77258684817E+03 -0.15755025793E+04  0.17561541157E+04  0.00000000000E+00 0. -1.
<mgrwt>
<rscale>  0 0.27105617E+04</rscale>
<asrwt>0</asrwt>
<pdfrwt beam="1">  1        2 0.28202731E+00 0.27105617E+04</pdfrwt>
<pdfrwt beam="2">  1       -2 0.15414901E+00 0.27105617E+04</pdfrwt>
<totfact> 0.20199937E+00</totfact>
</mgrwt>
</event>
<event>
 6    1  0.9512547E-007  0.2350966E+04  0.7818608E-02  0.8458093E-01
          1   -1    0    0  501    0  0.00000000000E+00  0.00000000000E+00  0.10189127817E+04  0.10189127817E+04  0.00000000000E+00 0. -1.
         -1   -1    0    0    0  501 -0.00000000000E+00 -0.00000000000E+00 -0.13561120264E+04  0.13561120264E+04  0.00000000000E+00 0.  1.
         23    2    1    2    0    0  0.87933223290E+03  0.28233072500E+03  0.56294030469E+03  0.10853787239E+04  0.90605593656E+02 0.  0.
         11    1    3    3    0    0  0.67167711566E+03  0.25219971424E+03  0.45278373676E+03  0.84839139308E+03  0.00000000000E+00 0. -1.
        -11    1    3    3    0    0  0.20765511723E+03  0.30131010759E+02  0.11015656793E+03  0.23698733084E+03  0.00000000000E+00 0.  1.
         22    1    1    2    0    0 -0.87933223290E+03 -0.28233072500E+03 -0.90013954941E+03  0.12896460842E+04  0.00000000000E+00 0.  1.
<mgrwt>
<rscale>  0 0.23509657E+04</rscale>
<asrwt>0</asrwt>
<pdfrwt beam="1">  1        1 0.15675581E+00 0.23509657E+04</pdfrwt>
<pdfrwt beam="2">  1       -1 0.20863262E+00 0.23509657E+04</pdfrwt>
<totfact> 0.17286493E+00</totfact>
</mgrwt>
</event>
<event>
 6    1  0.9512547E-007  0.1667771E+04  0.7818608E-02  0.8779962E-01
          2   -1    0    0  501    0  0.00000000000E+00  0.00000000000E+00  0.14957597286E+04  0.14957597286E+04  0.00000000000E+00 0. -1.
         -2   -1    0    0    0  501 -0.00000000000E+00 -0.00000000000E+00 -0.46489072975E+03  0.46489072975E+03  0.00000000000E+00 0.  1.
         23    2    1    2    0    0  0.34975781016E+03  0.61298741483E+03  0.10338361235E+04  0.12548934887E+04  0.88636567152E+02 0.  0.
         11    1    3    3    0    0  0.19981786438E+03  0.42997200955E+03  0.71301985480E+03  0.85627123113E+03  0.00000000000E+00 0.  1.
        -11    1    3    3    0    0  0.14993994577E+03  0.18301540528E+03  0.32081626874E+03  0.39862225752E+03  0.00000000000E+00 0. -1.
         22    1    1    2    0    0 -0.34975781016E+03 -0.61298741483E+03 -0.29671246425E+01  0.70575696974E+03  0.00000000000E+00 0.  1.
<mgrwt>
<rscale>  0 0.16677708E+04</rscale>
<asrwt>0</asrwt>
<pdfrwt beam="1">  1        2 0.23011688E+00 0.16677708E+04</pdfrwt>
<pdfrwt beam="2">  1       -2 0.71521652E-01 0.16677708E+04</pdfrwt>
<totfact> 0.21591294E+01</totfact>
</mgrwt>
</event>
<event>
 6    1  0.9512547E-007  0.3156779E+04  0.7818608E-02  0.8200326E-01
          2   -1    0    0  501    0  0.00000000000E+00  0.00000000000E+00  0.18929024344E+04  0.18929024344E+04  0.00000000000E+00 0. -1.
         -2   -1    0    0    0  501 -0.00000000000E+00 -0.00000000000E+00 -0.13161337071E+04  0.13161337071E+04  0.00000000000E+00 0.  1.
         23    2    1    2    0    0  0.63113504697E+03 -0.10110771439E+04  0.13385207381E+04  0.17945134077E+04  0.89622349494E+02 0.  0.
         13    1    3    3    0    0  0.42476636158E+03 -0.61308926568E+03  0.79863674581E+03  0.10927605233E+04  0.00000000000E+00 0. -1.
        -13    1    3    3    0    0  0.20636868539E+03 -0.39798787826E+03  0.53988399225E+03  0.70175288431E+03  0.00000000000E+00 0.  1.
         22    1    1    2    0    0 -0.63113504697E+03  0.10110771439E+04 -0.76175201078E+03  0.14145227338E+04  0.00000000000E+00 0.  1.
<mgrwt>
<rscale>  0 0.31567785E+04</rscale>
<asrwt>0</asrwt>
<pdfrwt beam="1">  1        2 0.29121576E+00 0.31567785E+04</pdfrwt>
<pdfrwt beam="2">  1       -2 0.20248211E+00 0.31567785E+04</pdfrwt>
<totfact> 0.82964778E-01</totfact>
</mgrwt>
</event>
<event>
 6    1  0.9512547E-007  0.2337890E+04  0.7818608E-02  0.8463130E-01
         -2   -1    0    0    0  501 -0.00000000000E+00  0.00000000000E+00  0.62924111397E+03  0.62924111397E+03  0.00000000000E+00 0.  1.
          2   -1    0    0  501    0  0.00000000000E+00 -0.00000000000E+00 -0.21715568342E+04  0.21715568342E+04  0.00000000000E+00 0. -1.
         23    2    1    2    0    0 -0.66209397957E+03  0.52692625486E+03  0.19076915679E+03  0.87217074034E+03  0.90935214784E+02 0.  0.
         13    1    3    3    0    0 -0.95977292134E+02  0.11221499309E+03  0.12950583613E+02  0.14822807728E+03  0.00000000000E+00 0. -1.
        -13    1    3    3    0    0 -0.56611668743E+03  0.41471126177E+03  0.17781857318E+03  0.72394266306E+03  0.00000000000E+00 0.  1.
         22    1    1    2    0    0  0.66209397957E+03 -0.52692625486E+03 -0.17330848770E+04  0.19286272078E+04  0.00000000000E+00 0. -1.
<mgrwt>
<rscale>  0 0.23378904E+04</rscale>
<asrwt>0</asrwt>
<pdfrwt beam="1">  1        2 0.33408568E+00 0.23378904E+04</pdfrwt>
<pdfrwt beam="2">  1       -2 0.96806322E-01 0.23378904E+04</pdfrwt>
<totfact> 0.43175168E+00</totfact>
</mgrwt>
</event>
<event>
 6    1  0.9512547E-007  0.3716829E+04  0.7818608E-02  0.8064243E-01
          2   -1    0    0  501    0  0.00000000000E+00  0.00000000000E+00  0.36589229809E+04  0.36589229809E+04  0.00000000000E+00 0. -1.
         -2   -1    0    0    0  501 -0.00000000000E+00 -0.00000000000E+00 -0.94391283276E+03  0.94391283276E+03  0.00000000000E+00 0.  1.
         23    2    1    2    0    0  0.82536708355E+03  0.25095262814E+03 -0.67850532458E+03  0.11013853560E+04  0.92044460198E+02 0.  0.
         11    1    3    3    0    0  0.51183205389E+03  0.12297857496E+03 -0.45345353513E+03  0.69477758298E+03  0.00000000000E+00 0. -1.
        -11    1    3    3    0    0  0.31353502966E+03  0.12797405318E+03 -0.22505178946E+03  0.40660777298E+03  0.00000000000E+00 0.  1.
         22    1    1    2    0    0 -0.82536708355E+03 -0.25095262814E+03  0.33935154728E+04  0.35014504577E+04  0.00000000000E+00 0. -1.
<mgrwt>
<rscale>  0 0.37168289E+04</rscale>
<asrwt>0</asrwt>
<pdfrwt beam="1">  1        2 0.56291122E+00 0.37168289E+04</pdfrwt>
<pdfrwt beam="2">  1       -2 0.14521736E+00 0.37168289E+04</pdfrwt>
<totfact> 0.16451647E-01</totfact>
</mgrwt>
</event>
<event>
 6    1  0.9512547E-007  0.1507576E+04  0.7818608E-02  0.8879431E-01
         -1   -1    0    0    0  501 -0.00000000000E+00  0.00000000000E+00  0.81651235222E+03  0.81651235222E+03  0.00000000000E+00 0.  1.
          1   -1    0    0  501    0  0.00000000000E+00 -0.00000000000E+00 -0.69588174252E+03  0.69588174252E+03  0.00000000000E+00 0. -1.
         23    2    1    2    0    0  0.18766740649E+03 -0.50505032220E+03  0.58562155287E+03  0.80069790911E+03  0.88711076314E+02 0.  0.
         13    1    3    3    0    0  0.89292773826E+02 -0.12650893657E+03  0.15988605577E+03  0.22257866322E+03  0.00000000000E+00 0. -1.
        -13    1    3    3    0    0  0.98374632667E+02 -0.37854138562E+03  0.42573549710E+03  0.57811924589E+03  0.00000000000E+00 0.  1.
         22    1    1    2    0    0 -0.18766740649E+03  0.50505032220E+03 -0.46499094317E+03  0.71169618563E+03  0.00000000000E+00 0. -1.
<mgrwt>
<rscale>  0 0.15075756E+04</rscale>
<asrwt>0</asrwt>
<pdfrwt beam="1">  1        1 0.10705873E+00 0.15075756E+04</pdfrwt>
<pdfrwt beam="2">  1       -1 0.12561728E+00 0.15075756E+04</pdfrwt>
<totfact> 0.14695192E+01</totfact>
</mgrwt>
</event>
<event>
 6    1  0.9512547E-007  0.2354433E+04  0.7818608E-02  0.8456763E-01
          2   -1    0    0  501    0  0.00000000000E+00  0.00000000000E+00  0.10521969915E+04  0.10521969915E+04  0.00000000000E+00 0. -1.
         -2   -1    0    0    0  501 -0.00000000000E+00 -0.00000000000E+00 -0.13170910395E+04  0.13170910395E+04  0.00000000000E+00 0.  1.
         23    2    1    2    0    0  0.55685420075E+03 -0.38151540793E+03 -0.11009943920E+04  0.12947163057E+04  0.91983985759E+02 0.  0.
         11    1    3    3    0    0  0.60400050709E+02 -0.48997541310E+02 -0.18936977648E+03  0.20471892298E+03  0.00000000000E+00 0.  1.
        -11    1    3    3    0    0  0.49645415004E+03 -0.33251786662E+03 -0.91162461556E+03  0.10899973828E+04  0.00000000000E+00 0. -1.
         22    1    1    2    0    0 -0.55685420075E+03  0.38151540793E+03  0.83610034406E+03  0.10745717253E+04  0.00000000000E+00 0. -1.
<mgrwt>
<rscale>  0 0.23544335E+04</rscale>
<asrwt>0</asrwt>
<pdfrwt beam="1">  1        2 0.16187646E+00 0.23544335E+04</pdfrwt>
<pdfrwt beam="2">  1       -2 0.20262939E+00 0.23544335E+04</pdfrwt>
<totfact> 0.26917072E+00</totfact>
</mgrwt>
</event>
<event>
 6    1  0.9512547E-007  0.3434614E+04  0.7818608E-02  0.8129463E-01
         -2   -1    0    0    0  501 -0.00000000000E+00  0.00000000000E+00  0.17134183418E+04  0.17134183418E+04  0.00000000000E+00 0.  1.
          2   -1    0    0  501    0  0.00000000000E+00 -0.00000000000E+00 -0.17212041884E+04  0.17212041884E+04  0.00000000000E+00 0. -1.
         23    2    1    2    0    0  0.98031893911E+03  0.91660439206E+03 -0.10733690807E+04  0.17209549829E+04  0.91520684775E+02 0.  0.
         11    1    3    3    0    0  0.40837610514E+03  0.37604929994E+03 -0.38699498818E+03  0.67671946928E+03  0.00000000000E+00 0.  1.
        -11    1    3    3    0    0  0.57194283397E+03  0.54055509212E+03 -0.68637409253E+03  0.10442355136E+04  0.00000000000E+00 0. -1.
         22    1    1    2    0    0 -0.98031893911E+03 -0.91660439206E+03  0.10655832341E+04  0.17136675473E+04  0.00000000000E+00 0.  1.
<mgrwt>
<rscale>  0 0.34346137E+04</rscale>
<asrwt>0</asrwt>
<pdfrwt beam="1">  1        2 0.26480064E+00 0.34346137E+04</pdfrwt>
<pdfrwt beam="2">  1       -2 0.26360282E+00 0.34346137E+04</pdfrwt>
<totfact> 0.41813815E-01</totfact>
</mgrwt>
</event>
<event>
 6    1  0.9512547E-007  0.7950151E+03  0.7818608E-02  0.9567261E-01
          2   -1    0    0  501    0  0.00000000000E+00  0.00000000000E+00  0.14417280769E+04  0.14417280769E+04  0.00000000000E+00 0. -1.
         -2   -1    0    0    0  501 -0.00000000000E+00 -0.00000000000E+00 -0.10959920936E+03  0.10959920936E+03  0.00000000000E+00 0.  1.
         23    2    1    2    0    0 -0.43772435522E+02  0.37900496255E+03  0.85278661463E+03  0.93868564291E+03  0.91241100219E+02 0.  0.
         11    1    3    3    0    0  0.65075193807E+01  0.84008623207E+02  0.11537841495E+03  0.14287048407E+03  0.00000000000E+00 0.  1.
        -11    1    3    3    0    0 -0.50279954903E+02  0.29499633934E+03  0.73740819968E+03  0.79581515884E+03  0.00000000000E+00 0. -1.
         22    1    1    2    0    0  0.43772435522E+02 -0.37900496255E+03  0.47934225293E+03  0.61264164337E+03  0.00000000000E+00 0. -1.
<mgrwt>
<rscale>  0 0.79501511E+03</rscale>
<asrwt>0</asrwt>
<pdfrwt beam="1">  1        2 0.22180431E+00 0.79501511E+03</pdfrwt>
<pdfrwt beam="2">  1       -2 0.16861418E-01 0.79501511E+03</pdfrwt>
<totfact> 0.39671450E+02</totfact>
</mgrwt>
</event>
<event>
 6    1  0.9512547E-007  0.2452614E+04  0.7818608E-02  0.8420064E-01
         -2   -1    0    0    0  501 -0.00000000000E+00  0.00000000000E+00  0.79826053900E+03  0.79826053900E+03  0.00000000000E+00 0.  1.
          2   -1    0    0  501    0  0.00000000000E+00 -0.00000000000E+00 -0.18838816788E+04  0.18838816788E+04  0.00000000000E+00 0. -1.
         23    2    1    2    0    0  0.58058543399E+03 -0.86958820237E+02 -0.17188563986E+04  0.18186445771E+04  0.91430279635E+02 0.  0.
         11    1    3    3    0    0  0.37253888662E+03 -0.67939845294E+02 -0.12312494242E+04  0.12881677644E+04  0.00000000000E+00 0. -1.
        -11    1    3    3    0    0  0.20804654737E+03 -0.19018974943E+02 -0.48760697436E+03  0.53047681262E+03  0.00000000000E+00 0.  1.
         22    1    1    2    0    0 -0.58058543399E+03  0.86958820237E+02  0.63323525881E+03  0.86349764074E+03  0.00000000000E+00 0.  1.
<mgrwt>
<rscale>  0 0.24526136E+04</rscale>
<asrwt>0</asrwt>
<pdfrwt beam="1">  1        2 0.28982795E+00 0.24526136E+04</pdfrwt>
<pdfrwt beam="2">  1       -2 0.12280931E+00 0.24526136E+04</pdfrwt>
<totfact> 0.34788202E+00</totfact>
</mgrwt>
</event>
<event>
 6    1  0.9512547E-007  0.2792797E+04  0.7818608E-02  0.8305508E-01
         -1   -1    0    0    0  501 -0.00000000000E+00  0.00000000000E+00  0.12337152307E+04  0.12337152307E+04  0.00000000000E+00 0.  1.
          1   -1    0    0  501    0  0.00000000000E+00 -0.00000000000E+00 -0.15805335015E+04  0.15805335015E+04  0.00000000000E+00 0. -1.
         23    2    1    2    0    0  0.44767421833E+03 -0.12071125738E+04 -0.71458429599E+03  0.14752995842E+04  0.91351932020E+02 0.  0.
         11    1    3    3    0    0  0.14468482894E+03 -0.45877945948E+03 -0.30963458915E+03  0.57208904112E+03  0.00000000000E+00 0. -1.
        -11    1    3    3    0    0  0.30298938939E+03 -0.74833311434E+03 -0.40494970684E+03  0.90321054310E+03  0.00000000000E+00 0.  1.
         22    1    1    2    0    0 -0.44767421833E+03  0.12071125738E+04  0.36776602517E+03  0.13389491480E+04  0.00000000000E+00 0. -1.
<mgrwt>
<rscale>  0 0.27927966E+04</rscale>
<asrwt>0</asrwt>
<pdfrwt beam="1">  1        1 0.24315900E+00 0.27927966E+04</pdfrwt>
<pdfrwt beam="2">  1       -1 0.18980234E+00 0.27927966E+04</pdfrwt>
<totfact> 0.88374726E-01</totfact>
</mgrwt>
</event>
<event>
 6    1  0.9512547E-007  0.1267747E+04  0.7818608E-02  0.9055541E-01
         -1   -1    0    0    0  501 -0.00000000000E+00  0.00000000000E+00  0.40738477087E+03  0.40738477087E+03  0.00000000000E+00 0.  1.
          1   -1    0    0  501    0  0.00000000000E+00 -0.00000000000E+00 -0.98627997216E+03  0.98627997216E+03  0.00000000000E+00 0. -1.
         23    2    1    2    0    0 -0.41373974449E+03 -0.46283883948E+03 -0.16816373931E+03  0.64928533618E+03  0.88837137871E+02 0.  0.
         13    1    3    3    0    0 -0.28139604089E+03 -0.30682818090E+03 -0.69253195283E+02  0.42204652525E+03  0.00000000000E+00 0. -1.
        -13    1    3    3    0    0 -0.13234370360E+03 -0.15601065858E+03 -0.98910544030E+02  0.22723881093E+03  0.00000000000E+00 0.  1.
         22    1    1    2    0    0  0.41373974449E+03  0.46283883948E+03 -0.41073146198E+03  0.74437940686E+03  0.00000000000E+00 0.  1.
<mgrwt>
<rscale>  0 0.12677467E+04</rscale>
<asrwt>0</asrwt>
<pdfrwt beam="1">  1        1 0.15173538E+00 0.12677467E+04</pdfrwt>
<pdfrwt beam="2">  1       -1 0.62674580E-01 0.12677467E+04</pdfrwt>
<totfact> 0.39447978E+01</totfact>
</mgrwt>
</event>
<event>
 6    1  0.9512547E-007  0.1957920E+04  0.7818608E-02  0.8626551E-01
         -2   -1    0    0    0  501 -0.00000000000E+00  0.00000000000E+00  0.36686430039E+03  0.36686430039E+03  0.00000000000E+00 0.  1.
          2   -1    0    0  501    0  0.00000000000E+00 -0.00000000000E+00 -0.26123074600E+04  0.26123074600E+04  0.00000000000E+00 0. -1.
         23    2    1    2    0    0 -0.44137364624E+03  0.64523229588E+03 -0.20164156674E+04  0.21645620358E+04  0.90891429272E+02 0.  0.
         11    1    3    3    0    0 -0.31648137219E+03  0.38587958896E+03 -0.12623283244E+04  0.13574005727E+04  0.00000000000E+00 0. -1.
        -11    1    3    3    0    0 -0.12489227405E+03  0.25935270692E+03 -0.75408734297E+03  0.80716146311E+03  0.00000000000E+00 0.  1.
         22    1    1    2    0    0  0.44137364624E+03 -0.64523229588E+03 -0.22902749224E+03  0.81460972461E+03  0.00000000000E+00 0.  1.
<mgrwt>
<rscale>  0 0.19579197E+04</rscale>
<asrwt>0</asrwt>
<pdfrwt beam="1">  1        2 0.40189345E+00 0.19579197E+04</pdfrwt>
<pdfrwt beam="2">  1       -2 0.56440662E-01 0.19579197E+04</pdfrwt>
<totfact> 0.82268015E+00</totfact>
</mgrwt>
</event>
<event>
 6    1  0.9512547E-007  0.2861000E+04  0.7818608E-02  0.8284576E-01
         -1   -1    0    0    0  501 -0.00000000000E+00  0.00000000000E+00  0.30847639537E+04  0.30847639537E+04  0.00000000000E+00 0.  1.
          1   -1    0    0  501    0  0.00000000000E+00 -0.00000000000E+00 -0.66336705820E+03  0.66336705820E+03  0.00000000000E+00 0. -1.
         23    2    1    2    0    0  0.13535222725E+04 -0.42817667433E+03  0.99711247618E+03  0.17371750418E+04  0.90476677290E+02 0.  0.
         11    1    3    3    0    0  0.52239415303E+03 -0.15394689046E+03  0.43500516078E+03  0.69701132423E+03  0.00000000000E+00 0.  1.
        -11    1    3    3    0    0  0.83112811947E+03 -0.27422978387E+03  0.56210731540E+03  0.10401637176E+04  0.00000000000E+00 0. -1.
         22    1    1    2    0    0 -0.13535222725E+04  0.42817667433E+03  0.14242844193E+04  0.20109559701E+04  0.00000000000E+00 0.  1.
<mgrwt>
<rscale>  0 0.28610004E+04</rscale>
<asrwt>0</asrwt>
<pdfrwt beam="1">  1        1 0.10205647E+00 0.28610004E+04</pdfrwt>
<pdfrwt beam="2">  1       -1 0.47457906E+00 0.28610004E+04</pdfrwt>
<totfact> 0.55796810E-02</totfact>
</mgrwt>
</event>
<event>
 6    1  0.9512547E-007  0.4458143E+04  0.7818608E-02  0.7918006E-01
          2   -1    0    0  501    0  0.00000000000E+00  0.00000000000E+00  0.19921952658E+04  0.19921952658E+04  0.00000000000E+00 0. -1.
         -2   -1    0    0    0  501 -0.00000000000E+00 -0.00000000000E+00 -0.24941126622E+04  0.24941126622E+04  0.00000000000E+00 0.  1.
         23    2    1    2    0    0 -0.19823422476E+03  0.16645620448E+04  0.12260535418E+04  0.20788305819E+04  0.90915852849E+02 0.  0.
         13    1    3    3    0    0 -0.84543613497E+02  0.76706508866E+03  0.50905939156E+03  0.92448793230E+03  0.00000000000E+00 0.  1.
        -13    1    3    3    0    0 -0.11369061127E+03  0.89749695611E+03  0.71699415020E+03  0.11543426496E+04  0.00000000000E+00 0. -1.
         22    1    1    2    0    0  0.19823422476E+03 -0.16645620448E+04 -0.17279709382E+04  0.24074773461E+04  0.00000000000E+00 0.  1.
<mgrwt>
<rscale>  0 0.44581429E+04</rscale>
<asrwt>0</asrwt>
<pdfrwt beam="1">  1        2 0.30649158E+00 0.44581429E+04</pdfrwt>
<pdfrwt beam="2">  1       -2 0.38370964E+00 0.44581429E+04</pdfrwt>
<totfact> 0.48608286E-02</totfact>
</mgrwt>
</event>
<event>
 6    1  0.9512547E-007  0.1945204E+04  0.7818608E-02  0.8632677E-01
         -1   -1    0    0    0  501 -0.00000000000E+00  0.00000000000E+00  0.43640474673E+03  0.43640474673E+03  0.00000000000E+00 0.  1.
          1   -1    0    0  501    0  0.00000000000E+00 -0.00000000000E+00 -0.21676087143E+04  0.21676087143E+04  0.00000000000E+00 0. -1.
         23    2    1    2    0    0 -0.71203466127E+03 -0.19171029103E+03 -0.17121292050E+04  0.18663753105E+04  0.90687323320E+02 0.  0.
         11    1    3    3    0    0 -0.27660397130E+03 -0.29183061654E+02 -0.64963705214E+03  0.70667510749E+03  0.00000000000E+00 0. -1.
        -11    1    3    3    0    0 -0.43543068997E+03 -0.16252722937E+03 -0.10624921529E+04  0.11597002030E+04  0.00000000000E+00 0.  1.
         22    1    1    2    0    0  0.71203466127E+03  0.19171029103E+03 -0.19074762586E+02  0.73763815052E+03  0.00000000000E+00 0.  1.
<mgrwt>
<rscale>  0 0.19452041E+04</rscale>
<asrwt>0</asrwt>
<pdfrwt beam="1">  1        1 0.33347827E+00 0.19452041E+04</pdfrwt>
<pdfrwt beam="2">  1       -1 0.67139191E-01 0.19452041E+04</pdfrwt>
<totfact> 0.48012903E+00</totfact>
</mgrwt>
</event>
<event>
 6    1  0.9512547E-007  0.1853483E+04  0.7818608E-02  0.8678364E-01
          2   -1    0    0  501    0  0.00000000000E+00  0.00000000000E+00  0.23326332268E+04  0.23326332268E+04  0.00000000000E+00 0. -1.
         -2   -1    0    0    0  501 -0.00000000000E+00 -0.00000000000E+00 -0.36818897364E+03  0.36818897364E+03  0.00000000000E+00 0.  1.
         23    2    1    2    0    0 -0.18398895339E+03 -0.65434777462E+03  0.18977124593E+04  0.20178316607E+04  0.91154197839E+02 0.  0.
         13    1    3    3    0    0 -0.59571733228E+02 -0.36891299981E+03  0.10817589487E+04  0.11444859177E+04  0.00000000000E+00 0. -1.
        -13    1    3    3    0    0 -0.12441722016E+03 -0.28543477481E+03  0.81595351056E+03  0.87334574295E+03  0.00000000000E+00 0.  1.
         22    1    1    2    0    0  0.18398895339E+03  0.65434777462E+03  0.66731793956E+02  0.68299053979E+03  0.00000000000E+00 0.  1.
<mgrwt>
<rscale>  0 0.18534830E+04</rscale>
<asrwt>0</asrwt>
<pdfrwt beam="1">  1        2 0.35886664E+00 0.18534830E+04</pdfrwt>
<pdfrwt beam="2">  1       -2 0.56644459E-01 0.18534830E+04</pdfrwt>
<totfact> 0.11943953E+01</totfact>
</mgrwt>
</event>
<event>
 6    1  0.9512547E-007  0.1453558E+04  0.7818608E-02  0.8915937E-01
          2   -1    0    0  501    0  0.00000000000E+00  0.00000000000E+00  0.17420250880E+04  0.17420250880E+04  0.00000000000E+00 0. -1.
         -2   -1    0    0    0  501 -0.00000000000E+00 -0.00000000000E+00 -0.30321485248E+03  0.30321485248E+03  0.00000000000E+00 0.  1.
         23    2    1    2    0    0 -0.49274551556E+03  0.17722170858E+03  0.18732878288E+02  0.53169265756E+03  0.90224632350E+02 0.  0.
         13    1    3    3    0    0 -0.60502423423E+02  0.41023714238E+02 -0.22871946326E+02  0.76593826766E+02  0.00000000000E+00 0.  1.
        -13    1    3    3    0    0 -0.43224309213E+03  0.13619799434E+03  0.41604824615E+02  0.45509883080E+03  0.00000000000E+00 0. -1.
         22    1    1    2    0    0  0.49274551556E+03 -0.17722170858E+03  0.14200773572E+04  0.15135472829E+04  0.00000000000E+00 0. -1.
<mgrwt>
<rscale>  0 0.14535582E+04</rscale>
<asrwt>0</asrwt>
<pdfrwt beam="1">  1        2 0.26800385E+00 0.14535582E+04</pdfrwt>
<pdfrwt beam="2">  1       -2 0.46648440E-01 0.14535582E+04</pdfrwt>
<totfact> 0.39248292E+01</totfact>
</mgrwt>
</event>
<event>
 6    1  0.9512547E-007  0.2605544E+04  0.7818608E-02  0.8366320E-01
         -1   -1    0    0    0  501 -0.00000000000E+00  0.00000000000E+00  0.37319008967E+04  0.37319008967E+04  0.00000000000E+00 0.  1.
          1   -1    0    0  501    0  0.00000000000E+00 -0.00000000000E+00 -0.45478574279E+03  0.45478574279E+03  0.00000000000E+00 0. -1.
         23    2    1    2    0    0  0.34269526229E+03  0.11354755519E+04  0.25001071461E+04  0.27687704868E+04  0.93858910621E+02 0.  0.
         11    1    3    3    0    0  0.32780153738E+03  0.99230396053E+03  0.21634512470E+04  0.24026323680E+04  0.00000000000E+00 0. -1.
        -11    1    3    3    0    0  0.14893724911E+02  0.14317159137E+03  0.33665589913E+03  0.36613811879E+03  0.00000000000E+00 0.  1.
         22    1    1    2    0    0 -0.34269526229E+03 -0.11354755519E+04  0.77700800782E+03  0.14179161527E+04  0.00000000000E+00 0. -1.
<mgrwt>
<rscale>  0 0.26055443E+04</rscale>
<asrwt>0</asrwt>
<pdfrwt beam="1">  1        1 0.69967040E-01 0.26055443E+04</pdfrwt>
<pdfrwt beam="2">  1       -1 0.57413858E+00 0.26055443E+04</pdfrwt>
<totfact> 0.24958599E-02</totfact>
</mgrwt>
</event>
<event>
 6    1  0.9512547E-007  0.9433661E+03  0.7818608E-02  0.9372938E-01
          1   -1    0    0  501    0  0.00000000000E+00  0.00000000000E+00  0.12574952468E+04  0.12574952468E+04  0.00000000000E+00 0. -1.
         -1   -1    0    0    0  501 -0.00000000000E+00 -0.00000000000E+00 -0.17692702698E+03  0.17692702698E+03  0.00000000000E+00 0.  1.
         23    2    1    2    0    0  0.86972465504E+02 -0.18698198048E+03  0.11829740568E+04  0.12041758270E+04  0.89918477068E+02 0.  0.
         11    1    3    3    0    0  0.75900828107E+02 -0.14865367963E+03  0.70283290355E+03  0.72238005405E+03  0.00000000000E+00 0.  1.
        -11    1    3    3    0    0  0.11071637398E+02 -0.38328300850E+02  0.48014115328E+03  0.48179577299E+03  0.00000000000E+00 0. -1.
         22    1    1    2    0    0 -0.86972465504E+02  0.18698198048E+03 -0.10240583702E+03  0.23024644674E+03  0.00000000000E+00 0.  1.
<mgrwt>
<rscale>  0 0.94336609E+03</rscale>
<asrwt>0</asrwt>
<pdfrwt beam="1">  1        1 0.19346080E+00 0.94336609E+03</pdfrwt>
<pdfrwt beam="2">  1       -1 0.27219543E-01 0.94336609E+03</pdfrwt>
<totfact> 0.11791944E+02</totfact>
</mgrwt>
</event>
<event>
 6    1  0.9512547E-007  0.1581541E+04  0.7818608E-02  0.8831969E-01
         -1   -1    0    0    0  501 -0.00000000000E+00  0.00000000000E+00  0.36664722896E+03  0.36664722896E+03  0.00000000000E+00 0.  1.
          1   -1    0    0  501    0  0.00000000000E+00 -0.00000000000E+00 -0.17055031774E+04  0.17055031774E+04  0.00000000000E+00 0. -1.
         23    2    1    2    0    0 -0.37447165332E+02  0.33380611898E+03  0.26283429189E+03  0.43561735102E+03  0.88610362016E+02 0.  0.
         13    1    3    3    0    0 -0.44483918503E+02  0.85773456991E+02  0.50435569302E+02  0.10899381441E+03  0.00000000000E+00 0. -1.
        -13    1    3    3    0    0  0.70367531713E+01  0.24803266199E+03  0.21239872259E+03  0.32662353660E+03  0.00000000000E+00 0.  1.
         22    1    1    2    0    0  0.37447165332E+02 -0.33380611898E+03 -0.16016902403E+04  0.16365330553E+04  0.00000000000E+00 0. -1.
<mgrwt>
<rscale>  0 0.15815410E+04</rscale>
<asrwt>0</asrwt>
<pdfrwt beam="1">  1        1 0.26238510E+00 0.15815410E+04</pdfrwt>
<pdfrwt beam="2">  1       -1 0.56407266E-01 0.15815410E+04</pdfrwt>
<totfact> 0.14442062E+01</totfact>
</mgrwt>
</event>
<event>
 6    1  0.9512547E-007  0.2466938E+04  0.7818608E-02  0.8414860E-01
          1   -1    0    0  501    0  0.00000000000E+00  0.00000000000E+00  0.17452677545E+04  0.17452677545E+04  0.00000000000E+00 0. -1.
         -1   -1    0    0    0  501 -0.00000000000E+00 -0.00000000000E+00 -0.87175475488E+03  0.87175475488E+03  0.00000000000E+00 0.  1.
         23    2    1    2    0    0 -0.54958981260E+03  0.16964895827E+03  0.15930092137E+04  0.16958794513E+04  0.86596924924E+02 0.  0.
         13    1    3    3    0    0 -0.44347247683E+03  0.12171861050E+03  0.11698811908E+04  0.12570223779E+04  0.00000000000E+00 0.  1.
        -13    1    3    3    0    0 -0.10611733577E+03  0.47930347767E+02  0.42312802286E+03  0.43885707345E+03  0.00000000000E+00 0. -1.
         22    1    1    2    0    0  0.54958981260E+03 -0.16964895827E+03 -0.71949621411E+03  0.92114305799E+03  0.00000000000E+00 0.  1.
<mgrwt>
<rscale>  0 0.24669377E+04</rscale>
<asrwt>0</asrwt>
<pdfrwt beam="1">  1        1 0.26850273E+00 0.24669377E+04</pdfrwt>
<pdfrwt beam="2">  1       -1 0.13411612E+00 0.24669377E+04</pdfrwt>
<totfact> 0.18526204E+00</totfact>
</mgrwt>
</event>
<event>
 6    1  0.9512547E-007  0.2066125E+04  0.7818608E-02  0.8576314E-01
          1   -1    0    0  501    0  0.00000000000E+00  0.00000000000E+00  0.67239313149E+03  0.67239313149E+03  0.00000000000E+00 0. -1.
         -1   -1    0    0    0  501 -0.00000000000E+00 -0.00000000000E+00 -0.15871931960E+04  0.15871931960E+04  0.00000000000E+00 0.  1.
         23    2    1    2    0    0 -0.27355631092E+03  0.55519661292E+03 -0.13601131624E+04  0.14971034822E+04  0.91294510490E+02 0.  0.
         11    1    3    3    0    0 -0.14359456193E+03  0.23140753460E+03 -0.50955171719E+03  0.57776448297E+03  0.00000000000E+00 0.  1.
        -11    1    3    3    0    0 -0.12996174899E+03  0.32378907832E+03 -0.85056144519E+03  0.91933899922E+03  0.00000000000E+00 0. -1.
         22    1    1    2    0    0  0.27355631092E+03 -0.55519661292E+03  0.44531309788E+03  0.76248284530E+03  0.00000000000E+00 0. -1.
<mgrwt>
<rscale>  0 0.20661247E+04</rscale>
<asrwt>0</asrwt>
<pdfrwt beam="1">  1        1 0.10344510E+00 0.20661247E+04</pdfrwt>
<pdfrwt beam="2">  1       -1 0.24418357E+00 0.20661247E+04</pdfrwt>
<totfact> 0.20324095E+00</totfact>
</mgrwt>
</event>
<event>
 6    1  0.9512547E-007  0.6638712E+03  0.7818608E-02  0.9781093E-01
          2   -1    0    0  501    0  0.00000000000E+00  0.00000000000E+00  0.12384016156E+03  0.12384016156E+03  0.00000000000E+00 0. -1.
         -2   -1    0    0    0  501 -0.00000000000E+00 -0.00000000000E+00 -0.88970529809E+03  0.88970529809E+03  0.00000000000E+00 0.  1.
         23    2    1    2    0    0 -0.44381828159E+02 -0.27524357753E+03 -0.64763869934E+03  0.71071503830E+03  0.89169541571E+02 0.  0.
         11    1    3    3    0    0  0.18720911699E+02 -0.15716260662E+03 -0.32898810870E+03  0.36508044747E+03  0.00000000000E+00 0.  1.
        -11    1    3    3    0    0 -0.63102739859E+02 -0.11808097091E+03 -0.31865059064E+03  0.34563459084E+03  0.00000000000E+00 0. -1.
         22    1    1    2    0    0  0.44381828159E+02  0.27524357753E+03 -0.11822643719E+03  0.30283042134E+03  0.00000000000E+00 0. -1.
<mgrwt>
<rscale>  0 0.66387122E+03</rscale>
<asrwt>0</asrwt>
<pdfrwt beam="1">  1        2 0.19052332E-01 0.66387122E+03</pdfrwt>
<pdfrwt beam="2">  1       -2 0.13687774E+00 0.66387122E+03</pdfrwt>
<totfact> 0.11610724E+02</totfact>
</mgrwt>
</event>
<event>
 6    1  0.9512547E-007  0.3094112E+04  0.7818608E-02  0.8217356E-01
          2   -1    0    0  501    0  0.00000000000E+00  0.00000000000E+00  0.21269084582E+04  0.21269084582E+04  0.00000000000E+00 0. -1.
         -2   -1    0    0    0  501 -0.00000000000E+00 -0.00000000000E+00 -0.11252871011E+04  0.11252871011E+04  0.00000000000E+00 0.  1.
         23    2    1    2    0    0  0.43191424454E+03  0.13104133738E+04 -0.23063821084E+03  0.14022775158E+04  0.97237451993E+02 0.  0.
         11    1    3    3    0    0  0.17841322231E+03  0.56957278961E+03 -0.14784669622E+03  0.61490087505E+03  0.00000000000E+00 0.  1.
        -11    1    3    3    0    0  0.25350102223E+03  0.74084058420E+03 -0.82791514617E+02  0.78737664073E+03  0.00000000000E+00 0. -1.
         22    1    1    2    0    0 -0.43191424454E+03 -0.13104133738E+04  0.12322595679E+04  0.18499180435E+04  0.00000000000E+00 0. -1.
<mgrwt>
<rscale>  0 0.30941122E+04</rscale>
<asrwt>0</asrwt>
<pdfrwt beam="1">  1        2 0.32721669E+00 0.30941122E+04</pdfrwt>
<pdfrwt beam="2">  1       -2 0.17312109E+00 0.30941122E+04</pdfrwt>
<totfact> 0.97656498E-01</totfact>
</mgrwt>
</event>
<event>
 6    1  0.9512547E-007  0.1048490E+04  0.7818608E-02  0.9256904E-01
         -2   -1    0    0    0  501 -0.00000000000E+00  0.00000000000E+00  0.44635825161E+03  0.44635825161E+03  0.00000000000E+00 0.  1.
          2   -1    0    0  501    0  0.00000000000E+00 -0.00000000000E+00 -0.61572260541E+03  0.61572260541E+03  0.00000000000E+00 0. -1.
         23    2    1    2    0    0 -0.10302240017E+03 -0.50962109147E+03 -0.10900038016E+03  0.53865838796E+03  0.89131948503E+02 0.  0.
         11    1    3    3    0    0 -0.34204437451E+02 -0.37263515605E+03 -0.79004357632E+02  0.38245077015E+03  0.00000000000E+00 0.  1.
        -11    1    3    3    0    0 -0.68817962716E+02 -0.13698593542E+03 -0.29996022533E+02  0.15620761781E+03  0.00000000000E+00 0. -1.
         22    1    1    2    0    0  0.10302240017E+03  0.50962109147E+03 -0.60363973631E+02  0.52342246906E+03  0.00000000000E+00 0. -1.
<mgrwt>
<rscale>  0 0.10484901E+04</rscale>
<asrwt>0</asrwt>
<pdfrwt beam="1">  1        2 0.94726555E-01 0.10484901E+04</pdfrwt>
<pdfrwt beam="2">  1       -2 0.68670500E-01 0.10484901E+04</pdfrwt>
<totfact> 0.92830208E+01</totfact>
</mgrwt>
</event>
<event>
 6    1  0.9512547E-007  0.4717386E+04  0.7818608E-02  0.7873646E-01
          2   -1    0    0  501    0  0.00000000000E+00  0.00000000000E+00  0.27842903619E+04  0.27842903619E+04  0.00000000000E+00 0. -1.
         -2   -1    0    0    0  501 -0.00000000000E+00 -0.00000000000E+00 -0.19981514435E+04  0.19981514435E+04  0.00000000000E+00 0.  1.
         23    2    1    2    0    0 -0.18437972125E+04 -0.27971256316E+03 -0.10693847211E+04  0.21517013667E+04  0.91694115561E+02 0.  0.
         13    1    3    3    0    0 -0.84117730210E+03 -0.17081847732E+03 -0.47299206817E+03  0.98004066360E+03  0.00000000000E+00 0. -1.
        -13    1    3    3    0    0 -0.10026199104E+04 -0.10889408584E+03 -0.59639265297E+03  0.11716607031E+04  0.00000000000E+00 0.  1.
         22    1    1    2    0    0  0.18437972125E+04  0.27971256316E+03  0.18555236395E+04  0.26307404387E+04  0.00000000000E+00 0. -1.
<mgrwt>
<rscale>  0 0.47173865E+04</rscale>
<asrwt>0</asrwt>
<pdfrwt beam="1">  1        2 0.42835237E+00 0.47173865E+04</pdfrwt>
<pdfrwt beam="2">  1       -2 0.30740791E+00 0.47173865E+04</pdfrwt>
<totfact> 0.50365873E-02</totfact>
</mgrwt>
</event>
<event>
 6    1  0.9512547E-007  0.3262677E+03  0.7818608E-02  0.1072800E+00
         -1   -1    0    0    0  501 -0.00000000000E+00  0.00000000000E+00  0.96363731308E+02  0.96363731308E+02  0.00000000000E+00 0.  1.
          1   -1    0    0  501    0  0.00000000000E+00 -0.00000000000E+00 -0.27616878850E+03  0.27616878850E+03  0.00000000000E+00 0. -1.
         23    2    1    2    0    0  0.11920704182E+03  0.15114702955E+02  0.66517749545E+01  0.15071069194E+03  0.90723169529E+02 0.  0.
         11    1    3    3    0    0 -0.10402331531E+01 -0.14532839074E+02  0.21503946208E+02  0.25975088047E+02  0.00000000000E+00 0.  1.
        -11    1    3    3    0    0  0.12024727497E+03  0.29647542029E+02 -0.14852171253E+02  0.12473560389E+03  0.00000000000E+00 0. -1.
         22    1    1    2    0    0 -0.11920704182E+03 -0.15114702955E+02 -0.18645683214E+03  0.22182182787E+03  0.00000000000E+00 0. -1.
<mgrwt>
<rscale>  0 0.32626771E+03</rscale>
<asrwt>0</asrwt>
<pdfrwt beam="1">  1        1 0.42487506E-01 0.32626771E+03</pdfrwt>
<pdfrwt beam="2">  1       -1 0.14825190E-01 0.32626771E+03</pdfrwt>
<totfact> 0.31907075E+03</totfact>
</mgrwt>
</event>
<event>
 6    1  0.9512547E-007  0.2197722E+04  0.7818608E-02  0.8519377E-01
          2   -1    0    0  501    0  0.00000000000E+00  0.00000000000E+00  0.86512433338E+03  0.86512433338E+03  0.00000000000E+00 0. -1.
         -2   -1    0    0    0  501 -0.00000000000E+00 -0.00000000000E+00 -0.13957480144E+04  0.13957480144E+04  0.00000000000E+00 0.  1.
         23    2    1    2    0    0  0.52762610808E+03  0.82827813184E+03 -0.76861273837E+03  0.12503908956E+04  0.90982837425E+02 0.  0.
         11    1    3    3    0    0  0.29818018764E+02  0.78779935815E+02 -0.43412838718E+02  0.94763215942E+02  0.00000000000E+00 0. -1.
        -11    1    3    3    0    0  0.49780808932E+03  0.74949819603E+03 -0.72519989965E+03  0.11556276797E+04  0.00000000000E+00 0.  1.
         22    1    1    2    0    0 -0.52762610808E+03 -0.82827813184E+03  0.23798905737E+03  0.10104814521E+04  0.00000000000E+00 0. -1.
<mgrwt>
<rscale>  0 0.21977221E+04</rscale>
<asrwt>0</asrwt>
<pdfrwt beam="1">  1        2 0.13309605E+00 0.21977221E+04</pdfrwt>
<pdfrwt beam="2">  1       -2 0.21473046E+00 0.21977221E+04</pdfrwt>
<totfact> 0.30229038E+00</totfact>
</mgrwt>
</event>
<event>
 6    1  0.9512547E-007  0.7022873E+03  0.7818608E-02  0.9713329E-01
          2   -1    0    0  501    0  0.00000000000E+00  0.00000000000E+00  0.45497010606E+02  0.45497010606E+02  0.00000000000E+00 0. -1.
         -2   -1    0    0    0  501 -0.00000000000E+00 -0.00000000000E+00 -0.27101091299E+04  0.27101091299E+04  0.00000000000E+00 0.  1.
         23    2    1    2    0    0  0.33529560678E+03  0.39732131331E+02 -0.16374492674E+04  0.16743729045E+04  0.91009527281E+02 0.  0.
         11    1    3    3    0    0  0.21576860335E+03 -0.23294543667E+01 -0.85954178965E+03  0.88621306959E+03  0.00000000000E+00 0. -1.
        -11    1    3    3    0    0  0.11952700343E+03  0.42061585698E+02 -0.77790747771E+03  0.78815983495E+03  0.00000000000E+00 0.  1.
         22    1    1    2    0    0 -0.33529560678E+03 -0.39732131331E+02 -0.10271628519E+04  0.10812332359E+04  0.00000000000E+00 0.  1.
<mgrwt>
<rscale>  0 0.70228730E+03</rscale>
<asrwt>0</asrwt>
<pdfrwt beam="1">  1        2 0.69995387E-02 0.70228730E+03</pdfrwt>
<pdfrwt beam="2">  1       -2 0.41693995E+00 0.70228730E+03</pdfrwt>
<totfact> 0.65113203E+00</totfact>
</mgrwt>
</event>
<event>
 6    1  0.9512547E-007  0.1910959E+04  0.7818608E-02  0.8649420E-01
         -1   -1    0    0    0  501 -0.00000000000E+00  0.00000000000E+00  0.57153048214E+03  0.57153048214E+03  0.00000000000E+00 0.  1.
          1   -1    0    0  501    0  0.00000000000E+00 -0.00000000000E+00 -0.15973627296E+04  0.15973627296E+04  0.00000000000E+00 0. -1.
         23    2    1    2    0    0  0.69900514111E+03  0.64578269905E+03 -0.57734380960E+03  0.11168545430E+04  0.91622671908E+02 0.  0.
         13    1    3    3    0    0  0.93993345813E+02  0.80783283027E+02 -0.41264782071E+02  0.13062721812E+03  0.00000000000E+00 0. -1.
        -13    1    3    3    0    0  0.60501179530E+03  0.56499941602E+03 -0.53607902753E+03  0.98622732487E+03  0.00000000000E+00 0.  1.
         22    1    1    2    0    0 -0.69900514111E+03 -0.64578269905E+03 -0.44848843787E+03  0.10520386688E+04  0.00000000000E+00 0.  1.
<mgrwt>
<rscale>  0 0.19109594E+04</rscale>
<asrwt>0</asrwt>
<pdfrwt beam="1">  1        1 0.24574811E+00 0.19109594E+04</pdfrwt>
<pdfrwt beam="2">  1       -1 0.87927767E-01 0.19109594E+04</pdfrwt>
<totfact> 0.66595164E+00</totfact>
</mgrwt>
</event>
<event>
 6    1  0.9512547E-007  0.4688513E+04  0.7818608E-02  0.7878440E-01
         -2   -1    0    0    0  501 -0.00000000000E+00  0.00000000000E+00  0.20113511536E+04  0.20113511536E+04  0.00000000000E+00 0.  1.
          2   -1    0    0  501    0  0.00000000000E+00 -0.00000000000E+00 -0.27322618718E+04  0.27322618718E+04  0.00000000000E+00 0. -1.
         23    2    1    2    0    0  0.12500281595E+04 -0.17320608673E+04 -0.13358252481E+04  0.25208388294E+04  0.87143922362E+02 0.  0.
         11    1    3    3    0    0  0.45777551813E+03 -0.70316855031E+03 -0.54045808423E+03  0.99804778240E+03  0.00000000000E+00 0. -1.
        -11    1    3    3    0    0  0.79225264135E+03 -0.10288923170E+04 -0.79536716384E+03  0.15227910470E+04  0.00000000000E+00 0.  1.
         22    1    1    2    0    0 -0.12500281595E+04  0.17320608673E+04  0.61491452981E+03  0.22227741960E+04  0.00000000000E+00 0.  1.
<mgrwt>
<rscale>  0 0.46885128E+04</rscale>
<asrwt>0</asrwt>
<pdfrwt beam="1">  1        2 0.42034798E+00 0.46885128E+04</pdfrwt>
<pdfrwt beam="2">  1       -2 0.30943864E+00 0.46885128E+04</pdfrwt>
<totfact> 0.52721682E-02</totfact>
</mgrwt>
</event>
<event>
 6    1  0.9512547E-007  0.1880150E+04  0.7818608E-02  0.8664800E-01
          2   -1    0    0  501    0  0.00000000000E+00  0.00000000000E+00  0.10772079078E+04  0.10772079078E+04  0.00000000000E+00 0. -1.
         -2   -1    0    0    0  501 -0.00000000000E+00 -0.00000000000E+00 -0.82040006077E+03  0.82040006077E+03  0.00000000000E+00 0.  1.
         23    2    1    2    0    0 -0.82714114535E+03  0.67218718010E+02  0.56972864858E+03  0.10107030929E+04  0.90824989062E+02 0.  0.
         13    1    3    3    0    0 -0.52610407066E+03  0.78857350281E+02  0.39331096138E+03  0.66158709721E+03  0.00000000000E+00 0.  1.
        -13    1    3    3    0    0 -0.30103707469E+03 -0.11638632271E+02  0.17641768720E+03  0.34911599571E+03  0.00000000000E+00 0. -1.
         22    1    1    2    0    0  0.82714114535E+03 -0.67218718010E+02 -0.31292080157E+03  0.88690487564E+03  0.00000000000E+00 0.  1.
<mgrwt>
<rscale>  0 0.18801505E+04</rscale>
<asrwt>0</asrwt>
<pdfrwt beam="1">  1        2 0.16572429E+00 0.18801505E+04</pdfrwt>
<pdfrwt beam="2">  1       -2 0.12621539E+00 0.18801505E+04</pdfrwt>
<totfact> 0.98807892E+00</totfact>
</mgrwt>
</event>
<event>
 6    1  0.9512547E-007  0.2012716E+04  0.7818608E-02  0.8600699E-01
          2   -1    0    0  501    0  0.00000000000E+00  0.00000000000E+00  0.95401791979E+03  0.95401791979E+03  0.00000000000E+00 0. -1.
         -2   -1    0    0    0  501 -0.00000000000E+00 -0.00000000000E+00 -0.10615690849E+04  0.10615690849E+04  0.00000000000E+00 0.  1.
         23    2    1    2    0    0  0.46076446064E+03 -0.15720897456E+03  0.82574854925E+03  0.96293943466E+03  0.91504854243E+02 0.  0.
         13    1    3    3    0    0  0.48206401744E+02 -0.47967612341E+02  0.13038666306E+03  0.14705587681E+03  0.00000000000E+00 0. -1.
        -13    1    3    3    0    0  0.41255805890E+03 -0.10924136221E+03  0.69536188620E+03  0.81588355784E+03  0.00000000000E+00 0.  1.
         22    1    1    2    0    0 -0.46076446064E+03  0.15720897456E+03 -0.93329971431E+03  0.10526475700E+04  0.00000000000E+00 0.  1.
<mgrwt>
<rscale>  0 0.20127155E+04</rscale>
<asrwt>0</asrwt>
<pdfrwt beam="1">  1        2 0.14677199E+00 0.20127155E+04</pdfrwt>
<pdfrwt beam="2">  1       -2 0.16331832E+00 0.20127155E+04</pdfrwt>
<totfact> 0.59627371E+00</totfact>
</mgrwt>
</event>
<event>
 6    1  0.9512547E-007  0.3424241E+04  0.7818608E-02  0.8131982E-01
          2   -1    0    0  501    0  0.00000000000E+00  0.00000000000E+00  0.23651116683E+04  0.23651116683E+04  0.00000000000E+00 0. -1.
         -2   -1    0    0    0  501 -0.00000000000E+00 -0.00000000000E+00 -0.12394156341E+04  0.12394156341E+04  0.00000000000E+00 0.  1.
         23    2    1    2    0    0  0.23491866938E+03  0.16556932641E+04  0.18201077800E+03  0.16843583440E+04  0.86186668366E+02 0.  0.
         13    1    3    3    0    0  0.11791293125E+03  0.90646561248E+03  0.14128444656E+03  0.92495657239E+03  0.00000000000E+00 0. -1.
        -13    1    3    3    0    0  0.11700573813E+03  0.74922765161E+03  0.40726331433E+02  0.75940177164E+03  0.00000000000E+00 0.  1.
         22    1    1    2    0    0 -0.23491866938E+03 -0.16556932641E+04  0.94368525618E+03  0.19201689584E+04  0.00000000000E+00 0. -1.
<mgrwt>
<rscale>  0 0.34242409E+04</rscale>
<asrwt>0</asrwt>
<pdfrwt beam="1">  1        2 0.36386333E+00 0.34242409E+04</pdfrwt>
<pdfrwt beam="2">  1       -2 0.19067933E+00 0.34242409E+04</pdfrwt>
<totfact> 0.52785952E-01</totfact>
</mgrwt>
</event>
<event>
 6    1  0.1110391E-006  0.3729532E+04  0.7818608E-02  0.8061449E-01
          2   -1    0    0  501    0  0.00000000000E+00  0.00000000000E+00  0.24301569213E+04  0.24301569213E+04  0.00000000000E+00 0. -1.
         -2   -1    0    0    0  501 -0.00000000000E+00 -0.00000000000E+00 -0.14309165609E+04  0.14309165609E+04  0.00000000000E+00 0.  1.
         23    2    1    2    0    0 -0.12069685868E+04 -0.98617668663E+03 -0.55789821730E+03  0.16578943753E+04  0.89697892429E+02 0.  0.
         13    1    3    3    0    0 -0.85542828757E+03 -0.74340557854E+03 -0.38346226426E+03  0.11964333318E+04  0.00000000000E+00 0.  1.
        -13    1    3    3    0    0 -0.35154029927E+03 -0.24277110809E+03 -0.17443595304E+03  0.46146104347E+03  0.00000000000E+00 0. -1.
         22    1    1    2    0    0  0.12069685868E+04  0.98617668663E+03  0.15571385777E+04  0.22031791069E+04  0.00000000000E+00 0. -1.
<mgrwt>
<rscale>  0 0.37295318E+04</rscale>
<asrwt>0</asrwt>
<pdfrwt beam="1">  1        2 0.37387030E+00 0.37295318E+04</pdfrwt>
<pdfrwt beam="2">  1       -2 0.22014101E+00 0.37295318E+04</pdfrwt>
<totfact> 0.30384873E-01</totfact>
</mgrwt>
</event>
<event>
 6    1  0.9512547E-007  0.1359921E+04  0.7818608E-02  0.8983352E-01
         -2   -1    0    0    0  501 -0.00000000000E+00  0.00000000000E+00  0.30940212459E+03  0.30940212459E+03  0.00000000000E+00 0.  1.
          2   -1    0    0  501    0  0.00000000000E+00 -0.00000000000E+00 -0.14943205810E+04  0.14943205810E+04  0.00000000000E+00 0. -1.
         23    2    1    2    0    0 -0.15921743156E+03  0.56651945809E+03 -0.15093142808E+03  0.61400691530E+03  0.89048914340E+02 0.  0.
         11    1    3    3    0    0 -0.46287819563E+02  0.29015362817E+03 -0.10459366222E+03  0.31188383151E+03  0.00000000000E+00 0. -1.
        -11    1    3    3    0    0 -0.11292961200E+03  0.27636582992E+03 -0.46337765853E+02  0.30212308378E+03  0.00000000000E+00 0.  1.
         22    1    1    2    0    0  0.15921743156E+03 -0.56651945809E+03 -0.10339870284E+04  0.11897157903E+04  0.00000000000E+00 0.  1.
<mgrwt>
<rscale>  0 0.13599205E+04</rscale>
<asrwt>0</asrwt>
<pdfrwt beam="1">  1        2 0.22989548E+00 0.13599205E+04</pdfrwt>
<pdfrwt beam="2">  1       -2 0.47600326E-01 0.13599205E+04</pdfrwt>
<totfact> 0.52190668E+01</totfact>
</mgrwt>
</event>
<event>
 6    1  0.9512547E-007  0.2069472E+04  0.7818608E-02  0.8574812E-01
          1   -1    0    0  501    0  0.00000000000E+00  0.00000000000E+00  0.13873280370E+04  0.13873280370E+04  0.00000000000E+00 0. -1.
         -1   -1    0    0    0  501 -0.00000000000E+00 -0.00000000000E+00 -0.77175607416E+03  0.77175607416E+03  0.00000000000E+00 0.  1.
         23    2    1    2    0    0 -0.25870576869E+02 -0.79809752066E+03 -0.37468267503E+03  0.88698616404E+03  0.93425954612E+02 0.  0.
         13    1    3    3    0    0 -0.35960844682E+01 -0.55080259752E+03 -0.21232907579E+03  0.59032200508E+03  0.00000000000E+00 0.  1.
        -13    1    3    3    0    0 -0.22274492401E+02 -0.24729492314E+03 -0.16235359924E+03  0.29666415896E+03  0.00000000000E+00 0. -1.
         22    1    1    2    0    0  0.25870576869E+02  0.79809752066E+03  0.99025463785E+03  0.12720979471E+04  0.00000000000E+00 0. -1.
<mgrwt>
<rscale>  0 0.20694722E+04</rscale>
<asrwt>0</asrwt>
<pdfrwt beam="1">  1        1 0.21343508E+00 0.20694722E+04</pdfrwt>
<pdfrwt beam="2">  1       -1 0.11873170E+00 0.20694722E+04</pdfrwt>
<totfact> 0.45950521E+00</totfact>
</mgrwt>
</event>
<event>
 6    1  0.9512547E-007  0.7018956E+04  0.7818608E-02  0.7575484E-01
         -2   -1    0    0    0  501 -0.00000000000E+00  0.00000000000E+00  0.35015740780E+04  0.35015740780E+04  0.00000000000E+00 0.  1.
          2   -1    0    0  501    0  0.00000000000E+00 -0.00000000000E+00 -0.35173995382E+04  0.35173995382E+04  0.00000000000E+00 0. -1.
         23    2    1    2    0    0 -0.18681289363E+04 -0.15175226985E+04  0.25454135742E+04  0.35043290745E+04  0.91712242263E+02 0.  0.
         11    1    3    3    0    0 -0.89489597172E+03 -0.72475711813E+03  0.11513486972E+04  0.16284088870E+04  0.00000000000E+00 0.  1.
        -11    1    3    3    0    0 -0.97323296458E+03 -0.79276558034E+03  0.13940648770E+04  0.18759201875E+04  0.00000000000E+00 0. -1.
         22    1    1    2    0    0  0.18681289363E+04  0.15175226985E+04 -0.25612390345E+04  0.35146445417E+04  0.00000000000E+00 0. -1.
<mgrwt>
<rscale>  0 0.70189558E+04</rscale>
<asrwt>0</asrwt>
<pdfrwt beam="1">  1        2 0.54113839E+00 0.70189558E+04</pdfrwt>
<pdfrwt beam="2">  1       -2 0.53870371E+00 0.70189558E+04</pdfrwt>
<totfact> 0.49208856E-04</totfact>
</mgrwt>
</event>
<event>
 6    1  0.9512547E-007  0.1957217E+04  0.7818608E-02  0.8626889E-01
          2   -1    0    0  501    0  0.00000000000E+00  0.00000000000E+00  0.26320971287E+04  0.26320971287E+04  0.00000000000E+00 0. -1.
         -2   -1    0    0    0  501 -0.00000000000E+00 -0.00000000000E+00 -0.36384456302E+03  0.36384456302E+03  0.00000000000E+00 0.  1.
         23    2    1    2    0    0 -0.15376944976E+03  0.87690439619E+03  0.17508896409E+04  0.19662471935E+04  0.88922031581E+02 0.  0.
         13    1    3    3    0    0 -0.10225127175E+03  0.35844025181E+03  0.77535150415E+03  0.86029337536E+03  0.00000000000E+00 0.  1.
        -13    1    3    3    0    0 -0.51518178010E+02  0.51846414438E+03  0.97553813675E+03  0.11059538182E+04  0.00000000000E+00 0. -1.
         22    1    1    2    0    0  0.15376944976E+03 -0.87690439619E+03  0.51736292482E+03  0.10296944982E+04  0.00000000000E+00 0.  1.
<mgrwt>
<rscale>  0 0.19572166E+04</rscale>
<asrwt>0</asrwt>
<pdfrwt beam="1">  1        2 0.40493801E+00 0.19572166E+04</pdfrwt>
<pdfrwt beam="2">  1       -2 0.55976088E-01 0.19572166E+04</pdfrwt>
<totfact> 0.81493660E+00</totfact>
</mgrwt>
</event>
<event>
 6    1  0.9512547E-007  0.4362858E+04  0.7818608E-02  0.7935096E-01
          1   -1    0    0  501    0  0.00000000000E+00  0.00000000000E+00  0.22537909691E+04  0.22537909691E+04  0.00000000000E+00 0. -1.
         -1   -1    0    0    0  501 -0.00000000000E+00 -0.00000000000E+00 -0.21113908242E+04  0.21113908242E+04  0.00000000000E+00 0.  1.
         23    2    1    2    0    0  0.47740734642E+03 -0.10306750940E+04 -0.17908586840E+04  0.21229287694E+04  0.97174122835E+02 0.  0.
         13    1    3    3    0    0  0.40794025059E+03 -0.86844580182E+03 -0.14432004073E+04  0.17330437889E+04  0.00000000000E+00 0. -1.
        -13    1    3    3    0    0  0.69467095831E+02 -0.16222929219E+03 -0.34765827669E+03  0.38988498048E+03  0.00000000000E+00 0.  1.
         22    1    1    2    0    0 -0.47740734642E+03  0.10306750940E+04  0.19332588289E+04  0.22422530239E+04  0.00000000000E+00 0. -1.
<mgrwt>
<rscale>  0 0.43628585E+04</rscale>
<asrwt>0</asrwt>
<pdfrwt beam="1">  1        1 0.34673707E+00 0.43628585E+04</pdfrwt>
<pdfrwt beam="2">  1       -1 0.32482936E+00 0.43628585E+04</pdfrwt>
<totfact> 0.34617794E-02</totfact>
</mgrwt>
</event>
<event>
 6    1  0.9512547E-007  0.2027680E+04  0.7818608E-02  0.8593788E-01
         -1   -1    0    0    0  501 -0.00000000000E+00  0.00000000000E+00  0.47968128262E+03  0.47968128262E+03  0.00000000000E+00 0.  1.
          1   -1    0    0  501    0  0.00000000000E+00 -0.00000000000E+00 -0.21428214902E+04  0.21428214902E+04  0.00000000000E+00 0. -1.
         23    2    1    2    0    0 -0.75943765630E+03  0.60055850983E+03 -0.45350721394E+03  0.10731067431E+04  0.92050048974E+02 0.  0.
         11    1    3    3    0    0 -0.22075708627E+03  0.12668049435E+03 -0.10239571825E+03  0.27434744742E+03  0.00000000000E+00 0.  1.
        -11    1    3    3    0    0 -0.53868057002E+03  0.47387801547E+03 -0.35111149569E+03  0.79875929570E+03  0.00000000000E+00 0. -1.
         22    1    1    2    0    0  0.75943765630E+03 -0.60055850983E+03 -0.12096329936E+04  0.15493960297E+04  0.00000000000E+00 0. -1.
<mgrwt>
<rscale>  0 0.20276798E+04</rscale>
<asrwt>0</asrwt>
<pdfrwt beam="1">  1        1 0.32966484E+00 0.20276798E+04</pdfrwt>
<pdfrwt beam="2">  1       -1 0.73797122E-01 0.20276798E+04</pdfrwt>
<totfact> 0.40785360E+00</totfact>
</mgrwt>
</event>
<event>
 6    1  0.9512547E-007  0.1274921E+04  0.7818608E-02  0.9049693E-01
          1   -1    0    0  501    0  0.00000000000E+00  0.00000000000E+00  0.37565136362E+03  0.37565136362E+03  0.00000000000E+00 0. -1.
         -1   -1    0    0    0  501 -0.00000000000E+00 -0.00000000000E+00 -0.10817367851E+04  0.10817367851E+04  0.00000000000E+00 0.  1.
         23    2    1    2    0    0 -0.27406833203E+03  0.49304462011E+02  0.29618007909E+03  0.41715715791E+03  0.93557867370E+02 0.  0.
         11    1    3    3    0    0 -0.21497216135E+03  0.73390956716E+02  0.25349850637E+03  0.34038324785E+03  0.00000000000E+00 0. -1.
        -11    1    3    3    0    0 -0.59096170673E+02 -0.24086494705E+02  0.42681572726E+02  0.76773910059E+02  0.00000000000E+00 0.  1.
         22    1    1    2    0    0  0.27406833203E+03 -0.49304462011E+02 -0.10022655006E+04  0.10402309908E+04  0.00000000000E+00 0.  1.
<mgrwt>
<rscale>  0 0.12749210E+04</rscale>
<asrwt>0</asrwt>
<pdfrwt beam="1">  1        1 0.57792520E-01 0.12749210E+04</pdfrwt>
<pdfrwt beam="2">  1       -1 0.16642104E+00 0.12749210E+04</pdfrwt>
<totfact> 0.16790609E+01</totfact>
</mgrwt>
</event>
<event>
 6    1  0.9512547E-007  0.9004945E+03  0.7818608E-02  0.9424963E-01
         -2   -1    0    0    0  501 -0.00000000000E+00  0.00000000000E+00  0.55708737126E+03  0.55708737126E+03  0.00000000000E+00 0.  1.
          2   -1    0    0  501    0  0.00000000000E+00 -0.00000000000E+00 -0.36389728691E+03  0.36389728691E+03  0.00000000000E+00 0. -1.
         23    2    1    2    0    0  0.42746455912E+03 -0.10840464020E+03  0.16274680437E+03  0.47893906254E+03  0.91752863542E+02 0.  0.
         13    1    3    3    0    0  0.21243423607E+03 -0.10100313520E+03  0.81123749363E+02  0.24881921285E+03  0.00000000000E+00 0. -1.
        -13    1    3    3    0    0  0.21503032306E+03 -0.74015049954E+01  0.81623055008E+02  0.23011984968E+03  0.00000000000E+00 0.  1.
         22    1    1    2    0    0 -0.42746455912E+03  0.10840464020E+03  0.30443279972E+02  0.44204559563E+03  0.00000000000E+00 0. -1.
<mgrwt>
<rscale>  0 0.90049449E+03</rscale>
<asrwt>0</asrwt>
<pdfrwt beam="1">  1        2 0.55984198E-01 0.90049449E+03</pdfrwt>
<pdfrwt beam="2">  1       -2 0.85705749E-01 0.90049449E+03</pdfrwt>
<totfact> 0.10498827E+02</totfact>
</mgrwt>
</event>
<event>
 6    1  0.9512547E-007  0.8923214E+03  0.7818608E-02  0.9435231E-01
         -1   -1    0    0    0  501 -0.00000000000E+00  0.00000000000E+00  0.13035152258E+04  0.13035152258E+04  0.00000000000E+00 0.  1.
          1   -1    0    0  501    0  0.00000000000E+00 -0.00000000000E+00 -0.15270964781E+03  0.15270964781E+03  0.00000000000E+00 0. -1.
         23    2    1    2    0    0  0.17437269456E+03 -0.99923365358E+02 -0.60726988720E+02  0.22813624662E+03  0.89262894366E+02 0.  0.
         11    1    3    3    0    0  0.86578776620E+02 -0.62685131925E+00 -0.33436627766E+02  0.92813175680E+02  0.00000000000E+00 0.  1.
        -11    1    3    3    0    0  0.87793917936E+02 -0.99296514039E+02 -0.27290360955E+02  0.13532307094E+03  0.00000000000E+00 0. -1.
         22    1    1    2    0    0 -0.17437269456E+03  0.99923365358E+02  0.12115325667E+04  0.12280886269E+04  0.00000000000E+00 0.  1.
<mgrwt>
<rscale>  0 0.89232136E+03</rscale>
<asrwt>0</asrwt>
<pdfrwt beam="1">  1        1 0.23493793E-01 0.89232136E+03</pdfrwt>
<pdfrwt beam="2">  1       -1 0.20054080E+00 0.89232136E+03</pdfrwt>
<totfact> 0.32023748E+01</totfact>
</mgrwt>
</event>
<event>
 6    1  0.9512547E-007  0.2590057E+04  0.7818608E-02  0.8371586E-01
         -3   -1    0    0    0  501 -0.00000000000E+00  0.00000000000E+00  0.11368957295E+04  0.11368957295E+04  0.00000000000E+00 0.  1.
          3   -1    0    0  501    0  0.00000000000E+00 -0.00000000000E+00 -0.14751563917E+04  0.14751563917E+04  0.00000000000E+00 0. -1.
         23    2    1    2    0    0 -0.76863917223E+03 -0.16563874888E+03 -0.12050465842E+04  0.14417700155E+04  0.91220256614E+02 0.  0.
         13    1    3    3    0    0 -0.30899644781E+03 -0.44535284577E+02 -0.55015146090E+03  0.63255736993E+03  0.00000000000E+00 0. -1.
        -13    1    3    3    0    0 -0.45964272443E+03 -0.12110346430E+03 -0.65489512332E+03  0.80921264556E+03  0.00000000000E+00 0.  1.
         22    1    1    2    0    0  0.76863917223E+03  0.16563874888E+03  0.86678592206E+03  0.11702821057E+04  0.00000000000E+00 0.  1.
<mgrwt>
<rscale>  0 0.25900571E+04</rscale>
<asrwt>0</asrwt>
<pdfrwt beam="1">  1        3 0.22694714E+00 0.25900571E+04</pdfrwt>
<pdfrwt beam="2">  1       -3 0.17490704E+00 0.25900571E+04</pdfrwt>
<totfact> 0.49684573E-02</totfact>
</mgrwt>
</event>
<event>
 6    1  0.9512547E-007  0.2718112E+04  0.7818608E-02  0.8329152E-01
          2   -1    0    0  501    0  0.00000000000E+00  0.00000000000E+00  0.10811406718E+04  0.10811406718E+04  0.00000000000E+00 0. -1.
         -2   -1    0    0    0  501 -0.00000000000E+00 -0.00000000000E+00 -0.17084120875E+04  0.17084120875E+04  0.00000000000E+00 0.  1.
         23    2    1    2    0    0 -0.11466312092E+04 -0.71496098099E+03 -0.44822626720E+03  0.14264718741E+04  0.89347002561E+02 0.  0.
         13    1    3    3    0    0 -0.67455303897E+02 -0.59936298697E+02 -0.47577091516E+02  0.10201057574E+03  0.00000000000E+00 0.  1.
        -13    1    3    3    0    0 -0.10791759053E+04 -0.65502468229E+03 -0.40064917569E+03  0.13244612984E+04  0.00000000000E+00 0. -1.
         22    1    1    2    0    0  0.11466312092E+04  0.71496098099E+03 -0.17904514852E+03  0.13630808851E+04  0.00000000000E+00 0.  1.
<mgrwt>
<rscale>  0 0.27181124E+04</rscale>
<asrwt>0</asrwt>
<pdfrwt beam="1">  1        2 0.16632933E+00 0.27181124E+04</pdfrwt>
<pdfrwt beam="2">  1       -2 0.26283263E+00 0.27181124E+04</pdfrwt>
<totfact> 0.10510217E+00</totfact>
</mgrwt>
</event>
<event>
 6    1  0.9512547E-007  0.1308432E+04  0.7818608E-02  0.9022905E-01
         -2   -1    0    0    0  501 -0.00000000000E+00  0.00000000000E+00  0.52755288045E+03  0.52755288045E+03  0.00000000000E+00 0.  1.
          2   -1    0    0  501    0  0.00000000000E+00 -0.00000000000E+00 -0.81129016797E+03  0.81129016797E+03  0.00000000000E+00 0. -1.
         23    2    1    2    0    0 -0.32106402584E+03 -0.26117427601E+03  0.37211280211E+03  0.56332164241E+03  0.87001288352E+02 0.  0.
         13    1    3    3    0    0 -0.23465091394E+03 -0.13725210257E+03  0.24009641844E+03  0.36269199222E+03  0.00000000000E+00 0. -1.
        -13    1    3    3    0    0 -0.86413111899E+02 -0.12392217343E+03  0.13201638366E+03  0.20062965018E+03  0.00000000000E+00 0.  1.
         22    1    1    2    0    0  0.32106402584E+03  0.26117427601E+03 -0.65585008963E+03  0.77552140602E+03  0.00000000000E+00 0. -1.
<mgrwt>
<rscale>  0 0.13084318E+04</rscale>
<asrwt>0</asrwt>
<pdfrwt beam="1">  1        2 0.12481387E+00 0.13084318E+04</pdfrwt>
<pdfrwt beam="2">  1       -2 0.81161982E-01 0.13084318E+04</pdfrwt>
<totfact> 0.44331416E+01</totfact>
</mgrwt>
</event>
<event>
 6    1  0.9512547E-007  0.1796922E+04  0.7818608E-02  0.8707938E-01
          1   -1    0    0  501    0  0.00000000000E+00  0.00000000000E+00  0.34058314318E+03  0.34058314318E+03  0.00000000000E+00 0. -1.
         -1   -1    0    0    0  501 -0.00000000000E+00 -0.00000000000E+00 -0.23701471931E+04  0.23701471931E+04  0.00000000000E+00 0.  1.
         23    2    1    2    0    0  0.13209924176E+03  0.53500840789E+03  0.48577255135E+02  0.56076394352E+03  0.91718288535E+02 0.  0.
         13    1    3    3    0    0  0.36764547898E+02  0.11219210143E+03  0.47694644368E+02  0.12733215896E+03  0.00000000000E+00 0.  1.
        -13    1    3    3    0    0  0.95334693865E+02  0.42281630646E+03  0.88261076663E+00  0.43343178456E+03  0.00000000000E+00 0. -1.
         22    1    1    2    0    0 -0.13209924176E+03 -0.53500840789E+03 -0.20781413051E+04  0.21499663928E+04  0.00000000000E+00 0.  1.
<mgrwt>
<rscale>  0 0.17969220E+04</rscale>
<asrwt>0</asrwt>
<pdfrwt beam="1">  1        1 0.52397406E-01 0.17969220E+04</pdfrwt>
<pdfrwt beam="2">  1       -1 0.36463803E+00 0.17969220E+04</pdfrwt>
<totfact> 0.87219871E-01</totfact>
</mgrwt>
</event>
<event>
 6    1  0.9512547E-007  0.1156744E+04  0.7818608E-02  0.9151585E-01
         -2   -1    0    0    0  501 -0.00000000000E+00  0.00000000000E+00  0.12737021167E+03  0.12737021167E+03  0.00000000000E+00 0.  1.
          2   -1    0    0  501    0  0.00000000000E+00 -0.00000000000E+00 -0.26263133310E+04  0.26263133310E+04  0.00000000000E+00 0. -1.
         23    2    1    2    0    0  0.55503247980E+03  0.57843783576E+01 -0.16120390723E+04  0.17074076224E+04  0.92066855034E+02 0.  0.
         13    1    3    3    0    0  0.22894249089E+03 -0.42942202669E+02 -0.66887302885E+03  0.70827242332E+03  0.00000000000E+00 0. -1.
        -13    1    3    3    0    0  0.32608998890E+03  0.48726581027E+02 -0.94316604343E+03  0.99913519908E+03  0.00000000000E+00 0.  1.
         22    1    1    2    0    0 -0.55503247980E+03 -0.57843783576E+01 -0.88690404704E+03  0.10462759203E+04  0.00000000000E+00 0.  1.
<mgrwt>
<rscale>  0 0.11567439E+04</rscale>
<asrwt>0</asrwt>
<pdfrwt beam="1">  1        2 0.40404821E+00 0.11567439E+04</pdfrwt>
<pdfrwt beam="2">  1       -2 0.19595417E-01 0.11567439E+04</pdfrwt>
<totfact> 0.64978652E+01</totfact>
</mgrwt>
</event>
<event>
 6    1  0.9512547E-007  0.2042309E+04  0.7818608E-02  0.8587091E-01
         -2   -1    0    0    0  501 -0.00000000000E+00  0.00000000000E+00  0.49938951866E+03  0.49938951866E+03  0.00000000000E+00 0.  1.
          2   -1    0    0  501    0  0.00000000000E+00 -0.00000000000E+00 -0.20880631575E+04  0.20880631575E+04  0.00000000000E+00 0. -1.
         23    2    1    2    0    0  0.30586851721E+03 -0.63650628493E+03  0.13806156232E+03  0.72189371019E+03  0.58083846710E+02 0.  0.
         13    1    3    3    0    0  0.21640954088E+03 -0.42142150153E+03  0.11715209193E+03  0.48801002446E+03  0.00000000000E+00 0. -1.
        -13    1    3    3    0    0  0.89458976332E+02 -0.21508478341E+03  0.20909470384E+02  0.23388368573E+03  0.00000000000E+00 0.  1.
         22    1    1    2    0    0 -0.30586851721E+03  0.63650628493E+03 -0.17267352011E+04  0.18655589659E+04  0.00000000000E+00 0. -1.
<mgrwt>
<rscale>  0 0.20423093E+04</rscale>
<asrwt>0</asrwt>
<pdfrwt beam="1">  1        2 0.32124048E+00 0.20423093E+04</pdfrwt>
<pdfrwt beam="2">  1       -2 0.76829159E-01 0.20423093E+04</pdfrwt>
<totfact> 0.83605348E+00</totfact>
</mgrwt>
</event>
<event>
 6    1  0.9512547E-007  0.5044336E+03  0.7818608E-02  0.1012628E+00
         -1   -1    0    0    0  501 -0.00000000000E+00  0.00000000000E+00  0.11614717226E+03  0.11614717226E+03  0.00000000000E+00 0.  1.
          1   -1    0    0  501    0  0.00000000000E+00 -0.00000000000E+00 -0.54769568703E+03  0.54769568703E+03  0.00000000000E+00 0. -1.
         23    2    1    2    0    0  0.18925199462E+02 -0.51504893466E+02 -0.53545144960E+03  0.54634078657E+03  0.93643381850E+02 0.  0.
         11    1    3    3    0    0  0.49476697518E+02 -0.87463117082E+01 -0.34997415983E+03  0.35356237655E+03  0.00000000000E+00 0.  1.
        -11    1    3    3    0    0 -0.30551498057E+02 -0.42758581758E+02 -0.18547728977E+03  0.19277841002E+03  0.00000000000E+00 0. -1.
         22    1    1    2    0    0 -0.18925199462E+02  0.51504893466E+02  0.10390293484E+03  0.11750207272E+03  0.00000000000E+00 0.  1.
<mgrwt>
<rscale>  0 0.50443356E+03</rscale>
<asrwt>0</asrwt>
<pdfrwt beam="1">  1        1 0.84260876E-01 0.50443356E+03</pdfrwt>
<pdfrwt beam="2">  1       -1 0.17868796E-01 0.50443356E+03</pdfrwt>
<totfact> 0.96755450E+02</totfact>
</mgrwt>
</event>
<event>
 6    1  0.9512547E-007  0.4015647E+04  0.7818608E-02  0.8001397E-01
         -2   -1    0    0    0  501 -0.00000000000E+00  0.00000000000E+00  0.12835836222E+04  0.12835836222E+04  0.00000000000E+00 0.  1.
          2   -1    0    0  501    0  0.00000000000E+00 -0.00000000000E+00 -0.31407033922E+04  0.31407033922E+04  0.00000000000E+00 0. -1.
         23    2    1    2    0    0 -0.11183615994E+04  0.15424588482E+04 -0.16226095901E+04  0.25046758585E+04  0.10308883827E+03 0.  0.
         13    1    3    3    0    0 -0.50492127892E+03  0.61379566689E+03 -0.65603230515E+03  0.10305673214E+04  0.00000000000E+00 0. -1.
        -13    1    3    3    0    0 -0.61344032048E+03  0.92866318127E+03 -0.96657728499E+03  0.14741085370E+04  0.00000000000E+00 0.  1.
         22    1    1    2    0    0  0.11183615994E+04 -0.15424588482E+04 -0.23451017988E+03  0.19196111559E+04  0.00000000000E+00 0.  1.
<mgrwt>
<rscale>  0 0.40156471E+04</rscale>
<asrwt>0</asrwt>
<pdfrwt beam="1">  1        2 0.48318513E+00 0.40156471E+04</pdfrwt>
<pdfrwt beam="2">  1       -2 0.19747441E+00 0.40156471E+04</pdfrwt>
<totfact> 0.15414509E-01</totfact>
</mgrwt>
</event>
<event>
 6    1  0.9512547E-007  0.2308264E+04  0.7818608E-02  0.8474670E-01
         -1   -1    0    0    0  501 -0.00000000000E+00  0.00000000000E+00  0.50286671709E+03  0.50286671709E+03  0.00000000000E+00 0.  1.
          1   -1    0    0  501    0  0.00000000000E+00 -0.00000000000E+00 -0.26488545645E+04  0.26488545645E+04  0.00000000000E+00 0. -1.
         23    2    1    2    0    0  0.40808376582E+03 -0.92606129651E+03 -0.18271440767E+04  0.20906919536E+04  0.91735942037E+02 0.  0.
         11    1    3    3    0    0  0.37602998889E+03 -0.84072018148E+03 -0.17101371408E+04  0.19423640278E+04  0.00000000000E+00 0.  1.
        -11    1    3    3    0    0  0.32053776924E+02 -0.85341115022E+02 -0.11700693583E+03  0.14832792576E+03  0.00000000000E+00 0. -1.
         22    1    1    2    0    0 -0.40808376582E+03  0.92606129651E+03 -0.31884377077E+03  0.10610293280E+04  0.00000000000E+00 0.  1.
<mgrwt>
<rscale>  0 0.23082641E+04</rscale>
<asrwt>0</asrwt>
<pdfrwt beam="1">  1        1 0.40751610E+00 0.23082641E+04</pdfrwt>
<pdfrwt beam="2">  1       -1 0.77364108E-01 0.23082641E+04</pdfrwt>
<totfact> 0.16131284E+00</totfact>
</mgrwt>
</event>
<event>
 6    1  0.1157360E-006  0.3366218E+04  0.7818608E-02  0.8146248E-01
          2   -1    0    0  501    0  0.00000000000E+00  0.00000000000E+00  0.17686127260E+04  0.17686127260E+04  0.00000000000E+00 0. -1.
         -2   -1    0    0    0  501 -0.00000000000E+00 -0.00000000000E+00 -0.16017387395E+04  0.16017387395E+04  0.00000000000E+00 0.  1.
         23    2    1    2    0    0 -0.50381210655E+03  0.15692409209E+04  0.41949572492E+03  0.17029698508E+04  0.88237990949E+02 0.  0.
         11    1    3    3    0    0 -0.17756228373E+03  0.69282640190E+03  0.19138890209E+03  0.74038267107E+03  0.00000000000E+00 0. -1.
        -11    1    3    3    0    0 -0.32624982282E+03  0.87641451896E+03  0.22810682283E+03  0.96258717972E+03  0.00000000000E+00 0.  1.
         22    1    1    2    0    0  0.50381210655E+03 -0.15692409209E+04 -0.25262173838E+03  0.16673816147E+04  0.00000000000E+00 0. -1.
<mgrwt>
<rscale>  0 0.33662178E+04</rscale>
<asrwt>0</asrwt>
<pdfrwt beam="1">  1        2 0.27209426E+00 0.33662178E+04</pdfrwt>
<pdfrwt beam="2">  1       -2 0.24642135E+00 0.33662178E+04</pdfrwt>
<totfact> 0.50450058E-01</totfact>
</mgrwt>
</event>
<event>
 6    1  0.9512547E-007  0.2774730E+04  0.7818608E-02  0.8311157E-01
          1   -1    0    0  501    0  0.00000000000E+00  0.00000000000E+00  0.15538196730E+04  0.15538196730E+04  0.00000000000E+00 0. -1.
         -1   -1    0    0    0  501 -0.00000000000E+00 -0.00000000000E+00 -0.12387420008E+04  0.12387420008E+04  0.00000000000E+00 0.  1.
         23    2    1    2    0    0 -0.73471289645E+03  0.61356556409E+03 -0.85092869098E+03  0.12839740626E+04  0.90796556478E+02 0.  0.
         13    1    3    3    0    0 -0.10777211263E+03  0.10878061824E+03 -0.17826919210E+03  0.23500628932E+03  0.00000000000E+00 0.  1.
        -13    1    3    3    0    0 -0.62694078381E+03  0.50478494585E+03 -0.67265949887E+03  0.10489677733E+04  0.00000000000E+00 0. -1.
         22    1    1    2    0    0  0.73471289645E+03 -0.61356556409E+03  0.11660063632E+04  0.15085876112E+04  0.00000000000E+00 0. -1.
<mgrwt>
<rscale>  0 0.27747300E+04</rscale>
<asrwt>0</asrwt>
<pdfrwt beam="1">  1        1 0.23904918E+00 0.27747300E+04</pdfrwt>
<pdfrwt beam="2">  1       -1 0.19057569E+00 0.27747300E+04</pdfrwt>
<totfact> 0.91196899E-01</totfact>
</mgrwt>
</event>
<event>
 6    1  0.9512547E-007  0.4146599E+04  0.7818608E-02  0.7975609E-01
          2   -1    0    0  501    0  0.00000000000E+00  0.00000000000E+00  0.32156976478E+04  0.32156976478E+04  0.00000000000E+00 0. -1.
         -2   -1    0    0    0  501 -0.00000000000E+00 -0.00000000000E+00 -0.13367457276E+04  0.13367457276E+04  0.00000000000E+00 0.  1.
         23    2    1    2    0    0 -0.16171054427E+04  0.79410692856E+03  0.20641302923E+04  0.27413865413E+04  0.94501208903E+02 0.  0.
         13    1    3    3    0    0 -0.71174609311E+03  0.29758498923E+03  0.88815168732E+03  0.11764152101E+04  0.00000000000E+00 0.  1.
        -13    1    3    3    0    0 -0.90535934958E+03  0.49652193933E+03  0.11759786050E+04  0.15649713312E+04  0.00000000000E+00 0. -1.
         22    1    1    2    0    0  0.16171054427E+04 -0.79410692856E+03 -0.18517837209E+03  0.18110568341E+04  0.00000000000E+00 0.  1.
<mgrwt>
<rscale>  0 0.41465987E+04</rscale>
<asrwt>0</asrwt>
<pdfrwt beam="1">  1        2 0.49472271E+00 0.41465987E+04</pdfrwt>
<pdfrwt beam="2">  1       -2 0.20565319E+00 0.41465987E+04</pdfrwt>
<totfact> 0.12049046E-01</totfact>
</mgrwt>
</event>
<event>
 6    1  0.9512547E-007  0.3567686E+04  0.7818608E-02  0.8097934E-01
          2   -1    0    0  501    0  0.00000000000E+00  0.00000000000E+00  0.22889333184E+04  0.22889333184E+04  0.00000000000E+00 0. -1.
         -2   -1    0    0    0  501 -0.00000000000E+00 -0.00000000000E+00 -0.13902091636E+04  0.13902091636E+04  0.00000000000E+00 0.  1.
         23    2    1    2    0    0 -0.34774384614E+03  0.15161868718E+04 -0.44835242045E+03  0.16213855205E+04  0.90126025503E+02 0.  0.
         11    1    3    3    0    0 -0.14017352718E+03  0.79099869268E+03 -0.25235951390E+03  0.84202902194E+03  0.00000000000E+00 0. -1.
        -11    1    3    3    0    0 -0.20757031895E+03  0.72518817913E+03 -0.19599290655E+03  0.77935649858E+03  0.00000000000E+00 0.  1.
         22    1    1    2    0    0  0.34774384614E+03 -0.15161868718E+04  0.13470765753E+04  0.20577569615E+04  0.00000000000E+00 0. -1.
<mgrwt>
<rscale>  0 0.35676861E+04</rscale>
<asrwt>0</asrwt>
<pdfrwt beam="1">  1        2 0.35214359E+00 0.35676861E+04</pdfrwt>
<pdfrwt beam="2">  1       -2 0.21387833E+00 0.35676861E+04</pdfrwt>
<totfact> 0.40641394E-01</totfact>
</mgrwt>
</event>
<event>
 6    1  0.9512547E-007  0.4779744E+04  0.7818608E-02  0.7863412E-01
          2   -1    0    0  501    0  0.00000000000E+00  0.00000000000E+00  0.27269979757E+04  0.27269979757E+04  0.00000000000E+00 0. -1.
         -2   -1    0    0    0  501 -0.00000000000E+00 -0.00000000000E+00 -0.20944233179E+04  0.20944233179E+04  0.00000000000E+00 0.  1.
         23    2    1    2    0    0  0.30854385841E+02  0.82655595355E+03  0.25771918931E+04  0.27082050413E+04  0.91157853676E+02 0.  0.
         11    1    3    3    0    0  0.49274944442E+02  0.58587115995E+03  0.19245399185E+04  0.20123436421E+04  0.00000000000E+00 0. -1.
        -11    1    3    3    0    0 -0.18420558601E+02  0.24068479360E+03  0.65265197463E+03  0.69586139915E+03  0.00000000000E+00 0.  1.
         22    1    1    2    0    0 -0.30854385841E+02 -0.82655595355E+03 -0.19446172353E+04  0.21132162523E+04  0.00000000000E+00 0.  1.
<mgrwt>
<rscale>  0 0.47797440E+04</rscale>
<asrwt>0</asrwt>
<pdfrwt beam="1">  1        2 0.41953815E+00 0.47797440E+04</pdfrwt>
<pdfrwt beam="2">  1       -2 0.32221897E+00 0.47797440E+04</pdfrwt>
<totfact> 0.43972061E-02</totfact>
</mgrwt>
</event>
<event>
 6    1  0.9512547E-007  0.1679822E+04  0.7818608E-02  0.8772957E-01
         -2   -1    0    0    0  501 -0.00000000000E+00  0.00000000000E+00  0.14520749058E+04  0.14520749058E+04  0.00000000000E+00 0.  1.
          2   -1    0    0  501    0  0.00000000000E+00 -0.00000000000E+00 -0.48582218562E+03  0.48582218562E+03  0.00000000000E+00 0. -1.
         23    2    1    2    0    0  0.23436059547E+03  0.51847518103E+03 -0.22455589702E+03  0.61813705078E+03  0.89031795522E+02 0.  0.
         13    1    3    3    0    0  0.88729561838E+02  0.30352229434E+03 -0.12694075763E+03  0.34075309867E+03  0.00000000000E+00 0. -1.
        -13    1    3    3    0    0  0.14563103363E+03  0.21495288669E+03 -0.97615139391E+02  0.27738395211E+03  0.00000000000E+00 0.  1.
         22    1    1    2    0    0 -0.23436059547E+03 -0.51847518103E+03  0.11908086172E+04  0.13197600406E+04  0.00000000000E+00 0.  1.
<mgrwt>
<rscale>  0 0.16798217E+04</rscale>
<asrwt>0</asrwt>
<pdfrwt beam="1">  1        2 0.74741876E-01 0.16798217E+04</pdfrwt>
<pdfrwt beam="2">  1       -2 0.22339614E+00 0.16798217E+04</pdfrwt>
<totfact> 0.57046901E+00</totfact>
</mgrwt>
</event>
<event>
 6    1  0.9512547E-007  0.1344748E+04  0.7818608E-02  0.8994813E-01
          2   -1    0    0  501    0  0.00000000000E+00  0.00000000000E+00  0.33717263323E+04  0.33717263323E+04  0.00000000000E+00 0. -1.
         -2   -1    0    0    0  501 -0.00000000000E+00 -0.00000000000E+00 -0.13408177750E+03  0.13408177750E+03  0.00000000000E+00 0.  1.
         23    2    1    2    0    0  0.15797681973E+02  0.51769281496E+03  0.52160367329E+03  0.74082465824E+03  0.92170303486E+02 0.  0.
         13    1    3    3    0    0  0.12308678706E+02  0.48232261470E+03  0.51303060744E+03  0.70426345382E+03  0.00000000000E+00 0.  1.
        -13    1    3    3    0    0  0.34890032668E+01  0.35370200258E+02  0.85730658558E+01  0.36561204415E+02  0.00000000000E+00 0. -1.
         22    1    1    2    0    0 -0.15797681973E+02 -0.51769281496E+03  0.27160408815E+04  0.27649834515E+04  0.00000000000E+00 0. -1.
<mgrwt>
<rscale>  0 0.13447484E+04</rscale>
<asrwt>0</asrwt>
<pdfrwt beam="1">  1        2 0.51872706E+00 0.13447484E+04</pdfrwt>
<pdfrwt beam="2">  1       -2 0.20627968E-01 0.13447484E+04</pdfrwt>
<totfact> 0.20042465E+01</totfact>
</mgrwt>
</event>
<event>
 6    1  0.9512547E-007  0.2481840E+04  0.7818608E-02  0.8409484E-01
         -2   -1    0    0    0  501 -0.00000000000E+00  0.00000000000E+00  0.75713955608E+03  0.75713955608E+03  0.00000000000E+00 0.  1.
          2   -1    0    0  501    0  0.00000000000E+00 -0.00000000000E+00 -0.20338159201E+04  0.20338159201E+04  0.00000000000E+00 0. -1.
         23    2    1    2    0    0  0.77318538585E+03  0.18440177383E+03  0.42909669057E+03  0.90907307580E+03  0.10232415260E+03 0.  0.
         11    1    3    3    0    0  0.41892886700E+03  0.49096987284E+02  0.21129286974E+03  0.47175903443E+03  0.00000000000E+00 0.  1.
        -11    1    3    3    0    0  0.35425651885E+03  0.13530478654E+03  0.21780382084E+03  0.43731404137E+03  0.00000000000E+00 0. -1.
         22    1    1    2    0    0 -0.77318538585E+03 -0.18440177383E+03 -0.17057730546E+04  0.18818824004E+04  0.00000000000E+00 0. -1.
<mgrwt>
<rscale>  0 0.24818400E+04</rscale>
<asrwt>0</asrwt>
<pdfrwt beam="1">  1        2 0.31289475E+00 0.24818400E+04</pdfrwt>
<pdfrwt beam="2">  1       -2 0.11648301E+00 0.24818400E+04</pdfrwt>
<totfact> 0.32654377E+00</totfact>
</mgrwt>
</event>
<event>
 6    1  0.9512547E-007  0.2709600E+04  0.7818608E-02  0.8331897E-01
         -1   -1    0    0    0  501 -0.00000000000E+00  0.00000000000E+00  0.86899074663E+03  0.86899074663E+03  0.00000000000E+00 0.  1.
          1   -1    0    0  501    0  0.00000000000E+00 -0.00000000000E+00 -0.21122014405E+04  0.21122014405E+04  0.00000000000E+00 0. -1.
         23    2    1    2    0    0 -0.51172883666E+02 -0.11041721393E+04  0.23669243121E+03  0.11340516844E+04  0.90747664044E+02 0.  0.
         13    1    3    3    0    0 -0.20672423382E+02 -0.17126248480E+03  0.68515049752E+02  0.18561384601E+03  0.00000000000E+00 0. -1.
        -13    1    3    3    0    0 -0.30500460285E+02 -0.93290965453E+03  0.16817738146E+03  0.94843783836E+03  0.00000000000E+00 0.  1.
         22    1    1    2    0    0  0.51172883666E+02  0.11041721393E+04 -0.14799031250E+04  0.18471405027E+04  0.00000000000E+00 0. -1.
<mgrwt>
<rscale>  0 0.27096003E+04</rscale>
<asrwt>0</asrwt>
<pdfrwt beam="1">  1        1 0.32495406E+00 0.27096003E+04</pdfrwt>
<pdfrwt beam="2">  1       -1 0.13369089E+00 0.27096003E+04</pdfrwt>
<totfact> 0.10299893E+00</totfact>
</mgrwt>
</event>
<event>
 6    1  0.9512547E-007  0.2826575E+04  0.7818608E-02  0.8295065E-01
          2   -1    0    0  501    0  0.00000000000E+00  0.00000000000E+00  0.20382262190E+04  0.20382262190E+04  0.00000000000E+00 0. -1.
         -2   -1    0    0    0  501 -0.00000000000E+00 -0.00000000000E+00 -0.97996061442E+03  0.97996061442E+03  0.00000000000E+00 0.  1.
         23    2    1    2    0    0 -0.13769262861E+04  0.25550182555E+03  0.72037723009E+03  0.15775703911E+04  0.92616440377E+02 0.  0.
         11    1    3    3    0    0 -0.86227552267E+03  0.11976645055E+03  0.47092576541E+03  0.98976469739E+03  0.00000000000E+00 0. -1.
        -11    1    3    3    0    0 -0.51465076345E+03  0.13573537500E+03  0.24945146468E+03  0.58780569372E+03  0.00000000000E+00 0.  1.
         22    1    1    2    0    0  0.13769262861E+04 -0.25550182555E+03  0.33788837451E+03  0.14406164423E+04  0.00000000000E+00 0. -1.
<mgrwt>
<rscale>  0 0.28265749E+04</rscale>
<asrwt>0</asrwt>
<pdfrwt beam="1">  1        2 0.31357326E+00 0.28265749E+04</pdfrwt>
<pdfrwt beam="2">  1       -2 0.15076317E+00 0.28265749E+04</pdfrwt>
<totfact> 0.16328756E+00</totfact>
</mgrwt>
</event>
<event>
 6    1  0.9512547E-007  0.1887905E+04  0.7818608E-02  0.8660900E-01
          2   -1    0    0  501    0  0.00000000000E+00  0.00000000000E+00  0.29633314454E+04  0.29633314454E+04  0.00000000000E+00 0. -1.
         -2   -1    0    0    0  501 -0.00000000000E+00 -0.00000000000E+00 -0.30069082759E+03  0.30069082759E+03  0.00000000000E+00 0.  1.
         23    2    1    2    0    0  0.19146506548E+02  0.73735900702E+03  0.23469799490E+04  0.24617090226E+04  0.87358669683E+02 0.  0.
         13    1    3    3    0    0  0.32024368672E+01  0.52714630158E+02  0.10605321688E+03  0.11847519844E+03  0.00000000000E+00 0.  1.
        -13    1    3    3    0    0  0.15944069680E+02  0.68464437687E+03  0.22409267321E+04  0.23432338242E+04  0.00000000000E+00 0. -1.
         22    1    1    2    0    0 -0.19146506548E+02 -0.73735900702E+03  0.31566066890E+03  0.80231325045E+03  0.00000000000E+00 0.  1.
<mgrwt>
<rscale>  0 0.18879053E+04</rscale>
<asrwt>0</asrwt>
<pdfrwt beam="1">  1        2 0.45589713E+00 0.18879053E+04</pdfrwt>
<pdfrwt beam="2">  1       -2 0.46260129E-01 0.18879053E+04</pdfrwt>
<totfact> 0.76462340E+00</totfact>
</mgrwt>
</event>
<event>
 6    1  0.9512547E-007  0.1081938E+04  0.7818608E-02  0.9222978E-01
          1   -1    0    0  501    0  0.00000000000E+00  0.00000000000E+00  0.24624746291E+03  0.24624746291E+03  0.00000000000E+00 0. -1.
         -1   -1    0    0    0  501 -0.00000000000E+00 -0.00000000000E+00 -0.11884274042E+04  0.11884274042E+04  0.00000000000E+00 0.  1.
         23    2    1    2    0    0 -0.31104806991E+03  0.13664433938E+03  0.77480025540E+02  0.35990557780E+03  0.90034955949E+02 0.  0.
         13    1    3    3    0    0 -0.14397332269E+03  0.97773569000E+02  0.61899626697E+01  0.17414449195E+03  0.00000000000E+00 0. -1.
        -13    1    3    3    0    0 -0.16707474722E+03  0.38870770385E+02  0.71290062870E+02  0.18576108584E+03  0.00000000000E+00 0.  1.
         22    1    1    2    0    0  0.31104806991E+03 -0.13664433938E+03 -0.10196599669E+04  0.10747692893E+04  0.00000000000E+00 0.  1.
<mgrwt>
<rscale>  0 0.10819376E+04</rscale>
<asrwt>0</asrwt>
<pdfrwt beam="1">  1        1 0.37884225E-01 0.10819376E+04</pdfrwt>
<pdfrwt beam="2">  1       -1 0.18283499E+00 0.10819376E+04</pdfrwt>
<totfact> 0.22483051E+01</totfact>
</mgrwt>
</event>
<event>
 6    1  0.9512547E-007  0.1241757E+04  0.7818608E-02  0.9077072E-01
          1   -1    0    0  501    0  0.00000000000E+00  0.00000000000E+00  0.16338938796E+04  0.16338938796E+04  0.00000000000E+00 0. -1.
         -1   -1    0    0    0  501 -0.00000000000E+00 -0.00000000000E+00 -0.23593337274E+03  0.23593337274E+03  0.00000000000E+00 0.  1.
         23    2    1    2    0    0  0.32936478479E+03  0.33442703172E+03  0.96755050999E+02  0.48654917496E+03  0.83940209416E+02 0.  0.
         13    1    3    3    0    0  0.24480258783E+03  0.20728889709E+03  0.92305421543E+02  0.33379227779E+03  0.00000000000E+00 0. -1.
        -13    1    3    3    0    0  0.84562196963E+02  0.12713813463E+03  0.44496294562E+01  0.15275689717E+03  0.00000000000E+00 0.  1.
         22    1    1    2    0    0 -0.32936478479E+03 -0.33442703172E+03  0.13012054558E+04  0.13832780773E+04  0.00000000000E+00 0. -1.
<mgrwt>
<rscale>  0 0.12417570E+04</rscale>
<asrwt>0</asrwt>
<pdfrwt beam="1">  1        1 0.25136828E+00 0.12417570E+04</pdfrwt>
<pdfrwt beam="2">  1       -1 0.36297443E-01 0.12417570E+04</pdfrwt>
<totfact> 0.37932507E+01</totfact>
</mgrwt>
</event>
<event>
 6    1  0.9512547E-007  0.1180644E+04  0.7818608E-02  0.9129970E-01
          2   -1    0    0  501    0  0.00000000000E+00  0.00000000000E+00  0.14551878170E+04  0.14551878170E+04  0.00000000000E+00 0. -1.
         -2   -1    0    0    0  501 -0.00000000000E+00 -0.00000000000E+00 -0.23947419966E+03  0.23947419966E+03  0.00000000000E+00 0.  1.
         23    2    1    2    0    0  0.53364130652E+03 -0.23457024040E+03  0.70820650621E+03  0.92177152663E+03  0.91159476574E+02 0.  0.
         13    1    3    3    0    0  0.25498211581E+03 -0.15871314916E+03  0.33610741296E+03  0.45074819595E+03  0.00000000000E+00 0. -1.
        -13    1    3    3    0    0  0.27865919071E+03 -0.75857091242E+02  0.37209909324E+03  0.47102333069E+03  0.00000000000E+00 0.  1.
         22    1    1    2    0    0 -0.53364130652E+03  0.23457024040E+03  0.50750711109E+03  0.77289048999E+03  0.00000000000E+00 0.  1.
<mgrwt>
<rscale>  0 0.11806438E+04</rscale>
<asrwt>0</asrwt>
<pdfrwt beam="1">  1        2 0.22387504E+00 0.11806438E+04</pdfrwt>
<pdfrwt beam="2">  1       -2 0.36842185E-01 0.11806438E+04</pdfrwt>
<totfact> 0.92228857E+01</totfact>
</mgrwt>
</event>
<event>
 6    1  0.9512547E-007  0.1907327E+04  0.7818608E-02  0.8651218E-01
          2   -1    0    0  501    0  0.00000000000E+00  0.00000000000E+00  0.21852887606E+04  0.21852887606E+04  0.00000000000E+00 0. -1.
         -2   -1    0    0    0  501 -0.00000000000E+00 -0.00000000000E+00 -0.41618026875E+03  0.41618026875E+03  0.00000000000E+00 0.  1.
         23    2    1    2    0    0 -0.59764049199E+03  0.55985667895E+03  0.15475775081E+04  0.17531237958E+04  0.88505599032E+02 0.  0.
         13    1    3    3    0    0 -0.36856164858E+03  0.33024990407E+03  0.10222747390E+04  0.11357589224E+04  0.00000000000E+00 0.  1.
        -13    1    3    3    0    0 -0.22907884342E+03  0.22960677488E+03  0.52530276913E+03  0.61736487333E+03  0.00000000000E+00 0. -1.
         22    1    1    2    0    0  0.59764049199E+03 -0.55985667895E+03  0.22153098377E+03  0.84834523362E+03  0.00000000000E+00 0. -1.
<mgrwt>
<rscale>  0 0.19073270E+04</rscale>
<asrwt>0</asrwt>
<pdfrwt beam="1">  1        2 0.33619826E+00 0.19073270E+04</pdfrwt>
<pdfrwt beam="2">  1       -2 0.64027735E-01 0.19073270E+04</pdfrwt>
<totfact> 0.11110333E+01</totfact>
</mgrwt>
</event>
<event>
 6    1  0.9512547E-007  0.1036907E+04  0.7818608E-02  0.9268967E-01
         -1   -1    0    0    0  501 -0.00000000000E+00  0.00000000000E+00  0.22442504179E+03  0.22442504179E+03  0.00000000000E+00 0.  1.
          1   -1    0    0  501    0  0.00000000000E+00 -0.00000000000E+00 -0.11977012297E+04  0.11977012297E+04  0.00000000000E+00 0. -1.
         23    2    1    2    0    0  0.32951259171E+03  0.36620819903E+03 -0.69361883783E+03  0.85565012322E+03  0.91340287011E+02 0.  0.
         11    1    3    3    0    0  0.76745920118E+02  0.14106229027E+03 -0.18895984641E+03  0.24798050235E+03  0.00000000000E+00 0.  1.
        -11    1    3    3    0    0  0.25276667159E+03  0.22514590876E+03 -0.50465899142E+03  0.60766962086E+03  0.00000000000E+00 0. -1.
         22    1    1    2    0    0 -0.32951259171E+03 -0.36620819903E+03 -0.27965735010E+03  0.56647614830E+03  0.00000000000E+00 0. -1.
<mgrwt>
<rscale>  0 0.10369072E+04</rscale>
<asrwt>0</asrwt>
<pdfrwt beam="1">  1        1 0.18426172E+00 0.10369072E+04</pdfrwt>
<pdfrwt beam="2">  1       -1 0.34526931E-01 0.10369072E+04</pdfrwt>
<totfact> 0.85252831E+01</totfact>
</mgrwt>
</event>
<event>
 6    1  0.9512547E-007  0.2058034E+04  0.7818608E-02  0.8579958E-01
         -1   -1    0    0    0  501 -0.00000000000E+00  0.00000000000E+00  0.46199128809E+03  0.46199128809E+03  0.00000000000E+00 0.  1.
          1   -1    0    0  501    0  0.00000000000E+00 -0.00000000000E+00 -0.22919835523E+04  0.22919835523E+04  0.00000000000E+00 0. -1.
         23    2    1    2    0    0 -0.16788514158E+03 -0.44728321718E+03 -0.21333236782E+04  0.21880617341E+04  0.91085340320E+02 0.  0.
         13    1    3    3    0    0 -0.52205668625E+02 -0.14745247301E+03 -0.51897771810E+03  0.54203831554E+03  0.00000000000E+00 0. -1.
        -13    1    3    3    0    0 -0.11567947296E+03 -0.29983074417E+03 -0.16143459601E+04  0.16460234185E+04  0.00000000000E+00 0.  1.
         22    1    1    2    0    0  0.16788514158E+03  0.44728321718E+03  0.30333141399E+03  0.56591310627E+03  0.00000000000E+00 0.  1.
<mgrwt>
<rscale>  0 0.20580344E+04</rscale>
<asrwt>0</asrwt>
<pdfrwt beam="1">  1        1 0.35261286E+00 0.20580344E+04</pdfrwt>
<pdfrwt beam="2">  1       -1 0.71075582E-01 0.20580344E+04</pdfrwt>
<totfact> 0.34786968E+00</totfact>
</mgrwt>
</event>
<event>
 6    1  0.9512547E-007  0.1648013E+04  0.7818608E-02  0.8791583E-01
         -2   -1    0    0    0  501 -0.00000000000E+00  0.00000000000E+00  0.47205334002E+03  0.47205334002E+03  0.00000000000E+00 0.  1.
          2   -1    0    0  501    0  0.00000000000E+00 -0.00000000000E+00 -0.14383686746E+04  0.14383686746E+04  0.00000000000E+00 0. -1.
         23    2    1    2    0    0 -0.50662800463E+03  0.64452101850E+03 -0.54620865124E+03  0.98924401677E+03  0.90446424302E+02 0.  0.
         13    1    3    3    0    0 -0.13171270227E+03  0.16439164347E+03 -0.18936933065E+03  0.28325534730E+03  0.00000000000E+00 0. -1.
        -13    1    3    3    0    0 -0.37491530235E+03  0.48012937503E+03 -0.35683932059E+03  0.70598866947E+03  0.00000000000E+00 0.  1.
         22    1    1    2    0    0  0.50662800463E+03 -0.64452101850E+03 -0.42010668335E+03  0.92117799787E+03  0.00000000000E+00 0.  1.
<mgrwt>
<rscale>  0 0.16480130E+04</rscale>
<asrwt>0</asrwt>
<pdfrwt beam="1">  1        2 0.22128749E+00 0.16480130E+04</pdfrwt>
<pdfrwt beam="2">  1       -2 0.72623590E-01 0.16480130E+04</pdfrwt>
<totfact> 0.22538193E+01</totfact>
</mgrwt>
</event>
<event>
 6    1  0.9512547E-007  0.9360365E+03  0.7818608E-02  0.9381622E-01
         -2   -1    0    0    0  501 -0.00000000000E+00  0.00000000000E+00  0.17356786643E+03  0.17356786643E+03  0.00000000000E+00 0.  1.
          2   -1    0    0  501    0  0.00000000000E+00 -0.00000000000E+00 -0.12619911011E+04  0.12619911011E+04  0.00000000000E+00 0. -1.
         23    2    1    2    0    0  0.15014343819E+03 -0.26000289824E+03 -0.10911521526E+04  0.11353057309E+04  0.90341149441E+02 0.  0.
         11    1    3    3    0    0  0.11266816056E+03 -0.17056188364E+03 -0.57827763809E+03  0.61334370240E+03  0.00000000000E+00 0.  1.
        -11    1    3    3    0    0  0.37475277627E+02 -0.89441014600E+02 -0.51287451453E+03  0.52196202848E+03  0.00000000000E+00 0. -1.
         22    1    1    2    0    0 -0.15014343819E+03  0.26000289824E+03  0.27289179530E+01  0.30025323665E+03  0.00000000000E+00 0.  1.
<mgrwt>
<rscale>  0 0.93603654E+03</rscale>
<asrwt>0</asrwt>
<pdfrwt beam="1">  1        2 0.19415248E+00 0.93603654E+03</pdfrwt>
<pdfrwt beam="2">  1       -2 0.26702748E-01 0.93603654E+03</pdfrwt>
<totfact> 0.22131974E+02</totfact>
</mgrwt>
</event>
<event>
 6    1  0.9512547E-007  0.1669322E+04  0.7818608E-02  0.8779057E-01
         -2   -1    0    0    0  501 -0.00000000000E+00  0.00000000000E+00  0.99024894605E+03  0.99024894605E+03  0.00000000000E+00 0.  1.
          2   -1    0    0  501    0  0.00000000000E+00 -0.00000000000E+00 -0.70351891920E+03  0.70351891920E+03  0.00000000000E+00 0. -1.
         23    2    1    2    0    0 -0.24101714152E+03 -0.60466859904E+03  0.66976207405E+03  0.93850173575E+03  0.92146052526E+02 0.  0.
         13    1    3    3    0    0 -0.97207224313E+02 -0.18028635018E+03  0.16082404792E+03  0.26041656420E+03  0.00000000000E+00 0. -1.
        -13    1    3    3    0    0 -0.14380991721E+03 -0.42438224886E+03  0.50893802613E+03  0.67808517155E+03  0.00000000000E+00 0.  1.
         22    1    1    2    0    0  0.24101714152E+03  0.60466859904E+03 -0.38303204720E+03  0.75526612949E+03  0.00000000000E+00 0. -1.
<mgrwt>
<rscale>  0 0.16693219E+04</rscale>
<asrwt>0</asrwt>
<pdfrwt beam="1">  1        2 0.10823368E+00 0.16693219E+04</pdfrwt>
<pdfrwt beam="2">  1       -2 0.15234599E+00 0.16693219E+04</pdfrwt>
<totfact> 0.11158115E+01</totfact>
</mgrwt>
</event>
<event>
 6    1  0.9512547E-007  0.1731267E+04  0.7818608E-02  0.8743730E-01
          2   -1    0    0  501    0  0.00000000000E+00  0.00000000000E+00  0.63262781074E+03  0.63262781074E+03  0.00000000000E+00 0. -1.
         -2   -1    0    0    0  501 -0.00000000000E+00 -0.00000000000E+00 -0.11844590580E+04  0.11844590580E+04  0.00000000000E+00 0.  1.
         23    2    1    2    0    0 -0.14405574389E+03  0.21455288635E+03  0.58800538290E+03  0.64832147661E+03  0.88234960909E+02 0.  0.
         11    1    3    3    0    0 -0.65457500414E+02  0.16915771505E+03  0.41643643907E+03  0.45422276991E+03  0.00000000000E+00 0. -1.
        -11    1    3    3    0    0 -0.78598243476E+02  0.45395171292E+02  0.17156894383E+03  0.19409870670E+03  0.00000000000E+00 0.  1.
         22    1    1    2    0    0  0.14405574389E+03 -0.21455288635E+03 -0.11398366302E+04  0.11687653921E+04  0.00000000000E+00 0.  1.
<mgrwt>
<rscale>  0 0.17312674E+04</rscale>
<asrwt>0</asrwt>
<pdfrwt beam="1">  1        2 0.97327357E-01 0.17312674E+04</pdfrwt>
<pdfrwt beam="2">  1       -2 0.18222447E+00 0.17312674E+04</pdfrwt>
<totfact> 0.77179861E+00</totfact>
</mgrwt>
</event>
<event>
 6    1  0.1060828E-006  0.2528982E+04  0.7818608E-02  0.8392733E-01
         -1   -1    0    0    0  501 -0.00000000000E+00  0.00000000000E+00  0.91248628919E+03  0.91248628919E+03  0.00000000000E+00 0.  1.
          1   -1    0    0  501    0  0.00000000000E+00 -0.00000000000E+00 -0.17522865665E+04  0.17522865665E+04  0.00000000000E+00 0. -1.
         23    2    1    2    0    0  0.12585253064E+04  0.35617270103E+02 -0.31718536797E+03  0.13015850916E+04  0.91447559820E+02 0.  0.
         11    1    3    3    0    0  0.38629236708E+03 -0.29494486866E+02 -0.84990503888E+02  0.39662968040E+03  0.00000000000E+00 0. -1.
        -11    1    3    3    0    0  0.87223293932E+03  0.65111756969E+02 -0.23219486408E+03  0.90495541119E+03  0.00000000000E+00 0.  1.
         22    1    1    2    0    0 -0.12585253064E+04 -0.35617270103E+02 -0.52261490938E+03  0.13631877641E+04  0.00000000000E+00 0. -1.
<mgrwt>
<rscale>  0 0.25289820E+04</rscale>
<asrwt>0</asrwt>
<pdfrwt beam="1">  1        1 0.26958255E+00 0.25289820E+04</pdfrwt>
<pdfrwt beam="2">  1       -1 0.14038251E+00 0.25289820E+04</pdfrwt>
<totfact> 0.16191018E+00</totfact>
</mgrwt>
</event>
<event>
 6    1  0.9512547E-007  0.1086455E+04  0.7818608E-02  0.9218495E-01
         -2   -1    0    0    0  501 -0.00000000000E+00  0.00000000000E+00  0.17827884456E+03  0.17827884456E+03  0.00000000000E+00 0.  1.
          2   -1    0    0  501    0  0.00000000000E+00 -0.00000000000E+00 -0.16552512595E+04  0.16552512595E+04  0.00000000000E+00 0. -1.
         23    2    1    2    0    0 -0.41323740417E+03  0.32679459057E+03 -0.93857040858E+03  0.10802462418E+04  0.91965615999E+02 0.  0.
         13    1    3    3    0    0 -0.95214493852E+02  0.50927776850E+02 -0.26207831811E+03  0.28345102420E+03  0.00000000000E+00 0. -1.
        -13    1    3    3    0    0 -0.31802291032E+03  0.27586681372E+03 -0.67649209047E+03  0.79679521765E+03  0.00000000000E+00 0.  1.
         22    1    1    2    0    0  0.41323740417E+03 -0.32679459057E+03 -0.53840200639E+03  0.75328386224E+03  0.00000000000E+00 0. -1.
<mgrwt>
<rscale>  0 0.10864553E+04</rscale>
<asrwt>0</asrwt>
<pdfrwt beam="1">  1        2 0.25465404E+00 0.10864553E+04</pdfrwt>
<pdfrwt beam="2">  1       -2 0.27427515E-01 0.10864553E+04</pdfrwt>
<totfact> 0.12495368E+02</totfact>
</mgrwt>
</event>
<event>
 6    1  0.9512547E-007  0.3891727E+04  0.7818608E-02  0.8026752E-01
          2   -1    0    0  501    0  0.00000000000E+00  0.00000000000E+00  0.40566271398E+04  0.40566271398E+04  0.00000000000E+00 0. -1.
         -2   -1    0    0    0  501 -0.00000000000E+00 -0.00000000000E+00 -0.93338240169E+03  0.93338240169E+03  0.00000000000E+00 0.  1.
         23    2    1    2    0    0  0.42487672261E+02 -0.16078217343E+04  0.16069712839E+03  0.16190179557E+04  0.92193503542E+02 0.  0.
         13    1    3    3    0    0 -0.15605223558E+02 -0.83494214302E+03  0.56676422340E+02  0.83700903343E+03  0.00000000000E+00 0.  1.
        -13    1    3    3    0    0  0.58092895819E+02 -0.77287959131E+03  0.10402070605E+03  0.78200892226E+03  0.00000000000E+00 0. -1.
         22    1    1    2    0    0 -0.42487672261E+02  0.16078217343E+04  0.29625476097E+04  0.33709915858E+04  0.00000000000E+00 0. -1.
<mgrwt>
<rscale>  0 0.38917268E+04</rscale>
<asrwt>0</asrwt>
<pdfrwt beam="1">  1        2 0.62409647E+00 0.38917268E+04</pdfrwt>
<pdfrwt beam="2">  1       -2 0.14359729E+00 0.38917268E+04</pdfrwt>
<totfact> 0.81949227E-02</totfact>
</mgrwt>
</event>
<event>
 6    1  0.9512547E-007  0.7373394E+03  0.7818608E-02  0.9655425E-01
         -1   -1    0    0    0  501 -0.00000000000E+00  0.00000000000E+00  0.22828548878E+03  0.22828548878E+03  0.00000000000E+00 0.  1.
          1   -1    0    0  501    0  0.00000000000E+00 -0.00000000000E+00 -0.59538318005E+03  0.59538318005E+03  0.00000000000E+00 0. -1.
         23    2    1    2    0    0 -0.84276966524E+02 -0.23702710161E+03  0.10605601558E+03  0.28779659054E+03  0.91074393211E+02 0.  0.
         13    1    3    3    0    0 -0.73723142897E+02 -0.10225975004E+03  0.82285595387E+02  0.15054261020E+03  0.00000000000E+00 0.  1.
        -13    1    3    3    0    0 -0.10553823627E+02 -0.13476735157E+03  0.23770420192E+02  0.13725398034E+03  0.00000000000E+00 0. -1.
         22    1    1    2    0    0  0.84276966524E+02  0.23702710161E+03 -0.47315370686E+03  0.53587207829E+03  0.00000000000E+00 0. -1.
<mgrwt>
<rscale>  0 0.73733938E+03</rscale>
<asrwt>0</asrwt>
<pdfrwt beam="1">  1        1 0.91597412E-01 0.73733938E+03</pdfrwt>
<pdfrwt beam="2">  1       -1 0.35120844E-01 0.73733938E+03</pdfrwt>
<totfact> 0.27018105E+02</totfact>
</mgrwt>
</event>
<event>
 6    1  0.9512547E-007  0.1670193E+04  0.7818608E-02  0.8778549E-01
         -2   -1    0    0    0  501 -0.00000000000E+00  0.00000000000E+00  0.17409808052E+03  0.17409808052E+03  0.00000000000E+00 0.  1.
          2   -1    0    0  501    0  0.00000000000E+00 -0.00000000000E+00 -0.40057092188E+04  0.40057092188E+04  0.00000000000E+00 0. -1.
         23    2    1    2    0    0 -0.33908768408E+03 -0.69939110190E+03 -0.11740790079E+04  0.14109437427E+04  0.90401092178E+02 0.  0.
         13    1    3    3    0    0 -0.16079608143E+03 -0.34659648832E+03 -0.65783423566E+03  0.76074331225E+03  0.00000000000E+00 0. -1.
        -13    1    3    3    0    0 -0.17829160264E+03 -0.35279461358E+03 -0.51624477222E+03  0.65020043047E+03  0.00000000000E+00 0.  1.
         22    1    1    2    0    0  0.33908768408E+03  0.69939110190E+03 -0.26575321304E+04  0.27688635566E+04  0.00000000000E+00 0. -1.
<mgrwt>
<rscale>  0 0.16701931E+04</rscale>
<asrwt>0</asrwt>
<pdfrwt beam="1">  1        2 0.61626290E+00 0.16701931E+04</pdfrwt>
<pdfrwt beam="2">  1       -2 0.26784322E-01 0.16701931E+04</pdfrwt>
<totfact> 0.41589824E+00</totfact>
</mgrwt>
</event>
<event>
 6    1  0.9512547E-007  0.3836201E+04  0.7818608E-02  0.8038430E-01
         -2   -1    0    0    0  501 -0.00000000000E+00  0.00000000000E+00  0.13840144064E+04  0.13840144064E+04  0.00000000000E+00 0.  1.
          2   -1    0    0  501    0  0.00000000000E+00 -0.00000000000E+00 -0.26582891019E+04  0.26582891019E+04  0.00000000000E+00 0. -1.
         23    2    1    2    0    0  0.15707045519E+04 -0.52696700758E+03  0.37977194154E+03  0.17012188678E+04  0.71497497599E+02 0.  0.
         13    1    3    3    0    0  0.12237945840E+04 -0.44153540197E+03  0.29939681078E+03  0.13350150356E+04  0.00000000000E+00 0. -1.
        -13    1    3    3    0    0  0.34690996788E+03 -0.85431605610E+02  0.80375130755E+02  0.36620383216E+03  0.00000000000E+00 0.  1.
         22    1    1    2    0    0 -0.15707045519E+04  0.52696700758E+03 -0.16540466370E+04  0.23410846405E+04  0.00000000000E+00 0. -1.
<mgrwt>
<rscale>  0 0.38362015E+04</rscale>
<asrwt>0</asrwt>
<pdfrwt beam="1">  1        2 0.40896755E+00 0.38362015E+04</pdfrwt>
<pdfrwt beam="2">  1       -2 0.21292530E+00 0.38362015E+04</pdfrwt>
<totfact> 0.24642513E-01</totfact>
</mgrwt>
</event>
<event>
 6    1  0.9512547E-007  0.8829778E+03  0.7818608E-02  0.9447114E-01
          1   -1    0    0  501    0  0.00000000000E+00  0.00000000000E+00  0.10126253220E+04  0.10126253220E+04  0.00000000000E+00 0. -1.
         -1   -1    0    0    0  501 -0.00000000000E+00 -0.00000000000E+00 -0.19248229704E+03  0.19248229704E+03  0.00000000000E+00 0.  1.
         23    2    1    2    0    0 -0.27999041660E+03  0.50178292970E+02  0.86668153160E+03  0.91687450669E+03  0.92787333893E+02 0.  0.
         11    1    3    3    0    0 -0.11939274889E+02 -0.18289225383E+02  0.81623280429E+02  0.84494981851E+02  0.00000000000E+00 0. -1.
        -11    1    3    3    0    0 -0.26805114171E+03  0.68467518353E+02  0.78505825117E+03  0.83237952484E+03  0.00000000000E+00 0.  1.
         22    1    1    2    0    0  0.27999041660E+03 -0.50178292970E+02 -0.46538506612E+02  0.28823311237E+03  0.00000000000E+00 0.  1.
<mgrwt>
<rscale>  0 0.88297780E+03</rscale>
<asrwt>0</asrwt>
<pdfrwt beam="1">  1        1 0.15578851E+00 0.88297780E+03</pdfrwt>
<pdfrwt beam="2">  1       -1 0.29612662E-01 0.88297780E+03</pdfrwt>
<totfact> 0.15548159E+02</totfact>
</mgrwt>
</event>
<event>
 6    1  0.9512547E-007  0.1963037E+04  0.7818608E-02  0.8624100E-01
         -2   -1    0    0    0  501 -0.00000000000E+00  0.00000000000E+00  0.86070649803E+03  0.86070649803E+03  0.00000000000E+00 0.  1.
          2   -1    0    0  501    0  0.00000000000E+00 -0.00000000000E+00 -0.11192876472E+04  0.11192876472E+04  0.00000000000E+00 0. -1.
         23    2    1    2    0    0 -0.74544328545E+03  0.31748839882E+02 -0.76933504746E+03  0.10758021162E+04  0.93702173707E+02 0.  0.
         13    1    3    3    0    0 -0.43655786540E+03  0.64582074728E+02 -0.45733335386E+03  0.63553710416E+03  0.00000000000E+00 0. -1.
        -13    1    3    3    0    0 -0.30888542006E+03 -0.32833234845E+02 -0.31200169360E+03  0.44026501206E+03  0.00000000000E+00 0.  1.
         22    1    1    2    0    0  0.74544328545E+03 -0.31748839882E+02  0.51075389831E+03  0.90419202899E+03  0.00000000000E+00 0.  1.
<mgrwt>
<rscale>  0 0.19630366E+04</rscale>
<asrwt>0</asrwt>
<pdfrwt beam="1">  1        2 0.17219810E+00 0.19630366E+04</pdfrwt>
<pdfrwt beam="2">  1       -2 0.13241638E+00 0.19630366E+04</pdfrwt>
<totfact> 0.81875454E+00</totfact>
</mgrwt>
</event>
<event>
 6    1  0.9512547E-007  0.2132000E+04  0.7818608E-02  0.8547277E-01
         -2   -1    0    0    0  501 -0.00000000000E+00  0.00000000000E+00  0.61732705769E+03  0.61732705769E+03  0.00000000000E+00 0.  1.
          2   -1    0    0  501    0  0.00000000000E+00 -0.00000000000E+00 -0.18407674491E+04  0.18407674491E+04  0.00000000000E+00 0. -1.
         23    2    1    2    0    0 -0.92607721280E+03 -0.48177159769E+03 -0.85434506772E+03  0.13508663305E+04  0.72190523238E+02 0.  0.
         11    1    3    3    0    0 -0.48746579719E+03 -0.25824507188E+03 -0.49756603117E+03  0.74288988145E+03  0.00000000000E+00 0. -1.
        -11    1    3    3    0    0 -0.43861141561E+03 -0.22352652581E+03 -0.35677903656E+03  0.60797644903E+03  0.00000000000E+00 0.  1.
         22    1    1    2    0    0  0.92607721280E+03  0.48177159769E+03 -0.36909532365E+03  0.11072281763E+04  0.00000000000E+00 0.  1.
<mgrwt>
<rscale>  0 0.21319996E+04</rscale>
<asrwt>0</asrwt>
<pdfrwt beam="1">  1        2 0.28319499E+00 0.21319996E+04</pdfrwt>
<pdfrwt beam="2">  1       -2 0.94973394E-01 0.21319996E+04</pdfrwt>
<totfact> 0.70209457E+00</totfact>
</mgrwt>
</event>
<event>
 6    1  0.9512547E-007  0.2603346E+04  0.7818608E-02  0.8367066E-01
         -1   -1    0    0    0  501 -0.00000000000E+00  0.00000000000E+00  0.25505560207E+04  0.25505560207E+04  0.00000000000E+00 0.  1.
          1   -1    0    0  501    0  0.00000000000E+00 -0.00000000000E+00 -0.66430693890E+03  0.66430693890E+03  0.00000000000E+00 0. -1.
         23    2    1    2    0    0  0.47977974274E+03 -0.69134464245E+03  0.21680529818E+04  0.23274174941E+04  0.90952975383E+02 0.  0.
         11    1    3    3    0    0  0.41037279938E+03 -0.60987127249E+03  0.18057534482E+04  0.19496395357E+04  0.00000000000E+00 0.  1.
        -11    1    3    3    0    0  0.69406943363E+02 -0.81473369956E+02  0.36229953366E+03  0.37777795845E+03  0.00000000000E+00 0. -1.
         22    1    1    2    0    0 -0.47977974274E+03  0.69134464245E+03 -0.28180390000E+03  0.88744546550E+03  0.00000000000E+00 0. -1.
<mgrwt>
<rscale>  0 0.26033456E+04</rscale>
<asrwt>0</asrwt>
<pdfrwt beam="1">  1        1 0.10220107E+00 0.26033456E+04</pdfrwt>
<pdfrwt beam="2">  1       -1 0.39239323E+00 0.26033456E+04</pdfrwt>
<totfact> 0.20927077E-01</totfact>
</mgrwt>
</event>
<event>
 6    1  0.9512547E-007  0.2334338E+04  0.7818608E-02  0.8464504E-01
         -2   -1    0    0    0  501 -0.00000000000E+00  0.00000000000E+00  0.10372678505E+04  0.10372678505E+04  0.00000000000E+00 0.  1.
          2   -1    0    0  501    0  0.00000000000E+00 -0.00000000000E+00 -0.13133382125E+04  0.13133382125E+04  0.00000000000E+00 0. -1.
         23    2    1    2    0    0  0.38270188792E+03 -0.10936239640E+04 -0.26490675606E+03  0.11919004335E+04  0.89313740467E+02 0.  0.
         13    1    3    3    0    0  0.20224054785E+03 -0.68982942338E+03 -0.14068220995E+03  0.73250075547E+03  0.00000000000E+00 0. -1.
        -13    1    3    3    0    0  0.18046134006E+03 -0.40379454064E+03 -0.12422454612E+03  0.45939967802E+03  0.00000000000E+00 0.  1.
         22    1    1    2    0    0 -0.38270188792E+03  0.10936239640E+04 -0.11163605947E+02  0.11587056295E+04  0.00000000000E+00 0.  1.
<mgrwt>
<rscale>  0 0.23343380E+04</rscale>
<asrwt>0</asrwt>
<pdfrwt beam="1">  1        2 0.20205203E+00 0.23343380E+04</pdfrwt>
<pdfrwt beam="2">  1       -2 0.15957967E+00 0.23343380E+04</pdfrwt>
<totfact> 0.37248950E+00</totfact>
</mgrwt>
</event>
<event>
 6    1  0.9512547E-007  0.2976310E+04  0.7818608E-02  0.8250528E-01
         -2   -1    0    0    0  501 -0.00000000000E+00  0.00000000000E+00  0.81436166454E+03  0.81436166454E+03  0.00000000000E+00 0.  1.
          2   -1    0    0  501    0  0.00000000000E+00 -0.00000000000E+00 -0.27194375129E+04  0.27194375129E+04  0.00000000000E+00 0. -1.
         23    2    1    2    0    0 -0.92196405522E+03  0.93010831841E+03 -0.11779157073E+03  0.13180590546E+04  0.91025348444E+02 0.  0.
         11    1    3    3    0    0 -0.32761148263E+03  0.36865703624E+03 -0.79479750155E+02  0.49955412580E+03  0.00000000000E+00 0.  1.
        -11    1    3    3    0    0 -0.59435257259E+03  0.56145128218E+03 -0.38311820576E+02  0.81850492875E+03  0.00000000000E+00 0. -1.
         22    1    1    2    0    0  0.92196405522E+03 -0.93010831841E+03 -0.17872842777E+04  0.22157401229E+04  0.00000000000E+00 0. -1.
<mgrwt>
<rscale>  0 0.29763102E+04</rscale>
<asrwt>0</asrwt>
<pdfrwt beam="1">  1        2 0.41837501E+00 0.29763102E+04</pdfrwt>
<pdfrwt beam="2">  1       -2 0.12528641E+00 0.29763102E+04</pdfrwt>
<totfact> 0.10567612E+00</totfact>
</mgrwt>
</event>
<event>
 6    1  0.9512547E-007  0.1098212E+04  0.7818608E-02  0.9206937E-01
          2   -1    0    0  501    0  0.00000000000E+00  0.00000000000E+00  0.13774276179E+04  0.13774276179E+04  0.00000000000E+00 0. -1.
         -2   -1    0    0    0  501 -0.00000000000E+00 -0.00000000000E+00 -0.21889874428E+03  0.21889874428E+03  0.00000000000E+00 0.  1.
         23    2    1    2    0    0 -0.53204291339E+03  0.94529870923E+02  0.47655314694E+03  0.72621346723E+03  0.90980986743E+02 0.  0.
         13    1    3    3    0    0 -0.50737233331E+03  0.73134232319E+02  0.46334472954E+03  0.69098743761E+03  0.00000000000E+00 0. -1.
        -13    1    3    3    0    0 -0.24670580072E+02  0.21395638605E+02  0.13208417404E+02  0.35226029619E+02  0.00000000000E+00 0.  1.
         22    1    1    2    0    0  0.53204291339E+03 -0.94529870923E+02  0.68197572671E+03  0.87011289498E+03  0.00000000000E+00 0.  1.
<mgrwt>
<rscale>  0 0.10982116E+04</rscale>
<asrwt>0</asrwt>
<pdfrwt beam="1">  1        2 0.21191194E+00 0.10982116E+04</pdfrwt>
<pdfrwt beam="2">  1       -2 0.33676730E-01 0.10982116E+04</pdfrwt>
<totfact> 0.12195766E+02</totfact>
</mgrwt>
</event>
<event>
 6    1  0.9512547E-007  0.1744475E+04  0.7818608E-02  0.8736397E-01
          4   -1    0    0  501    0  0.00000000000E+00  0.00000000000E+00  0.18365650989E+04  0.18365650989E+04  0.00000000000E+00 0. -1.
         -4   -1    0    0    0  501 -0.00000000000E+00 -0.00000000000E+00 -0.41425059045E+03  0.41425059045E+03  0.00000000000E+00 0.  1.
         23    2    1    2    0    0  0.42733396752E+03  0.75887113023E+03  0.70084125460E+03  0.11198765362E+04  0.66672933562E+02 0.  0.
         11    1    3    3    0    0  0.10987443652E+03  0.18066501863E+03  0.20665307545E+03  0.29566490213E+03  0.00000000000E+00 0. -1.
        -11    1    3    3    0    0  0.31745953100E+03  0.57820611160E+03  0.49418817915E+03  0.82421163406E+03  0.00000000000E+00 0.  1.
         22    1    1    2    0    0 -0.42733396752E+03 -0.75887113023E+03  0.72147325382E+03  0.11309391531E+04  0.00000000000E+00 0.  1.
<mgrwt>
<rscale>  0 0.17444749E+04</rscale>
<asrwt>0</asrwt>
<pdfrwt beam="1">  1        4 0.28254847E+00 0.17444749E+04</pdfrwt>
<pdfrwt beam="2">  1       -4 0.63730861E-01 0.17444749E+04</pdfrwt>
<totfact> 0.17360330E-01</totfact>
</mgrwt>
</event>
<event>
 6    1  0.9512547E-007  0.1376491E+04  0.7818608E-02  0.8971014E-01
         -2   -1    0    0    0  501 -0.00000000000E+00  0.00000000000E+00  0.22985921525E+03  0.22985921525E+03  0.00000000000E+00 0.  1.
          2   -1    0    0  501    0  0.00000000000E+00 -0.00000000000E+00 -0.20607477726E+04  0.20607477726E+04  0.00000000000E+00 0. -1.
         23    2    1    2    0    0  0.40872943791E+03 -0.47884098974E+02 -0.18311207388E+04  0.18790821474E+04  0.92703377726E+02 0.  0.
         11    1    3    3    0    0  0.33286463951E+03 -0.36443723990E+02 -0.16250850550E+04  0.16592252557E+04  0.00000000000E+00 0. -1.
        -11    1    3    3    0    0  0.75864798397E+02 -0.11440374984E+02 -0.20603568385E+03  0.21985689172E+03  0.00000000000E+00 0.  1.
         22    1    1    2    0    0 -0.40872943791E+03  0.47884098974E+02  0.23218152933E+00  0.41152484039E+03  0.00000000000E+00 0.  1.
<mgrwt>
<rscale>  0 0.13764910E+04</rscale>
<asrwt>0</asrwt>
<pdfrwt beam="1">  1        2 0.31703812E+00 0.13764910E+04</pdfrwt>
<pdfrwt beam="2">  1       -2 0.35362956E-01 0.13764910E+04</pdfrwt>
<totfact> 0.45296947E+01</totfact>
</mgrwt>
</event>
<event>
 6    1  0.9512547E-007  0.7458788E+03  0.7818608E-02  0.9641838E-01
         -1   -1    0    0    0  501 -0.00000000000E+00  0.00000000000E+00  0.15333420943E+04  0.15333420943E+04  0.00000000000E+00 0.  1.
          1   -1    0    0  501    0  0.00000000000E+00 -0.00000000000E+00 -0.90706307689E+02  0.90706307689E+02  0.00000000000E+00 0. -1.
         23    2    1    2    0    0 -0.28495342636E+03 -0.32083466692E+02  0.23172083501E+03  0.37964379575E+03  0.90592837691E+02 0.  0.
         13    1    3    3    0    0 -0.22868224550E+03 -0.61196373967E+02  0.19261837888E+03  0.30519240731E+03  0.00000000000E+00 0.  1.
        -13    1    3    3    0    0 -0.56271180861E+02  0.29112907275E+02  0.39102456126E+02  0.74451388439E+02  0.00000000000E+00 0. -1.
         22    1    1    2    0    0  0.28495342636E+03  0.32083466692E+02  0.12109149517E+04  0.12444046063E+04  0.00000000000E+00 0.  1.
<mgrwt>
<rscale>  0 0.74587881E+03</rscale>
<asrwt>0</asrwt>
<pdfrwt beam="1">  1        1 0.13954818E-01 0.74587881E+03</pdfrwt>
<pdfrwt beam="2">  1       -1 0.23589876E+00 0.74587881E+03</pdfrwt>
<totfact> 0.37754781E+01</totfact>
</mgrwt>
</event>
<event>
 6    1  0.2364079E-006  0.4177100E+04  0.7818608E-02  0.7969743E-01
          2   -1    0    0  501    0  0.00000000000E+00  0.00000000000E+00  0.26824679089E+04  0.26824679089E+04  0.00000000000E+00 0. -1.
         -2   -1    0    0    0  501 -0.00000000000E+00 -0.00000000000E+00 -0.16261295118E+04  0.16261295118E+04  0.00000000000E+00 0.  1.
         23    2    1    2    0    0  0.50212520350E+03  0.54625205938E+03 -0.14842560700E+04  0.16618746777E+04  0.91051252404E+02 0.  0.
         11    1    3    3    0    0  0.13116074810E+03  0.19621867797E+03 -0.42199524521E+03  0.48351307988E+03  0.00000000000E+00 0. -1.
        -11    1    3    3    0    0  0.37096445539E+03  0.35003338141E+03 -0.10622608248E+04  0.11783615978E+04  0.00000000000E+00 0.  1.
         22    1    1    2    0    0 -0.50212520350E+03 -0.54625205938E+03  0.25405944671E+04  0.26467227430E+04  0.00000000000E+00 0. -1.
<mgrwt>
<rscale>  0 0.41770996E+04</rscale>
<asrwt>0</asrwt>
<pdfrwt beam="1">  1        2 0.41268737E+00 0.41770996E+04</pdfrwt>
<pdfrwt beam="2">  1       -2 0.25017377E+00 0.41770996E+04</pdfrwt>
<totfact> 0.13559052E-01</totfact>
</mgrwt>
</event>
<event>
 6    1  0.9512547E-007  0.2720732E+04  0.7818608E-02  0.8328309E-01
          1   -1    0    0  501    0  0.00000000000E+00  0.00000000000E+00  0.18295877663E+04  0.18295877663E+04  0.00000000000E+00 0. -1.
         -1   -1    0    0    0  501 -0.00000000000E+00 -0.00000000000E+00 -0.10114825375E+04  0.10114825375E+04  0.00000000000E+00 0.  1.
         23    2    1    2    0    0  0.67983209316E+03 -0.13478622082E+03 -0.81100976671E+03  0.10706594280E+04  0.90751137076E+02 0.  0.
         13    1    3    3    0    0  0.81334126871E+02 -0.28476920158E+02 -0.14727374035E+03  0.17063331965E+03  0.00000000000E+00 0. -1.
        -13    1    3    3    0    0  0.59849796629E+03 -0.10630930066E+03 -0.66373602636E+03  0.90002610837E+03  0.00000000000E+00 0.  1.
         22    1    1    2    0    0 -0.67983209316E+03  0.13478622082E+03  0.16291149956E+04  0.17704108758E+04  0.00000000000E+00 0. -1.
<mgrwt>
<rscale>  0 0.27207323E+04</rscale>
<asrwt>0</asrwt>
<pdfrwt beam="1">  1        1 0.28147504E+00 0.27207323E+04</pdfrwt>
<pdfrwt beam="2">  1       -1 0.15561270E+00 0.27207323E+04</pdfrwt>
<totfact> 0.10702070E+00</totfact>
</mgrwt>
</event>
<event>
 6    1  0.9512547E-007  0.2738827E+04  0.7818608E-02  0.8322516E-01
          2   -1    0    0  501    0  0.00000000000E+00  0.00000000000E+00  0.14749935584E+04  0.14749935584E+04  0.00000000000E+00 0. -1.
         -2   -1    0    0    0  501 -0.00000000000E+00 -0.00000000000E+00 -0.12713907008E+04  0.12713907008E+04  0.00000000000E+00 0.  1.
         23    2    1    2    0    0 -0.72970001333E+03 -0.67062869386E+03  0.10473528229E+04  0.14448010085E+04  0.91088219896E+02 0.  0.
         13    1    3    3    0    0 -0.58099222252E+03 -0.56707624227E+03  0.89161861674E+03  0.12058653262E+04  0.00000000000E+00 0. -1.
        -13    1    3    3    0    0 -0.14870779081E+03 -0.10355245159E+03  0.15573420621E+03  0.23893568227E+03  0.00000000000E+00 0.  1.
         22    1    1    2    0    0  0.72970001333E+03  0.67062869386E+03 -0.84374996534E+03  0.13015832507E+04  0.00000000000E+00 0.  1.
<mgrwt>
<rscale>  0 0.27388268E+04</rscale>
<asrwt>0</asrwt>
<pdfrwt beam="1">  1        2 0.22692209E+00 0.27388268E+04</pdfrwt>
<pdfrwt beam="2">  1       -2 0.19559857E+00 0.27388268E+04</pdfrwt>
<totfact> 0.16311532E+00</totfact>
</mgrwt>
</event>
<event>
 6    1  0.9512547E-007  0.1565556E+04  0.7818608E-02  0.8841992E-01
         -1   -1    0    0    0  501 -0.00000000000E+00  0.00000000000E+00  0.46319617678E+03  0.46319617678E+03  0.00000000000E+00 0.  1.
          1   -1    0    0  501    0  0.00000000000E+00 -0.00000000000E+00 -0.13228551206E+04  0.13228551206E+04  0.00000000000E+00 0. -1.
         23    2    1    2    0    0 -0.26838401502E+03 -0.57503998195E+03  0.86164832712E+02  0.64706772568E+03  0.92581331104E+02 0.  0.
         11    1    3    3    0    0 -0.15500240604E+03 -0.23811776346E+03  0.61654257070E+02  0.29073538238E+03  0.00000000000E+00 0. -1.
        -11    1    3    3    0    0 -0.11338160898E+03 -0.33692221849E+03  0.24510575642E+02  0.35633234331E+03  0.00000000000E+00 0.  1.
         22    1    1    2    0    0  0.26838401502E+03  0.57503998195E+03 -0.94582377654E+03  0.11389835717E+04  0.00000000000E+00 0. -1.
<mgrwt>
<rscale>  0 0.15655560E+04</rscale>
<asrwt>0</asrwt>
<pdfrwt beam="1">  1        1 0.20351617E+00 0.15655560E+04</pdfrwt>
<pdfrwt beam="2">  1       -1 0.71260949E-01 0.15655560E+04</pdfrwt>
<totfact> 0.16670848E+01</totfact>
</mgrwt>
</event>
<event>
 6    1  0.9512547E-007  0.1061727E+04  0.7818608E-02  0.9243320E-01
         -1   -1    0    0    0  501 -0.00000000000E+00  0.00000000000E+00  0.28337982062E+03  0.28337982062E+03  0.00000000000E+00 0.  1.
          1   -1    0    0  501    0  0.00000000000E+00 -0.00000000000E+00 -0.99448122852E+03  0.99448122852E+03  0.00000000000E+00 0. -1.
         23    2    1    2    0    0  0.27300771236E+03  0.17266395230E+03  0.14240688372E+03  0.36526998229E+03  0.93789061185E+02 0.  0.
         13    1    3    3    0    0  0.25399427279E+03  0.12350777221E+03  0.13105462246E+03  0.31135602527E+03  0.00000000000E+00 0.  1.
        -13    1    3    3    0    0  0.19013439576E+02  0.49156180090E+02  0.11352261256E+02  0.53913957017E+02  0.00000000000E+00 0. -1.
         22    1    1    2    0    0 -0.27300771236E+03 -0.17266395230E+03 -0.85350829162E+03  0.91259106685E+03  0.00000000000E+00 0. -1.
<mgrwt>
<rscale>  0 0.10617267E+04</rscale>
<asrwt>0</asrwt>
<pdfrwt beam="1">  1        1 0.15299712E+00 0.10617267E+04</pdfrwt>
<pdfrwt beam="2">  1       -1 0.43596894E-01 0.10617267E+04</pdfrwt>
<totfact> 0.79259871E+01</totfact>
</mgrwt>
</event>
<event>
 6    1  0.9512547E-007  0.2160248E+04  0.7818608E-02  0.8535158E-01
         -2   -1    0    0    0  501 -0.00000000000E+00  0.00000000000E+00  0.40464146288E+03  0.40464146288E+03  0.00000000000E+00 0.  1.
          2   -1    0    0  501    0  0.00000000000E+00 -0.00000000000E+00 -0.28832129128E+04  0.28832129128E+04  0.00000000000E+00 0. -1.
         23    2    1    2    0    0  0.70214550926E+03  0.58630442941E+03 -0.37260349356E+03  0.99180075406E+03  0.89856397789E+02 0.  0.
         13    1    3    3    0    0  0.22067780150E+03  0.13395144606E+03 -0.92158890035E+02  0.27410753910E+03  0.00000000000E+00 0.  1.
        -13    1    3    3    0    0  0.48146770776E+03  0.45235298335E+03 -0.28044460352E+03  0.71769321496E+03  0.00000000000E+00 0. -1.
         22    1    1    2    0    0 -0.70214550926E+03 -0.58630442941E+03 -0.21059679563E+04  0.22960536216E+04  0.00000000000E+00 0. -1.
<mgrwt>
<rscale>  0 0.21602477E+04</rscale>
<asrwt>0</asrwt>
<pdfrwt beam="1">  1        2 0.44357123E+00 0.21602477E+04</pdfrwt>
<pdfrwt beam="2">  1       -2 0.62252532E-01 0.21602477E+04</pdfrwt>
<totfact> 0.45230550E+00</totfact>
</mgrwt>
</event>
<event>
 6    1  0.9512547E-007  0.2705956E+04  0.7818608E-02  0.8333075E-01
          1   -1    0    0  501    0  0.00000000000E+00  0.00000000000E+00  0.38877418185E+04  0.38877418185E+04  0.00000000000E+00 0. -1.
         -1   -1    0    0    0  501 -0.00000000000E+00 -0.00000000000E+00 -0.47085147199E+03  0.47085147199E+03  0.00000000000E+00 0.  1.
         23    2    1    2    0    0 -0.33194961325E+03 -0.10791116475E+04  0.51425734161E+03  0.12441188798E+04  0.93266715242E+02 0.  0.
         13    1    3    3    0    0 -0.29525324815E+03 -0.10304324440E+04  0.48678260150E+03  0.11772522258E+04  0.00000000000E+00 0. -1.
        -13    1    3    3    0    0 -0.36696365101E+02 -0.48679203550E+02  0.27474740111E+02  0.66866653977E+02  0.00000000000E+00 0.  1.
         22    1    1    2    0    0  0.33194961325E+03  0.10791116475E+04  0.29026330049E+04  0.31144744107E+04  0.00000000000E+00 0. -1.
<mgrwt>
<rscale>  0 0.27059556E+04</rscale>
<asrwt>0</asrwt>
<pdfrwt beam="1">  1        1 0.59811410E+00 0.27059556E+04</pdfrwt>
<pdfrwt beam="2">  1       -1 0.72438691E-01 0.27059556E+04</pdfrwt>
<totfact> 0.20160680E-01</totfact>
</mgrwt>
</event>
<event>
 6    1  0.9512547E-007  0.5446375E+03  0.7818608E-02  0.1002743E+00
         -2   -1    0    0    0  501 -0.00000000000E+00  0.00000000000E+00  0.35304402454E+03  0.35304402454E+03  0.00000000000E+00 0.  1.
          2   -1    0    0  501    0  0.00000000000E+00 -0.00000000000E+00 -0.21005170940E+03  0.21005170940E+03  0.00000000000E+00 0. -1.
         23    2    1    2    0    0  0.57592987574E+02 -0.25370474728E+03  0.12392802570E+03  0.30223849685E+03  0.91142209820E+02 0.  0.
         13    1    3    3    0    0 -0.28213326963E+01 -0.12955588644E+03  0.23969951417E+02  0.13178484814E+03  0.00000000000E+00 0.  1.
        -13    1    3    3    0    0  0.60414320270E+02 -0.12414886085E+03  0.99958074279E+02  0.17045364870E+03  0.00000000000E+00 0. -1.
         22    1    1    2    0    0 -0.57592987574E+02  0.25370474728E+03  0.19064289444E+02  0.26085723709E+03  0.00000000000E+00 0.  1.
<mgrwt>
<rscale>  0 0.54463750E+03</rscale>
<asrwt>0</asrwt>
<pdfrwt beam="1">  1        2 0.32315647E-01 0.54463750E+03</pdfrwt>
<pdfrwt beam="2">  1       -2 0.54314466E-01 0.54463750E+03</pdfrwt>
<totfact> 0.52636075E+02</totfact>
</mgrwt>
</event>
<event>
 6    1  0.9512547E-007  0.3404442E+04  0.7818608E-02  0.8136817E-01
          1   -1    0    0  501    0  0.00000000000E+00  0.00000000000E+00  0.31620542787E+04  0.31620542787E+04  0.00000000000E+00 0. -1.
         -1   -1    0    0    0  501 -0.00000000000E+00 -0.00000000000E+00 -0.91635230539E+03  0.91635230539E+03  0.00000000000E+00 0.  1.
         23    2    1    2    0    0 -0.13404790648E+04  0.98698094699E+03  0.70408512043E+03  0.18095747186E+04  0.88370200007E+02 0.  0.
         13    1    3    3    0    0 -0.53763808894E+03  0.35884336357E+03  0.30707316361E+03  0.71562364555E+03  0.00000000000E+00 0. -1.
        -13    1    3    3    0    0 -0.80284097589E+03  0.62813758342E+03  0.39701195682E+03  0.10939510730E+04  0.00000000000E+00 0.  1.
         22    1    1    2    0    0  0.13404790648E+04 -0.98698094699E+03  0.15416168529E+04  0.22688318655E+04  0.00000000000E+00 0. -1.
<mgrwt>
<rscale>  0 0.34044416E+04</rscale>
<asrwt>0</asrwt>
<pdfrwt beam="1">  1        1 0.48646988E+00 0.34044416E+04</pdfrwt>
<pdfrwt beam="2">  1       -1 0.14097728E+00 0.34044416E+04</pdfrwt>
<totfact> 0.15345165E-01</totfact>
</mgrwt>
</event>
<event>
 6    1  0.9512547E-007  0.3624553E+04  0.7818608E-02  0.8084891E-01
          1   -1    0    0  501    0  0.00000000000E+00  0.00000000000E+00  0.19065437247E+04  0.19065437247E+04  0.00000000000E+00 0. -1.
         -1   -1    0    0    0  501 -0.00000000000E+00 -0.00000000000E+00 -0.17226702224E+04  0.17226702224E+04  0.00000000000E+00 0.  1.
         23    2    1    2    0    0 -0.78966139397E+03 -0.11964988628E+04  0.12002093555E+04  0.18719111240E+04  0.91510180857E+02 0.  0.
         11    1    3    3    0    0 -0.24129460885E+03 -0.43637234554E+03  0.39158534007E+03  0.63402128574E+03  0.00000000000E+00 0.  1.
        -11    1    3    3    0    0 -0.54836678512E+03 -0.76012651728E+03  0.80862401540E+03  0.12378898382E+04  0.00000000000E+00 0. -1.
         22    1    1    2    0    0  0.78966139397E+03  0.11964988628E+04 -0.10163358532E+04  0.17573028232E+04  0.00000000000E+00 0.  1.
<mgrwt>
<rscale>  0 0.36245530E+04</rscale>
<asrwt>0</asrwt>
<pdfrwt beam="1">  1        1 0.29331442E+00 0.36245530E+04</pdfrwt>
<pdfrwt beam="2">  1       -1 0.26502619E+00 0.36245530E+04</pdfrwt>
<totfact> 0.15497845E-01</totfact>
</mgrwt>
</event>
<event>
 6    1  0.9512547E-007  0.3354175E+04  0.7818608E-02  0.8149246E-01
         -2   -1    0    0    0  501 -0.00000000000E+00  0.00000000000E+00  0.34729250725E+04  0.34729250725E+04  0.00000000000E+00 0.  1.
          2   -1    0    0  501    0  0.00000000000E+00 -0.00000000000E+00 -0.80987128026E+03  0.80987128026E+03  0.00000000000E+00 0. -1.
         23    2    1    2    0    0 -0.64302372427E+02 -0.12502774278E+04  0.27548980108E+04  0.30275020438E+04  0.94747735683E+02 0.  0.
         11    1    3    3    0    0 -0.55020779913E+02 -0.42943835698E+03  0.10266208615E+04  0.11141790618E+04  0.00000000000E+00 0. -1.
        -11    1    3    3    0    0 -0.92815925142E+01 -0.82083907086E+03  0.17282771494E+04  0.19133229819E+04  0.00000000000E+00 0.  1.
         22    1    1    2    0    0  0.64302372427E+02  0.12502774278E+04 -0.91844218574E+02  0.12552943090E+04  0.00000000000E+00 0. -1.
<mgrwt>
<rscale>  0 0.33541749E+04</rscale>
<asrwt>0</asrwt>
<pdfrwt beam="1">  1        2 0.12459558E+00 0.33541749E+04</pdfrwt>
<pdfrwt beam="2">  1       -2 0.53429616E+00 0.33541749E+04</pdfrwt>
<totfact> 0.29075320E-02</totfact>
</mgrwt>
</event>
<event>
 6    1  0.9512547E-007  0.1167300E+04  0.7818608E-02  0.9141971E-01
         -1   -1    0    0    0  501 -0.00000000000E+00  0.00000000000E+00  0.15139906905E+03  0.15139906905E+03  0.00000000000E+00 0.  1.
          1   -1    0    0  501    0  0.00000000000E+00 -0.00000000000E+00 -0.22499946089E+04  0.22499946089E+04  0.00000000000E+00 0. -1.
         23    2    1    2    0    0 -0.31228694316E+03  0.19708964542E+03 -0.13545427735E+03  0.40382238267E+03  0.91417680424E+02 0.  0.
         11    1    3    3    0    0 -0.27482749082E+03  0.15362551929E+03 -0.14326731615E+03  0.34591396873E+03  0.00000000000E+00 0.  1.
        -11    1    3    3    0    0 -0.37459452333E+02  0.43464126131E+02  0.78130387937E+01  0.57908413936E+02  0.00000000000E+00 0. -1.
         22    1    1    2    0    0  0.31228694316E+03 -0.19708964542E+03 -0.19631412625E+04  0.19975712953E+04  0.00000000000E+00 0. -1.
<mgrwt>
<rscale>  0 0.11672996E+04</rscale>
<asrwt>0</asrwt>
<pdfrwt beam="1">  1        1 0.34615301E+00 0.11672996E+04</pdfrwt>
<pdfrwt beam="2">  1       -1 0.23292165E-01 0.11672996E+04</pdfrwt>
<totfact> 0.31720465E+01</totfact>
</mgrwt>
</event>
<event>
 6    1  0.9512547E-007  0.3090922E+04  0.7818608E-02  0.8218234E-01
         -1   -1    0    0    0  501 -0.00000000000E+00  0.00000000000E+00  0.13969568973E+04  0.13969568973E+04  0.00000000000E+00 0.  1.
          1   -1    0    0  501    0  0.00000000000E+00 -0.00000000000E+00 -0.17097514319E+04  0.17097514319E+04  0.00000000000E+00 0. -1.
         23    2    1    2    0    0 -0.86155141598E+03  0.80334118514E+03 -0.11595698388E+04  0.16559649619E+04  0.99949196073E+02 0.  0.
         13    1    3    3    0    0 -0.61306437424E+03  0.61397282176E+03 -0.80760105743E+03  0.11853396225E+04  0.00000000000E+00 0.  1.
        -13    1    3    3    0    0 -0.24848704174E+03  0.18936836338E+03 -0.35196878133E+03  0.47062533931E+03  0.00000000000E+00 0. -1.
         22    1    1    2    0    0  0.86155141598E+03 -0.80334118514E+03  0.84677530416E+03  0.14507433673E+04  0.00000000000E+00 0.  1.
<mgrwt>
<rscale>  0 0.30909216E+04</rscale>
<asrwt>0</asrwt>
<pdfrwt beam="1">  1        1 0.26303868E+00 0.30909216E+04</pdfrwt>
<pdfrwt beam="2">  1       -1 0.21491645E+00 0.30909216E+04</pdfrwt>
<totfact> 0.47196050E-01</totfact>
</mgrwt>
</event>
<event>
 6    1  0.9512547E-007  0.5966939E+03  0.7818608E-02  0.9912289E-01
          1   -1    0    0  501    0  0.00000000000E+00  0.00000000000E+00  0.18667249703E+04  0.18667249703E+04  0.00000000000E+00 0. -1.
         -1   -1    0    0    0  501 -0.00000000000E+00 -0.00000000000E+00 -0.47682920230E+02  0.47682920230E+02  0.00000000000E+00 0.  1.
         23    2    1    2    0    0 -0.17396245833E+03  0.18863316392E+03  0.48942180986E+03  0.56025302841E+03  0.92218980853E+02 0.  0.
         11    1    3    3    0    0 -0.18436068628E+03  0.16741684776E+03  0.44555117737E+03  0.51042444614E+03  0.00000000000E+00 0. -1.
        -11    1    3    3    0    0  0.10398227942E+02  0.21216316160E+02  0.43870632489E+02  0.49828582267E+02  0.00000000000E+00 0.  1.
         22    1    1    2    0    0  0.17396245833E+03 -0.18863316392E+03  0.13296202403E+04  0.13541548622E+04  0.00000000000E+00 0.  1.
<mgrwt>
<rscale>  0 0.59669388E+03</rscale>
<asrwt>0</asrwt>
<pdfrwt beam="1">  1        1 0.28718840E+00 0.59669388E+03</pdfrwt>
<pdfrwt beam="2">  1       -1 0.73358353E-02 0.59669388E+03</pdfrwt>
<totfact> 0.39091736E+02</totfact>
</mgrwt>
</event>
<event>
 6    1  0.9512547E-007  0.3985865E+04  0.7818608E-02  0.8007404E-01
         -2   -1    0    0    0  501 -0.00000000000E+00  0.00000000000E+00  0.16401214156E+04  0.16401214156E+04  0.00000000000E+00 0.  1.
          2   -1    0    0  501    0  0.00000000000E+00 -0.00000000000E+00 -0.24216375100E+04  0.24216375100E+04  0.00000000000E+00 0. -1.
         23    2    1    2    0    0 -0.20956362569E+03 -0.73909943757E+03 -0.22637168342E+04  0.23922967593E+04  0.92113989865E+02 0.  0.
         13    1    3    3    0    0 -0.17073744473E+02 -0.83118014697E+02 -0.17381524138E+03  0.19342144466E+03  0.00000000000E+00 0.  1.
        -13    1    3    3    0    0 -0.19248988121E+03 -0.65598142288E+03 -0.20899015928E+04  0.21988753146E+04  0.00000000000E+00 0. -1.
         22    1    1    2    0    0  0.20956362569E+03  0.73909943757E+03  0.14822007398E+04  0.16694621663E+04  0.00000000000E+00 0.  1.
<mgrwt>
<rscale>  0 0.39858648E+04</rscale>
<asrwt>0</asrwt>
<pdfrwt beam="1">  1        2 0.37255962E+00 0.39858648E+04</pdfrwt>
<pdfrwt beam="2">  1       -2 0.25232637E+00 0.39858648E+04</pdfrwt>
<totfact> 0.18972880E-01</totfact>
</mgrwt>
</event>
<event>
 6    1  0.9512547E-007  0.2020122E+04  0.7818608E-02  0.8597270E-01
         -1   -1    0    0    0  501 -0.00000000000E+00  0.00000000000E+00  0.11361250620E+04  0.11361250620E+04  0.00000000000E+00 0.  1.
          1   -1    0    0  501    0  0.00000000000E+00 -0.00000000000E+00 -0.89798509607E+03  0.89798509607E+03  0.00000000000E+00 0. -1.
         23    2    1    2    0    0  0.60044301014E+03  0.35821847384E+02 -0.69544200742E+03  0.92352908756E+03  0.86321357125E+02 0.  0.
         11    1    3    3    0    0  0.46360486507E+03  0.63882358100E+02 -0.53462839165E+03  0.71051948866E+03  0.00000000000E+00 0. -1.
        -11    1    3    3    0    0  0.13683814507E+03 -0.28060510716E+02 -0.16081361577E+03  0.21300959890E+03  0.00000000000E+00 0.  1.
         22    1    1    2    0    0 -0.60044301014E+03 -0.35821847384E+02  0.93358197332E+03  0.11105810705E+04  0.00000000000E+00 0.  1.
<mgrwt>
<rscale>  0 0.20201221E+04</rscale>
<asrwt>0</asrwt>
<pdfrwt beam="1">  1        1 0.13815155E+00 0.20201221E+04</pdfrwt>
<pdfrwt beam="2">  1       -1 0.17478847E+00 0.20201221E+04</pdfrwt>
<totfact> 0.38395839E+00</totfact>
</mgrwt>
</event>
<event>
 6    1  0.9512547E-007  0.2109096E+04  0.7818608E-02  0.8557247E-01
          2   -1    0    0  501    0  0.00000000000E+00  0.00000000000E+00  0.15676544315E+04  0.15676544315E+04  0.00000000000E+00 0. -1.
         -2   -1    0    0    0  501 -0.00000000000E+00 -0.00000000000E+00 -0.70938568491E+03  0.70938568491E+03  0.00000000000E+00 0.  1.
         23    2    1    2    0    0  0.10052299552E+04  0.88954532418E+02  0.10684895879E+03  0.10188541726E+04  0.90812737356E+02 0.  0.
         13    1    3    3    0    0  0.98597069329E+03  0.97752902229E+02  0.11184957451E+03  0.99709787145E+03  0.00000000000E+00 0. -1.
        -13    1    3    3    0    0  0.19259261948E+02 -0.87983698107E+01 -0.50006157128E+01  0.21756301147E+02  0.00000000000E+00 0.  1.
         22    1    1    2    0    0 -0.10052299552E+04 -0.88954532418E+02  0.75141978780E+03  0.12581859438E+04  0.00000000000E+00 0. -1.
<mgrwt>
<rscale>  0 0.21090961E+04</rscale>
<asrwt>0</asrwt>
<pdfrwt beam="1">  1        2 0.24117760E+00 0.21090961E+04</pdfrwt>
<pdfrwt beam="2">  1       -2 0.10913626E+00 0.21090961E+04</pdfrwt>
<totfact> 0.71714068E+00</totfact>
</mgrwt>
</event>
<event>
 6    1  0.9512547E-007  0.5726635E+04  0.7818608E-02  0.7725251E-01
          2   -1    0    0  501    0  0.00000000000E+00  0.00000000000E+00  0.36419478766E+04  0.36419478766E+04  0.00000000000E+00 0. -1.
         -2   -1    0    0    0  501 -0.00000000000E+00 -0.00000000000E+00 -0.22511542799E+04  0.22511542799E+04  0.00000000000E+00 0.  1.
         23    2    1    2    0    0 -0.13024741139E+04 -0.17233609608E+03 -0.19215718331E+04  0.23296904083E+04  0.94236622229E+02 0.  0.
         11    1    3    3    0    0 -0.26786390873E+03 -0.42022156784E+02 -0.46588096552E+03  0.53903804068E+03  0.00000000000E+00 0. -1.
        -11    1    3    3    0    0 -0.10346102052E+04 -0.13031393929E+03 -0.14556908676E+04  0.17906523676E+04  0.00000000000E+00 0.  1.
         22    1    1    2    0    0  0.13024741139E+04  0.17233609608E+03  0.33123654297E+04  0.35634117483E+04  0.00000000000E+00 0. -1.
<mgrwt>
<rscale>  0 0.57266348E+04</rscale>
<asrwt>0</asrwt>
<pdfrwt beam="1">  1        2 0.56029967E+00 0.57266348E+04</pdfrwt>
<pdfrwt beam="2">  1       -2 0.34633143E+00 0.57266348E+04</pdfrwt>
<totfact> 0.72425180E-03</totfact>
</mgrwt>
</event>
<event>
 6    1  0.9512547E-007  0.3679053E+04  0.7818608E-02  0.8072620E-01
          2   -1    0    0  501    0  0.00000000000E+00  0.00000000000E+00  0.31483964303E+04  0.31483964303E+04  0.00000000000E+00 0. -1.
         -2   -1    0    0    0  501 -0.00000000000E+00 -0.00000000000E+00 -0.10747876913E+04  0.10747876913E+04  0.00000000000E+00 0.  1.
         23    2    1    2    0    0  0.12344928185E+02  0.55577429286E+03 -0.97402094261E+03  0.11252680256E+04  0.92053630543E+02 0.  0.
         13    1    3    3    0    0 -0.33854123354E+01  0.46923892292E+03 -0.75123128226E+03  0.88574548672E+03  0.00000000000E+00 0. -1.
        -13    1    3    3    0    0  0.15730340520E+02  0.86535369944E+02 -0.22278966035E+03  0.23952253886E+03  0.00000000000E+00 0.  1.
         22    1    1    2    0    0 -0.12344928185E+02 -0.55577429286E+03  0.30476296816E+04  0.30979160960E+04  0.00000000000E+00 0. -1.
<mgrwt>
<rscale>  0 0.36790530E+04</rscale>
<asrwt>0</asrwt>
<pdfrwt beam="1">  1        2 0.48436868E+00 0.36790530E+04</pdfrwt>
<pdfrwt beam="2">  1       -2 0.16535195E+00 0.36790530E+04</pdfrwt>
<totfact> 0.26083926E-01</totfact>
</mgrwt>
</event>
<event>
 6    1  0.9512547E-007  0.2219125E+04  0.7818608E-02  0.8510510E-01
          1   -1    0    0  501    0  0.00000000000E+00  0.00000000000E+00  0.53763517291E+03  0.53763517291E+03  0.00000000000E+00 0. -1.
         -1   -1    0    0    0  501 -0.00000000000E+00 -0.00000000000E+00 -0.22898962883E+04  0.22898962883E+04  0.00000000000E+00 0.  1.
         23    2    1    2    0    0 -0.51281827574E+03  0.29420695551E+03 -0.20711225727E+04  0.21558076001E+04  0.91746286940E+02 0.  0.
         11    1    3    3    0    0 -0.21503458237E+03  0.16082062887E+03 -0.10517361991E+04  0.10854732511E+04  0.00000000000E+00 0. -1.
        -11    1    3    3    0    0 -0.29778369337E+03  0.13338632664E+03 -0.10193863736E+04  0.10703343491E+04  0.00000000000E+00 0.  1.
         22    1    1    2    0    0  0.51281827574E+03 -0.29420695551E+03  0.31886145727E+03  0.67172386108E+03  0.00000000000E+00 0. -1.
<mgrwt>
<rscale>  0 0.22191249E+04</rscale>
<asrwt>0</asrwt>
<pdfrwt beam="1">  1        1 0.82713103E-01 0.22191249E+04</pdfrwt>
<pdfrwt beam="2">  1       -1 0.35229174E+00 0.22191249E+04</pdfrwt>
<totfact> 0.54746645E-01</totfact>
</mgrwt>
</event>
<event>
 6    1  0.9512547E-007  0.1300846E+04  0.7818608E-02  0.9028895E-01
          1   -1    0    0  501    0  0.00000000000E+00  0.00000000000E+00  0.86075510901E+03  0.86075510901E+03  0.00000000000E+00 0. -1.
         -1   -1    0    0    0  501 -0.00000000000E+00 -0.00000000000E+00 -0.49148695859E+03  0.49148695859E+03  0.00000000000E+00 0.  1.
         23    2    1    2    0    0  0.34892917645E+03 -0.23834947001E+03 -0.32400549825E+03  0.54033665934E+03  0.91772013660E+02 0.  0.
         13    1    3    3    0    0  0.29109741583E+03 -0.16989484232E+03 -0.21744356140E+03  0.40110306076E+03  0.00000000000E+00 0.  1.
        -13    1    3    3    0    0  0.57831760617E+02 -0.68454627690E+02 -0.10656193685E+03  0.13923359858E+03  0.00000000000E+00 0. -1.
         22    1    1    2    0    0 -0.34892917645E+03  0.23834947001E+03  0.69327364867E+03  0.81190540827E+03  0.00000000000E+00 0. -1.
<mgrwt>
<rscale>  0 0.13008457E+04</rscale>
<asrwt>0</asrwt>
<pdfrwt beam="1">  1        1 0.13242386E+00 0.13008457E+04</pdfrwt>
<pdfrwt beam="2">  1       -1 0.75613379E-01 0.13008457E+04</pdfrwt>
<totfact> 0.33881074E+01</totfact>
</mgrwt>
</event>
<event>
 6    1  0.9512547E-007  0.3421121E+04  0.7818608E-02  0.8132742E-01
         -2   -1    0    0    0  501 -0.00000000000E+00  0.00000000000E+00  0.14738774075E+04  0.14738774075E+04  0.00000000000E+00 0.  1.
          2   -1    0    0  501    0  0.00000000000E+00 -0.00000000000E+00 -0.19852516448E+04  0.19852516448E+04  0.00000000000E+00 0. -1.
         23    2    1    2    0    0 -0.16102362388E+04  0.40719695482E+03 -0.66464357882E+03  0.17911477588E+04  0.88255890777E+02 0.  0.
         13    1    3    3    0    0 -0.11690760901E+04  0.25590799007E+03 -0.48830277071E+03  0.12925429972E+04  0.00000000000E+00 0.  1.
        -13    1    3    3    0    0 -0.44116014871E+03  0.15128896475E+03 -0.17634080811E+03  0.49860476157E+03  0.00000000000E+00 0. -1.
         22    1    1    2    0    0  0.16102362388E+04 -0.40719695482E+03  0.15326934147E+03  0.16679812936E+04  0.00000000000E+00 0.  1.
<mgrwt>
<rscale>  0 0.34211212E+04</rscale>
<asrwt>0</asrwt>
<pdfrwt beam="1">  1        2 0.30542333E+00 0.34211212E+04</pdfrwt>
<pdfrwt beam="2">  1       -2 0.22675037E+00 0.34211212E+04</pdfrwt>
<totfact> 0.50458972E-01</totfact>
</mgrwt>
</event>
<event>
 6    1  0.9512547E-007  0.4161232E+04  0.7818608E-02  0.7972788E-01
         -2   -1    0    0    0  501 -0.00000000000E+00  0.00000000000E+00  0.15025190776E+04  0.15025190776E+04  0.00000000000E+00 0.  1.
          2   -1    0    0  501    0  0.00000000000E+00 -0.00000000000E+00 -0.28811364398E+04  0.28811364398E+04  0.00000000000E+00 0. -1.
         23    2    1    2    0    0  0.77897078564E+03 -0.15012640622E+04 -0.19643899877E+04  0.25937619903E+04  0.90465294492E+02 0.  0.
         11    1    3    3    0    0  0.55980091950E+03 -0.10852674078E+04 -0.14789666859E+04  0.19179480895E+04  0.00000000000E+00 0. -1.
        -11    1    3    3    0    0  0.21916986614E+03 -0.41599665440E+03 -0.48542330175E+03  0.67581390084E+03  0.00000000000E+00 0.  1.
         22    1    1    2    0    0 -0.77897078564E+03  0.15012640622E+04  0.58577262549E+03  0.17898935270E+04  0.00000000000E+00 0.  1.
<mgrwt>
<rscale>  0 0.41612318E+04</rscale>
<asrwt>0</asrwt>
<pdfrwt beam="1">  1        2 0.44325176E+00 0.41612318E+04</pdfrwt>
<pdfrwt beam="2">  1       -2 0.23115678E+00 0.41612318E+04</pdfrwt>
<totfact> 0.13505805E-01</totfact>
</mgrwt>
</event>
<event>
 6    1  0.9512547E-007  0.8279338E+03  0.7818608E-02  0.9520442E-01
          1   -1    0    0  501    0  0.00000000000E+00  0.00000000000E+00  0.29508283357E+03  0.29508283357E+03  0.00000000000E+00 0. -1.
         -1   -1    0    0    0  501 -0.00000000000E+00 -0.00000000000E+00 -0.58074747304E+03  0.58074747304E+03  0.00000000000E+00 0.  1.
         23    2    1    2    0    0  0.20094635094E+03 -0.22612342514E+03 -0.43578028204E+03  0.53812341373E+03  0.90338888784E+02 0.  0.
         13    1    3    3    0    0  0.57433304088E+02 -0.51548035161E+02 -0.18548428408E+03  0.20089849175E+03  0.00000000000E+00 0. -1.
        -13    1    3    3    0    0  0.14351304686E+03 -0.17457538998E+03 -0.25029599797E+03  0.33722492198E+03  0.00000000000E+00 0.  1.
         22    1    1    2    0    0 -0.20094635094E+03  0.22612342514E+03  0.15011564258E+03  0.33770689288E+03  0.00000000000E+00 0. -1.
<mgrwt>
<rscale>  0 0.82793384E+03</rscale>
<asrwt>0</asrwt>
<pdfrwt beam="1">  1        1 0.45397359E-01 0.82793384E+03</pdfrwt>
<pdfrwt beam="2">  1       -1 0.89345764E-01 0.82793384E+03</pdfrwt>
<totfact> 0.11125196E+02</totfact>
</mgrwt>
</event>
<event>
 6    1  0.9512547E-007  0.2152526E+04  0.7818608E-02  0.8538452E-01
          1   -1    0    0  501    0  0.00000000000E+00  0.00000000000E+00  0.11500671841E+04  0.11500671841E+04  0.00000000000E+00 0. -1.
         -1   -1    0    0    0  501 -0.00000000000E+00 -0.00000000000E+00 -0.10071952103E+04  0.10071952103E+04  0.00000000000E+00 0.  1.
         23    2    1    2    0    0  0.35118877640E+03 -0.41666673879E+03  0.99943505585E+03  0.11420554985E+04  0.92063038025E+02 0.  0.
         13    1    3    3    0    0  0.30558047424E+03 -0.32364413993E+03  0.75284521008E+03  0.87458611120E+03  0.00000000000E+00 0. -1.
        -13    1    3    3    0    0  0.45608302155E+02 -0.93022598861E+02  0.24658984577E+03  0.26746938733E+03  0.00000000000E+00 0.  1.
         22    1    1    2    0    0 -0.35118877640E+03  0.41666673879E+03 -0.85656308203E+03  0.10152068958E+04  0.00000000000E+00 0.  1.
<mgrwt>
<rscale>  0 0.21525261E+04</rscale>
<asrwt>0</asrwt>
<pdfrwt beam="1">  1        1 0.17693341E+00 0.21525261E+04</pdfrwt>
<pdfrwt beam="2">  1       -1 0.15495311E+00 0.21525261E+04</pdfrwt>
<totfact> 0.34011848E+00</totfact>
</mgrwt>
</event>
<event>
 6    1  0.9512547E-007  0.1621453E+04  0.7818608E-02  0.8807476E-01
          2   -1    0    0  501    0  0.00000000000E+00  0.00000000000E+00  0.63038173804E+03  0.63038173804E+03  0.00000000000E+00 0. -1.
         -2   -1    0    0    0  501 -0.00000000000E+00 -0.00000000000E+00 -0.10426662960E+04  0.10426662960E+04  0.00000000000E+00 0.  1.
         23    2    1    2    0    0  0.16094928935E+03 -0.40587654801E+03 -0.90838240778E+03  0.10121747311E+04  0.93266508592E+02 0.  0.
         13    1    3    3    0    0  0.57316855230E+02 -0.25347593240E+03 -0.48010616561E+03  0.54592783448E+03  0.00000000000E+00 0. -1.
        -13    1    3    3    0    0  0.10363243412E+03 -0.15240061561E+03 -0.42827624217E+03  0.46624689666E+03  0.00000000000E+00 0.  1.
         22    1    1    2    0    0 -0.16094928935E+03  0.40587654801E+03  0.49609784979E+03  0.66087330294E+03  0.00000000000E+00 0. -1.
<mgrwt>
<rscale>  0 0.16214534E+04</rscale>
<asrwt>0</asrwt>
<pdfrwt beam="1">  1        2 0.96981806E-01 0.16214534E+04</pdfrwt>
<pdfrwt beam="2">  1       -2 0.16041020E+00 0.16214534E+04</pdfrwt>
<totfact> 0.11173555E+01</totfact>
</mgrwt>
</event>
<event>
 6    1  0.9512547E-007  0.1560788E+04  0.7818608E-02  0.8845006E-01
          1   -1    0    0  501    0  0.00000000000E+00  0.00000000000E+00  0.23518286958E+04  0.23518286958E+04  0.00000000000E+00 0. -1.
         -1   -1    0    0    0  501 -0.00000000000E+00 -0.00000000000E+00 -0.25895361537E+03  0.25895361537E+03  0.00000000000E+00 0.  1.
         23    2    1    2    0    0  0.22586546374E+03  0.36514234081E+03  0.21353574854E+04  0.21793325557E+04  0.73448354398E+02 0.  0.
         13    1    3    3    0    0  0.99910238121E+02  0.21814757727E+03  0.12863902142E+04  0.13085756396E+04  0.00000000000E+00 0.  1.
        -13    1    3    3    0    0  0.12595522562E+03  0.14699476354E+03  0.84896727120E+03  0.87075691610E+03  0.00000000000E+00 0. -1.
         22    1    1    2    0    0 -0.22586546374E+03 -0.36514234081E+03 -0.42482405039E+02  0.43144975547E+03  0.00000000000E+00 0.  1.
<mgrwt>
<rscale>  0 0.15607877E+04</rscale>
<asrwt>0</asrwt>
<pdfrwt beam="1">  1        1 0.36181979E+00 0.15607877E+04</pdfrwt>
<pdfrwt beam="2">  1       -1 0.39839019E-01 0.15607877E+04</pdfrwt>
<totfact> 0.10144629E+01</totfact>
</mgrwt>
</event>
<event>
 6    1  0.9512547E-007  0.3872573E+04  0.7818608E-02  0.8030758E-01
          2   -1    0    0  501    0  0.00000000000E+00  0.00000000000E+00  0.31146908288E+04  0.31146908288E+04  0.00000000000E+00 0. -1.
         -2   -1    0    0    0  501 -0.00000000000E+00 -0.00000000000E+00 -0.12037164278E+04  0.12037164278E+04  0.00000000000E+00 0.  1.
         23    2    1    2    0    0 -0.11369209075E+04  0.12276575899E+04 -0.12839782391E+03  0.16804589289E+04  0.87885735301E+02 0.  0.
         13    1    3    3    0    0 -0.63299634409E+03  0.62062572047E+03 -0.57986676821E+02  0.88838230016E+03  0.00000000000E+00 0.  1.
        -13    1    3    3    0    0 -0.50392456338E+03  0.60703186945E+03 -0.70411147085E+02  0.79207662871E+03  0.00000000000E+00 0. -1.
         22    1    1    2    0    0  0.11369209075E+04 -0.12276575899E+04  0.20393722249E+04  0.26379483277E+04  0.00000000000E+00 0. -1.
<mgrwt>
<rscale>  0 0.38725725E+04</rscale>
<asrwt>0</asrwt>
<pdfrwt beam="1">  1        2 0.47918320E+00 0.38725725E+04</pdfrwt>
<pdfrwt beam="2">  1       -2 0.18518714E+00 0.38725725E+04</pdfrwt>
<totfact> 0.19592087E-01</totfact>
</mgrwt>
</event>
<event>
 6    1  0.9512547E-007  0.1852963E+04  0.7818608E-02  0.8678630E-01
          2   -1    0    0  501    0  0.00000000000E+00  0.00000000000E+00  0.79901851971E+03  0.79901851971E+03  0.00000000000E+00 0. -1.
         -2   -1    0    0    0  501 -0.00000000000E+00 -0.00000000000E+00 -0.10742784152E+04  0.10742784152E+04  0.00000000000E+00 0.  1.
         23    2    1    2    0    0  0.43960422662E+03  0.12093662157E+03 -0.95068512598E+03  0.10583878697E+04  0.92223269590E+02 0.  0.
         11    1    3    3    0    0  0.18804531669E+03  0.55756086144E+01 -0.40325976355E+03  0.44498378109E+03  0.00000000000E+00 0. -1.
        -11    1    3    3    0    0  0.25155890993E+03  0.11536101295E+03 -0.54742536244E+03  0.61340408860E+03  0.00000000000E+00 0.  1.
         22    1    1    2    0    0 -0.43960422662E+03 -0.12093662157E+03  0.67542523052E+03  0.81490906519E+03  0.00000000000E+00 0. -1.
<mgrwt>
<rscale>  0 0.18529634E+04</rscale>
<asrwt>0</asrwt>
<pdfrwt beam="1">  1        2 0.12292593E+00 0.18529634E+04</pdfrwt>
<pdfrwt beam="2">  1       -2 0.16527360E+00 0.18529634E+04</pdfrwt>
<totfact> 0.74715488E+00</totfact>
</mgrwt>
</event>
<event>
 6    1  0.9512547E-007  0.3358598E+04  0.7818608E-02  0.8148143E-01
          1   -1    0    0  501    0  0.00000000000E+00  0.00000000000E+00  0.17074605674E+04  0.17074605674E+04  0.00000000000E+00 0. -1.
         -1   -1    0    0    0  501 -0.00000000000E+00 -0.00000000000E+00 -0.16516023463E+04  0.16516023463E+04  0.00000000000E+00 0.  1.
         23    2    1    2    0    0 -0.83224047866E+03 -0.80796254994E+03 -0.11849153087E+04  0.16605498437E+04  0.89296126095E+02 0.  0.
         13    1    3    3    0    0 -0.26207481373E+03 -0.31107369013E+03 -0.39639624256E+03  0.56796129252E+03  0.00000000000E+00 0. -1.
        -13    1    3    3    0    0 -0.57016566493E+03 -0.49688885981E+03 -0.78851906617E+03  0.10925885512E+04  0.00000000000E+00 0.  1.
         22    1    1    2    0    0  0.83224047866E+03  0.80796254994E+03  0.12407735299E+04  0.16985130700E+04  0.00000000000E+00 0. -1.
<mgrwt>
<rscale>  0 0.33585984E+04</rscale>
<asrwt>0</asrwt>
<pdfrwt beam="1">  1        1 0.26268624E+00 0.33585984E+04</pdfrwt>
<pdfrwt beam="2">  1       -1 0.25409267E+00 0.33585984E+04</pdfrwt>
<totfact> 0.25494413E-01</totfact>
</mgrwt>
</event>
<event>
 6    1  0.9512547E-007  0.4574482E+04  0.7818608E-02  0.7897725E-01
         -2   -1    0    0    0  501 -0.00000000000E+00  0.00000000000E+00  0.39720497929E+04  0.39720497929E+04  0.00000000000E+00 0.  1.
          2   -1    0    0  501    0  0.00000000000E+00 -0.00000000000E+00 -0.13170709120E+04  0.13170709120E+04  0.00000000000E+00 0. -1.
         23    2    1    2    0    0  0.18202418265E+04 -0.41056472495E+03  0.28555075974E+04  0.34124066973E+04  0.93552812659E+02 0.  0.
         13    1    3    3    0    0  0.13961404804E+04 -0.29614938275E+03  0.22463311756E+04  0.26613749169E+04  0.00000000000E+00 0.  1.
        -13    1    3    3    0    0  0.42410134605E+03 -0.11441534220E+03  0.60917642179E+03  0.75103178036E+03  0.00000000000E+00 0. -1.
         22    1    1    2    0    0 -0.18202418265E+04  0.41056472495E+03 -0.20052871649E+03  0.18767140076E+04  0.00000000000E+00 0. -1.
<mgrwt>
<rscale>  0 0.45744819E+04</rscale>
<asrwt>0</asrwt>
<pdfrwt beam="1">  1        2 0.20262630E+00 0.45744819E+04</pdfrwt>
<pdfrwt beam="2">  1       -2 0.61108458E+00 0.45744819E+04</pdfrwt>
<totfact> 0.56314439E-03</totfact>
</mgrwt>
</event>
<event>
 6    1  0.1731965E-006  0.2967595E+04  0.7818608E-02  0.8253045E-01
          1   -1    0    0  501    0  0.00000000000E+00  0.00000000000E+00  0.19448137928E+04  0.19448137928E+04  0.00000000000E+00 0. -1.
         -1   -1    0    0    0  501 -0.00000000000E+00 -0.00000000000E+00 -0.11320650416E+04  0.11320650416E+04  0.00000000000E+00 0.  1.
         23    2    1    2    0    0 -0.17503849341E+03 -0.14490215617E+04  0.67549868363E+03  0.16108844478E+04  0.91368879653E+02 0.  0.
         13    1    3    3    0    0 -0.28889853471E+02 -0.60131448160E+03  0.29094337850E+03  0.66862678596E+03  0.00000000000E+00 0. -1.
        -13    1    3    3    0    0 -0.14614863993E+03 -0.84770708009E+03  0.38455530513E+03  0.94225766184E+03  0.00000000000E+00 0.  1.
         22    1    1    2    0    0  0.17503849341E+03  0.14490215617E+04  0.13725006763E+03  0.14659943866E+04  0.00000000000E+00 0.  1.
<mgrwt>
<rscale>  0 0.29675955E+04</rscale>
<asrwt>0</asrwt>
<pdfrwt beam="1">  1        1 0.29920212E+00 0.29675955E+04</pdfrwt>
<pdfrwt beam="2">  1       -1 0.17416385E+00 0.29675955E+04</pdfrwt>
<totfact> 0.63591287E-01</totfact>
</mgrwt>
</event>
<event>
 6    1  0.9512547E-007  0.4061053E+03  0.7818608E-02  0.1041686E+00
          2   -1    0    0  501    0  0.00000000000E+00  0.00000000000E+00  0.27069642164E+03  0.27069642164E+03  0.00000000000E+00 0. -1.
         -2   -1    0    0    0  501 -0.00000000000E+00 -0.00000000000E+00 -0.15231223156E+03  0.15231223156E+03  0.00000000000E+00 0.  1.
         23    2    1    2    0    0 -0.95629402459E+02 -0.11964157087E+03  0.18301202636E+03  0.25676832922E+03  0.94749591048E+02 0.  0.
         13    1    3    3    0    0 -0.75784990279E+02 -0.38724438263E+02  0.13783768700E+03  0.16199436665E+03  0.00000000000E+00 0. -1.
        -13    1    3    3    0    0 -0.19844412180E+02 -0.80917132604E+02  0.45174339359E+02  0.94773962564E+02  0.00000000000E+00 0.  1.
         22    1    1    2    0    0  0.95629402459E+02  0.11964157087E+03 -0.64627836276E+02  0.16624032398E+03  0.00000000000E+00 0.  1.
<mgrwt>
<rscale>  0 0.40610529E+03</rscale>
<asrwt>0</asrwt>
<pdfrwt beam="1">  1        2 0.41645603E-01 0.40610529E+03</pdfrwt>
<pdfrwt beam="2">  1       -2 0.23432651E-01 0.40610529E+03</pdfrwt>
<totfact> 0.19628641E+03</totfact>
</mgrwt>
</event>
<event>
 6    1  0.9512547E-007  0.2779909E+04  0.7818608E-02  0.8309533E-01
          1   -1    0    0  501    0  0.00000000000E+00  0.00000000000E+00  0.17616951133E+04  0.17616951133E+04  0.00000000000E+00 0. -1.
         -1   -1    0    0    0  501 -0.00000000000E+00 -0.00000000000E+00 -0.10966559578E+04  0.10966559578E+04  0.00000000000E+00 0.  1.
         23    2    1    2    0    0 -0.36221495247E+03  0.13106957791E+04  0.44863954470E+02  0.13637807726E+04  0.93606218710E+02 0.  0.
         13    1    3    3    0    0 -0.17359775137E+03  0.49328505415E+03 -0.10733805020E+02  0.52305022560E+03  0.00000000000E+00 0.  1.
        -13    1    3    3    0    0 -0.18861720110E+03  0.81741072496E+03  0.55597759490E+02  0.84073054702E+03  0.00000000000E+00 0. -1.
         22    1    1    2    0    0  0.36221495247E+03 -0.13106957791E+04  0.62017520096E+03  0.14945702985E+04  0.00000000000E+00 0.  1.
<mgrwt>
<rscale>  0 0.27799089E+04</rscale>
<asrwt>0</asrwt>
<pdfrwt beam="1">  1        1 0.27103002E+00 0.27799089E+04</pdfrwt>
<pdfrwt beam="2">  1       -1 0.16871630E+00 0.27799089E+04</pdfrwt>
<totfact> 0.94348138E-01</totfact>
</mgrwt>
</event>
<event>
 6    1  0.9512547E-007  0.2714971E+04  0.7818608E-02  0.8330164E-01
         -1   -1    0    0    0  501 -0.00000000000E+00  0.00000000000E+00  0.74402022667E+03  0.74402022667E+03  0.00000000000E+00 0.  1.
          1   -1    0    0  501    0  0.00000000000E+00 -0.00000000000E+00 -0.24767702915E+04  0.24767702915E+04  0.00000000000E+00 0. -1.
         23    2    1    2    0    0 -0.10038978935E+04 -0.45658351110E+03 -0.18032456939E+04  0.21156891124E+04  0.90365395384E+02 0.  0.
         11    1    3    3    0    0 -0.69604796532E+03 -0.35359519870E+03 -0.12277111110E+04  0.14549181787E+04  0.00000000000E+00 0. -1.
        -11    1    3    3    0    0 -0.30784992814E+03 -0.10298831240E+03 -0.57553458295E+03  0.66077093377E+03  0.00000000000E+00 0.  1.
         22    1    1    2    0    0  0.10038978935E+04  0.45658351110E+03  0.70495629160E+02  0.11051014057E+04  0.00000000000E+00 0.  1.
<mgrwt>
<rscale>  0 0.27149712E+04</rscale>
<asrwt>0</asrwt>
<pdfrwt beam="1">  1        1 0.38104158E+00 0.27149712E+04</pdfrwt>
<pdfrwt beam="2">  1       -1 0.11446465E+00 0.27149712E+04</pdfrwt>
<totfact> 0.85068081E-01</totfact>
</mgrwt>
</event>
<event>
 6    1  0.9512547E-007  0.1967462E+04  0.7818608E-02  0.8621986E-01
          4   -1    0    0  501    0  0.00000000000E+00  0.00000000000E+00  0.11241674294E+04  0.11241674294E+04  0.00000000000E+00 0. -1.
         -4   -1    0    0    0  501 -0.00000000000E+00 -0.00000000000E+00 -0.86083815153E+03  0.86083815153E+03  0.00000000000E+00 0.  1.
         23    2    1    2    0    0 -0.58737501935E+03 -0.61585639781E+03  0.62560468544E+03  0.10600558596E+04  0.89714474796E+02 0.  0.
         11    1    3    3    0    0 -0.14796084996E+03 -0.10953154708E+03  0.11159310344E+03  0.21527329993E+03  0.00000000000E+00 0.  1.
        -11    1    3    3    0    0 -0.43941416939E+03 -0.50632485073E+03  0.51401158200E+03  0.84478255969E+03  0.00000000000E+00 0. -1.
         22    1    1    2    0    0  0.58737501935E+03  0.61585639781E+03 -0.36227540755E+03  0.92494972133E+03  0.00000000000E+00 0.  1.
<mgrwt>
<rscale>  0 0.19674615E+04</rscale>
<asrwt>0</asrwt>
<pdfrwt beam="1">  1        4 0.17294884E+00 0.19674615E+04</pdfrwt>
<pdfrwt beam="2">  1       -4 0.13243664E+00 0.19674615E+04</pdfrwt>
<totfact> 0.15490786E-01</totfact>
</mgrwt>
</event>
<event>
 6    1  0.9512547E-007  0.7335191E+03  0.7818608E-02  0.9661567E-01
          1   -1    0    0  501    0  0.00000000000E+00  0.00000000000E+00  0.17670872855E+03  0.17670872855E+03  0.00000000000E+00 0. -1.
         -1   -1    0    0    0  501 -0.00000000000E+00 -0.00000000000E+00 -0.76121064885E+03  0.76121064885E+03  0.00000000000E+00 0.  1.
         23    2    1    2    0    0  0.32259723576E+02  0.36015310690E+03 -0.27785063847E+03  0.46380340127E+03  0.84626636233E+02 0.  0.
         11    1    3    3    0    0  0.54909341180E+02  0.15074331588E+03 -0.11089270975E+03  0.19502762909E+03  0.00000000000E+00 0. -1.
        -11    1    3    3    0    0 -0.22649617604E+02  0.20940979102E+03 -0.16695792872E+03  0.26877577219E+03  0.00000000000E+00 0.  1.
         22    1    1    2    0    0 -0.32259723576E+02 -0.36015310690E+03 -0.30665128182E+03  0.47411597613E+03  0.00000000000E+00 0. -1.
<mgrwt>
<rscale>  0 0.73351910E+03</rscale>
<asrwt>0</asrwt>
<pdfrwt beam="1">  1        1 0.27185959E-01 0.73351910E+03</pdfrwt>
<pdfrwt beam="2">  1       -1 0.11710933E+00 0.73351910E+03</pdfrwt>
<totfact> 0.11672333E+02</totfact>
</mgrwt>
</event>
<event>
 6    1  0.9512547E-007  0.1961723E+04  0.7818608E-02  0.8624729E-01
          2   -1    0    0  501    0  0.00000000000E+00  0.00000000000E+00  0.14829103349E+04  0.14829103349E+04  0.00000000000E+00 0. -1.
         -2   -1    0    0    0  501 -0.00000000000E+00 -0.00000000000E+00 -0.64878444464E+03  0.64878444464E+03  0.00000000000E+00 0.  1.
         23    2    1    2    0    0 -0.34381934727E+03  0.37256475990E+03 -0.49174508055E+03  0.71220540827E+03  0.91690105456E+02 0.  0.
         11    1    3    3    0    0 -0.17005549194E+03  0.11807016599E+03 -0.19551398855E+03  0.28475455072E+03  0.00000000000E+00 0.  1.
        -11    1    3    3    0    0 -0.17376385533E+03  0.25449459391E+03 -0.29623109201E+03  0.42745085755E+03  0.00000000000E+00 0. -1.
         22    1    1    2    0    0  0.34381934727E+03 -0.37256475990E+03  0.13258709708E+04  0.14194893712E+04  0.00000000000E+00 0. -1.
<mgrwt>
<rscale>  0 0.19617229E+04</rscale>
<asrwt>0</asrwt>
<pdfrwt beam="1">  1        2 0.22814005E+00 0.19617229E+04</pdfrwt>
<pdfrwt beam="2">  1       -2 0.99812992E-01 0.19617229E+04</pdfrwt>
<totfact> 0.10037155E+01</totfact>
</mgrwt>
</event>
<event>
 6    1  0.9512547E-007  0.6920718E+03  0.7818608E-02  0.9730887E-01
         -1   -1    0    0    0  501 -0.00000000000E+00  0.00000000000E+00  0.89247336395E+03  0.89247336395E+03  0.00000000000E+00 0.  1.
          1   -1    0    0  501    0  0.00000000000E+00 -0.00000000000E+00 -0.13416741759E+03  0.13416741759E+03  0.00000000000E+00 0. -1.
         23    2    1    2    0    0 -0.29834980609E+03 -0.12076527387E+03  0.22852180528E+03  0.40674716624E+03  0.98102923453E+02 0.  0.
         11    1    3    3    0    0 -0.20633709448E+03 -0.35289925235E+02  0.12360874299E+03  0.24310388052E+03  0.00000000000E+00 0. -1.
        -11    1    3    3    0    0 -0.92012711611E+02 -0.85475348631E+02  0.10491306229E+03  0.16364328572E+03  0.00000000000E+00 0.  1.
         22    1    1    2    0    0  0.29834980609E+03  0.12076527387E+03  0.52978414108E+03  0.61989361531E+03  0.00000000000E+00 0.  1.
<mgrwt>
<rscale>  0 0.69207181E+03</rscale>
<asrwt>0</asrwt>
<pdfrwt beam="1">  1        1 0.20641142E-01 0.69207181E+03</pdfrwt>
<pdfrwt beam="2">  1       -1 0.13730359E+00 0.69207181E+03</pdfrwt>
<totfact> 0.11300488E+02</totfact>
</mgrwt>
</event>
<event>
 6    1  0.1199998E-006  0.3019623E+04  0.7818608E-02  0.8238150E-01
         -2   -1    0    0    0  501 -0.00000000000E+00  0.00000000000E+00  0.12547816467E+04  0.12547816467E+04  0.00000000000E+00 0.  1.
          2   -1    0    0  501    0  0.00000000000E+00 -0.00000000000E+00 -0.18166751296E+04  0.18166751296E+04  0.00000000000E+00 0. -1.
         23    2    1    2    0    0  0.89781258441E+03  0.27216406371E+03 -0.14826314537E+04  0.17569610080E+04  0.92602600494E+02 0.  0.
         11    1    3    3    0    0  0.74894153803E+03  0.24259813742E+03 -0.11817502872E+04  0.14199651492E+04  0.00000000000E+00 0.  1.
        -11    1    3    3    0    0  0.14887104639E+03  0.29565926287E+02 -0.30088116652E+03  0.33699585875E+03  0.00000000000E+00 0. -1.
         22    1    1    2    0    0 -0.89781258441E+03 -0.27216406371E+03  0.92073797081E+03  0.13144957684E+04  0.00000000000E+00 0.  1.
<mgrwt>
<rscale>  0 0.30196229E+04</rscale>
<asrwt>0</asrwt>
<pdfrwt beam="1">  1        2 0.27948848E+00 0.30196229E+04</pdfrwt>
<pdfrwt beam="2">  1       -2 0.19304333E+00 0.30196229E+04</pdfrwt>
<totfact> 0.10677707E+00</totfact>
</mgrwt>
</event>
<event>
 6    1  0.9512547E-007  0.2056390E+04  0.7818608E-02  0.8580701E-01
          1   -1    0    0  501    0  0.00000000000E+00  0.00000000000E+00  0.78031613803E+03  0.78031613803E+03  0.00000000000E+00 0. -1.
         -1   -1    0    0    0  501 -0.00000000000E+00 -0.00000000000E+00 -0.13548165013E+04  0.13548165013E+04  0.00000000000E+00 0.  1.
         23    2    1    2    0    0 -0.85613323297E+03  0.10012661594E+03  0.29087043054E+03  0.91371704149E+03  0.85345021682E+02 0.  0.
         11    1    3    3    0    0 -0.77291461212E+03  0.64774812702E+02  0.26553997634E+03  0.81981964665E+03  0.00000000000E+00 0. -1.
        -11    1    3    3    0    0 -0.83218620850E+02  0.35351803236E+02  0.25330454198E+02  0.93897394842E+02  0.00000000000E+00 0.  1.
         22    1    1    2    0    0  0.85613323297E+03 -0.10012661594E+03 -0.86537079377E+03  0.12214155978E+04  0.00000000000E+00 0.  1.
<mgrwt>
<rscale>  0 0.20563902E+04</rscale>
<asrwt>0</asrwt>
<pdfrwt beam="1">  1        1 0.12004864E+00 0.20563902E+04</pdfrwt>
<pdfrwt beam="2">  1       -1 0.20843331E+00 0.20563902E+04</pdfrwt>
<totfact> 0.27981221E+00</totfact>
</mgrwt>
</event>
<event>
 6    1  0.9512547E-007  0.2600997E+04  0.7818608E-02  0.8367863E-01
         -2   -1    0    0    0  501 -0.00000000000E+00  0.00000000000E+00  0.65650592286E+03  0.65650592286E+03  0.00000000000E+00 0.  1.
          2   -1    0    0  501    0  0.00000000000E+00 -0.00000000000E+00 -0.25762090941E+04  0.25762090941E+04  0.00000000000E+00 0. -1.
         23    2    1    2    0    0  0.97578782144E+03  0.38248924223E+03 -0.73444526302E+01  0.10519867529E+04  0.90345417503E+02 0.  0.
         11    1    3    3    0    0  0.67126401087E+03  0.30745371806E+03 -0.37515319614E+01  0.73833409445E+03  0.00000000000E+00 0.  1.
        -11    1    3    3    0    0  0.30452381057E+03  0.75035524171E+02 -0.35929206687E+01  0.31365265848E+03  0.00000000000E+00 0. -1.
         22    1    1    2    0    0 -0.97578782144E+03 -0.38248924223E+03 -0.19123587186E+04  0.21807282640E+04  0.00000000000E+00 0. -1.
<mgrwt>
<rscale>  0 0.26009971E+04</rscale>
<asrwt>0</asrwt>
<pdfrwt beam="1">  1        2 0.39633986E+00 0.26009971E+04</pdfrwt>
<pdfrwt beam="2">  1       -2 0.10100091E+00 0.26009971E+04</pdfrwt>
<totfact> 0.22417225E+00</totfact>
</mgrwt>
</event>
<event>
 6    1  0.9512547E-007  0.2056272E+04  0.7818608E-02  0.8580754E-01
         -2   -1    0    0    0  501 -0.00000000000E+00  0.00000000000E+00  0.29042070585E+03  0.29042070585E+03  0.00000000000E+00 0.  1.
          2   -1    0    0  501    0  0.00000000000E+00 -0.00000000000E+00 -0.36397679453E+04  0.36397679453E+04  0.00000000000E+00 0. -1.
         23    2    1    2    0    0  0.53262182479E+03 -0.86912634318E+03 -0.14529218862E+04  0.17771685098E+04  0.90990637489E+02 0.  0.
         11    1    3    3    0    0  0.16571011657E+03 -0.35412300082E+03 -0.54412921306E+03  0.67002950902E+03  0.00000000000E+00 0. -1.
        -11    1    3    3    0    0  0.36691170822E+03 -0.51500334236E+03 -0.90879267314E+03  0.11071390008E+04  0.00000000000E+00 0.  1.
         22    1    1    2    0    0 -0.53262182479E+03  0.86912634318E+03 -0.18964253532E+04  0.21530201413E+04  0.00000000000E+00 0. -1.
<mgrwt>
<rscale>  0 0.20562723E+04</rscale>
<asrwt>0</asrwt>
<pdfrwt beam="1">  1        2 0.55996431E+00 0.20562723E+04</pdfrwt>
<pdfrwt beam="2">  1       -2 0.44680108E-01 0.20562723E+04</pdfrwt>
<totfact> 0.28563031E+00</totfact>
</mgrwt>
</event>
<event>
 6    1  0.1114760E-006  0.3241656E+04  0.7818608E-02  0.8177902E-01
         -2   -1    0    0    0  501 -0.00000000000E+00  0.00000000000E+00  0.12701861724E+04  0.12701861724E+04  0.00000000000E+00 0.  1.
          2   -1    0    0  501    0  0.00000000000E+00 -0.00000000000E+00 -0.20682663487E+04  0.20682663487E+04  0.00000000000E+00 0. -1.
         23    2    1    2    0    0 -0.14929855474E+04  0.24676705032E+03  0.19498359545E+03  0.15284592956E+04  0.90936208959E+02 0.  0.
         11    1    3    3    0    0 -0.77046496951E+03  0.16347773611E+03  0.12976475656E+03  0.79823563657E+03  0.00000000000E+00 0.  1.
        -11    1    3    3    0    0 -0.72252057786E+03  0.83289314209E+02  0.65218838891E+02  0.73022365905E+03  0.00000000000E+00 0. -1.
         22    1    1    2    0    0  0.14929855474E+04 -0.24676705032E+03 -0.99306377175E+03  0.18099932256E+04  0.00000000000E+00 0. -1.
<mgrwt>
<rscale>  0 0.32416559E+04</rscale>
<asrwt>0</asrwt>
<pdfrwt beam="1">  1        2 0.31819482E+00 0.32416559E+04</pdfrwt>
<pdfrwt beam="2">  1       -2 0.19541326E+00 0.32416559E+04</pdfrwt>
<totfact> 0.73256102E-01</totfact>
</mgrwt>
</event>
<event>
 6    1  0.9512547E-007  0.6304203E+03  0.7818608E-02  0.9844229E-01
         -2   -1    0    0    0  501 -0.00000000000E+00  0.00000000000E+00  0.12156303917E+03  0.12156303917E+03  0.00000000000E+00 0.  1.
          2   -1    0    0  501    0  0.00000000000E+00 -0.00000000000E+00 -0.81733265558E+03  0.81733265558E+03  0.00000000000E+00 0. -1.
         23    2    1    2    0    0  0.22942764152E+03  0.19282623591E+03 -0.24484152368E+03  0.39745766066E+03  0.90588191039E+02 0.  0.
         11    1    3    3    0    0  0.30502414505E+02  0.76758508893E+02 -0.70674150454E+02  0.10870649254E+03  0.00000000000E+00 0. -1.
        -11    1    3    3    0    0  0.19892522701E+03  0.11606772702E+03 -0.17416737322E+03  0.28875116812E+03  0.00000000000E+00 0.  1.
         22    1    1    2    0    0 -0.22942764152E+03 -0.19282623591E+03 -0.45092809273E+03  0.54143803409E+03  0.00000000000E+00 0.  1.
<mgrwt>
<rscale>  0 0.63042031E+03</rscale>
<asrwt>0</asrwt>
<pdfrwt beam="1">  1        2 0.12574348E+00 0.63042031E+03</pdfrwt>
<pdfrwt beam="2">  1       -2 0.18702006E-01 0.63042031E+03</pdfrwt>
<totfact> 0.80790559E+02</totfact>
</mgrwt>
</event>
<event>
 6    1  0.9512547E-007  0.3894751E+04  0.7818608E-02  0.8026122E-01
          2   -1    0    0  501    0  0.00000000000E+00  0.00000000000E+00  0.11812798415E+04  0.11812798415E+04  0.00000000000E+00 0. -1.
         -2   -1    0    0    0  501 -0.00000000000E+00 -0.00000000000E+00 -0.32103066153E+04  0.32103066153E+04  0.00000000000E+00 0.  1.
         23    2    1    2    0    0  0.14113940325E+04  0.32735721296E+03 -0.24802775658E+04  0.28740808927E+04  0.96790054111E+02 0.  0.
         11    1    3    3    0    0  0.32280320248E+03  0.58993754033E+02 -0.63830578462E+03  0.71771613137E+03  0.00000000000E+00 0.  1.
        -11    1    3    3    0    0  0.10885908300E+04  0.26836345892E+03 -0.18419717811E+04  0.21563647613E+04  0.00000000000E+00 0. -1.
         22    1    1    2    0    0 -0.14113940325E+04 -0.32735721296E+03  0.45125079190E+03  0.15175055641E+04  0.00000000000E+00 0. -1.
<mgrwt>
<rscale>  0 0.38947506E+04</rscale>
<asrwt>0</asrwt>
<pdfrwt beam="1">  1        2 0.18173536E+00 0.38947506E+04</pdfrwt>
<pdfrwt beam="2">  1       -2 0.49389332E+00 0.38947506E+04</pdfrwt>
<totfact> 0.27866600E-02</totfact>
</mgrwt>
</event>
<event>
 6    1  0.9512547E-007  0.3226459E+04  0.7818608E-02  0.8181864E-01
          1   -1    0    0  501    0  0.00000000000E+00  0.00000000000E+00  0.27307050793E+04  0.27307050793E+04  0.00000000000E+00 0. -1.
         -1   -1    0    0    0  501 -0.00000000000E+00 -0.00000000000E+00 -0.95305407962E+03  0.95305407962E+03  0.00000000000E+00 0.  1.
         23    2    1    2    0    0  0.50230952454E+03 -0.92500854130E+03 -0.50497874097E+03  0.11701254957E+04  0.78958767515E+02 0.  0.
         11    1    3    3    0    0  0.86445607533E+02 -0.22861327436E+03 -0.11355385443E+03  0.26950204105E+03  0.00000000000E+00 0.  1.
        -11    1    3    3    0    0  0.41586391700E+03 -0.69639526694E+03 -0.39142488654E+03  0.90062345465E+03  0.00000000000E+00 0. -1.
         22    1    1    2    0    0 -0.50230952454E+03  0.92500854130E+03  0.22826297406E+04  0.25136336632E+04  0.00000000000E+00 0. -1.
<mgrwt>
<rscale>  0 0.32264591E+04</rscale>
<asrwt>0</asrwt>
<pdfrwt beam="1">  1        1 0.42010847E+00 0.32264591E+04</pdfrwt>
<pdfrwt beam="2">  1       -1 0.14662371E+00 0.32264591E+04</pdfrwt>
<totfact> 0.28887004E-01</totfact>
</mgrwt>
</event>
<event>
 6    1  0.9512547E-007  0.4278929E+03  0.7818608E-02  0.1034528E+00
          2   -1    0    0  501    0  0.00000000000E+00  0.00000000000E+00  0.17680160502E+04  0.17680160502E+04  0.00000000000E+00 0. -1.
         -2   -1    0    0    0  501 -0.00000000000E+00 -0.00000000000E+00 -0.25889515428E+02  0.25889515428E+02  0.00000000000E+00 0.  1.
         23    2    1    2    0    0 -0.20031109836E+03 -0.12221426015E+01  0.74090937184E+03  0.77284639149E+03  0.90657695700E+02 0.  0.
         11    1    3    3    0    0 -0.16631986288E+03  0.16616131126E+02  0.68451272879E+03  0.70462477141E+03  0.00000000000E+00 0. -1.
        -11    1    3    3    0    0 -0.33991235474E+02 -0.17838273727E+02  0.56396643052E+02  0.68221620078E+02  0.00000000000E+00 0.  1.
         22    1    1    2    0    0  0.20031109836E+03  0.12221426015E+01  0.10012171629E+04  0.10210591741E+04  0.00000000000E+00 0. -1.
<mgrwt>
<rscale>  0 0.42789288E+03</rscale>
<asrwt>0</asrwt>
<pdfrwt beam="1">  1        2 0.27200238E+00 0.42789288E+03</pdfrwt>
<pdfrwt beam="2">  1       -2 0.39830038E-02 0.42789288E+03</pdfrwt>
<totfact> 0.27096767E+03</totfact>
</mgrwt>
</event>
<event>
 6    1  0.9512547E-007  0.9091177E+03  0.7818608E-02  0.9414255E-01
         -1   -1    0    0    0  501 -0.00000000000E+00  0.00000000000E+00  0.86931715218E+03  0.86931715218E+03  0.00000000000E+00 0.  1.
          1   -1    0    0  501    0  0.00000000000E+00 -0.00000000000E+00 -0.23768511351E+03  0.23768511351E+03  0.00000000000E+00 0. -1.
         23    2    1    2    0    0 -0.32053115796E+03 -0.25159024422E+03  0.55180438399E+03  0.69177903818E+03  0.89623017524E+02 0.  0.
         11    1    3    3    0    0 -0.17667742875E+03 -0.18822079287E+03  0.37413255025E+03  0.45455158767E+03  0.00000000000E+00 0.  1.
        -11    1    3    3    0    0 -0.14385372921E+03 -0.63369451349E+02  0.17767183374E+03  0.23722745051E+03  0.00000000000E+00 0. -1.
         22    1    1    2    0    0  0.32053115796E+03  0.25159024422E+03  0.79827654683E+02  0.41522322750E+03  0.00000000000E+00 0. -1.
<mgrwt>
<rscale>  0 0.90911770E+03</rscale>
<asrwt>0</asrwt>
<pdfrwt beam="1">  1        1 0.36566941E-01 0.90911770E+03</pdfrwt>
<pdfrwt beam="2">  1       -1 0.13374110E+00 0.90911770E+03</pdfrwt>
<totfact> 0.56494260E+01</totfact>
</mgrwt>
</event>
<event>
 6    1  0.9512547E-007  0.1686110E+04  0.7818608E-02  0.8769326E-01
         -2   -1    0    0    0  501 -0.00000000000E+00  0.00000000000E+00  0.78911463402E+03  0.78911463402E+03  0.00000000000E+00 0.  1.
          2   -1    0    0  501    0  0.00000000000E+00 -0.00000000000E+00 -0.90068289952E+03  0.90068289952E+03  0.00000000000E+00 0. -1.
         23    2    1    2    0    0 -0.29422194868E+03 -0.16288905287E+03  0.71576762773E+03  0.79672190468E+03  0.96659701297E+02 0.  0.
         11    1    3    3    0    0 -0.10254950371E+03 -0.11076734751E+03  0.29188853567E+03  0.32861029083E+03  0.00000000000E+00 0.  1.
        -11    1    3    3    0    0 -0.19167244497E+03 -0.52121705365E+02  0.42387909207E+03  0.46811161385E+03  0.00000000000E+00 0. -1.
         22    1    1    2    0    0  0.29422194868E+03  0.16288905287E+03 -0.82733589324E+03  0.89307562886E+03  0.00000000000E+00 0. -1.
<mgrwt>
<rscale>  0 0.16861104E+04</rscale>
<asrwt>0</asrwt>
<pdfrwt beam="1">  1        2 0.13856660E+00 0.16861104E+04</pdfrwt>
<pdfrwt beam="2">  1       -2 0.12140225E+00 0.16861104E+04</pdfrwt>
<totfact> 0.14392887E+01</totfact>
</mgrwt>
</event>
<event>
 6    1  0.9512547E-007  0.1042751E+04  0.7818608E-02  0.9262860E-01
         -2   -1    0    0    0  501 -0.00000000000E+00  0.00000000000E+00  0.21633986416E+03  0.21633986416E+03  0.00000000000E+00 0.  1.
          2   -1    0    0  501    0  0.00000000000E+00 -0.00000000000E+00 -0.12565073424E+04  0.12565073424E+04  0.00000000000E+00 0. -1.
         23    2    1    2    0    0 -0.11145767710E+03 -0.43828900073E+03 -0.16938106640E+03  0.49162906720E+03  0.92136486325E+02 0.  0.
         13    1    3    3    0    0 -0.68265808594E+02 -0.14289001003E+03 -0.92314645975E+02  0.18330239892E+03  0.00000000000E+00 0.  1.
        -13    1    3    3    0    0 -0.43191868508E+02 -0.29539899071E+03 -0.77066420430E+02  0.30832666828E+03  0.00000000000E+00 0. -1.
         22    1    1    2    0    0  0.11145767710E+03  0.43828900073E+03 -0.87078641182E+03  0.98121813934E+03  0.00000000000E+00 0. -1.
<mgrwt>
<rscale>  0 0.10427514E+04</rscale>
<asrwt>0</asrwt>
<pdfrwt beam="1">  1        2 0.19330882E+00 0.10427514E+04</pdfrwt>
<pdfrwt beam="2">  1       -2 0.33283056E-01 0.10427514E+04</pdfrwt>
<totfact> 0.14708261E+02</totfact>
</mgrwt>
</event>
<event>
 6    1  0.9512547E-007  0.2393493E+04  0.7818608E-02  0.8441944E-01
         -2   -1    0    0    0  501 -0.00000000000E+00  0.00000000000E+00  0.78095059079E+03  0.78095059079E+03  0.00000000000E+00 0.  1.
          2   -1    0    0  501    0  0.00000000000E+00 -0.00000000000E+00 -0.18339221057E+04  0.18339221057E+04  0.00000000000E+00 0. -1.
         23    2    1    2    0    0 -0.82646606580E+03 -0.60331836507E+03  0.14774278923E+03  0.10372941572E+04  0.84332847753E+02 0.  0.
         11    1    3    3    0    0 -0.36288011750E+03 -0.24512815008E+03  0.10220447723E+03  0.44968382760E+03  0.00000000000E+00 0. -1.
        -11    1    3    3    0    0 -0.46358594829E+03 -0.35819021499E+03  0.45538312001E+02  0.58761032958E+03  0.00000000000E+00 0.  1.
         22    1    1    2    0    0  0.82646606580E+03  0.60331836507E+03 -0.12007143042E+04  0.15775785393E+04  0.00000000000E+00 0. -1.
<mgrwt>
<rscale>  0 0.23934933E+04</rscale>
<asrwt>0</asrwt>
<pdfrwt beam="1">  1        2 0.28214186E+00 0.23934933E+04</pdfrwt>
<pdfrwt beam="2">  1       -2 0.12014625E+00 0.23934933E+04</pdfrwt>
<totfact> 0.39357873E+00</totfact>
</mgrwt>
</event>
<event>
 6    1  0.9512547E-007  0.1593524E+04  0.7818608E-02  0.8824537E-01
         -2   -1    0    0    0  501 -0.00000000000E+00  0.00000000000E+00  0.47218779550E+03  0.47218779550E+03  0.00000000000E+00 0.  1.
          2   -1    0    0  501    0  0.00000000000E+00 -0.00000000000E+00 -0.13444423936E+04  0.13444423936E+04  0.00000000000E+00 0. -1.
         23    2    1    2    0    0  0.16941525167E+02 -0.12735931344E+03 -0.13309583246E+04  0.13402726358E+04  0.91505553406E+02 0.  0.
         13    1    3    3    0    0  0.26388811588E+02 -0.52121925548E+02 -0.95264793335E+03  0.95443760897E+03  0.00000000000E+00 0. -1.
        -13    1    3    3    0    0 -0.94472864215E+01 -0.75237387890E+02 -0.37831039126E+03  0.38583502678E+03  0.00000000000E+00 0.  1.
         22    1    1    2    0    0 -0.16941525167E+02  0.12735931344E+03  0.45870372647E+03  0.47635755339E+03  0.00000000000E+00 0.  1.
<mgrwt>
<rscale>  0 0.15935235E+04</rscale>
<asrwt>0</asrwt>
<pdfrwt beam="1">  1        2 0.20683729E+00 0.15935235E+04</pdfrwt>
<pdfrwt beam="2">  1       -2 0.72644277E-01 0.15935235E+04</pdfrwt>
<totfact> 0.25609127E+01</totfact>
</mgrwt>
</event>
<event>
 6    1  0.9512547E-007  0.3877204E+03  0.7818608E-02  0.1048117E+00
         -1   -1    0    0    0  501 -0.00000000000E+00  0.00000000000E+00  0.61552742621E+02  0.61552742621E+02  0.00000000000E+00 0.  1.
          1   -1    0    0  501    0  0.00000000000E+00 -0.00000000000E+00 -0.61056214446E+03  0.61056214446E+03  0.00000000000E+00 0. -1.
         23    2    1    2    0    0 -0.48282050326E+02  0.17433867071E+03 -0.24431668580E+03  0.31776649962E+03  0.92519061990E+02 0.  0.
         13    1    3    3    0    0 -0.17894221647E+02  0.49051648932E+02 -0.14770979644E+03  0.15666668885E+03  0.00000000000E+00 0. -1.
        -13    1    3    3    0    0 -0.30387828679E+02  0.12528702178E+03 -0.96606889361E+02  0.16109981077E+03  0.00000000000E+00 0.  1.
         22    1    1    2    0    0  0.48282050326E+02 -0.17433867071E+03 -0.30469271604E+03  0.35434838746E+03  0.00000000000E+00 0.  1.
<mgrwt>
<rscale>  0 0.38772039E+03</rscale>
<asrwt>0</asrwt>
<pdfrwt beam="1">  1        1 0.93932637E-01 0.38772039E+03</pdfrwt>
<pdfrwt beam="2">  1       -1 0.94696528E-02 0.38772039E+03</pdfrwt>
<totfact> 0.22852239E+03</totfact>
</mgrwt>
</event>
<event>
 6    1  0.9512547E-007  0.1931784E+04  0.7818608E-02  0.8639195E-01
         -2   -1    0    0    0  501 -0.00000000000E+00  0.00000000000E+00  0.33809665719E+03  0.33809665719E+03  0.00000000000E+00 0.  1.
          2   -1    0    0  501    0  0.00000000000E+00 -0.00000000000E+00 -0.27594104306E+04  0.27594104306E+04  0.00000000000E+00 0. -1.
         23    2    1    2    0    0 -0.85860717975E+03 -0.18542211582E+03 -0.57767374814E+03  0.10553033289E+04  0.91490472039E+02 0.  0.
         13    1    3    3    0    0 -0.31666245780E+03 -0.84051696480E+02 -0.26562637592E+03  0.42177858107E+03  0.00000000000E+00 0.  1.
        -13    1    3    3    0    0 -0.54194472195E+03 -0.10137041934E+03 -0.31204737222E+03  0.63352474780E+03  0.00000000000E+00 0. -1.
         22    1    1    2    0    0  0.85860717975E+03  0.18542211582E+03 -0.18436400252E+04  0.20422037589E+04  0.00000000000E+00 0. -1.
<mgrwt>
<rscale>  0 0.19317841E+04</rscale>
<asrwt>0</asrwt>
<pdfrwt beam="1">  1        2 0.42452465E+00 0.19317841E+04</pdfrwt>
<pdfrwt beam="2">  1       -2 0.52014874E-01 0.19317841E+04</pdfrwt>
<totfact> 0.79893065E+00</totfact>
</mgrwt>
</event>
<event>
 6    1  0.9512547E-007  0.1793398E+04  0.7818608E-02  0.8709818E-01
          1   -1    0    0  501    0  0.00000000000E+00  0.00000000000E+00  0.13093603746E+04  0.13093603746E+04  0.00000000000E+00 0. -1.
         -1   -1    0    0    0  501 -0.00000000000E+00 -0.00000000000E+00 -0.61409317087E+03  0.61409317087E+03  0.00000000000E+00 0.  1.
         23    2    1    2    0    0 -0.39420170333E+03  0.27652622981E+03  0.11568889291E+04  0.12564030556E+04  0.91076369744E+02 0.  0.
         11    1    3    3    0    0 -0.19861978509E+03  0.96244216480E+02  0.59839251889E+03  0.63779806749E+03  0.00000000000E+00 0.  1.
        -11    1    3    3    0    0 -0.19558191824E+03  0.18028201333E+03  0.55849641019E+03  0.61860498807E+03  0.00000000000E+00 0. -1.
         22    1    1    2    0    0  0.39420170333E+03 -0.27652622981E+03 -0.46162172538E+03  0.66705048986E+03  0.00000000000E+00 0.  1.
<mgrwt>
<rscale>  0 0.17933982E+04</rscale>
<asrwt>0</asrwt>
<pdfrwt beam="1">  1        1 0.20144006E+00 0.17933982E+04</pdfrwt>
<pdfrwt beam="2">  1       -1 0.94475873E-01 0.17933982E+04</pdfrwt>
<totfact> 0.91178723E+00</totfact>
</mgrwt>
</event>
<event>
 6    1  0.9512547E-007  0.2014404E+04  0.7818608E-02  0.8599916E-01
          2   -1    0    0  501    0  0.00000000000E+00  0.00000000000E+00  0.18603829842E+04  0.18603829842E+04  0.00000000000E+00 0. -1.
         -2   -1    0    0    0  501 -0.00000000000E+00 -0.00000000000E+00 -0.54529421578E+03  0.54529421578E+03  0.00000000000E+00 0.  1.
         23    2    1    2    0    0 -0.80828388732E+03  0.58920637036E+03  0.54116974859E+03  0.11409884483E+04  0.92211458236E+02 0.  0.
         11    1    3    3    0    0 -0.23215289195E+03  0.12108979032E+03  0.12863546288E+03  0.29172724396E+03  0.00000000000E+00 0.  1.
        -11    1    3    3    0    0 -0.57613099538E+03  0.46811658004E+03  0.41253428570E+03  0.84926120435E+03  0.00000000000E+00 0. -1.
         22    1    1    2    0    0  0.80828388732E+03 -0.58920637036E+03  0.77391901987E+03  0.12646887517E+04  0.00000000000E+00 0. -1.
<mgrwt>
<rscale>  0 0.20144042E+04</rscale>
<asrwt>0</asrwt>
<pdfrwt beam="1">  1        2 0.28621276E+00 0.20144042E+04</pdfrwt>
<pdfrwt beam="2">  1       -2 0.83891419E-01 0.20144042E+04</pdfrwt>
<totfact> 0.92017493E+00</totfact>
</mgrwt>
</event>
<event>
 6    1  0.9512547E-007  0.1610663E+04  0.7818608E-02  0.8814024E-01
         -1   -1    0    0    0  501 -0.00000000000E+00  0.00000000000E+00  0.28630891007E+03  0.28630891007E+03  0.00000000000E+00 0.  1.
          1   -1    0    0  501    0  0.00000000000E+00 -0.00000000000E+00 -0.22652406622E+04  0.22652406622E+04  0.00000000000E+00 0. -1.
         23    2    1    2    0    0  0.55060481529E+03 -0.21140623774E+03 -0.12724877032E+03  0.60820500037E+03  0.76569007840E+02 0.  0.
         11    1    3    3    0    0  0.30305349920E+03 -0.80012488097E+02 -0.49168149722E+02  0.31727106482E+03  0.00000000000E+00 0.  1.
        -11    1    3    3    0    0  0.24755131609E+03 -0.13139374964E+03 -0.78080620596E+02  0.29093393555E+03  0.00000000000E+00 0. -1.
         22    1    1    2    0    0 -0.55060481529E+03  0.21140623774E+03 -0.18516829818E+04  0.19433445719E+04  0.00000000000E+00 0. -1.
<mgrwt>
<rscale>  0 0.16106627E+04</rscale>
<asrwt>0</asrwt>
<pdfrwt beam="1">  1        1 0.34849857E+00 0.16106627E+04</pdfrwt>
<pdfrwt beam="2">  1       -1 0.44047524E-01 0.16106627E+04</pdfrwt>
<totfact> 0.96172993E+00</totfact>
</mgrwt>
</event>
<event>
 6    1  0.9512547E-007  0.2519277E+04  0.7818608E-02  0.8396150E-01
         -2   -1    0    0    0  501 -0.00000000000E+00  0.00000000000E+00  0.45973262138E+03  0.45973262138E+03  0.00000000000E+00 0.  1.
          2   -1    0    0  501    0  0.00000000000E+00 -0.00000000000E+00 -0.34513298087E+04  0.34513298087E+04  0.00000000000E+00 0. -1.
         23    2    1    2    0    0 -0.87563970164E+03 -0.77000646220E+03 -0.22305258632E+04  0.25186241373E+04  0.92558518547E+02 0.  0.
         11    1    3    3    0    0 -0.21604194167E+03 -0.14215885930E+03 -0.52296300927E+03  0.58341543594E+03  0.00000000000E+00 0. -1.
        -11    1    3    3    0    0 -0.65959775997E+03 -0.62784760291E+03 -0.17075628540E+04  0.19352087013E+04  0.00000000000E+00 0.  1.
         22    1    1    2    0    0  0.87563970164E+03  0.77000646220E+03 -0.76107132406E+03  0.13924382928E+04  0.00000000000E+00 0.  1.
<mgrwt>
<rscale>  0 0.25192768E+04</rscale>
<asrwt>0</asrwt>
<pdfrwt beam="1">  1        2 0.53097382E+00 0.25192768E+04</pdfrwt>
<pdfrwt beam="2">  1       -2 0.70728096E-01 0.25192768E+04</pdfrwt>
<totfact> 0.14238485E+00</totfact>
</mgrwt>
</event>
<event>
 6    1  0.9512547E-007  0.1851858E+04  0.7818608E-02  0.8679198E-01
          2   -1    0    0  501    0  0.00000000000E+00  0.00000000000E+00  0.11036331860E+04  0.11036331860E+04  0.00000000000E+00 0. -1.
         -2   -1    0    0    0  501 -0.00000000000E+00 -0.00000000000E+00 -0.77683842871E+03  0.77683842871E+03  0.00000000000E+00 0.  1.
         23    2    1    2    0    0  0.55065513441E+02  0.86625708453E+03 -0.15698669838E+03  0.88675231624E+03  0.90836664500E+02 0.  0.
         13    1    3    3    0    0 -0.24278637132E+02  0.19326226543E+03 -0.44896921941E+02  0.19988869168E+03  0.00000000000E+00 0.  1.
        -13    1    3    3    0    0  0.79344150573E+02  0.67299481909E+03 -0.11208977644E+03  0.68686362456E+03  0.00000000000E+00 0. -1.
         22    1    1    2    0    0 -0.55065513441E+02 -0.86625708453E+03  0.48378145563E+03  0.99371929843E+03  0.00000000000E+00 0. -1.
<mgrwt>
<rscale>  0 0.18518582E+04</rscale>
<asrwt>0</asrwt>
<pdfrwt beam="1">  1        2 0.16978972E+00 0.18518582E+04</pdfrwt>
<pdfrwt beam="2">  1       -2 0.11951360E+00 0.18518582E+04</pdfrwt>
<totfact> 0.10931487E+01</totfact>
</mgrwt>
</event>
<event>
 6    1  0.9512547E-007  0.2439014E+04  0.7818608E-02  0.8425040E-01
         -1   -1    0    0    0  501 -0.00000000000E+00  0.00000000000E+00  0.13492026481E+04  0.13492026481E+04  0.00000000000E+00 0.  1.
          1   -1    0    0  501    0  0.00000000000E+00 -0.00000000000E+00 -0.11022791094E+04  0.11022791094E+04  0.00000000000E+00 0. -1.
         23    2    1    2    0    0 -0.96944536731E+03 -0.73719953975E+03  0.12998496093E+03  0.12279777270E+04  0.88009808399E+02 0.  0.
         11    1    3    3    0    0 -0.54726119448E+03 -0.36916002963E+03  0.47294196194E+02  0.66182375559E+03  0.00000000000E+00 0. -1.
        -11    1    3    3    0    0 -0.42218417282E+03 -0.36803951011E+03  0.82690764735E+02  0.56615397142E+03  0.00000000000E+00 0.  1.
         22    1    1    2    0    0  0.96944536731E+03  0.73719953975E+03  0.11693857772E+03  0.12235040305E+04  0.00000000000E+00 0. -1.
<mgrwt>
<rscale>  0 0.24390145E+04</rscale>
<asrwt>0</asrwt>
<pdfrwt beam="1">  1        1 0.16958140E+00 0.24390145E+04</pdfrwt>
<pdfrwt beam="2">  1       -1 0.20756964E+00 0.24390145E+04</pdfrwt>
<totfact> 0.15062274E+00</totfact>
</mgrwt>
</event>
<event>
 6    1  0.9512547E-007  0.3863465E+04  0.7818608E-02  0.8032671E-01
         -1   -1    0    0    0  501 -0.00000000000E+00  0.00000000000E+00  0.12490095055E+04  0.12490095055E+04  0.00000000000E+00 0.  1.
          1   -1    0    0  501    0  0.00000000000E+00 -0.00000000000E+00 -0.29876402853E+04  0.29876402853E+04  0.00000000000E+00 0. -1.
         23    2    1    2    0    0  0.23637487214E+02 -0.16275963515E+04  0.26873104202E+03  0.16522484872E+04  0.89889245088E+02 0.  0.
         13    1    3    3    0    0 -0.19135959613E+02 -0.10059574222E+04  0.19403521787E+03  0.10246785769E+04  0.00000000000E+00 0.  1.
        -13    1    3    3    0    0  0.42773446826E+02 -0.62163892928E+03  0.74695824142E+02  0.62756991028E+03  0.00000000000E+00 0. -1.
         22    1    1    2    0    0 -0.23637487214E+02  0.16275963515E+04 -0.20073618218E+04  0.25844013035E+04  0.00000000000E+00 0. -1.
<mgrwt>
<rscale>  0 0.38634653E+04</rscale>
<asrwt>0</asrwt>
<pdfrwt beam="1">  1        1 0.45963697E+00 0.38634653E+04</pdfrwt>
<pdfrwt beam="2">  1       -1 0.19215531E+00 0.38634653E+04</pdfrwt>
<totfact> 0.82384420E-02</totfact>
</mgrwt>
</event>
<event>
 6    1  0.9512547E-007  0.9120333E+03  0.7818608E-02  0.9410663E-01
         -2   -1    0    0    0  501 -0.00000000000E+00  0.00000000000E+00  0.18445570728E+03  0.18445570728E+03  0.00000000000E+00 0.  1.
          2   -1    0    0  501    0  0.00000000000E+00 -0.00000000000E+00 -0.11273773049E+04  0.11273773049E+04  0.00000000000E+00 0. -1.
         23    2    1    2    0    0  0.30212588711E+02  0.17426069812E+03  0.12162757639E+03  0.23269236551E+03  0.89849197004E+02 0.  0.
         11    1    3    3    0    0 -0.28369223241E+02  0.45740537519E+02  0.53457786950E+02  0.75860032859E+02  0.00000000000E+00 0.  1.
        -11    1    3    3    0    0  0.58581811952E+02  0.12852016060E+03  0.68169789444E+02  0.15683233265E+03  0.00000000000E+00 0. -1.
         22    1    1    2    0    0 -0.30212588711E+02 -0.17426069812E+03 -0.10645491740E+04  0.10791406467E+04  0.00000000000E+00 0. -1.
<mgrwt>
<rscale>  0 0.91203328E+03</rscale>
<asrwt>0</asrwt>
<pdfrwt beam="1">  1        2 0.17344266E+00 0.91203328E+03</pdfrwt>
<pdfrwt beam="2">  1       -2 0.28377801E-01 0.91203328E+03</pdfrwt>
<totfact> 0.23846401E+02</totfact>
</mgrwt>
</event>
<event>
 6    1  0.9512547E-007  0.1799679E+04  0.7818608E-02  0.8706470E-01
          2   -1    0    0  501    0  0.00000000000E+00  0.00000000000E+00  0.95847197643E+03  0.95847197643E+03  0.00000000000E+00 0. -1.
         -2   -1    0    0    0  501 -0.00000000000E+00 -0.00000000000E+00 -0.84479371104E+03  0.84479371104E+03  0.00000000000E+00 0.  1.
         23    2    1    2    0    0  0.81393831041E+03  0.36181094082E+03 -0.53358549350E+02  0.89700743094E+03  0.91501182164E+02 0.  0.
         13    1    3    3    0    0  0.37160833508E+03  0.12653315047E+03  0.51375962152E+01  0.39259366751E+03  0.00000000000E+00 0. -1.
        -13    1    3    3    0    0  0.44232997533E+03  0.23527779034E+03 -0.58496145565E+02  0.50441376344E+03  0.00000000000E+00 0.  1.
         22    1    1    2    0    0 -0.81393831041E+03 -0.36181094082E+03  0.16703681474E+03  0.90625825653E+03  0.00000000000E+00 0.  1.
<mgrwt>
<rscale>  0 0.17996790E+04</rscale>
<asrwt>0</asrwt>
<pdfrwt beam="1">  1        2 0.14745723E+00 0.17996790E+04</pdfrwt>
<pdfrwt beam="2">  1       -2 0.12996826E+00 0.17996790E+04</pdfrwt>
<totfact> 0.10996528E+01</totfact>
</mgrwt>
</event>
<event>
 6    1  0.9512547E-007  0.1976146E+03  0.7818608E-02  0.1151767E+00
          2   -1    0    0  501    0  0.00000000000E+00  0.00000000000E+00  0.12660168851E+03  0.12660168851E+03  0.00000000000E+00 0. -1.
         -2   -1    0    0    0  501 -0.00000000000E+00 -0.00000000000E+00 -0.77114968115E+02  0.77114968115E+02  0.00000000000E+00 0.  1.
         23    2    1    2    0    0  0.28357107611E+02 -0.66076968714E+02  0.74485431579E+00  0.11684859083E+03  0.92101829647E+02 0.  0.
         11    1    3    3    0    0  0.10856917636E+02 -0.88066898613E+02  0.11853823705E+01  0.88741514655E+02  0.00000000000E+00 0. -1.
        -11    1    3    3    0    0  0.17500189974E+02  0.21989929899E+02 -0.44052805476E+00  0.28107076174E+02  0.00000000000E+00 0.  1.
         22    1    1    2    0    0 -0.28357107611E+02  0.66076968714E+02  0.48741866084E+02  0.86868065800E+02  0.00000000000E+00 0. -1.
<mgrwt>
<rscale>  0 0.19761463E+03</rscale>
<asrwt>0</asrwt>
<pdfrwt beam="1">  1        2 0.19477183E-01 0.19761463E+03</pdfrwt>
<pdfrwt beam="2">  1       -2 0.11863841E-01 0.19761463E+03</pdfrwt>
<totfact> 0.13910424E+04</totfact>
</mgrwt>
</event>
<event>
 6    1  0.9512547E-007  0.1763887E+04  0.7818608E-02  0.8725743E-01
          2   -1    0    0  501    0  0.00000000000E+00  0.00000000000E+00  0.22743761880E+04  0.22743761880E+04  0.00000000000E+00 0. -1.
         -2   -1    0    0    0  501 -0.00000000000E+00 -0.00000000000E+00 -0.34199464650E+03  0.34199464650E+03  0.00000000000E+00 0.  1.
         23    2    1    2    0    0  0.51227566104E+03  0.27302629440E+03 -0.11548077188E+02  0.58761947645E+03  0.90518399711E+02 0.  0.
         11    1    3    3    0    0  0.11141335943E+03  0.10383757871E+03 -0.78043816757E+01  0.15249946815E+03  0.00000000000E+00 0.  1.
        -11    1    3    3    0    0  0.40086230161E+03  0.16918871570E+03 -0.37436955122E+01  0.43512000831E+03  0.00000000000E+00 0. -1.
         22    1    1    2    0    0 -0.51227566104E+03 -0.27302629440E+03  0.19439296187E+04  0.20287513581E+04  0.00000000000E+00 0. -1.
<mgrwt>
<rscale>  0 0.17638872E+04</rscale>
<asrwt>0</asrwt>
<pdfrwt beam="1">  1        2 0.34990402E+00 0.17638872E+04</pdfrwt>
<pdfrwt beam="2">  1       -2 0.52614562E-01 0.17638872E+04</pdfrwt>
<totfact> 0.15135406E+01</totfact>
</mgrwt>
</event>
<event>
 6    1  0.9512547E-007  0.1754772E+04  0.7818608E-02  0.8730728E-01
          1   -1    0    0  501    0  0.00000000000E+00  0.00000000000E+00  0.12802076705E+04  0.12802076705E+04  0.00000000000E+00 0. -1.
         -1   -1    0    0    0  501 -0.00000000000E+00 -0.00000000000E+00 -0.60131345433E+03  0.60131345433E+03  0.00000000000E+00 0.  1.
         23    2    1    2    0    0 -0.16344129546E+03 -0.64455375237E+03 -0.26943235721E+03  0.72329580713E+03  0.91653874679E+02 0.  0.
         13    1    3    3    0    0 -0.37379614001E+02 -0.67198567383E+02 -0.87326479607E+01  0.77389548013E+02  0.00000000000E+00 0.  1.
        -13    1    3    3    0    0 -0.12606168146E+03 -0.57735518499E+03 -0.26069970925E+03  0.64590625912E+03  0.00000000000E+00 0. -1.
         22    1    1    2    0    0  0.16344129546E+03  0.64455375237E+03  0.94832657335E+03  0.11582253177E+04  0.00000000000E+00 0. -1.
<mgrwt>
<rscale>  0 0.17547719E+04</rscale>
<asrwt>0</asrwt>
<pdfrwt beam="1">  1        1 0.19695502E+00 0.17547719E+04</pdfrwt>
<pdfrwt beam="2">  1       -1 0.92509763E-01 0.17547719E+04</pdfrwt>
<totfact> 0.10061117E+01</totfact>
</mgrwt>
</event>
<event>
 6    1  0.9512547E-007  0.6602267E+03  0.7818608E-02  0.9787776E-01
         -2   -1    0    0    0  501 -0.00000000000E+00  0.00000000000E+00  0.12383679990E+03  0.12383679990E+03  0.00000000000E+00 0.  1.
          2   -1    0    0  501    0  0.00000000000E+00 -0.00000000000E+00 -0.87998745481E+03  0.87998745481E+03  0.00000000000E+00 0. -1.
         23    2    1    2    0    0 -0.25645849448E+03  0.58205852432E+02 -0.67296835251E+03  0.72800152888E+03  0.89111962865E+02 0.  0.
         13    1    3    3    0    0 -0.74943108300E+02  0.59077503917E+02 -0.25737910043E+03  0.27450067812E+03  0.00000000000E+00 0. -1.
        -13    1    3    3    0    0 -0.18151538618E+03 -0.87165148422E+00 -0.41558925208E+03  0.45350085076E+03  0.00000000000E+00 0.  1.
         22    1    1    2    0    0  0.25645849448E+03 -0.58205852432E+02 -0.83182302395E+02  0.27582272582E+03  0.00000000000E+00 0.  1.
<mgrwt>
<rscale>  0 0.66022672E+03</rscale>
<asrwt>0</asrwt>
<pdfrwt beam="1">  1        2 0.13538269E+00 0.66022672E+03</pdfrwt>
<pdfrwt beam="2">  1       -2 0.19051815E-01 0.66022672E+03</pdfrwt>
<totfact> 0.70747943E+02</totfact>
</mgrwt>
</event>
<event>
 6    1  0.9512547E-007  0.2961214E+04  0.7818608E-02  0.8254894E-01
         -3   -1    0    0    0  501 -0.00000000000E+00  0.00000000000E+00  0.15139262636E+04  0.15139262636E+04  0.00000000000E+00 0.  1.
          3   -1    0    0  501    0  0.00000000000E+00 -0.00000000000E+00 -0.14480209062E+04  0.14480209062E+04  0.00000000000E+00 0. -1.
         23    2    1    2    0    0 -0.62711537281E+03 -0.53241178441E+03 -0.11966485218E+04  0.14550369877E+04  0.91809324068E+02 0.  0.
         11    1    3    3    0    0 -0.27454976243E+03 -0.26042812482E+03 -0.47862803758E+03  0.61015176686E+03  0.00000000000E+00 0. -1.
        -11    1    3    3    0    0 -0.35256561038E+03 -0.27198365960E+03 -0.71802048421E+03  0.84488522088E+03  0.00000000000E+00 0.  1.
         22    1    1    2    0    0  0.62711537281E+03  0.53241178441E+03  0.12625538792E+04  0.15069101821E+04  0.00000000000E+00 0.  1.
<mgrwt>
<rscale>  0 0.29612139E+04</rscale>
<asrwt>0</asrwt>
<pdfrwt beam="1">  1        3 0.22277245E+00 0.29612139E+04</pdfrwt>
<pdfrwt beam="2">  1       -3 0.23291173E+00 0.29612139E+04</pdfrwt>
<totfact> 0.21900086E-02</totfact>
</mgrwt>
</event>
<event>
 6    1  0.9512547E-007  0.3770442E+04  0.7818608E-02  0.8052528E-01
         -1   -1    0    0    0  501 -0.00000000000E+00  0.00000000000E+00  0.45829128353E+04  0.45829128353E+04  0.00000000000E+00 0.  1.
          1   -1    0    0  501    0  0.00000000000E+00 -0.00000000000E+00 -0.77550188503E+03  0.77550188503E+03  0.00000000000E+00 0. -1.
         23    2    1    2    0    0 -0.12083746992E+04 -0.10899508343E+04  0.32543470858E+04  0.36396820847E+04  0.91370061094E+02 0.  0.
         11    1    3    3    0    0 -0.24056224852E+03 -0.18553384594E+03  0.54895811418E+03  0.62741375067E+03  0.00000000000E+00 0. -1.
        -11    1    3    3    0    0 -0.96781245063E+03 -0.90441698836E+03  0.27053889716E+04  0.30122683340E+04  0.00000000000E+00 0.  1.
         22    1    1    2    0    0  0.12083746992E+04  0.10899508343E+04  0.55306386455E+03  0.17187326357E+04  0.00000000000E+00 0. -1.
<mgrwt>
<rscale>  0 0.37704416E+04</rscale>
<asrwt>0</asrwt>
<pdfrwt beam="1">  1        1 0.11930798E+00 0.37704416E+04</pdfrwt>
<pdfrwt beam="2">  1       -1 0.70506350E+00 0.37704416E+04</pdfrwt>
<totfact> 0.35570454E-03</totfact>
</mgrwt>
</event>
<event>
 6    1  0.9512547E-007  0.4663381E+04  0.7818608E-02  0.7882642E-01
          2   -1    0    0  501    0  0.00000000000E+00  0.00000000000E+00  0.50607963735E+04  0.50607963735E+04  0.00000000000E+00 0. -1.
         -2   -1    0    0    0  501 -0.00000000000E+00 -0.00000000000E+00 -0.10742936793E+04  0.10742936793E+04  0.00000000000E+00 0.  1.
         23    2    1    2    0    0  0.13940300560E+03  0.20359492995E+04  0.51251564857E+03  0.21060568262E+04  0.90996248910E+02 0.  0.
         11    1    3    3    0    0  0.32626169689E+02  0.33182350876E+03  0.11722199948E+03  0.35342934949E+03  0.00000000000E+00 0.  1.
        -11    1    3    3    0    0  0.10677683591E+03  0.17041257907E+04  0.39529364909E+03  0.17526274768E+04  0.00000000000E+00 0. -1.
         22    1    1    2    0    0 -0.13940300560E+03 -0.20359492995E+04  0.34739870456E+04  0.40290332266E+04  0.00000000000E+00 0. -1.
<mgrwt>
<rscale>  0 0.46633814E+04</rscale>
<asrwt>0</asrwt>
<pdfrwt beam="1">  1        2 0.77858404E+00 0.46633814E+04</pdfrwt>
<pdfrwt beam="2">  1       -2 0.16527595E+00 0.46633814E+04</pdfrwt>
<totfact> 0.48568510E-03</totfact>
</mgrwt>
</event>
<event>
 6    1  0.9512547E-007  0.2042081E+04  0.7818608E-02  0.8587195E-01
          2   -1    0    0  501    0  0.00000000000E+00  0.00000000000E+00  0.21750763373E+04  0.21750763373E+04  0.00000000000E+00 0. -1.
         -2   -1    0    0    0  501 -0.00000000000E+00 -0.00000000000E+00 -0.47930462484E+03  0.47930462484E+03  0.00000000000E+00 0.  1.
         23    2    1    2    0    0 -0.42993622115E+03 -0.33432386768E+03  0.19690911196E+04  0.20450197383E+04  0.90378592230E+02 0.  0.
         11    1    3    3    0    0 -0.20875304290E+03 -0.13604459913E+03  0.75208250595E+03  0.79228407887E+03  0.00000000000E+00 0.  1.
        -11    1    3    3    0    0 -0.22118317825E+03 -0.19827926855E+03  0.12170086136E+04  0.12527356594E+04  0.00000000000E+00 0. -1.
         22    1    1    2    0    0  0.42993622115E+03  0.33432386768E+03 -0.27331940717E+03  0.60936122382E+03  0.00000000000E+00 0.  1.
<mgrwt>
<rscale>  0 0.20420814E+04</rscale>
<asrwt>0</asrwt>
<pdfrwt beam="1">  1        2 0.33462712E+00 0.20420814E+04</pdfrwt>
<pdfrwt beam="2">  1       -2 0.73739174E-01 0.20420814E+04</pdfrwt>
<totfact> 0.81866319E+00</totfact>
</mgrwt>
</event>
<event>
 6    1  0.9512547E-007  0.2807690E+04  0.7818608E-02  0.8300885E-01
          1   -1    0    0  501    0  0.00000000000E+00  0.00000000000E+00  0.21712605850E+04  0.21712605850E+04  0.00000000000E+00 0. -1.
         -1   -1    0    0    0  501 -0.00000000000E+00 -0.00000000000E+00 -0.90766649093E+03  0.90766649093E+03  0.00000000000E+00 0.  1.
         23    2    1    2    0    0 -0.51030087095E+03  0.56883485245E+03  0.19218473130E+04  0.20703253862E+04  0.93648502562E+02 0.  0.
         13    1    3    3    0    0 -0.22573106587E+03  0.27079429459E+03  0.76639912060E+03  0.84359449746E+03  0.00000000000E+00 0. -1.
        -13    1    3    3    0    0 -0.28456980507E+03  0.29804055786E+03  0.11554481924E+04  0.12267308888E+04  0.00000000000E+00 0.  1.
         22    1    1    2    0    0  0.51030087095E+03 -0.56883485245E+03 -0.65825321895E+03  0.10086016897E+04  0.00000000000E+00 0.  1.
<mgrwt>
<rscale>  0 0.28076898E+04</rscale>
<asrwt>0</asrwt>
<pdfrwt beam="1">  1        1 0.33404009E+00 0.28076898E+04</pdfrwt>
<pdfrwt beam="2">  1       -1 0.13964100E+00 0.28076898E+04</pdfrwt>
<totfact> 0.83189537E-01</totfact>
</mgrwt>
</event>
<event>
 6    1  0.9512547E-007  0.3187505E+04  0.7818608E-02  0.8192125E-01
          2   -1    0    0  501    0  0.00000000000E+00  0.00000000000E+00  0.23028754573E+04  0.23028754573E+04  0.00000000000E+00 0. -1.
         -2   -1    0    0    0  501 -0.00000000000E+00 -0.00000000000E+00 -0.11029895756E+04  0.11029895756E+04  0.00000000000E+00 0.  1.
         23    2    1    2    0    0 -0.73606123377E+03 -0.87100439333E+03 -0.58710474473E+03  0.12860135541E+04  0.93295695962E+02 0.  0.
         11    1    3    3    0    0 -0.33995094544E+03 -0.34901166225E+03 -0.28508643928E+03  0.56449097739E+03  0.00000000000E+00 0. -1.
        -11    1    3    3    0    0 -0.39611028832E+03 -0.52199273108E+03 -0.30201830545E+03  0.72152257667E+03  0.00000000000E+00 0.  1.
         22    1    1    2    0    0  0.73606123377E+03  0.87100439333E+03  0.17869906265E+04  0.21198514788E+04  0.00000000000E+00 0. -1.
<mgrwt>
<rscale>  0 0.31875054E+04</rscale>
<asrwt>0</asrwt>
<pdfrwt beam="1">  1        2 0.35428853E+00 0.31875054E+04</pdfrwt>
<pdfrwt beam="2">  1       -2 0.16969070E+00 0.31875054E+04</pdfrwt>
<totfact> 0.81551589E-01</totfact>
</mgrwt>
</event>
<event>
 6    1  0.9512547E-007  0.2537097E+04  0.7818608E-02  0.8389888E-01
         -2   -1    0    0    0  501 -0.00000000000E+00  0.00000000000E+00  0.10471952658E+04  0.10471952658E+04  0.00000000000E+00 0.  1.
          2   -1    0    0  501    0  0.00000000000E+00 -0.00000000000E+00 -0.15366903772E+04  0.15366903772E+04  0.00000000000E+00 0. -1.
         23    2    1    2    0    0  0.12544207281E+04  0.17703213676E+03 -0.25363791097E+03  0.12952660871E+04  0.92034264886E+02 0.  0.
         13    1    3    3    0    0  0.23928462338E+03 -0.16427454402E+01 -0.55822633796E+02  0.24571527434E+03  0.00000000000E+00 0.  1.
        -13    1    3    3    0    0  0.10151361048E+04  0.17867488220E+03 -0.19781527717E+03  0.10495508128E+04  0.00000000000E+00 0. -1.
         22    1    1    2    0    0 -0.12544207281E+04 -0.17703213676E+03 -0.23585720043E+03  0.12886195558E+04  0.00000000000E+00 0.  1.
<mgrwt>
<rscale>  0 0.25370967E+04</rscale>
<asrwt>0</asrwt>
<pdfrwt beam="1">  1        2 0.23641390E+00 0.25370967E+04</pdfrwt>
<pdfrwt beam="2">  1       -2 0.16110697E+00 0.25370967E+04</pdfrwt>
<totfact> 0.26606480E+00</totfact>
</mgrwt>
</event>
<event>
 6    1  0.9512547E-007  0.1745363E+04  0.7818608E-02  0.8735907E-01
         -2   -1    0    0    0  501 -0.00000000000E+00  0.00000000000E+00  0.60060689822E+03  0.60060689822E+03  0.00000000000E+00 0.  1.
          2   -1    0    0  501    0  0.00000000000E+00 -0.00000000000E+00 -0.12680060205E+04  0.12680060205E+04  0.00000000000E+00 0. -1.
         23    2    1    2    0    0 -0.69256413562E+02  0.70258923485E+03 -0.87951149431E+03  0.11314428284E+04  0.90522491494E+02 0.  0.
         13    1    3    3    0    0 -0.29027727662E+02  0.13382994368E+03 -0.22507187515E+03  0.26345855800E+03  0.00000000000E+00 0. -1.
        -13    1    3    3    0    0 -0.40228685899E+02  0.56875929117E+03 -0.65443961916E+03  0.86798427036E+03  0.00000000000E+00 0.  1.
         22    1    1    2    0    0  0.69256413562E+02 -0.70258923485E+03  0.21211237204E+03  0.73717009036E+03  0.00000000000E+00 0.  1.
<mgrwt>
<rscale>  0 0.17453632E+04</rscale>
<asrwt>0</asrwt>
<pdfrwt beam="1">  1        2 0.19507785E+00 0.17453632E+04</pdfrwt>
<pdfrwt beam="2">  1       -2 0.92401062E-01 0.17453632E+04</pdfrwt>
<totfact> 0.16274645E+01</totfact>
</mgrwt>
</event>
<event>
 6    1  0.9512547E-007  0.2269309E+04  0.7818608E-02  0.8490121E-01
          2   -1    0    0  501    0  0.00000000000E+00  0.00000000000E+00  0.10826371092E+04  0.10826371092E+04  0.00000000000E+00 0. -1.
         -2   -1    0    0    0  501 -0.00000000000E+00 -0.00000000000E+00 -0.11891710204E+04  0.11891710204E+04  0.00000000000E+00 0.  1.
         23    2    1    2    0    0  0.42477705637E+03 -0.13863867711E+03  0.98884099504E+03  0.10888024595E+04  0.89599396814E+02 0.  0.
         11    1    3    3    0    0  0.20389889203E+03 -0.97442512267E+02  0.57663899379E+03  0.61934023810E+03  0.00000000000E+00 0.  1.
        -11    1    3    3    0    0  0.22087816433E+03 -0.41196164839E+02  0.41220200125E+03  0.46946222138E+03  0.00000000000E+00 0. -1.
         22    1    1    2    0    0 -0.42477705637E+03  0.13863867711E+03 -0.10953749062E+04  0.11830056701E+04  0.00000000000E+00 0.  1.
<mgrwt>
<rscale>  0 0.22693089E+04</rscale>
<asrwt>0</asrwt>
<pdfrwt beam="1">  1        2 0.16655956E+00 0.22693089E+04</pdfrwt>
<pdfrwt beam="2">  1       -2 0.18294939E+00 0.22693089E+04</pdfrwt>
<totfact> 0.35120795E+00</totfact>
</mgrwt>
</event>
<event>
 6    1  0.9512547E-007  0.2113223E+04  0.7818608E-02  0.8555441E-01
          2   -1    0    0  501    0  0.00000000000E+00  0.00000000000E+00  0.32325470555E+04  0.32325470555E+04  0.00000000000E+00 0. -1.
         -2   -1    0    0    0  501 -0.00000000000E+00 -0.00000000000E+00 -0.34537100350E+03  0.34537100350E+03  0.00000000000E+00 0.  1.
         23    2    1    2    0    0 -0.50132936370E+03  0.90497175874E+03  0.17934761908E+04  0.20724332861E+04  0.90099186671E+02 0.  0.
         11    1    3    3    0    0 -0.24991766965E+03  0.40843402468E+03  0.90938944154E+03  0.10277481941E+04  0.00000000000E+00 0.  1.
        -11    1    3    3    0    0 -0.25141169405E+03  0.49653773406E+03  0.88408674929E+03  0.10446850920E+04  0.00000000000E+00 0. -1.
         22    1    1    2    0    0  0.50132936370E+03 -0.90497175874E+03  0.10936998612E+04  0.15054847729E+04  0.00000000000E+00 0. -1.
<mgrwt>
<rscale>  0 0.21132232E+04</rscale>
<asrwt>0</asrwt>
<pdfrwt beam="1">  1        2 0.49731491E+00 0.21132232E+04</pdfrwt>
<pdfrwt beam="2">  1       -2 0.53134003E-01 0.21132232E+04</pdfrwt>
<totfact> 0.38063357E+00</totfact>
</mgrwt>
</event>
<event>
 6    1  0.9512547E-007  0.1114877E+04  0.7818608E-02  0.9190812E-01
          1   -1    0    0  501    0  0.00000000000E+00  0.00000000000E+00  0.12172326700E+04  0.12172326700E+04  0.00000000000E+00 0. -1.
         -1   -1    0    0    0  501 -0.00000000000E+00 -0.00000000000E+00 -0.25528199675E+03  0.25528199675E+03  0.00000000000E+00 0.  1.
         23    2    1    2    0    0 -0.38718584902E+03  0.38021448658E+03  0.62960456468E+03  0.83617366275E+03  0.91151241979E+02 0.  0.
         13    1    3    3    0    0 -0.26199812353E+03  0.20426863053E+03  0.34537526471E+03  0.47922099665E+03  0.00000000000E+00 0.  1.
        -13    1    3    3    0    0 -0.12518772550E+03  0.17594585605E+03  0.28422929997E+03  0.35695266610E+03  0.00000000000E+00 0. -1.
         22    1    1    2    0    0  0.38718584902E+03 -0.38021448658E+03  0.33234610854E+03  0.63634100398E+03  0.00000000000E+00 0.  1.
<mgrwt>
<rscale>  0 0.11148768E+04</rscale>
<asrwt>0</asrwt>
<pdfrwt beam="1">  1        1 0.18726656E+00 0.11148768E+04</pdfrwt>
<pdfrwt beam="2">  1       -1 0.39274154E-01 0.11148768E+04</pdfrwt>
<totfact> 0.65043920E+01</totfact>
</mgrwt>
</event>
<event>
 6    1  0.9512547E-007  0.1290983E+04  0.7818608E-02  0.9036746E-01
          2   -1    0    0  501    0  0.00000000000E+00  0.00000000000E+00  0.18375714947E+04  0.18375714947E+04  0.00000000000E+00 0. -1.
         -2   -1    0    0    0  501 -0.00000000000E+00 -0.00000000000E+00 -0.22674465907E+03  0.22674465907E+03  0.00000000000E+00 0.  1.
         23    2    1    2    0    0 -0.35298497325E+03 -0.42147308538E+03  0.13404032290E+04  0.14516442350E+04  0.91390457185E+02 0.  0.
         13    1    3    3    0    0 -0.29096164998E+03 -0.34840285397E+03  0.10037956626E+04  0.11016573708E+04  0.00000000000E+00 0.  1.
        -13    1    3    3    0    0 -0.62023323273E+02 -0.73070231409E+02  0.33660756638E+03  0.34998686418E+03  0.00000000000E+00 0. -1.
         22    1    1    2    0    0  0.35298497325E+03  0.42147308538E+03  0.27042360666E+03  0.61267191880E+03  0.00000000000E+00 0.  1.
<mgrwt>
<rscale>  0 0.12909834E+04</rscale>
<asrwt>0</asrwt>
<pdfrwt beam="1">  1        2 0.28270330E+00 0.12909834E+04</pdfrwt>
<pdfrwt beam="2">  1       -2 0.34883795E-01 0.12909834E+04</pdfrwt>
<totfact> 0.62201538E+01</totfact>
</mgrwt>
</event>
<event>
 6    1  0.9512547E-007  0.1879111E+04  0.7818608E-02  0.8665325E-01
          2   -1    0    0  501    0  0.00000000000E+00  0.00000000000E+00  0.18422046491E+04  0.18422046491E+04  0.00000000000E+00 0. -1.
         -2   -1    0    0    0  501 -0.00000000000E+00 -0.00000000000E+00 -0.47918893721E+03  0.47918893721E+03  0.00000000000E+00 0.  1.
         23    2    1    2    0    0 -0.62240418396E+02  0.44047208211E+03 -0.33625269905E+03  0.56486215840E+03  0.90076942514E+02 0.  0.
         13    1    3    3    0    0  0.17291120120E+02  0.18745806404E+03 -0.12791995415E+03  0.22760277520E+03  0.00000000000E+00 0. -1.
        -13    1    3    3    0    0 -0.79531538516E+02  0.25301401807E+03 -0.20833274491E+03  0.33725938320E+03  0.00000000000E+00 0.  1.
         22    1    1    2    0    0  0.62240418396E+02 -0.44047208211E+03  0.16992684110E+04  0.17565314279E+04  0.00000000000E+00 0. -1.
<mgrwt>
<rscale>  0 0.18791105E+04</rscale>
<asrwt>0</asrwt>
<pdfrwt beam="1">  1        2 0.28341609E+00 0.18791105E+04</pdfrwt>
<pdfrwt beam="2">  1       -2 0.73721376E-01 0.18791105E+04</pdfrwt>
<totfact> 0.12721443E+01</totfact>
</mgrwt>
</event>
<event>
 6    1  0.9512547E-007  0.5460649E+03  0.7818608E-02  0.1002409E+00
          2   -1    0    0  501    0  0.00000000000E+00  0.00000000000E+00  0.32530088460E+03  0.32530088460E+03  0.00000000000E+00 0. -1.
         -2   -1    0    0    0  501 -0.00000000000E+00 -0.00000000000E+00 -0.22916234368E+03  0.22916234368E+03  0.00000000000E+00 0.  1.
         23    2    1    2    0    0  0.18851354771E+03 -0.14795181529E+03  0.16514153361E+03  0.30508698579E+03  0.91538218555E+02 0.  0.
         11    1    3    3    0    0  0.13465960499E+03 -0.10251758893E+03  0.62135975831E+02  0.18028850421E+03  0.00000000000E+00 0. -1.
        -11    1    3    3    0    0  0.53853942713E+02 -0.45434226363E+02  0.10300555778E+03  0.12479848158E+03  0.00000000000E+00 0.  1.
         22    1    1    2    0    0 -0.18851354771E+03  0.14795181529E+03 -0.69002992693E+02  0.24937624249E+03  0.00000000000E+00 0.  1.
<mgrwt>
<rscale>  0 0.54606488E+03</rscale>
<asrwt>0</asrwt>
<pdfrwt beam="1">  1        2 0.50046290E-01 0.54606488E+03</pdfrwt>
<pdfrwt beam="2">  1       -2 0.35255745E-01 0.54606488E+03</pdfrwt>
<totfact> 0.76137873E+02</totfact>
</mgrwt>
</event>
<event>
 6    1  0.9512547E-007  0.2750027E+04  0.7818608E-02  0.8318953E-01
         -2   -1    0    0    0  501 -0.00000000000E+00  0.00000000000E+00  0.80026246099E+03  0.80026246099E+03  0.00000000000E+00 0.  1.
          2   -1    0    0  501    0  0.00000000000E+00 -0.00000000000E+00 -0.23625522801E+04  0.23625522801E+04  0.00000000000E+00 0. -1.
         23    2    1    2    0    0 -0.10161504213E+04 -0.12585853561E+03 -0.18349026862E+04  0.21032299993E+04  0.91140069235E+02 0.  0.
         13    1    3    3    0    0 -0.12367933076E+03 -0.21078852797E+02 -0.29035961323E+03  0.31630618060E+03  0.00000000000E+00 0.  1.
        -13    1    3    3    0    0 -0.89247109056E+03 -0.10477968281E+03 -0.15445430730E+04  0.17869238186E+04  0.00000000000E+00 0. -1.
         22    1    1    2    0    0  0.10161504213E+04  0.12585853561E+03  0.27261286713E+03  0.10595847418E+04  0.00000000000E+00 0.  1.
<mgrwt>
<rscale>  0 0.27500268E+04</rscale>
<asrwt>0</asrwt>
<pdfrwt beam="1">  1        2 0.36346957E+00 0.27500268E+04</pdfrwt>
<pdfrwt beam="2">  1       -2 0.12311731E+00 0.27500268E+04</pdfrwt>
<totfact> 0.18172968E+00</totfact>
</mgrwt>
</event>
<event>
 6    1  0.9512547E-007  0.1494163E+04  0.7818608E-02  0.8888344E-01
         -2   -1    0    0    0  501 -0.00000000000E+00  0.00000000000E+00  0.55751217124E+03  0.55751217124E+03  0.00000000000E+00 0.  1.
          2   -1    0    0  501    0  0.00000000000E+00 -0.00000000000E+00 -0.10011099432E+04  0.10011099432E+04  0.00000000000E+00 0. -1.
         23    2    1    2    0    0 -0.37915854865E+03 -0.60033273099E+03 -0.45429286816E+03  0.84849890115E+03  0.96993722924E+02 0.  0.
         13    1    3    3    0    0 -0.18186744517E+03 -0.22574402283E+03 -0.22546805087E+03  0.36724919799E+03  0.00000000000E+00 0.  1.
        -13    1    3    3    0    0 -0.19729110348E+03 -0.37458870816E+03 -0.22882481728E+03  0.48124970317E+03  0.00000000000E+00 0. -1.
         22    1    1    2    0    0  0.37915854865E+03  0.60033273099E+03  0.10695096228E+02  0.71012321325E+03  0.00000000000E+00 0.  1.
<mgrwt>
<rscale>  0 0.14941633E+04</rscale>
<asrwt>0</asrwt>
<pdfrwt beam="1">  1        2 0.15401691E+00 0.14941633E+04</pdfrwt>
<pdfrwt beam="2">  1       -2 0.85771103E-01 0.14941633E+04</pdfrwt>
<totfact> 0.28698036E+01</totfact>
</mgrwt>
</event>
<event>
 6    1  0.9512547E-007  0.1721051E+04  0.7818608E-02  0.8749448E-01
          2   -1    0    0  501    0  0.00000000000E+00  0.00000000000E+00  0.27870506888E+04  0.27870506888E+04  0.00000000000E+00 0. -1.
         -2   -1    0    0    0  501 -0.00000000000E+00 -0.00000000000E+00 -0.26569456632E+03  0.26569456632E+03  0.00000000000E+00 0.  1.
         23    2    1    2    0    0  0.62411465496E+03 -0.18614625756E+03  0.22559386658E+04  0.23494558708E+04  0.80709932898E+02 0.  0.
         11    1    3    3    0    0  0.38300434163E+03 -0.15483113075E+03  0.14128986556E+04  0.14720555749E+04  0.00000000000E+00 0. -1.
        -11    1    3    3    0    0  0.24111031333E+03 -0.31315126810E+02  0.84304001021E+03  0.87740029586E+03  0.00000000000E+00 0.  1.
         22    1    1    2    0    0 -0.62411465496E+03  0.18614625756E+03  0.26541745663E+03  0.70328938427E+03  0.00000000000E+00 0. -1.
<mgrwt>
<rscale>  0 0.17210511E+04</rscale>
<asrwt>0</asrwt>
<pdfrwt beam="1">  1        2 0.42877701E+00 0.17210511E+04</pdfrwt>
<pdfrwt beam="2">  1       -2 0.40876089E-01 0.17210511E+04</pdfrwt>
<totfact> 0.12716837E+01</totfact>
</mgrwt>
</event>
<event>
 6    1  0.9512547E-007  0.5342682E+04  0.7818608E-02  0.7777715E-01
          1   -1    0    0  501    0  0.00000000000E+00  0.00000000000E+00  0.30246057211E+04  0.30246057211E+04  0.00000000000E+00 0. -1.
         -1   -1    0    0    0  501 -0.00000000000E+00 -0.00000000000E+00 -0.23593365910E+04  0.23593365910E+04  0.00000000000E+00 0.  1.
         23    2    1    2    0    0  0.17165162923E+04  0.20291003000E+04  0.69129904198E+02  0.26601474986E+04  0.89048084325E+02 0.  0.
         13    1    3    3    0    0  0.11193846970E+04  0.13308477771E+04  0.31403587083E+01  0.17390191970E+04  0.00000000000E+00 0.  1.
        -13    1    3    3    0    0  0.59713159531E+03  0.69825252289E+03  0.65989545490E+02  0.92112830157E+03  0.00000000000E+00 0. -1.
         22    1    1    2    0    0 -0.17165162923E+04 -0.20291003000E+04  0.59613922589E+03  0.27237948135E+04  0.00000000000E+00 0.  1.
<mgrwt>
<rscale>  0 0.53426821E+04</rscale>
<asrwt>0</asrwt>
<pdfrwt beam="1">  1        1 0.46532396E+00 0.53426821E+04</pdfrwt>
<pdfrwt beam="2">  1       -1 0.36297486E+00 0.53426821E+04</pdfrwt>
<totfact> 0.51323470E-03</totfact>
</mgrwt>
</event>
<event>
 6    1  0.9512547E-007  0.1149825E+04  0.7818608E-02  0.9157945E-01
          1   -1    0    0  501    0  0.00000000000E+00  0.00000000000E+00  0.10597222907E+04  0.10597222907E+04  0.00000000000E+00 0. -1.
         -1   -1    0    0    0  501 -0.00000000000E+00 -0.00000000000E+00 -0.31189737493E+03  0.31189737493E+03  0.00000000000E+00 0.  1.
         23    2    1    2    0    0  0.15332577432E+03  0.54701618887E+03  0.30529167171E+03  0.65150080318E+03  0.92275607694E+02 0.  0.
         11    1    3    3    0    0  0.78728282967E+02  0.15204153285E+03  0.64643224241E+02  0.18301234027E+03  0.00000000000E+00 0.  1.
        -11    1    3    3    0    0  0.74597491355E+02  0.39497465602E+03  0.24064844747E+03  0.46848846291E+03  0.00000000000E+00 0. -1.
         22    1    1    2    0    0 -0.15332577432E+03 -0.54701618887E+03  0.44253324408E+03  0.72011886246E+03  0.00000000000E+00 0.  1.
<mgrwt>
<rscale>  0 0.11498254E+04</rscale>
<asrwt>0</asrwt>
<pdfrwt beam="1">  1        1 0.16303420E+00 0.11498254E+04</pdfrwt>
<pdfrwt beam="2">  1       -1 0.47984212E-01 0.11498254E+04</pdfrwt>
<totfact> 0.58617870E+01</totfact>
</mgrwt>
</event>
<event>
 6    1  0.9512547E-007  0.1363613E+04  0.7818608E-02  0.8980587E-01
         -1   -1    0    0    0  501 -0.00000000000E+00  0.00000000000E+00  0.49928848456E+03  0.49928848456E+03  0.00000000000E+00 0.  1.
          1   -1    0    0  501    0  0.00000000000E+00 -0.00000000000E+00 -0.93104493245E+03  0.93104493245E+03  0.00000000000E+00 0. -1.
         23    2    1    2    0    0 -0.33005429031E+03 -0.18924519556E+03  0.37276386700E+03  0.54038818517E+03  0.91197102653E+02 0.  0.
         11    1    3    3    0    0 -0.23216587148E+03 -0.16191439720E+03  0.22772242263E+03  0.36328331322E+03  0.00000000000E+00 0. -1.
        -11    1    3    3    0    0 -0.97888418838E+02 -0.27330798363E+02  0.14504144438E+03  0.17710487195E+03  0.00000000000E+00 0.  1.
         22    1    1    2    0    0  0.33005429031E+03  0.18924519556E+03 -0.80452031490E+03  0.88994523184E+03  0.00000000000E+00 0. -1.
<mgrwt>
<rscale>  0 0.13636129E+04</rscale>
<asrwt>0</asrwt>
<pdfrwt beam="1">  1        1 0.14323768E+00 0.13636129E+04</pdfrwt>
<pdfrwt beam="2">  1       -1 0.76813613E-01 0.13636129E+04</pdfrwt>
<totfact> 0.28549763E+01</totfact>
</mgrwt>
</event>
<event>
 6    1  0.9512547E-007  0.2140333E+04  0.7818608E-02  0.8543682E-01
         -2   -1    0    0    0  501 -0.00000000000E+00  0.00000000000E+00  0.50615458740E+03  0.50615458740E+03  0.00000000000E+00 0.  1.
          2   -1    0    0  501    0  0.00000000000E+00 -0.00000000000E+00 -0.22626605206E+04  0.22626605206E+04  0.00000000000E+00 0. -1.
         23    2    1    2    0    0  0.98529247323E+03  0.56223464995E+02 -0.14085724939E+04  0.17223830681E+04  0.92545269636E+02 0.  0.
         11    1    3    3    0    0  0.72285933469E+03  0.51902759237E+00 -0.10171952675E+04  0.12478830471E+04  0.00000000000E+00 0. -1.
        -11    1    3    3    0    0  0.26243313855E+03  0.55704437403E+02 -0.39137722643E+03  0.47450002100E+03  0.00000000000E+00 0.  1.
         22    1    1    2    0    0 -0.98529247323E+03 -0.56223464995E+02 -0.34793343923E+03  0.10464320398E+04  0.00000000000E+00 0.  1.
<mgrwt>
<rscale>  0 0.21403327E+04</rscale>
<asrwt>0</asrwt>
<pdfrwt beam="1">  1        2 0.34810162E+00 0.21403327E+04</pdfrwt>
<pdfrwt beam="2">  1       -2 0.77869936E-01 0.21403327E+04</pdfrwt>
<totfact> 0.64206780E+00</totfact>
</mgrwt>
</event>
<event>
 6    1  0.9512547E-007  0.2552843E+04  0.7818608E-02  0.8384398E-01
          2   -1    0    0  501    0  0.00000000000E+00  0.00000000000E+00  0.21219384702E+04  0.21219384702E+04  0.00000000000E+00 0. -1.
         -2   -1    0    0    0  501 -0.00000000000E+00 -0.00000000000E+00 -0.76781317087E+03  0.76781317087E+03  0.00000000000E+00 0.  1.
         23    2    1    2    0    0  0.27874871325E+03 -0.11507251201E+04  0.12126979620E+04  0.16973293841E+04  0.91768969417E+02 0.  0.
         13    1    3    3    0    0  0.27671159242E+03 -0.10794470377E+04  0.11610000348E+04  0.16092533341E+04  0.00000000000E+00 0.  1.
        -13    1    3    3    0    0  0.20371208262E+01 -0.71278082487E+02  0.51697927213E+02  0.88076049994E+02  0.00000000000E+00 0. -1.
         22    1    1    2    0    0 -0.27874871325E+03  0.11507251201E+04  0.14142733732E+03  0.11924222570E+04  0.00000000000E+00 0.  1.
<mgrwt>
<rscale>  0 0.25528434E+04</rscale>
<asrwt>0</asrwt>
<pdfrwt beam="1">  1        2 0.32645207E+00 0.25528434E+04</pdfrwt>
<pdfrwt beam="2">  1       -2 0.11812510E+00 0.25528434E+04</pdfrwt>
<totfact> 0.28005746E+00</totfact>
</mgrwt>
</event>
<event>
 6    1  0.9512547E-007  0.1377998E+04  0.7818608E-02  0.8969900E-01
         -2   -1    0    0    0  501 -0.00000000000E+00  0.00000000000E+00  0.12218956982E+04  0.12218956982E+04  0.00000000000E+00 0.  1.
          2   -1    0    0  501    0  0.00000000000E+00 -0.00000000000E+00 -0.38851100455E+03  0.38851100455E+03  0.00000000000E+00 0. -1.
         23    2    1    2    0    0 -0.82972858714E+02 -0.31078117594E+03 -0.28946583075E+03  0.44239012122E+03  0.91919081698E+02 0.  0.
         11    1    3    3    0    0 -0.31247625526E+02 -0.15443938349E+03 -0.82363368552E+02  0.17779668657E+03  0.00000000000E+00 0.  1.
        -11    1    3    3    0    0 -0.51725233188E+02 -0.15634179245E+03 -0.20710246220E+03  0.26459343465E+03  0.00000000000E+00 0. -1.
         22    1    1    2    0    0  0.82972858714E+02  0.31078117594E+03  0.11228505244E+04  0.11680165816E+04  0.00000000000E+00 0.  1.
<mgrwt>
<rscale>  0 0.13779984E+04</rscale>
<asrwt>0</asrwt>
<pdfrwt beam="1">  1        2 0.59770924E-01 0.13779984E+04</pdfrwt>
<pdfrwt beam="2">  1       -2 0.18798395E+00 0.13779984E+04</pdfrwt>
<totfact> 0.12797154E+01</totfact>
</mgrwt>
</event>
<event>
 6    1  0.9512547E-007  0.1812411E+04  0.7818608E-02  0.8699727E-01
         -2   -1    0    0    0  501 -0.00000000000E+00  0.00000000000E+00  0.27541140533E+03  0.27541140533E+03  0.00000000000E+00 0.  1.
          2   -1    0    0  501    0  0.00000000000E+00 -0.00000000000E+00 -0.29817523549E+04  0.29817523549E+04  0.00000000000E+00 0. -1.
         23    2    1    2    0    0  0.28959808640E+03  0.82702400701E+03 -0.17554392526E+04  0.19640861148E+04  0.90727818197E+02 0.  0.
         13    1    3    3    0    0  0.14647649266E+03  0.45782946926E+03 -0.10580884131E+04  0.11621593160E+04  0.00000000000E+00 0.  1.
        -13    1    3    3    0    0  0.14312159374E+03  0.36919453775E+03 -0.69735083950E+03  0.80192679881E+03  0.00000000000E+00 0. -1.
         22    1    1    2    0    0 -0.28959808640E+03 -0.82702400701E+03 -0.95090169701E+03  0.12930776455E+04  0.00000000000E+00 0. -1.
<mgrwt>
<rscale>  0 0.18124112E+04</rscale>
<asrwt>0</asrwt>
<pdfrwt beam="1">  1        2 0.45873115E+00 0.18124112E+04</pdfrwt>
<pdfrwt beam="2">  1       -2 0.42370984E-01 0.18124112E+04</pdfrwt>
<totfact> 0.89336389E+00</totfact>
</mgrwt>
</event>
<event>
 6    1  0.9512547E-007  0.4002749E+03  0.7818608E-02  0.1043685E+00
         -2   -1    0    0    0  501 -0.00000000000E+00  0.00000000000E+00  0.19498175301E+03  0.19498175301E+03  0.00000000000E+00 0.  1.
          2   -1    0    0  501    0  0.00000000000E+00 -0.00000000000E+00 -0.20542947948E+03  0.20542947948E+03  0.00000000000E+00 0. -1.
         23    2    1    2    0    0  0.40760227061E+01 -0.87067836734E+02  0.16366050762E+03  0.20570350451E+03  0.89060360745E+02 0.  0.
         11    1    3    3    0    0  0.41868562603E+02 -0.71510866175E+02  0.12070583779E+03  0.14641270366E+03  0.00000000000E+00 0.  1.
        -11    1    3    3    0    0 -0.37792539897E+02 -0.15556970559E+02  0.42954669830E+02  0.59290800847E+02  0.00000000000E+00 0. -1.
         22    1    1    2    0    0 -0.40760227061E+01  0.87067836734E+02 -0.17410823410E+03  0.19470772798E+03  0.00000000000E+00 0. -1.
<mgrwt>
<rscale>  0 0.40027491E+03</rscale>
<asrwt>0</asrwt>
<pdfrwt beam="1">  1        2 0.31604535E-01 0.40027491E+03</pdfrwt>
<pdfrwt beam="2">  1       -2 0.29997193E-01 0.40027491E+03</pdfrwt>
<totfact> 0.17047777E+03</totfact>
</mgrwt>
</event>
<event>
 6    1  0.9512547E-007  0.1705319E+04  0.7818608E-02  0.8758337E-01
          2   -1    0    0  501    0  0.00000000000E+00  0.00000000000E+00  0.79040694011E+03  0.79040694011E+03  0.00000000000E+00 0. -1.
         -2   -1    0    0    0  501 -0.00000000000E+00 -0.00000000000E+00 -0.91981496356E+03  0.91981496356E+03  0.00000000000E+00 0.  1.
         23    2    1    2    0    0  0.37001538247E+03 -0.78730739184E+02  0.69878693893E+03  0.79971830221E+03  0.90201243445E+02 0.  0.
         11    1    3    3    0    0  0.22978221150E+03 -0.55530065413E+02  0.34283986821E+03  0.41644042565E+03  0.00000000000E+00 0.  1.
        -11    1    3    3    0    0  0.14023317097E+03 -0.23200673771E+02  0.35594707072E+03  0.38327787656E+03  0.00000000000E+00 0. -1.
         22    1    1    2    0    0 -0.37001538247E+03  0.78730739184E+02 -0.82819496239E+03  0.91050360146E+03  0.00000000000E+00 0.  1.
<mgrwt>
<rscale>  0 0.17053189E+04</rscale>
<asrwt>0</asrwt>
<pdfrwt beam="1">  1        2 0.12160107E+00 0.17053189E+04</pdfrwt>
<pdfrwt beam="2">  1       -2 0.14150999E+00 0.17053189E+04</pdfrwt>
<totfact> 0.11624317E+01</totfact>
</mgrwt>
</event>
<event>
 6    1  0.9512547E-007  0.9232315E+03  0.7818608E-02  0.9396998E-01
          1   -1    0    0  501    0  0.00000000000E+00  0.00000000000E+00  0.56398174323E+03  0.56398174323E+03  0.00000000000E+00 0. -1.
         -1   -1    0    0    0  501 -0.00000000000E+00 -0.00000000000E+00 -0.37782979525E+03  0.37782979525E+03  0.00000000000E+00 0.  1.
         23    2    1    2    0    0  0.29793148775E+03 -0.38673163484E+01 -0.25962416154E+03  0.40562643299E+03  0.91378172202E+02 0.  0.
         13    1    3    3    0    0  0.24603780690E+03  0.28888969347E+02 -0.18601179431E+03  0.30978954565E+03  0.00000000000E+00 0. -1.
        -13    1    3    3    0    0  0.51893680849E+02 -0.32756285695E+02 -0.73612367232E+02  0.95836887336E+02  0.00000000000E+00 0.  1.
         22    1    1    2    0    0 -0.29793148775E+03  0.38673163484E+01  0.44577610952E+03  0.53618510549E+03  0.00000000000E+00 0. -1.
<mgrwt>
<rscale>  0 0.92323151E+03</rscale>
<asrwt>0</asrwt>
<pdfrwt beam="1">  1        1 0.86766423E-01 0.92323151E+03</pdfrwt>
<pdfrwt beam="2">  1       -1 0.58127660E-01 0.92323151E+03</pdfrwt>
<totfact> 0.11301428E+02</totfact>
</mgrwt>
</event>
<event>
 6    1  0.9512547E-007  0.1177235E+04  0.7818608E-02  0.9133020E-01
         -1   -1    0    0    0  501 -0.00000000000E+00  0.00000000000E+00  0.46504523051E+03  0.46504523051E+03  0.00000000000E+00 0.  1.
          1   -1    0    0  501    0  0.00000000000E+00 -0.00000000000E+00 -0.74502527767E+03  0.74502527767E+03  0.00000000000E+00 0. -1.
         23    2    1    2    0    0 -0.31013826461E+03  0.38669079383E+03  0.17857235447E+03  0.53480328830E+03  0.91711276250E+02 0.  0.
         11    1    3    3    0    0 -0.18326779147E+03  0.17530638897E+03  0.57074159181E+02  0.25995552129E+03  0.00000000000E+00 0.  1.
        -11    1    3    3    0    0 -0.12687047314E+03  0.21138440485E+03  0.12149819529E+03  0.27484776700E+03  0.00000000000E+00 0. -1.
         22    1    1    2    0    0  0.31013826461E+03 -0.38669079383E+03 -0.45855240163E+03  0.67526721988E+03  0.00000000000E+00 0. -1.
<mgrwt>
<rscale>  0 0.11772348E+04</rscale>
<asrwt>0</asrwt>
<pdfrwt beam="1">  1        1 0.11461927E+00 0.11772348E+04</pdfrwt>
<pdfrwt beam="2">  1       -1 0.71545420E-01 0.11772348E+04</pdfrwt>
<totfact> 0.48405630E+01</totfact>
</mgrwt>
</event>
<event>
 6    1  0.9512547E-007  0.4138991E+04  0.7818608E-02  0.7977080E-01
          1   -1    0    0  501    0  0.00000000000E+00  0.00000000000E+00  0.22696106260E+04  0.22696106260E+04  0.00000000000E+00 0. -1.
         -1   -1    0    0    0  501 -0.00000000000E+00 -0.00000000000E+00 -0.18870244784E+04  0.18870244784E+04  0.00000000000E+00 0.  1.
         23    2    1    2    0    0 -0.15708132592E+04 -0.13425156998E+04  0.11213217692E+03  0.20726610043E+04  0.11639292937E+03 0.  0.
         13    1    3    3    0    0 -0.16469656523E+03 -0.18435736478E+03  0.31442587910E+02  0.24920118956E+03  0.00000000000E+00 0. -1.
        -13    1    3    3    0    0 -0.14061166940E+04 -0.11581583350E+04  0.80689589011E+02  0.18234598147E+04  0.00000000000E+00 0.  1.
         22    1    1    2    0    0  0.15708132592E+04  0.13425156998E+04  0.27045397062E+03  0.20839741001E+04  0.00000000000E+00 0. -1.
<mgrwt>
<rscale>  0 0.41389906E+04</rscale>
<asrwt>0</asrwt>
<pdfrwt beam="1">  1        1 0.34917087E+00 0.41389906E+04</pdfrwt>
<pdfrwt beam="2">  1       -1 0.29031146E+00 0.41389906E+04</pdfrwt>
<totfact> 0.57663191E-02</totfact>
</mgrwt>
</event>
<event>
 6    1  0.9512547E-007  0.1447830E+04  0.7818608E-02  0.8919906E-01
          2   -1    0    0  501    0  0.00000000000E+00  0.00000000000E+00  0.11066342465E+04  0.11066342465E+04  0.00000000000E+00 0. -1.
         -2   -1    0    0    0  501 -0.00000000000E+00 -0.00000000000E+00 -0.47355575293E+03  0.47355575293E+03  0.00000000000E+00 0.  1.
         23    2    1    2    0    0  0.92514021632E+02 -0.62308911601E+03 -0.64939171364E+02  0.63996260607E+03  0.92391290171E+02 0.  0.
         11    1    3    3    0    0  0.11026881173E+03 -0.48683133988E+03 -0.46579724212E+02  0.50133186119E+03  0.00000000000E+00 0. -1.
        -11    1    3    3    0    0 -0.17754790101E+02 -0.13625777613E+03 -0.18359447152E+02  0.13863074488E+03  0.00000000000E+00 0.  1.
         22    1    1    2    0    0 -0.92514021632E+02  0.62308911601E+03  0.69801766497E+03  0.94022739340E+03  0.00000000000E+00 0. -1.
<mgrwt>
<rscale>  0 0.14478301E+04</rscale>
<asrwt>0</asrwt>
<pdfrwt beam="1">  1        2 0.17025142E+00 0.14478301E+04</pdfrwt>
<pdfrwt beam="2">  1       -2 0.72854731E-01 0.14478301E+04</pdfrwt>
<totfact> 0.35648192E+01</totfact>
</mgrwt>
</event>
<event>
 6    1  0.9512547E-007  0.3109611E+04  0.7818608E-02  0.8213105E-01
          2   -1    0    0  501    0  0.00000000000E+00  0.00000000000E+00  0.19543753443E+04  0.19543753443E+04  0.00000000000E+00 0. -1.
         -2   -1    0    0    0  501 -0.00000000000E+00 -0.00000000000E+00 -0.12369275858E+04  0.12369275858E+04  0.00000000000E+00 0.  1.
         23    2    1    2    0    0  0.10170006813E+04 -0.92402453086E+03  0.11027392276E+04  0.17642215604E+04  0.91280835157E+02 0.  0.
         11    1    3    3    0    0  0.32157330636E+03 -0.27171116930E+03  0.38888652459E+03  0.57312222073E+03  0.00000000000E+00 0.  1.
        -11    1    3    3    0    0  0.69542737493E+03 -0.65231336156E+03  0.71385270303E+03  0.11910993397E+04  0.00000000000E+00 0. -1.
         22    1    1    2    0    0 -0.10170006813E+04  0.92402453086E+03 -0.38529146909E+03  0.14270813696E+04  0.00000000000E+00 0.  1.
<mgrwt>
<rscale>  0 0.31096114E+04</rscale>
<asrwt>0</asrwt>
<pdfrwt beam="1">  1        2 0.30067313E+00 0.31096114E+04</pdfrwt>
<pdfrwt beam="2">  1       -2 0.19029655E+00 0.31096114E+04</pdfrwt>
<totfact> 0.92723189E-01</totfact>
</mgrwt>
</event>
<event>
 6    1  0.9512547E-007  0.2791933E+04  0.7818608E-02  0.8305777E-01
         -1   -1    0    0    0  501 -0.00000000000E+00  0.00000000000E+00  0.60899278168E+03  0.60899278168E+03  0.00000000000E+00 0.  1.
          1   -1    0    0  501    0  0.00000000000E+00 -0.00000000000E+00 -0.31999105691E+04  0.31999105691E+04  0.00000000000E+00 0. -1.
         23    2    1    2    0    0  0.99328045547E+02 -0.13512893212E+04 -0.17460681777E+04  0.22121504729E+04  0.94903862777E+02 0.  0.
         13    1    3    3    0    0  0.11102656651E+03 -0.10277827183E+04 -0.12973272378E+04  0.16588315696E+04  0.00000000000E+00 0.  1.
        -13    1    3    3    0    0 -0.11698520967E+02 -0.32350660292E+03 -0.44874093994E+03  0.55331890325E+03  0.00000000000E+00 0. -1.
         22    1    1    2    0    0 -0.99328045547E+02  0.13512893212E+04 -0.84484960972E+03  0.15967528779E+04  0.00000000000E+00 0. -1.
<mgrwt>
<rscale>  0 0.27919330E+04</rscale>
<asrwt>0</asrwt>
<pdfrwt beam="1">  1        1 0.49229392E+00 0.27919330E+04</pdfrwt>
<pdfrwt beam="2">  1       -1 0.93691199E-01 0.27919330E+04</pdfrwt>
<totfact> 0.40663054E-01</totfact>
</mgrwt>
</event>
<event>
 6    1  0.9512547E-007  0.7920305E+03  0.7818608E-02  0.9571625E-01
         -1   -1    0    0    0  501 -0.00000000000E+00  0.00000000000E+00  0.16568386949E+03  0.16568386949E+03  0.00000000000E+00 0.  1.
          1   -1    0    0  501    0  0.00000000000E+00 -0.00000000000E+00 -0.94655000533E+03  0.94655000533E+03  0.00000000000E+00 0. -1.
         23    2    1    2    0    0 -0.70132767196E+02 -0.33641484956E+03 -0.13454370047E+03  0.38023234031E+03  0.91548179915E+02 0.  0.
         11    1    3    3    0    0 -0.80984314980E+02 -0.16428790834E+03 -0.69521003777E+02  0.19591361889E+03  0.00000000000E+00 0.  1.
        -11    1    3    3    0    0  0.10851547784E+02 -0.17212694122E+03 -0.65022696690E+02  0.18431872143E+03  0.00000000000E+00 0. -1.
         22    1    1    2    0    0  0.70132767196E+02  0.33641484956E+03 -0.64632243538E+03  0.73200153450E+03  0.00000000000E+00 0. -1.
<mgrwt>
<rscale>  0 0.79203047E+03</rscale>
<asrwt>0</asrwt>
<pdfrwt beam="1">  1        1 0.14562308E+00 0.79203047E+03</pdfrwt>
<pdfrwt beam="2">  1       -1 0.25489826E-01 0.79203047E+03</pdfrwt>
<totfact> 0.22821051E+02</totfact>
</mgrwt>
</event>
<event>
 6    1  0.9512547E-007  0.3189343E+04  0.7818608E-02  0.8191637E-01
         -1   -1    0    0    0  501 -0.00000000000E+00  0.00000000000E+00  0.77413419124E+03  0.77413419124E+03  0.00000000000E+00 0.  1.
          1   -1    0    0  501    0  0.00000000000E+00 -0.00000000000E+00 -0.32849311751E+04  0.32849311751E+04  0.00000000000E+00 0. -1.
         23    2    1    2    0    0  0.15833218739E+03  0.12209999872E+04 -0.25434150831E+04  0.28274103860E+04  0.96846042326E+02 0.  0.
         11    1    3    3    0    0  0.13230694974E+03  0.11229961032E+04 -0.23823383227E+04  0.26370743752E+04  0.00000000000E+00 0. -1.
        -11    1    3    3    0    0  0.26025237649E+02  0.98003883913E+02 -0.16107676042E+03  0.19033601079E+03  0.00000000000E+00 0.  1.
         22    1    1    2    0    0 -0.15833218739E+03 -0.12209999872E+04  0.32618099224E+02  0.12316549803E+04  0.00000000000E+00 0.  1.
<mgrwt>
<rscale>  0 0.31893432E+04</rscale>
<asrwt>0</asrwt>
<pdfrwt beam="1">  1        1 0.50537403E+00 0.31893432E+04</pdfrwt>
<pdfrwt beam="2">  1       -1 0.11909757E+00 0.31893432E+04</pdfrwt>
<totfact> 0.19344178E-01</totfact>
</mgrwt>
</event>
<event>
 6    1  0.9512547E-007  0.1345749E+04  0.7818608E-02  0.8994053E-01
          2   -1    0    0  501    0  0.00000000000E+00  0.00000000000E+00  0.16180273899E+04  0.16180273899E+04  0.00000000000E+00 0. -1.
         -2   -1    0    0    0  501 -0.00000000000E+00 -0.00000000000E+00 -0.27982214247E+03  0.27982214247E+03  0.00000000000E+00 0.  1.
         23    2    1    2    0    0  0.52409775994E+03 -0.19008542012E+03  0.11957564404E+04  0.13224343853E+04  0.90489279682E+02 0.  0.
         11    1    3    3    0    0  0.27351174118E+03 -0.14571720740E+03  0.68156912212E+03  0.74871800120E+03  0.00000000000E+00 0. -1.
        -11    1    3    3    0    0  0.25058601875E+03 -0.44368212719E+02  0.51418731824E+03  0.57371638406E+03  0.00000000000E+00 0.  1.
         22    1    1    2    0    0 -0.52409775994E+03  0.19008542012E+03  0.14244880711E+03  0.57541514714E+03  0.00000000000E+00 0.  1.
<mgrwt>
<rscale>  0 0.13457487E+04</rscale>
<asrwt>0</asrwt>
<pdfrwt beam="1">  1        2 0.24892728E+00 0.13457487E+04</pdfrwt>
<pdfrwt beam="2">  1       -2 0.43049561E-01 0.13457487E+04</pdfrwt>
<totfact> 0.54451263E+01</totfact>
</mgrwt>
</event>
<event>
 6    1  0.9512547E-007  0.2252181E+04  0.7818608E-02  0.8497018E-01
          1   -1    0    0  501    0  0.00000000000E+00  0.00000000000E+00  0.29406276446E+04  0.29406276446E+04  0.00000000000E+00 0. -1.
         -1   -1    0    0    0  501 -0.00000000000E+00 -0.00000000000E+00 -0.43122742354E+03  0.43122742354E+03  0.00000000000E+00 0.  1.
         23    2    1    2    0    0 -0.30223903131E+03 -0.72931163246E+03  0.24551452722E+04  0.25805349756E+04  0.90435410971E+02 0.  0.
         13    1    3    3    0    0 -0.22036649971E+03 -0.58152991279E+03  0.20274085620E+04  0.21206423345E+04  0.00000000000E+00 0. -1.
        -13    1    3    3    0    0 -0.81872531608E+02 -0.14778171967E+03  0.42773671019E+03  0.45989264110E+03  0.00000000000E+00 0.  1.
         22    1    1    2    0    0  0.30223903131E+03  0.72931163246E+03  0.54254948827E+02  0.79132009248E+03  0.00000000000E+00 0.  1.
<mgrwt>
<rscale>  0 0.22521805E+04</rscale>
<asrwt>0</asrwt>
<pdfrwt beam="1">  1        1 0.45240424E+00 0.22521805E+04</pdfrwt>
<pdfrwt beam="2">  1       -1 0.66342682E-01 0.22521805E+04</pdfrwt>
<totfact> 0.13805321E+00</totfact>
</mgrwt>
</event>
<event>
 6    1  0.9512547E-007  0.1221806E+04  0.7818608E-02  0.9093981E-01
          1   -1    0    0  501    0  0.00000000000E+00  0.00000000000E+00  0.46757191630E+03  0.46757191630E+03  0.00000000000E+00 0. -1.
         -1   -1    0    0    0  501 -0.00000000000E+00 -0.00000000000E+00 -0.79817169050E+03  0.79817169050E+03  0.00000000000E+00 0.  1.
         23    2    1    2    0    0  0.39606698792E+03  0.15942839464E+03  0.28162405678E+03  0.51934927995E+03  0.90139299393E+02 0.  0.
         13    1    3    3    0    0  0.25105929077E+03  0.12856182747E+03  0.14239942772E+03  0.31596915669E+03  0.00000000000E+00 0.  1.
        -13    1    3    3    0    0  0.14500769714E+03  0.30866567168E+02  0.13922462907E+03  0.20338012326E+03  0.00000000000E+00 0. -1.
         22    1    1    2    0    0 -0.39606698792E+03 -0.15942839464E+03 -0.61222383098E+03  0.74639432685E+03  0.00000000000E+00 0.  1.
<mgrwt>
<rscale>  0 0.12218063E+04</rscale>
<asrwt>0</asrwt>
<pdfrwt beam="1">  1        1 0.71934141E-01 0.12218063E+04</pdfrwt>
<pdfrwt beam="2">  1       -1 0.12279564E+00 0.12218063E+04</pdfrwt>
<totfact> 0.28102282E+01</totfact>
</mgrwt>
</event>
<event>
 6    1  0.9512547E-007  0.2167161E+04  0.7818608E-02  0.8532222E-01
         -1   -1    0    0    0  501 -0.00000000000E+00  0.00000000000E+00  0.64173861280E+03  0.64173861280E+03  0.00000000000E+00 0.  1.
          1   -1    0    0  501    0  0.00000000000E+00 -0.00000000000E+00 -0.18296338757E+04  0.18296338757E+04  0.00000000000E+00 0. -1.
         23    2    1    2    0    0 -0.15287406387E+03  0.10584850378E+04 -0.41009965681E+03  0.11489780468E+04  0.90596736765E+02 0.  0.
         11    1    3    3    0    0 -0.50958139460E+02  0.65568906313E+03 -0.26042901470E+03  0.70735291842E+03  0.00000000000E+00 0. -1.
        -11    1    3    3    0    0 -0.10191592441E+03  0.40279597469E+03 -0.14967064211E+03  0.44162512835E+03  0.00000000000E+00 0.  1.
         22    1    1    2    0    0  0.15287406387E+03 -0.10584850378E+04 -0.77779560610E+03  0.13223944418E+04  0.00000000000E+00 0. -1.
<mgrwt>
<rscale>  0 0.21671610E+04</rscale>
<asrwt>0</asrwt>
<pdfrwt beam="1">  1        1 0.28148214E+00 0.21671610E+04</pdfrwt>
<pdfrwt beam="2">  1       -1 0.98729017E-01 0.21671610E+04</pdfrwt>
<totfact> 0.34894810E+00</totfact>
</mgrwt>
</event>
<event>
 6    1  0.9512547E-007  0.2210957E+04  0.7818608E-02  0.8513881E-01
         -2   -1    0    0    0  501 -0.00000000000E+00  0.00000000000E+00  0.22989832055E+04  0.22989832055E+04  0.00000000000E+00 0.  1.
          2   -1    0    0  501    0  0.00000000000E+00 -0.00000000000E+00 -0.53157545835E+03  0.53157545835E+03  0.00000000000E+00 0. -1.
         23    2    1    2    0    0 -0.39676057838E+03  0.99363392378E+03  0.53881055215E+03  0.12013937248E+04  0.91119371357E+02 0.  0.
         11    1    3    3    0    0 -0.19014401628E+03  0.54844868501E+03  0.25084786679E+03  0.63235698723E+03  0.00000000000E+00 0.  1.
        -11    1    3    3    0    0 -0.20661656209E+03  0.44518523877E+03  0.28796268536E+03  0.56903673757E+03  0.00000000000E+00 0. -1.
         22    1    1    2    0    0  0.39676057838E+03 -0.99363392378E+03  0.12285971950E+04  0.16291649390E+04  0.00000000000E+00 0.  1.
<mgrwt>
<rscale>  0 0.22109573E+04</rscale>
<asrwt>0</asrwt>
<pdfrwt beam="1">  1        2 0.81780841E-01 0.22109573E+04</pdfrwt>
<pdfrwt beam="2">  1       -2 0.35368972E+00 0.22109573E+04</pdfrwt>
<totfact> 0.77289080E-01</totfact>
</mgrwt>
</event>
<event>
 6    1  0.9512547E-007  0.1193513E+04  0.7818608E-02  0.9118554E-01
         -2   -1    0    0    0  501 -0.00000000000E+00  0.00000000000E+00  0.21735883426E+03  0.21735883426E+03  0.00000000000E+00 0.  1.
          2   -1    0    0  501    0  0.00000000000E+00 -0.00000000000E+00 -0.16383884577E+04  0.16383884577E+04  0.00000000000E+00 0. -1.
         23    2    1    2    0    0  0.36780718566E+03 -0.25013207653E+03 -0.13244016549E+04  0.14005713415E+04  0.98550280738E+02 0.  0.
         13    1    3    3    0    0  0.96131485732E+02 -0.11500839948E+03 -0.37442008009E+03  0.40330954722E+03  0.00000000000E+00 0.  1.
        -13    1    3    3    0    0  0.27167569992E+03 -0.13512367705E+03 -0.94998157476E+03  0.99726179432E+03  0.00000000000E+00 0. -1.
         22    1    1    2    0    0 -0.36780718566E+03  0.25013207653E+03 -0.96627968580E+02  0.45517595042E+03  0.00000000000E+00 0.  1.
<mgrwt>
<rscale>  0 0.11935128E+04</rscale>
<asrwt>0</asrwt>
<pdfrwt beam="1">  1        2 0.25205977E+00 0.11935128E+04</pdfrwt>
<pdfrwt beam="2">  1       -2 0.33439820E-01 0.11935128E+04</pdfrwt>
<totfact> 0.87537582E+01</totfact>
</mgrwt>
</event>
<event>
 6    1  0.9512547E-007  0.2503918E+04  0.7818608E-02  0.8401591E-01
          1   -1    0    0  501    0  0.00000000000E+00  0.00000000000E+00  0.13463597791E+04  0.13463597791E+04  0.00000000000E+00 0. -1.
         -1   -1    0    0    0  501 -0.00000000000E+00 -0.00000000000E+00 -0.11641768064E+04  0.11641768064E+04  0.00000000000E+00 0.  1.
         23    2    1    2    0    0 -0.97466121273E+03  0.39829728743E+03 -0.58464195240E+03  0.12079907420E+04  0.93969205083E+02 0.  0.
         11    1    3    3    0    0 -0.14684508709E+03  0.88321931889E+02 -0.12147768776E+03  0.21005016515E+03  0.00000000000E+00 0. -1.
        -11    1    3    3    0    0 -0.82781612564E+03  0.30997535554E+03 -0.46316426464E+03  0.99794057687E+03  0.00000000000E+00 0.  1.
         22    1    1    2    0    0  0.97466121273E+03 -0.39829728743E+03  0.76682492511E+03  0.13025458436E+04  0.00000000000E+00 0. -1.
<mgrwt>
<rscale>  0 0.25039176E+04</rscale>
<asrwt>0</asrwt>
<pdfrwt beam="1">  1        1 0.20713227E+00 0.25039176E+04</pdfrwt>
<pdfrwt beam="2">  1       -1 0.17910413E+00 0.25039176E+04</pdfrwt>
<totfact> 0.15726721E+00</totfact>
</mgrwt>
</event>
<event>
 6    1  0.9512547E-007  0.4523373E+04  0.7818608E-02  0.7906558E-01
         -1   -1    0    0    0  501 -0.00000000000E+00  0.00000000000E+00  0.14828166129E+04  0.14828166129E+04  0.00000000000E+00 0.  1.
          1   -1    0    0  501    0  0.00000000000E+00 -0.00000000000E+00 -0.34496681248E+04  0.34496681248E+04  0.00000000000E+00 0. -1.
         23    2    1    2    0    0 -0.10855344273E+04 -0.18047250635E+04 -0.18800778193E+04  0.28246547585E+04  0.92543775755E+02 0.  0.
         13    1    3    3    0    0 -0.46875361110E+03 -0.70074605729E+03 -0.72480326634E+03  0.11118069795E+04  0.00000000000E+00 0. -1.
        -13    1    3    3    0    0 -0.61678081622E+03 -0.11039790062E+04 -0.11552745529E+04  0.17128477790E+04  0.00000000000E+00 0.  1.
         22    1    1    2    0    0  0.10855344273E+04  0.18047250635E+04 -0.86773692643E+02  0.21078299792E+04  0.00000000000E+00 0.  1.
<mgrwt>
<rscale>  0 0.45233727E+04</rscale>
<asrwt>0</asrwt>
<pdfrwt beam="1">  1        1 0.53071817E+00 0.45233727E+04</pdfrwt>
<pdfrwt beam="2">  1       -1 0.22812563E+00 0.45233727E+04</pdfrwt>
<totfact> 0.19916847E-02</totfact>
</mgrwt>
</event>
<event>
 6    1  0.9512547E-007  0.1843275E+04  0.7818608E-02  0.8683619E-01
          2   -1    0    0  501    0  0.00000000000E+00  0.00000000000E+00  0.95280782342E+03  0.95280782342E+03  0.00000000000E+00 0. -1.
         -2   -1    0    0    0  501 -0.00000000000E+00 -0.00000000000E+00 -0.89148727019E+03  0.89148727019E+03  0.00000000000E+00 0.  1.
         23    2    1    2    0    0 -0.69678209621E+03  0.53885365616E+03  0.29409499450E+03  0.93322292694E+03  0.92437077087E+02 0.  0.
         11    1    3    3    0    0 -0.34249967249E+03  0.20672108781E+03  0.13256638705E+03  0.42144214404E+03  0.00000000000E+00 0. -1.
        -11    1    3    3    0    0 -0.35428242372E+03  0.33213256835E+03  0.16152860745E+03  0.51178078290E+03  0.00000000000E+00 0.  1.
         22    1    1    2    0    0  0.69678209621E+03 -0.53885365616E+03 -0.23277444127E+03  0.91107216666E+03  0.00000000000E+00 0. -1.
<mgrwt>
<rscale>  0 0.18432754E+04</rscale>
<asrwt>0</asrwt>
<pdfrwt beam="1">  1        2 0.14658582E+00 0.18432754E+04</pdfrwt>
<pdfrwt beam="2">  1       -2 0.13715189E+00 0.18432754E+04</pdfrwt>
<totfact> 0.96342814E+00</totfact>
</mgrwt>
</event>
<event>
 6    1  0.9512547E-007  0.3758135E+04  0.7818608E-02  0.8055199E-01
         -2   -1    0    0    0  501 -0.00000000000E+00  0.00000000000E+00  0.15847162767E+04  0.15847162767E+04  0.00000000000E+00 0.  1.
          2   -1    0    0  501    0  0.00000000000E+00 -0.00000000000E+00 -0.22280927620E+04  0.22280927620E+04  0.00000000000E+00 0. -1.
         23    2    1    2    0    0 -0.89476276823E+03  0.14366756126E+04 -0.11473942737E+04  0.20468330597E+04  0.91513537850E+02 0.  0.
         11    1    3    3    0    0 -0.54188443938E+03  0.92083589964E+03 -0.76600700742E+03  0.13146650658E+04  0.00000000000E+00 0. -1.
        -11    1    3    3    0    0 -0.35287832885E+03  0.51583971295E+03 -0.38138726631E+03  0.73216799392E+03  0.00000000000E+00 0.  1.
         22    1    1    2    0    0  0.89476276823E+03 -0.14366756126E+04  0.50401778845E+03  0.17659759790E+04  0.00000000000E+00 0.  1.
<mgrwt>
<rscale>  0 0.37581351E+04</rscale>
<asrwt>0</asrwt>
<pdfrwt beam="1">  1        2 0.34278350E+00 0.37581351E+04</pdfrwt>
<pdfrwt beam="2">  1       -2 0.24380250E+00 0.37581351E+04</pdfrwt>
<totfact> 0.28111345E-01</totfact>
</mgrwt>
</event>
<event>
 6    1  0.9512547E-007  0.3265411E+04  0.7818608E-02  0.8171753E-01
          2   -1    0    0  501    0  0.00000000000E+00  0.00000000000E+00  0.13129075095E+04  0.13129075095E+04  0.00000000000E+00 0. -1.
         -2   -1    0    0    0  501 -0.00000000000E+00 -0.00000000000E+00 -0.20303999894E+04  0.20303999894E+04  0.00000000000E+00 0.  1.
         23    2    1    2    0    0  0.13004971623E+04  0.76100448839E+03 -0.99929208220E+03  0.18103914163E+04  0.92258952472E+02 0.  0.
         11    1    3    3    0    0  0.10846205271E+04  0.67319115231E+03 -0.84696981948E+03  0.15319745071E+04  0.00000000000E+00 0.  1.
        -11    1    3    3    0    0  0.21587663523E+03  0.87813336080E+02 -0.15232226272E+03  0.27841690924E+03  0.00000000000E+00 0. -1.
         22    1    1    2    0    0 -0.13004971623E+04 -0.76100448839E+03  0.28179960225E+03  0.15329160826E+04  0.00000000000E+00 0. -1.
<mgrwt>
<rscale>  0 0.32654111E+04</rscale>
<asrwt>0</asrwt>
<pdfrwt beam="1">  1        2 0.20198577E+00 0.32654111E+04</pdfrwt>
<pdfrwt beam="2">  1       -2 0.31236923E+00 0.32654111E+04</pdfrwt>
<totfact> 0.36306271E-01</totfact>
</mgrwt>
</event>
<event>
 6    1  0.9512547E-007  0.3044229E+04  0.7818608E-02  0.8231213E-01
          2   -1    0    0  501    0  0.00000000000E+00  0.00000000000E+00  0.26864615058E+04  0.26864615058E+04  0.00000000000E+00 0. -1.
         -2   -1    0    0    0  501 -0.00000000000E+00 -0.00000000000E+00 -0.86241053801E+03  0.86241053801E+03  0.00000000000E+00 0.  1.
         23    2    1    2    0    0 -0.39496164833E+03 -0.11113218531E+04  0.20320776211E+04  0.23512468714E+04  0.89394781805E+02 0.  0.
         13    1    3    3    0    0 -0.16015075771E+03 -0.39149261328E+03  0.65403078673E+03  0.77889087903E+03  0.00000000000E+00 0.  1.
        -13    1    3    3    0    0 -0.23481089062E+03 -0.71982923987E+03  0.13780468344E+04  0.15723559924E+04  0.00000000000E+00 0. -1.
         22    1    1    2    0    0  0.39496164833E+03  0.11113218531E+04 -0.20802665340E+03  0.11976251724E+04  0.00000000000E+00 0.  1.
<mgrwt>
<rscale>  0 0.30442291E+04</rscale>
<asrwt>0</asrwt>
<pdfrwt beam="1">  1        2 0.41330177E+00 0.30442291E+04</pdfrwt>
<pdfrwt beam="2">  1       -2 0.13267855E+00 0.30442291E+04</pdfrwt>
<totfact> 0.95114780E-01</totfact>
</mgrwt>
</event>
<event>
 6    1  0.9512547E-007  0.1959301E+04  0.7818608E-02  0.8625889E-01
          2   -1    0    0  501    0  0.00000000000E+00  0.00000000000E+00  0.21179104837E+04  0.21179104837E+04  0.00000000000E+00 0. -1.
         -2   -1    0    0    0  501 -0.00000000000E+00 -0.00000000000E+00 -0.45314229658E+03  0.45314229658E+03  0.00000000000E+00 0.  1.
         23    2    1    2    0    0  0.41987245580E+03 -0.18801360871E+03  0.19659820639E+04  0.20211693420E+04  0.91640806240E+02 0.  0.
         11    1    3    3    0    0  0.18596110226E+03 -0.44375535720E+02  0.92935561865E+03  0.94881641303E+03  0.00000000000E+00 0. -1.
        -11    1    3    3    0    0  0.23391135354E+03 -0.14363807299E+03  0.10366264452E+04  0.10723529290E+04  0.00000000000E+00 0.  1.
         22    1    1    2    0    0 -0.41987245580E+03  0.18801360871E+03 -0.30121387672E+03  0.54988343831E+03  0.00000000000E+00 0.  1.
<mgrwt>
<rscale>  0 0.19593007E+04</rscale>
<asrwt>0</asrwt>
<pdfrwt beam="1">  1        2 0.32583238E+00 0.19593007E+04</pdfrwt>
<pdfrwt beam="2">  1       -2 0.69714201E-01 0.19593007E+04</pdfrwt>
<totfact> 0.10038288E+01</totfact>
</mgrwt>
</event>
<event>
 6    1  0.9512547E-007  0.3077816E+04  0.7818608E-02  0.8221852E-01
          2   -1    0    0  501    0  0.00000000000E+00  0.00000000000E+00  0.14636536032E+04  0.14636536032E+04  0.00000000000E+00 0. -1.
         -2   -1    0    0    0  501 -0.00000000000E+00 -0.00000000000E+00 -0.16180320339E+04  0.16180320339E+04  0.00000000000E+00 0.  1.
         23    2    1    2    0    0  0.12316770869E+04 -0.52863058227E+03  0.67710594781E+03  0.15043952355E+04  0.90850543046E+02 0.  0.
         13    1    3    3    0    0  0.71130853834E+02 -0.53584683520E+02  0.36623087325E+02  0.96292093135E+02  0.00000000000E+00 0.  1.
        -13    1    3    3    0    0  0.11605462331E+04 -0.47504589875E+03  0.64048286049E+03  0.14081031424E+04  0.00000000000E+00 0. -1.
         22    1    1    2    0    0 -0.12316770869E+04  0.52863058227E+03 -0.83148437854E+03  0.15772904015E+04  0.00000000000E+00 0.  1.
<mgrwt>
<rscale>  0 0.30778164E+04</rscale>
<asrwt>0</asrwt>
<pdfrwt beam="1">  1        2 0.22517748E+00 0.30778164E+04</pdfrwt>
<pdfrwt beam="2">  1       -2 0.24892800E+00 0.30778164E+04</pdfrwt>
<totfact> 0.73867760E-01</totfact>
</mgrwt>
</event>
<event>
 6    1  0.1363336E-006  0.3993277E+04  0.7818608E-02  0.8005904E-01
         -2   -1    0    0    0  501 -0.00000000000E+00  0.00000000000E+00  0.26773276145E+04  0.26773276145E+04  0.00000000000E+00 0.  1.
          2   -1    0    0  501    0  0.00000000000E+00 -0.00000000000E+00 -0.14890092026E+04  0.14890092026E+04  0.00000000000E+00 0. -1.
         23    2    1    2    0    0  0.25801696729E+03  0.17581068928E+04 -0.35308871750E+03  0.18140084938E+04  0.91883467038E+02 0.  0.
         11    1    3    3    0    0  0.10308147034E+03  0.70505920723E+03 -0.18759329457E+03  0.73683479789E+03  0.00000000000E+00 0. -1.
        -11    1    3    3    0    0  0.15493549696E+03  0.10530476855E+04 -0.16549542293E+03  0.10771736959E+04  0.00000000000E+00 0.  1.
         22    1    1    2    0    0 -0.25801696729E+03 -0.17581068928E+04  0.15414071294E+04  0.23523283233E+04  0.00000000000E+00 0.  1.
<mgrwt>
<rscale>  0 0.39932771E+04</rscale>
<asrwt>0</asrwt>
<pdfrwt beam="1">  1        2 0.22907834E+00 0.39932771E+04</pdfrwt>
<pdfrwt beam="2">  1       -2 0.41189656E+00 0.39932771E+04</pdfrwt>
<totfact> 0.62997355E-02</totfact>
</mgrwt>
</event>
<event>
 6    1  0.9512547E-007  0.1198582E+04  0.7818608E-02  0.9114099E-01
         -2   -1    0    0    0  501 -0.00000000000E+00  0.00000000000E+00  0.31957598972E+03  0.31957598972E+03  0.00000000000E+00 0.  1.
          2   -1    0    0  501    0  0.00000000000E+00 -0.00000000000E+00 -0.11238310226E+04  0.11238310226E+04  0.00000000000E+00 0. -1.
         23    2    1    2    0    0  0.33325476774E+03 -0.16518434343E+03 -0.96491776552E+03  0.10382439325E+04  0.92409748713E+02 0.  0.
         13    1    3    3    0    0  0.28787314461E+03 -0.10256471968E+03 -0.78663370633E+03  0.84390938912E+03  0.00000000000E+00 0.  1.
        -13    1    3    3    0    0  0.45381623132E+02 -0.62619623746E+02 -0.17828405919E+03  0.19433454340E+03  0.00000000000E+00 0. -1.
         22    1    1    2    0    0 -0.33325476774E+03  0.16518434343E+03  0.16066273267E+03  0.40516307977E+03  0.00000000000E+00 0.  1.
<mgrwt>
<rscale>  0 0.11985815E+04</rscale>
<asrwt>0</asrwt>
<pdfrwt beam="1">  1        2 0.17289708E+00 0.11985815E+04</pdfrwt>
<pdfrwt beam="2">  1       -2 0.49165537E-01 0.11985815E+04</pdfrwt>
<totfact> 0.81381784E+01</totfact>
</mgrwt>
</event>
<event>
 6    1  0.9512547E-007  0.7800003E+03  0.7818608E-02  0.9589426E-01
          2   -1    0    0  501    0  0.00000000000E+00  0.00000000000E+00  0.29337591946E+04  0.29337591946E+04  0.00000000000E+00 0. -1.
         -2   -1    0    0    0  501 -0.00000000000E+00 -0.00000000000E+00 -0.51844784534E+02  0.51844784534E+02  0.00000000000E+00 0.  1.
         23    2    1    2    0    0 -0.29045398107E+03 -0.10341451976E+03  0.23413658949E+04  0.23633092135E+04  0.90432887098E+02 0.  0.
         11    1    3    3    0    0 -0.22522381961E+03 -0.11061646944E+03  0.16703461500E+04  0.16890879294E+04  0.00000000000E+00 0. -1.
        -11    1    3    3    0    0 -0.65230161465E+02  0.72019496817E+01  0.67101974484E+03  0.67422128416E+03  0.00000000000E+00 0.  1.
         22    1    1    2    0    0  0.29045398107E+03  0.10341451976E+03  0.54054851519E+03  0.62229476560E+03  0.00000000000E+00 0.  1.
<mgrwt>
<rscale>  0 0.78000029E+03</rscale>
<asrwt>0</asrwt>
<pdfrwt beam="1">  1        2 0.45134744E+00 0.78000029E+03</pdfrwt>
<pdfrwt beam="2">  1       -2 0.79761230E-02 0.78000029E+03</pdfrwt>
<totfact> 0.19866569E+02</totfact>
</mgrwt>
</event>
<event>
 6    1  0.9512547E-007  0.2010742E+04  0.7818608E-02  0.8601615E-01
          2   -1    0    0  501    0  0.00000000000E+00  0.00000000000E+00  0.95291463766E+03  0.95291463766E+03  0.00000000000E+00 0. -1.
         -2   -1    0    0    0  501 -0.00000000000E+00 -0.00000000000E+00 -0.10607145919E+04  0.10607145919E+04  0.00000000000E+00 0.  1.
         23    2    1    2    0    0  0.88598602752E+03  0.25065247128E+03  0.34514390300E+03  0.98749276684E+03  0.90662828443E+02 0.  0.
         11    1    3    3    0    0  0.54362955277E+03  0.19779426103E+03  0.22811629351E+03  0.62184620583E+03  0.00000000000E+00 0.  1.
        -11    1    3    3    0    0  0.34235647476E+03  0.52858210252E+02  0.11702760949E+03  0.36564656101E+03  0.00000000000E+00 0. -1.
         22    1    1    2    0    0 -0.88598602752E+03 -0.25065247128E+03 -0.45294385726E+03  0.10261364627E+04  0.00000000000E+00 0. -1.
<mgrwt>
<rscale>  0 0.20107416E+04</rscale>
<asrwt>0</asrwt>
<pdfrwt beam="1">  1        2 0.14660225E+00 0.20107416E+04</pdfrwt>
<pdfrwt beam="2">  1       -2 0.16318686E+00 0.20107416E+04</pdfrwt>
<totfact> 0.59868863E+00</totfact>
</mgrwt>
</event>
<event>
 6    1  0.9512547E-007  0.1916271E+04  0.7818608E-02  0.8646799E-01
          1   -1    0    0  501    0  0.00000000000E+00  0.00000000000E+00  0.19857824037E+04  0.19857824037E+04  0.00000000000E+00 0. -1.
         -1   -1    0    0    0  501 -0.00000000000E+00 -0.00000000000E+00 -0.46229841843E+03  0.46229841843E+03  0.00000000000E+00 0.  1.
         23    2    1    2    0    0  0.63290370993E+03 -0.60604775382E+03  0.12517993987E+04  0.15306531680E+04  0.89645971478E+02 0.  0.
         13    1    3    3    0    0  0.46549573504E+03 -0.39479944786E+03  0.83522508107E+03  0.10344823920E+04  0.00000000000E+00 0. -1.
        -13    1    3    3    0    0  0.16740797489E+03 -0.21124830596E+03  0.41657431766E+03  0.49617077600E+03  0.00000000000E+00 0.  1.
         22    1    1    2    0    0 -0.63290370993E+03  0.60604775382E+03  0.27168458657E+03  0.91742765412E+03  0.00000000000E+00 0. -1.
<mgrwt>
<rscale>  0 0.19162714E+04</rscale>
<asrwt>0</asrwt>
<pdfrwt beam="1">  1        1 0.30550498E+00 0.19162714E+04</pdfrwt>
<pdfrwt beam="2">  1       -1 0.71122835E-01 0.19162714E+04</pdfrwt>
<totfact> 0.56840250E+00</totfact>
</mgrwt>
</event>
<event>
 6    1  0.9512547E-007  0.1759422E+04  0.7818608E-02  0.8728181E-01
          1   -1    0    0  501    0  0.00000000000E+00  0.00000000000E+00  0.28762677478E+04  0.28762677478E+04  0.00000000000E+00 0. -1.
         -1   -1    0    0    0  501 -0.00000000000E+00 -0.00000000000E+00 -0.26906089269E+03  0.26906089269E+03  0.00000000000E+00 0.  1.
         23    2    1    2    0    0 -0.60820107111E+03 -0.47956899599E+03  0.20441906791E+04  0.21877889915E+04  0.88375190234E+02 0.  0.
         13    1    3    3    0    0 -0.23181116464E+03 -0.23784395028E+03  0.85331903699E+03  0.91567436331E+03  0.00000000000E+00 0. -1.
        -13    1    3    3    0    0 -0.37638990647E+03 -0.24172504570E+03  0.11908716421E+04  0.12721146282E+04  0.00000000000E+00 0.  1.
         22    1    1    2    0    0  0.60820107111E+03  0.47956899599E+03  0.56301617600E+03  0.95753964892E+03  0.00000000000E+00 0.  1.
<mgrwt>
<rscale>  0 0.17594217E+04</rscale>
<asrwt>0</asrwt>
<pdfrwt beam="1">  1        1 0.44250271E+00 0.17594217E+04</pdfrwt>
<pdfrwt beam="2">  1       -1 0.41393985E-01 0.17594217E+04</pdfrwt>
<totfact> 0.39906468E+00</totfact>
</mgrwt>
</event>
<event>
 6    1  0.9512547E-007  0.4705849E+04  0.7818608E-02  0.7875557E-01
         -2   -1    0    0    0  501 -0.00000000000E+00  0.00000000000E+00  0.16953354918E+04  0.16953354918E+04  0.00000000000E+00 0.  1.
          2   -1    0    0  501    0  0.00000000000E+00 -0.00000000000E+00 -0.32655805133E+04  0.32655805133E+04  0.00000000000E+00 0. -1.
         23    2    1    2    0    0 -0.86494041751E+03 -0.21587582423E+04 -0.11559614534E+04  0.25987157703E+04  0.93368615955E+02 0.  0.
         11    1    3    3    0    0 -0.65062178521E+03 -0.15095805024E+04 -0.81785233393E+03  0.18360349781E+04  0.00000000000E+00 0. -1.
        -11    1    3    3    0    0 -0.21431863230E+03 -0.64917773989E+03 -0.33810911943E+03  0.76268079218E+03  0.00000000000E+00 0.  1.
         22    1    1    2    0    0  0.86494041751E+03  0.21587582423E+04 -0.41428356821E+03  0.23622002348E+04  0.00000000000E+00 0. -1.
<mgrwt>
<rscale>  0 0.47058494E+04</rscale>
<asrwt>0</asrwt>
<pdfrwt beam="1">  1        2 0.50239700E+00 0.47058494E+04</pdfrwt>
<pdfrwt beam="2">  1       -2 0.26082085E+00 0.47058494E+04</pdfrwt>
<totfact> 0.48201484E-02</totfact>
</mgrwt>
</event>
<event>
 6    1  0.9512547E-007  0.1408452E+04  0.7818608E-02  0.8947723E-01
          2   -1    0    0  501    0  0.00000000000E+00  0.00000000000E+00  0.78124481230E+03  0.78124481230E+03  0.00000000000E+00 0. -1.
         -2   -1    0    0    0  501 -0.00000000000E+00 -0.00000000000E+00 -0.63479982345E+03  0.63479982345E+03  0.00000000000E+00 0.  1.
         23    2    1    2    0    0  0.10129584767E+03 -0.44290743049E+03 -0.46331850953E+03  0.65562411743E+03  0.93547321371E+02 0.  0.
         13    1    3    3    0    0  0.37600912504E+02 -0.17557674164E+03 -0.24966615445E+03  0.30752920106E+03  0.00000000000E+00 0. -1.
        -13    1    3    3    0    0  0.63694935170E+02 -0.26733068886E+03 -0.21365235508E+03  0.34809491637E+03  0.00000000000E+00 0.  1.
         22    1    1    2    0    0 -0.10129584767E+03  0.44290743049E+03  0.60976349838E+03  0.76042051833E+03  0.00000000000E+00 0. -1.
<mgrwt>
<rscale>  0 0.14084517E+04</rscale>
<asrwt>0</asrwt>
<pdfrwt beam="1">  1        2 0.12019151E+00 0.14084517E+04</pdfrwt>
<pdfrwt beam="2">  1       -2 0.97661511E-01 0.14084517E+04</pdfrwt>
<totfact> 0.30210957E+01</totfact>
</mgrwt>
</event>
<event>
 6    1  0.9512547E-007  0.4159984E+04  0.7818608E-02  0.7973028E-01
         -2   -1    0    0    0  501 -0.00000000000E+00  0.00000000000E+00  0.14990989063E+04  0.14990989063E+04  0.00000000000E+00 0.  1.
          2   -1    0    0  501    0  0.00000000000E+00 -0.00000000000E+00 -0.28859788010E+04  0.28859788010E+04  0.00000000000E+00 0. -1.
         23    2    1    2    0    0  0.21514061430E+02 -0.19087910953E+04 -0.15618842747E+04  0.24681601730E+04  0.91574296660E+02 0.  0.
         11    1    3    3    0    0 -0.30438808789E+02 -0.10838278188E+04 -0.90618508041E+03  0.14130748960E+04  0.00000000000E+00 0. -1.
        -11    1    3    3    0    0  0.51952870219E+02 -0.82496327648E+03 -0.65569919432E+03  0.10550852770E+04  0.00000000000E+00 0.  1.
         22    1    1    2    0    0 -0.21514061430E+02  0.19087910953E+04  0.17500438009E+03  0.19169175343E+04  0.00000000000E+00 0.  1.
<mgrwt>
<rscale>  0 0.41599845E+04</rscale>
<asrwt>0</asrwt>
<pdfrwt beam="1">  1        2 0.44399673E+00 0.41599845E+04</pdfrwt>
<pdfrwt beam="2">  1       -2 0.23063061E+00 0.41599845E+04</pdfrwt>
<totfact> 0.13516958E-01</totfact>
</mgrwt>
</event>
<event>
 6    1  0.9512547E-007  0.3580439E+04  0.7818608E-02  0.8094987E-01
         -2   -1    0    0    0  501 -0.00000000000E+00  0.00000000000E+00  0.12099051776E+04  0.12099051776E+04  0.00000000000E+00 0.  1.
          2   -1    0    0  501    0  0.00000000000E+00 -0.00000000000E+00 -0.26488741146E+04  0.26488741146E+04  0.00000000000E+00 0. -1.
         23    2    1    2    0    0  0.80425502384E+03 -0.90866887511E+03  0.69685358881E+03  0.14023096445E+04  0.91444774708E+02 0.  0.
         11    1    3    3    0    0  0.51519871510E+03 -0.58297396583E+03  0.39567160605E+03  0.87283697259E+03  0.00000000000E+00 0. -1.
        -11    1    3    3    0    0  0.28905630874E+03 -0.32569490927E+03  0.30118198276E+03  0.52947267190E+03  0.00000000000E+00 0.  1.
         22    1    1    2    0    0 -0.80425502384E+03  0.90866887511E+03 -0.21358225259E+04  0.24564696477E+04  0.00000000000E+00 0. -1.
<mgrwt>
<rscale>  0 0.35804394E+04</rscale>
<asrwt>0</asrwt>
<pdfrwt beam="1">  1        2 0.40751909E+00 0.35804394E+04</pdfrwt>
<pdfrwt beam="2">  1       -2 0.18613926E+00 0.35804394E+04</pdfrwt>
<totfact> 0.38254918E-01</totfact>
</mgrwt>
</event>
<event>
 6    1  0.1016505E-006  0.3278335E+04  0.7818608E-02  0.8168430E-01
          2   -1    0    0  501    0  0.00000000000E+00  0.00000000000E+00  0.19244262819E+04  0.19244262819E+04  0.00000000000E+00 0. -1.
         -2   -1    0    0    0  501 -0.00000000000E+00 -0.00000000000E+00 -0.13961925541E+04  0.13961925541E+04  0.00000000000E+00 0.  1.
         23    2    1    2    0    0  0.40567428888E+03 -0.14258837861E+04 -0.44101632116E+03  0.15494153306E+04  0.92066665190E+02 0.  0.
         13    1    3    3    0    0  0.18484597265E+03 -0.81402202093E+03 -0.25623843988E+03  0.87318842310E+03  0.00000000000E+00 0.  1.
        -13    1    3    3    0    0  0.22082831623E+03 -0.61186176521E+03 -0.18477788128E+03  0.67622690747E+03  0.00000000000E+00 0. -1.
         22    1    1    2    0    0 -0.40567428888E+03  0.14258837861E+04  0.96925004893E+03  0.17712035054E+04  0.00000000000E+00 0. -1.
<mgrwt>
<rscale>  0 0.32783347E+04</rscale>
<asrwt>0</asrwt>
<pdfrwt beam="1">  1        2 0.29606558E+00 0.32783347E+04</pdfrwt>
<pdfrwt beam="2">  1       -2 0.21479885E+00 0.32783347E+04</pdfrwt>
<totfact> 0.65689536E-01</totfact>
</mgrwt>
</event>
<event>
 6    1  0.1364012E-006  0.3270799E+04  0.7818608E-02  0.8170366E-01
         -2   -1    0    0    0  501 -0.00000000000E+00  0.00000000000E+00  0.12586140066E+04  0.12586140066E+04  0.00000000000E+00 0.  1.
          2   -1    0    0  501    0  0.00000000000E+00 -0.00000000000E+00 -0.21249813680E+04  0.21249813680E+04  0.00000000000E+00 0. -1.
         23    2    1    2    0    0  0.14454864633E+03  0.10487313254E+04 -0.17216088415E+04  0.20226509623E+04  0.80300733520E+02 0.  0.
         11    1    3    3    0    0  0.64455003055E+01  0.26594440919E+03 -0.46613174715E+03  0.53669989655E+03  0.00000000000E+00 0.  1.
        -11    1    3    3    0    0  0.13810314603E+03  0.78278691623E+03 -0.12554770944E+04  0.14859510657E+04  0.00000000000E+00 0. -1.
         22    1    1    2    0    0 -0.14454864633E+03 -0.10487313254E+04  0.85524148017E+03  0.13609444123E+04  0.00000000000E+00 0.  1.
<mgrwt>
<rscale>  0 0.32707989E+04</rscale>
<asrwt>0</asrwt>
<pdfrwt beam="1">  1        2 0.32692021E+00 0.32707989E+04</pdfrwt>
<pdfrwt beam="2">  1       -2 0.19363293E+00 0.32707989E+04</pdfrwt>
<totfact> 0.69815207E-01</totfact>
</mgrwt>
</event>
<event>
 6    1  0.9512547E-007  0.4735163E+04  0.7818608E-02  0.7870712E-01
         -2   -1    0    0    0  501 -0.00000000000E+00  0.00000000000E+00  0.29681101847E+04  0.29681101847E+04  0.00000000000E+00 0.  1.
          2   -1    0    0  501    0  0.00000000000E+00 -0.00000000000E+00 -0.18885559694E+04  0.18885559694E+04  0.00000000000E+00 0. -1.
         23    2    1    2    0    0 -0.20716130331E+04  0.10266008743E+04  0.10588373397E+04  0.25445417840E+04  0.89813499160E+02 0.  0.
         11    1    3    3    0    0 -0.12847253631E+04  0.61724226575E+03  0.69656934929E+03  0.15864161282E+04  0.00000000000E+00 0.  1.
        -11    1    3    3    0    0 -0.78688766996E+03  0.40935860850E+03  0.36226799040E+03  0.95812565583E+03  0.00000000000E+00 0. -1.
         22    1    1    2    0    0  0.20716130331E+04 -0.10266008743E+04  0.20716875668E+02  0.23121243701E+04  0.00000000000E+00 0. -1.
<mgrwt>
<rscale>  0 0.47351630E+04</rscale>
<asrwt>0</asrwt>
<pdfrwt beam="1">  1        2 0.29054707E+00 0.47351630E+04</pdfrwt>
<pdfrwt beam="2">  1       -2 0.45663233E+00 0.47351630E+04</pdfrwt>
<totfact> 0.18018523E-02</totfact>
</mgrwt>
</event>
<event>
 6    1  0.9512547E-007  0.2159876E+04  0.7818608E-02  0.8535317E-01
          1   -1    0    0  501    0  0.00000000000E+00  0.00000000000E+00  0.99962990033E+03  0.99962990033E+03  0.00000000000E+00 0. -1.
         -1   -1    0    0    0  501 -0.00000000000E+00 -0.00000000000E+00 -0.11666978275E+04  0.11666978275E+04  0.00000000000E+00 0.  1.
         23    2    1    2    0    0 -0.30577089854E+03 -0.39469186455E+03  0.87474546776E+03  0.10110560454E+04  0.88188339741E+02 0.  0.
         11    1    3    3    0    0 -0.17922623009E+02 -0.73583714935E+02  0.13474126744E+03  0.15456711380E+03  0.00000000000E+00 0. -1.
        -11    1    3    3    0    0 -0.28784827553E+03 -0.32110814962E+03  0.74000420033E+03  0.85648893161E+03  0.00000000000E+00 0.  1.
         22    1    1    2    0    0  0.30577089854E+03  0.39469186455E+03 -0.10418133950E+04  0.11552716824E+04  0.00000000000E+00 0.  1.
<mgrwt>
<rscale>  0 0.21598760E+04</rscale>
<asrwt>0</asrwt>
<pdfrwt beam="1">  1        1 0.15378922E+00 0.21598760E+04</pdfrwt>
<pdfrwt beam="2">  1       -1 0.17949197E+00 0.21598760E+04</pdfrwt>
<totfact> 0.29073070E+00</totfact>
</mgrwt>
</event>
<event>
 6    1  0.9512547E-007  0.1437330E+04  0.7818608E-02  0.8927232E-01
         -2   -1    0    0    0  501 -0.00000000000E+00  0.00000000000E+00  0.22133006998E+03  0.22133006998E+03  0.00000000000E+00 0.  1.
          2   -1    0    0  501    0  0.00000000000E+00 -0.00000000000E+00 -0.23335251110E+04  0.23335251110E+04  0.00000000000E+00 0. -1.
         23    2    1    2    0    0  0.64546968781E+03  0.38669688210E+02 -0.51528826467E+03  0.83199775361E+03  0.92584035580E+02 0.  0.
         13    1    3    3    0    0  0.25119323306E+03 -0.22500176251E+02 -0.23185156245E+03  0.34257764854E+03  0.00000000000E+00 0. -1.
        -13    1    3    3    0    0  0.39427645475E+03  0.61169864461E+02 -0.28343670222E+03  0.48942010507E+03  0.00000000000E+00 0.  1.
         22    1    1    2    0    0 -0.64546968781E+03 -0.38669688210E+02 -0.15969067764E+04  0.17228574274E+04  0.00000000000E+00 0. -1.
<mgrwt>
<rscale>  0 0.14373299E+04</rscale>
<asrwt>0</asrwt>
<pdfrwt beam="1">  1        2 0.35900387E+00 0.14373299E+04</pdfrwt>
<pdfrwt beam="2">  1       -2 0.34050780E-01 0.14373299E+04</pdfrwt>
<totfact> 0.34078381E+01</totfact>
</mgrwt>
</event>
<event>
 6    1  0.9512547E-007  0.6148902E+03  0.7818608E-02  0.9874986E-01
          2   -1    0    0  501    0  0.00000000000E+00  0.00000000000E+00  0.57591576568E+03  0.57591576568E+03  0.00000000000E+00 0. -1.
         -2   -1    0    0    0  501 -0.00000000000E+00 -0.00000000000E+00 -0.16412556653E+03  0.16412556653E+03  0.00000000000E+00 0.  1.
         23    2    1    2    0    0  0.29207524390E+03  0.56194640333E+02  0.15462255276E+03  0.34684801583E+03  0.89048450630E+02 0.  0.
         13    1    3    3    0    0  0.71445072174E+02  0.51006852357E+02  0.62193199349E+02  0.10758295111E+03  0.00000000000E+00 0.  1.
        -13    1    3    3    0    0  0.22063017172E+03  0.51877879764E+01  0.92429353414E+02  0.23926506471E+03  0.00000000000E+00 0. -1.
         22    1    1    2    0    0 -0.29207524390E+03 -0.56194640333E+02  0.25716764639E+03  0.39319331638E+03  0.00000000000E+00 0. -1.
<mgrwt>
<rscale>  0 0.61489024E+03</rscale>
<asrwt>0</asrwt>
<pdfrwt beam="1">  1        2 0.88602424E-01 0.61489024E+03</pdfrwt>
<pdfrwt beam="2">  1       -2 0.25250087E-01 0.61489024E+03</pdfrwt>
<totfact> 0.73735011E+02</totfact>
</mgrwt>
</event>
<event>
 6    1  0.9512547E-007  0.1570566E+04  0.7818608E-02  0.8838837E-01
          2   -1    0    0  501    0  0.00000000000E+00  0.00000000000E+00  0.22162422732E+04  0.22162422732E+04  0.00000000000E+00 0. -1.
         -2   -1    0    0    0  501 -0.00000000000E+00 -0.00000000000E+00 -0.27824997625E+03  0.27824997625E+03  0.00000000000E+00 0.  1.
         23    2    1    2    0    0 -0.34472320026E+03 -0.70145806815E+03  0.10355776742E+04  0.13006624217E+04  0.91782949692E+02 0.  0.
         11    1    3    3    0    0 -0.27430958879E+03 -0.61420487548E+03  0.91939322962E+03  0.11392002854E+04  0.00000000000E+00 0. -1.
        -11    1    3    3    0    0 -0.70413611465E+02 -0.87253192668E+02  0.11618444455E+03  0.16146213632E+03  0.00000000000E+00 0.  1.
         22    1    1    2    0    0  0.34472320026E+03  0.70145806815E+03  0.90241462277E+03  0.11938298277E+04  0.00000000000E+00 0. -1.
<mgrwt>
<rscale>  0 0.15705660E+04</rscale>
<asrwt>0</asrwt>
<pdfrwt beam="1">  1        2 0.34096034E+00 0.15705660E+04</pdfrwt>
<pdfrwt beam="2">  1       -2 0.42807690E-01 0.15705660E+04</pdfrwt>
<totfact> 0.25163087E+01</totfact>
</mgrwt>
</event>
<event>
 6    1  0.9512547E-007  0.1666389E+04  0.7818608E-02  0.8780770E-01
         -2   -1    0    0    0  501 -0.00000000000E+00  0.00000000000E+00  0.25606897324E+03  0.25606897324E+03  0.00000000000E+00 0.  1.
          2   -1    0    0  501    0  0.00000000000E+00 -0.00000000000E+00 -0.27110394824E+04  0.27110394824E+04  0.00000000000E+00 0. -1.
         23    2    1    2    0    0 -0.15763846030E+03 -0.79085133232E+03 -0.87756826937E+03  0.11955290642E+04  0.94169857227E+02 0.  0.
         13    1    3    3    0    0 -0.15082449058E+03 -0.53626529725E+03 -0.59186808455E+03  0.81279537738E+03  0.00000000000E+00 0. -1.
        -13    1    3    3    0    0 -0.68139697191E+01 -0.25458603508E+03 -0.28570018482E+03  0.38273368685E+03  0.00000000000E+00 0.  1.
         22    1    1    2    0    0  0.15763846030E+03  0.79085133232E+03 -0.15774022398E+04  0.17715793915E+04  0.00000000000E+00 0. -1.
<mgrwt>
<rscale>  0 0.16663890E+04</rscale>
<asrwt>0</asrwt>
<pdfrwt beam="1">  1        2 0.41708300E+00 0.16663890E+04</pdfrwt>
<pdfrwt beam="2">  1       -2 0.39395226E-01 0.16663890E+04</pdfrwt>
<totfact> 0.15250891E+01</totfact>
</mgrwt>
</event>
<event>
 6    1  0.9512547E-007  0.2556535E+04  0.7818608E-02  0.8383117E-01
          2   -1    0    0  501    0  0.00000000000E+00  0.00000000000E+00  0.24603754645E+04  0.24603754645E+04  0.00000000000E+00 0. -1.
         -2   -1    0    0    0  501 -0.00000000000E+00 -0.00000000000E+00 -0.66411320151E+03  0.66411320151E+03  0.00000000000E+00 0.  1.
         23    2    1    2    0    0 -0.73409182306E+03  0.73582420024E+03  0.18052228058E+04  0.20850617327E+04  0.91241396630E+02 0.  0.
         13    1    3    3    0    0 -0.15917816756E+03  0.12106817810E+03  0.30145121962E+03  0.36175686667E+03  0.00000000000E+00 0. -1.
        -13    1    3    3    0    0 -0.57491365550E+03  0.61475602214E+03  0.15037715861E+04  0.17233048660E+04  0.00000000000E+00 0.  1.
         22    1    1    2    0    0  0.73409182306E+03 -0.73582420024E+03 -0.89605427635E+01  0.10394269333E+04  0.00000000000E+00 0. -1.
<mgrwt>
<rscale>  0 0.25565350E+04</rscale>
<asrwt>0</asrwt>
<pdfrwt beam="1">  1        2 0.37851930E+00 0.25565350E+04</pdfrwt>
<pdfrwt beam="2">  1       -2 0.10217126E+00 0.25565350E+04</pdfrwt>
<totfact> 0.25562605E+00</totfact>
</mgrwt>
</event>
<event>
 6    1  0.9512547E-007  0.2798441E+04  0.7818608E-02  0.8303753E-01
         -2   -1    0    0    0  501 -0.00000000000E+00  0.00000000000E+00  0.94747594106E+03  0.94747594106E+03  0.00000000000E+00 0.  1.
          2   -1    0    0  501    0  0.00000000000E+00 -0.00000000000E+00 -0.20663508316E+04  0.20663508316E+04  0.00000000000E+00 0. -1.
         23    2    1    2    0    0 -0.64654601719E+03  0.68444191990E+02  0.77255263789E+03  0.10137756595E+04  0.90538112418E+02 0.  0.
         13    1    3    3    0    0 -0.27531944406E+03  0.40319422712E+01  0.26969012519E+03  0.38542160871E+03  0.00000000000E+00 0. -1.
        -13    1    3    3    0    0 -0.37122657313E+03  0.64412249719E+02  0.50286251271E+03  0.62835405083E+03  0.00000000000E+00 0.  1.
         22    1    1    2    0    0  0.64654601719E+03 -0.68444191990E+02 -0.18914275284E+04  0.20000511131E+04  0.00000000000E+00 0. -1.
<mgrwt>
<rscale>  0 0.27984408E+04</rscale>
<asrwt>0</asrwt>
<pdfrwt beam="1">  1        2 0.31790013E+00 0.27984408E+04</pdfrwt>
<pdfrwt beam="2">  1       -2 0.14576553E+00 0.27984408E+04</pdfrwt>
<totfact> 0.17257286E+00</totfact>
</mgrwt>
</event>
<event>
 6    1  0.9512547E-007  0.5545352E+04  0.7818608E-02  0.7749479E-01
         -2   -1    0    0    0  501 -0.00000000000E+00  0.00000000000E+00  0.15823738035E+04  0.15823738035E+04  0.00000000000E+00 0.  1.
          2   -1    0    0  501    0  0.00000000000E+00 -0.00000000000E+00 -0.48583540941E+04  0.48583540941E+04  0.00000000000E+00 0. -1.
         23    2    1    2    0    0 -0.26637561650E+04  0.90929932947E+02 -0.75405069617E+03  0.27713963456E+04  0.90443862699E+02 0.  0.
         13    1    3    3    0    0 -0.18339288098E+04  0.52143617294E+02 -0.56104104825E+03  0.19185361331E+04  0.00000000000E+00 0.  1.
        -13    1    3    3    0    0 -0.82982735526E+03  0.38786315652E+02 -0.19300964793E+03  0.85286021247E+03  0.00000000000E+00 0. -1.
         22    1    1    2    0    0  0.26637561650E+04 -0.90929932947E+02 -0.25219295945E+04  0.36693315521E+04  0.00000000000E+00 0. -1.
<mgrwt>
<rscale>  0 0.55453520E+04</rscale>
<asrwt>0</asrwt>
<pdfrwt beam="1">  1        2 0.74743909E+00 0.55453520E+04</pdfrwt>
<pdfrwt beam="2">  1       -2 0.24344212E+00 0.55453520E+04</pdfrwt>
<totfact> 0.24668897E-03</totfact>
</mgrwt>
</event>
<event>
 6    1  0.1006330E-006  0.2003926E+04  0.7818608E-02  0.8604787E-01
          2   -1    0    0  501    0  0.00000000000E+00  0.00000000000E+00  0.13980462226E+04  0.13980462226E+04  0.00000000000E+00 0. -1.
         -2   -1    0    0    0  501 -0.00000000000E+00 -0.00000000000E+00 -0.71809495799E+03  0.71809495799E+03  0.00000000000E+00 0.  1.
         23    2    1    2    0    0  0.50603482206E+03 -0.22365334818E+02  0.12510272723E+04  0.13527937787E+04  0.91707810323E+02 0.  0.
         13    1    3    3    0    0  0.22177056145E+03  0.35702120199E+02  0.54347739921E+03  0.58806845415E+03  0.00000000000E+00 0.  1.
        -13    1    3    3    0    0  0.28426426061E+03 -0.58067455017E+02  0.70754987306E+03  0.76472532459E+03  0.00000000000E+00 0. -1.
         22    1    1    2    0    0 -0.50603482206E+03  0.22365334818E+02 -0.57107600768E+03  0.76334740184E+03  0.00000000000E+00 0.  1.
<mgrwt>
<rscale>  0 0.20039261E+04</rscale>
<asrwt>0</asrwt>
<pdfrwt beam="1">  1        2 0.21508403E+00 0.20039261E+04</pdfrwt>
<pdfrwt beam="2">  1       -2 0.11047615E+00 0.20039261E+04</pdfrwt>
<totfact> 0.87622346E+00</totfact>
</mgrwt>
</event>
<event>
 6    1  0.9512547E-007  0.2859436E+04  0.7818608E-02  0.8285050E-01
         -1   -1    0    0    0  501 -0.00000000000E+00  0.00000000000E+00  0.12667547852E+04  0.12667547852E+04  0.00000000000E+00 0.  1.
          1   -1    0    0  501    0  0.00000000000E+00 -0.00000000000E+00 -0.16136462753E+04  0.16136462753E+04  0.00000000000E+00 0. -1.
         23    2    1    2    0    0 -0.31401599284E+03 -0.11590172842E+04 -0.95254197691E+03  0.15355071536E+04  0.92297844670E+02 0.  0.
         11    1    3    3    0    0 -0.13844093177E+03 -0.67703369470E+03 -0.52876741077E+03  0.87013532858E+03  0.00000000000E+00 0. -1.
        -11    1    3    3    0    0 -0.17557506107E+03 -0.48198358951E+03 -0.42377456614E+03  0.66537182502E+03  0.00000000000E+00 0.  1.
         22    1    1    2    0    0  0.31401599284E+03  0.11590172842E+04  0.60565048680E+03  0.13448939070E+04  0.00000000000E+00 0.  1.
<mgrwt>
<rscale>  0 0.28594364E+04</rscale>
<asrwt>0</asrwt>
<pdfrwt beam="1">  1        1 0.24825327E+00 0.28594364E+04</pdfrwt>
<pdfrwt beam="2">  1       -1 0.19488535E+00 0.28594364E+04</pdfrwt>
<totfact> 0.76824824E-01</totfact>
</mgrwt>
</event>
<event>
 6    1  0.9512547E-007  0.1496023E+04  0.7818608E-02  0.8887102E-01
          2   -1    0    0  501    0  0.00000000000E+00  0.00000000000E+00  0.24899801872E+04  0.24899801872E+04  0.00000000000E+00 0. -1.
         -2   -1    0    0    0  501 -0.00000000000E+00 -0.00000000000E+00 -0.22470914280E+03  0.22470914280E+03  0.00000000000E+00 0.  1.
         23    2    1    2    0    0 -0.59079494062E+03  0.70152611845E+02  0.32573567056E+03  0.68595634678E+03  0.10233441155E+03 0.  0.
         11    1    3    3    0    0 -0.53692031890E+03  0.56582525069E+02  0.25806211184E+03  0.59839875046E+03  0.00000000000E+00 0.  1.
        -11    1    3    3    0    0 -0.53874621723E+02  0.13570086776E+02  0.67673558727E+02  0.87557596311E+02  0.00000000000E+00 0. -1.
         22    1    1    2    0    0  0.59079494062E+03 -0.70152611845E+02  0.19395353738E+04  0.20287329832E+04  0.00000000000E+00 0. -1.
<mgrwt>
<rscale>  0 0.14960231E+04</rscale>
<asrwt>0</asrwt>
<pdfrwt beam="1">  1        2 0.38307386E+00 0.14960231E+04</pdfrwt>
<pdfrwt beam="2">  1       -2 0.34570639E-01 0.14960231E+04</pdfrwt>
<totfact> 0.26819582E+01</totfact>
</mgrwt>
</event>
<event>
 6    1  0.9512547E-007  0.1155281E+04  0.7818608E-02  0.9152926E-01
         -2   -1    0    0    0  501 -0.00000000000E+00  0.00000000000E+00  0.37081363479E+03  0.37081363479E+03  0.00000000000E+00 0.  1.
          2   -1    0    0  501    0  0.00000000000E+00 -0.00000000000E+00 -0.89982773766E+03  0.89982773766E+03  0.00000000000E+00 0. -1.
         23    2    1    2    0    0  0.13365893626E+03 -0.95497731925E+02  0.33868391752E+03  0.38753074368E+03  0.92134430421E+02 0.  0.
         13    1    3    3    0    0 -0.58534416022E+01 -0.29574251874E+02  0.89486338974E+02  0.94428300925E+02  0.00000000000E+00 0.  1.
        -13    1    3    3    0    0  0.13951237786E+03 -0.65923480051E+02  0.24919757855E+03  0.29310244276E+03  0.00000000000E+00 0. -1.
         22    1    1    2    0    0 -0.13365893626E+03  0.95497731925E+02 -0.86769802040E+03  0.88311062877E+03  0.00000000000E+00 0. -1.
<mgrwt>
<rscale>  0 0.11552807E+04</rscale>
<asrwt>0</asrwt>
<pdfrwt beam="1">  1        2 0.13843503E+00 0.11552807E+04</pdfrwt>
<pdfrwt beam="2">  1       -2 0.57048252E-01 0.11552807E+04</pdfrwt>
<totfact> 0.83607233E+01</totfact>
</mgrwt>
</event>
<event>
 6    1  0.9512547E-007  0.2299389E+04  0.7818608E-02  0.8478162E-01
         -2   -1    0    0    0  501 -0.00000000000E+00  0.00000000000E+00  0.95733378580E+03  0.95733378580E+03  0.00000000000E+00 0.  1.
          2   -1    0    0  501    0  0.00000000000E+00 -0.00000000000E+00 -0.13807064774E+04  0.13807064774E+04  0.00000000000E+00 0. -1.
         23    2    1    2    0    0 -0.54947904297E+03 -0.93598817915E+03 -0.59183640596E+03  0.12396864435E+04  0.92471923867E+02 0.  0.
         13    1    3    3    0    0 -0.20396262333E+03 -0.43084063939E+03 -0.27957936007E+03  0.55262014697E+03  0.00000000000E+00 0.  1.
        -13    1    3    3    0    0 -0.34551641964E+03 -0.50514753976E+03 -0.31225704589E+03  0.68706629656E+03  0.00000000000E+00 0. -1.
         22    1    1    2    0    0  0.54947904297E+03  0.93598817915E+03  0.16846371433E+03  0.10983538197E+04  0.00000000000E+00 0.  1.
<mgrwt>
<rscale>  0 0.22993886E+04</rscale>
<asrwt>0</asrwt>
<pdfrwt beam="1">  1        2 0.21241638E+00 0.22993886E+04</pdfrwt>
<pdfrwt beam="2">  1       -2 0.14728212E+00 0.22993886E+04</pdfrwt>
<totfact> 0.42331198E+00</totfact>
</mgrwt>
</event>
<event>
 6    1  0.9512547E-007  0.3323070E+04  0.7818608E-02  0.8157050E-01
          1   -1    0    0  501    0  0.00000000000E+00  0.00000000000E+00  0.31424499081E+04  0.31424499081E+04  0.00000000000E+00 0. -1.
         -1   -1    0    0    0  501 -0.00000000000E+00 -0.00000000000E+00 -0.87851793124E+03  0.87851793124E+03  0.00000000000E+00 0.  1.
         23    2    1    2    0    0  0.51063947639E+03 -0.12177765297E+04 -0.84781629404E+02  0.13264942441E+04  0.93095133323E+02 0.  0.
         13    1    3    3    0    0  0.21662997609E+03 -0.42664145242E+03 -0.58867641998E+02  0.48209633347E+03  0.00000000000E+00 0. -1.
        -13    1    3    3    0    0  0.29400950030E+03 -0.79113507728E+03 -0.25913987406E+02  0.84439791065E+03  0.00000000000E+00 0.  1.
         22    1    1    2    0    0 -0.51063947639E+03  0.12177765297E+04  0.23487136063E+04  0.26944735953E+04  0.00000000000E+00 0. -1.
<mgrwt>
<rscale>  0 0.33230700E+04</rscale>
<asrwt>0</asrwt>
<pdfrwt beam="1">  1        1 0.48345383E+00 0.33230700E+04</pdfrwt>
<pdfrwt beam="2">  1       -1 0.13515661E+00 0.33230700E+04</pdfrwt>
<totfact> 0.17830817E-01</totfact>
</mgrwt>
</event>
<event>
 6    1  0.9512547E-007  0.2463554E+04  0.7818608E-02  0.8416086E-01
         -2   -1    0    0    0  501 -0.00000000000E+00  0.00000000000E+00  0.14765168990E+04  0.14765168990E+04  0.00000000000E+00 0.  1.
          2   -1    0    0  501    0  0.00000000000E+00 -0.00000000000E+00 -0.10276039320E+04  0.10276039320E+04  0.00000000000E+00 0. -1.
         23    2    1    2    0    0  0.16269991645E+02 -0.11592031474E+04 -0.19332665610E+03  0.11787950661E+04  0.90365715113E+02 0.  0.
         11    1    3    3    0    0  0.48531448723E+02 -0.40732961262E+03 -0.62582691394E+02  0.41495699548E+03  0.00000000000E+00 0.  1.
        -11    1    3    3    0    0 -0.32261457078E+02 -0.75187353474E+03 -0.13074396470E+03  0.76383807064E+03  0.00000000000E+00 0. -1.
         22    1    1    2    0    0 -0.16269991645E+02  0.11592031474E+04  0.64223962317E+03  0.13253257649E+04  0.00000000000E+00 0.  1.
<mgrwt>
<rscale>  0 0.24635540E+04</rscale>
<asrwt>0</asrwt>
<pdfrwt beam="1">  1        2 0.15809291E+00 0.24635540E+04</pdfrwt>
<pdfrwt beam="2">  1       -2 0.22715645E+00 0.24635540E+04</pdfrwt>
<totfact> 0.19269367E+00</totfact>
</mgrwt>
</event>
<event>
 6    1  0.9512547E-007  0.5579090E+04  0.7818608E-02  0.7744899E-01
          2   -1    0    0  501    0  0.00000000000E+00  0.00000000000E+00  0.29433891265E+04  0.29433891265E+04  0.00000000000E+00 0. -1.
         -2   -1    0    0    0  501 -0.00000000000E+00 -0.00000000000E+00 -0.26437421685E+04  0.26437421685E+04  0.00000000000E+00 0.  1.
         23    2    1    2    0    0  0.51417543879E+03  0.13517096695E+04  0.25378157732E+04  0.29223808268E+04  0.91133886304E+02 0.  0.
         11    1    3    3    0    0  0.37698152041E+03  0.10935807425E+04  0.20211041671E+04  0.23287112232E+04  0.00000000000E+00 0. -1.
        -11    1    3    3    0    0  0.13719391838E+03  0.25812892706E+03  0.51671160617E+03  0.59366960355E+03  0.00000000000E+00 0.  1.
         22    1    1    2    0    0 -0.51417543879E+03 -0.13517096695E+04 -0.22381688153E+04  0.26647504683E+04  0.00000000000E+00 0.  1.
<mgrwt>
<rscale>  0 0.55790902E+04</rscale>
<asrwt>0</asrwt>
<pdfrwt beam="1">  1        2 0.45282909E+00 0.55790902E+04</pdfrwt>
<pdfrwt beam="2">  1       -2 0.40672957E+00 0.55790902E+04</pdfrwt>
<totfact> 0.88164725E-03</totfact>
</mgrwt>
</event>
<event>
 6    1  0.9512547E-007  0.3843377E+04  0.7818608E-02  0.8036910E-01
          1   -1    0    0  501    0  0.00000000000E+00  0.00000000000E+00  0.27335091889E+04  0.27335091889E+04  0.00000000000E+00 0. -1.
         -1   -1    0    0    0  501 -0.00000000000E+00 -0.00000000000E+00 -0.13509688416E+04  0.13509688416E+04  0.00000000000E+00 0.  1.
         23    2    1    2    0    0  0.13813018670E+04 -0.58412577568E+02 -0.72550900551E+03  0.15635101705E+04  0.82424869151E+02 0.  0.
         11    1    3    3    0    0  0.86890500847E+03 -0.74697641441E+02 -0.47051818929E+03  0.99094047139E+03  0.00000000000E+00 0.  1.
        -11    1    3    3    0    0  0.51239685856E+03  0.16285063873E+02 -0.25499081622E+03  0.57256969910E+03  0.00000000000E+00 0. -1.
         22    1    1    2    0    0 -0.13813018670E+04  0.58412577568E+02  0.21080493528E+04  0.25209678600E+04  0.00000000000E+00 0. -1.
<mgrwt>
<rscale>  0 0.38433765E+04</rscale>
<asrwt>0</asrwt>
<pdfrwt beam="1">  1        1 0.42053987E+00 0.38433765E+04</pdfrwt>
<pdfrwt beam="2">  1       -1 0.20784136E+00 0.38433765E+04</pdfrwt>
<totfact> 0.97943530E-02</totfact>
</mgrwt>
</event>
<event>
 6    1  0.9512547E-007  0.1767915E+04  0.7818608E-02  0.8723550E-01
          1   -1    0    0  501    0  0.00000000000E+00  0.00000000000E+00  0.17974752162E+04  0.17974752162E+04  0.00000000000E+00 0. -1.
         -1   -1    0    0    0  501 -0.00000000000E+00 -0.00000000000E+00 -0.43471038926E+03  0.43471038926E+03  0.00000000000E+00 0.  1.
         23    2    1    2    0    0  0.16920914203E+03 -0.39054037098E+03 -0.29175204003E+03  0.52380052644E+03  0.89967902741E+02 0.  0.
         13    1    3    3    0    0  0.70182744282E+02 -0.10778663082E+03 -0.46993001353E+02  0.13693764112E+03  0.00000000000E+00 0.  1.
        -13    1    3    3    0    0  0.99026397751E+02 -0.28275374016E+03 -0.24475903868E+03  0.38686288533E+03  0.00000000000E+00 0. -1.
         22    1    1    2    0    0 -0.16920914203E+03  0.39054037098E+03  0.16545168669E+04  0.17083850790E+04  0.00000000000E+00 0. -1.
<mgrwt>
<rscale>  0 0.17679153E+04</rscale>
<asrwt>0</asrwt>
<pdfrwt beam="1">  1        1 0.27653464E+00 0.17679153E+04</pdfrwt>
<pdfrwt beam="2">  1       -1 0.66878522E-01 0.17679153E+04</pdfrwt>
<totfact> 0.87656413E+00</totfact>
</mgrwt>
</event>
<event>
 6    1  0.9512547E-007  0.5938207E+04  0.7818608E-02  0.7698111E-01
         -2   -1    0    0    0  501 -0.00000000000E+00  0.00000000000E+00  0.20988466434E+04  0.20988466434E+04  0.00000000000E+00 0.  1.
          2   -1    0    0  501    0  0.00000000000E+00 -0.00000000000E+00 -0.42001994987E+04  0.42001994987E+04  0.00000000000E+00 0. -1.
         23    2    1    2    0    0  0.14040067926E+04  0.24803748771E+04 -0.17105839977E+03  0.28567313265E+04  0.90323256283E+02 0.  0.
         11    1    3    3    0    0  0.11607220782E+04  0.21159589169E+04 -0.13999576172E+03  0.24174690679E+04  0.00000000000E+00 0. -1.
        -11    1    3    3    0    0  0.24328471434E+03  0.36441596026E+03 -0.31062638052E+02  0.43926225858E+03  0.00000000000E+00 0.  1.
         22    1    1    2    0    0 -0.14040067926E+04 -0.24803748771E+04 -0.19302944555E+04  0.34423148156E+04  0.00000000000E+00 0. -1.
<mgrwt>
<rscale>  0 0.59382067E+04</rscale>
<asrwt>0</asrwt>
<pdfrwt beam="1">  1        2 0.64618453E+00 0.59382067E+04</pdfrwt>
<pdfrwt beam="2">  1       -2 0.32289949E+00 0.59382067E+04</pdfrwt>
<totfact> 0.35848660E-03</totfact>
</mgrwt>
</event>
<event>
 6    1  0.9512547E-007  0.2266205E+04  0.7818608E-02  0.8491367E-01
          2   -1    0    0  501    0  0.00000000000E+00  0.00000000000E+00  0.99784057271E+03  0.99784057271E+03  0.00000000000E+00 0. -1.
         -2   -1    0    0    0  501 -0.00000000000E+00 -0.00000000000E+00 -0.12866994678E+04  0.12866994678E+04  0.00000000000E+00 0.  1.
         23    2    1    2    0    0  0.35858609769E+03  0.95323178217E+03 -0.64125695354E+03  0.12068484281E+04  0.89653933783E+02 0.  0.
         11    1    3    3    0    0  0.19390669291E+03  0.44527524187E+03 -0.26143901777E+03  0.55156160725E+03  0.00000000000E+00 0.  1.
        -11    1    3    3    0    0  0.16467940477E+03  0.50795654030E+03 -0.37981793576E+03  0.65528682080E+03  0.00000000000E+00 0. -1.
         22    1    1    2    0    0 -0.35858609769E+03 -0.95323178217E+03  0.35239805844E+03  0.10776916125E+04  0.00000000000E+00 0. -1.
<mgrwt>
<rscale>  0 0.22662047E+04</rscale>
<asrwt>0</asrwt>
<pdfrwt beam="1">  1        2 0.15351393E+00 0.22662047E+04</pdfrwt>
<pdfrwt beam="2">  1       -2 0.19795377E+00 0.22662047E+04</pdfrwt>
<totfact> 0.31509579E+00</totfact>
</mgrwt>
</event>
<event>
 6    1  0.9512547E-007  0.3931581E+04  0.7818608E-02  0.8018493E-01
          2   -1    0    0  501    0  0.00000000000E+00  0.00000000000E+00  0.24489858086E+04  0.24489858086E+04  0.00000000000E+00 0. -1.
         -2   -1    0    0    0  501 -0.00000000000E+00 -0.00000000000E+00 -0.15779319798E+04  0.15779319798E+04  0.00000000000E+00 0.  1.
         23    2    1    2    0    0 -0.79089680156E+03 -0.14803853804E+04  0.14818321138E+04  0.22408302377E+04  0.91842885204E+02 0.  0.
         11    1    3    3    0    0 -0.23533124740E+02 -0.60480412312E+02  0.37566357175E+02  0.74986128216E+02  0.00000000000E+00 0. -1.
        -11    1    3    3    0    0 -0.76736367682E+03 -0.14199049680E+04  0.14442657566E+04  0.21658441095E+04  0.00000000000E+00 0.  1.
         22    1    1    2    0    0  0.79089680156E+03  0.14803853804E+04 -0.61077828500E+03  0.17860875506E+04  0.00000000000E+00 0.  1.
<mgrwt>
<rscale>  0 0.39315814E+04</rscale>
<asrwt>0</asrwt>
<pdfrwt beam="1">  1        2 0.37676705E+00 0.39315814E+04</pdfrwt>
<pdfrwt beam="2">  1       -2 0.24275877E+00 0.39315814E+04</pdfrwt>
<totfact> 0.21049545E-01</totfact>
</mgrwt>
</event>
<event>
 6    1  0.9512547E-007  0.1254348E+04  0.7818608E-02  0.9066572E-01
         -2   -1    0    0    0  501 -0.00000000000E+00  0.00000000000E+00  0.11957241931E+03  0.11957241931E+03  0.00000000000E+00 0.  1.
          2   -1    0    0  501    0  0.00000000000E+00 -0.00000000000E+00 -0.32896173023E+04  0.32896173023E+04  0.00000000000E+00 0. -1.
         23    2    1    2    0    0  0.58886707980E+03 -0.20443173609E+03 -0.15568370304E+04  0.16797399976E+04  0.96063248771E+02 0.  0.
         11    1    3    3    0    0  0.33370431574E+03 -0.78713534274E+02 -0.76356354851E+03  0.83700877142E+03  0.00000000000E+00 0.  1.
        -11    1    3    3    0    0  0.25516276406E+03 -0.12571820182E+03 -0.79327348189E+03  0.84273122613E+03  0.00000000000E+00 0. -1.
         22    1    1    2    0    0 -0.58886707980E+03  0.20443173609E+03 -0.16132078525E+04  0.17294497240E+04  0.00000000000E+00 0.  1.
<mgrwt>
<rscale>  0 0.12543484E+04</rscale>
<asrwt>0</asrwt>
<pdfrwt beam="1">  1        2 0.50609496E+00 0.12543484E+04</pdfrwt>
<pdfrwt beam="2">  1       -2 0.18395757E-01 0.12543484E+04</pdfrwt>
<totfact> 0.28037521E+01</totfact>
</mgrwt>
</event>
<event>
 6    1  0.9512547E-007  0.3408602E+04  0.7818608E-02  0.8135798E-01
          1   -1    0    0  501    0  0.00000000000E+00  0.00000000000E+00  0.20084410915E+04  0.20084410915E+04  0.00000000000E+00 0. -1.
         -1   -1    0    0    0  501 -0.00000000000E+00 -0.00000000000E+00 -0.14462172468E+04  0.14462172468E+04  0.00000000000E+00 0.  1.
         23    2    1    2    0    0 -0.15447066924E+04  0.71401951155E+03  0.21361736577E+03  0.17175719543E+04  0.92078288014E+02 0.  0.
         11    1    3    3    0    0 -0.14140043484E+04  0.67438118309E+03  0.17984301849E+03  0.15768772269E+04  0.00000000000E+00 0.  1.
        -11    1    3    3    0    0 -0.13070234400E+03  0.39638328457E+02  0.33774347280E+02  0.14069472749E+03  0.00000000000E+00 0. -1.
         22    1    1    2    0    0  0.15447066924E+04 -0.71401951155E+03  0.34860647886E+03  0.17370863840E+04  0.00000000000E+00 0.  1.
<mgrwt>
<rscale>  0 0.34086021E+04</rscale>
<asrwt>0</asrwt>
<pdfrwt beam="1">  1        1 0.30899094E+00 0.34086021E+04</pdfrwt>
<pdfrwt beam="2">  1       -1 0.22249496E+00 0.34086021E+04</pdfrwt>
<totfact> 0.25605538E-01</totfact>
</mgrwt>
</event>
<event>
 6    1  0.9512547E-007  0.2244561E+04  0.7818608E-02  0.8500106E-01
         -1   -1    0    0    0  501 -0.00000000000E+00  0.00000000000E+00  0.41205543739E+03  0.41205543739E+03  0.00000000000E+00 0.  1.
          1   -1    0    0  501    0  0.00000000000E+00 -0.00000000000E+00 -0.30566616828E+04  0.30566616828E+04  0.00000000000E+00 0. -1.
         23    2    1    2    0    0  0.82647179089E+03  0.53074749022E+03 -0.49163486164E+03  0.11022779600E+04  0.92538340417E+02 0.  0.
         11    1    3    3    0    0  0.72837570812E+02  0.17958330362E+02 -0.37614894739E+02  0.83920758204E+02  0.00000000000E+00 0. -1.
        -11    1    3    3    0    0  0.75363422007E+03  0.51278915986E+03 -0.45401996690E+03  0.10183572018E+04  0.00000000000E+00 0.  1.
         22    1    1    2    0    0 -0.82647179089E+03 -0.53074749022E+03 -0.21529713838E+04  0.23664391602E+04  0.00000000000E+00 0.  1.
<mgrwt>
<rscale>  0 0.22445615E+04</rscale>
<asrwt>0</asrwt>
<pdfrwt beam="1">  1        1 0.47025564E+00 0.22445615E+04</pdfrwt>
<pdfrwt beam="2">  1       -1 0.63393144E-01 0.22445615E+04</pdfrwt>
<totfact> 0.12462244E+00</totfact>
</mgrwt>
</event>
<event>
 6    1  0.1539005E-006  0.3882070E+04  0.7818608E-02  0.8028769E-01
          2   -1    0    0  501    0  0.00000000000E+00  0.00000000000E+00  0.23351651281E+04  0.23351651281E+04  0.00000000000E+00 0. -1.
         -2   -1    0    0    0  501 -0.00000000000E+00 -0.00000000000E+00 -0.16134263242E+04  0.16134263242E+04  0.00000000000E+00 0.  1.
         23    2    1    2    0    0  0.61405143504E+03  0.30630855703E+03 -0.14850335592E+04  0.16375898601E+04  0.74106550852E+02 0.  0.
         11    1    3    3    0    0  0.29858428182E+03  0.11515984184E+03 -0.74052662457E+03  0.80671806985E+03  0.00000000000E+00 0.  1.
        -11    1    3    3    0    0  0.31546715322E+03  0.19114871519E+03 -0.74450693462E+03  0.83087179021E+03  0.00000000000E+00 0. -1.
         22    1    1    2    0    0 -0.61405143504E+03 -0.30630855703E+03  0.22067723631E+04  0.23110015923E+04  0.00000000000E+00 0. -1.
<mgrwt>
<rscale>  0 0.38820700E+04</rscale>
<asrwt>0</asrwt>
<pdfrwt beam="1">  1        2 0.35925617E+00 0.38820700E+04</pdfrwt>
<pdfrwt beam="2">  1       -2 0.24821944E+00 0.38820700E+04</pdfrwt>
<totfact> 0.22727128E-01</totfact>
</mgrwt>
</event>
<event>
 6    1  0.9512547E-007  0.4215655E+04  0.7818608E-02  0.7962401E-01
         -2   -1    0    0    0  501 -0.00000000000E+00  0.00000000000E+00  0.29685507267E+04  0.29685507267E+04  0.00000000000E+00 0.  1.
          2   -1    0    0  501    0  0.00000000000E+00 -0.00000000000E+00 -0.14966685749E+04  0.14966685749E+04  0.00000000000E+00 0. -1.
         23    2    1    2    0    0 -0.65840055466E+03 -0.14894437064E+03 -0.13781100187E+04  0.15363746339E+04  0.74726675982E+02 0.  0.
         11    1    3    3    0    0 -0.43348860137E+03 -0.84969266553E+02 -0.97396362702E+03  0.10694565398E+04  0.00000000000E+00 0. -1.
        -11    1    3    3    0    0 -0.22491195329E+03 -0.63975104085E+02 -0.40414639164E+03  0.46691809405E+03  0.00000000000E+00 0.  1.
         22    1    1    2    0    0  0.65840055466E+03  0.14894437064E+03  0.28499921704E+04  0.29288446677E+04  0.00000000000E+00 0.  1.
<mgrwt>
<rscale>  0 0.42156549E+04</rscale>
<asrwt>0</asrwt>
<pdfrwt beam="1">  1        2 0.23025670E+00 0.42156549E+04</pdfrwt>
<pdfrwt beam="2">  1       -2 0.45670011E+00 0.42156549E+04</pdfrwt>
<totfact> 0.31006056E-02</totfact>
</mgrwt>
</event>
<event>
 6    1  0.9512547E-007  0.1549958E+04  0.7818608E-02  0.8851895E-01
          1   -1    0    0  501    0  0.00000000000E+00  0.00000000000E+00  0.14969698514E+04  0.14969698514E+04  0.00000000000E+00 0. -1.
         -1   -1    0    0    0  501 -0.00000000000E+00 -0.00000000000E+00 -0.40120528010E+03  0.40120528010E+03  0.00000000000E+00 0.  1.
         23    2    1    2    0    0  0.55048041837E+03  0.22186292275E+03 -0.55948863621E+02  0.60253024047E+03  0.87524669891E+02 0.  0.
         13    1    3    3    0    0  0.22802503554E+03  0.11998577988E+03  0.10572592506E+02  0.25788327576E+03  0.00000000000E+00 0. -1.
        -13    1    3    3    0    0  0.32245538283E+03  0.10187714287E+03 -0.66521456127E+02  0.34464696471E+03  0.00000000000E+00 0.  1.
         22    1    1    2    0    0 -0.55048041837E+03 -0.22186292275E+03  0.11517134349E+04  0.12956448910E+04  0.00000000000E+00 0. -1.
<mgrwt>
<rscale>  0 0.15499577E+04</rscale>
<asrwt>0</asrwt>
<pdfrwt beam="1">  1        1 0.23030305E+00 0.15499577E+04</pdfrwt>
<pdfrwt beam="2">  1       -1 0.61723890E-01 0.15499577E+04</pdfrwt>
<totfact> 0.16859409E+01</totfact>
</mgrwt>
</event>
<event>
 6    1  0.9512547E-007  0.2116492E+04  0.7818608E-02  0.8554013E-01
          1   -1    0    0  501    0  0.00000000000E+00  0.00000000000E+00  0.13488957669E+04  0.13488957669E+04  0.00000000000E+00 0. -1.
         -1   -1    0    0    0  501 -0.00000000000E+00 -0.00000000000E+00 -0.83022291209E+03  0.83022291209E+03  0.00000000000E+00 0.  1.
         23    2    1    2    0    0  0.43281208843E+03  0.95342092878E+03  0.11635388245E+03  0.10574242790E+04  0.90940137584E+02 0.  0.
         11    1    3    3    0    0  0.36992462621E+03  0.82178369820E+03  0.13151167654E+03  0.91075133641E+03  0.00000000000E+00 0.  1.
        -11    1    3    3    0    0  0.62887462227E+02  0.13163723059E+03 -0.15157794095E+02  0.14667294264E+03  0.00000000000E+00 0. -1.
         22    1    1    2    0    0 -0.43281208843E+03 -0.95342092878E+03  0.40231897238E+03  0.11216943999E+04  0.00000000000E+00 0. -1.
<mgrwt>
<rscale>  0 0.21164916E+04</rscale>
<asrwt>0</asrwt>
<pdfrwt beam="1">  1        1 0.20752243E+00 0.21164916E+04</pdfrwt>
<pdfrwt beam="2">  1       -1 0.12772660E+00 0.21164916E+04</pdfrwt>
<totfact> 0.40653130E+00</totfact>
</mgrwt>
</event>
<event>
 6    1  0.9512547E-007  0.3046957E+04  0.7818608E-02  0.8230448E-01
         -2   -1    0    0    0  501 -0.00000000000E+00  0.00000000000E+00  0.13928205049E+04  0.13928205049E+04  0.00000000000E+00 0.  1.
          2   -1    0    0  501    0  0.00000000000E+00 -0.00000000000E+00 -0.16663934296E+04  0.16663934296E+04  0.00000000000E+00 0. -1.
         23    2    1    2    0    0  0.61386966356E+03 -0.28571599973E+03 -0.15055761181E+04  0.16534040381E+04  0.92281470131E+02 0.  0.
         11    1    3    3    0    0  0.38291742966E+03 -0.17166319127E+03 -0.10371955659E+04  0.11188693628E+04  0.00000000000E+00 0. -1.
        -11    1    3    3    0    0  0.23095223389E+03 -0.11405280846E+03 -0.46838055216E+03  0.53453467530E+03  0.00000000000E+00 0.  1.
         22    1    1    2    0    0 -0.61386966356E+03  0.28571599973E+03  0.12320031933E+04  0.14058098963E+04  0.00000000000E+00 0.  1.
<mgrwt>
<rscale>  0 0.30469571E+04</rscale>
<asrwt>0</asrwt>
<pdfrwt beam="1">  1        2 0.25636822E+00 0.30469571E+04</pdfrwt>
<pdfrwt beam="2">  1       -2 0.21428008E+00 0.30469571E+04</pdfrwt>
<totfact> 0.93853559E-01</totfact>
</mgrwt>
</event>
<event>
 6    1  0.9512547E-007  0.1139171E+04  0.7818608E-02  0.9167832E-01
          2   -1    0    0  501    0  0.00000000000E+00  0.00000000000E+00  0.20306919079E+04  0.20306919079E+04  0.00000000000E+00 0. -1.
         -2   -1    0    0    0  501 -0.00000000000E+00 -0.00000000000E+00 -0.15976222901E+03  0.15976222901E+03  0.00000000000E+00 0.  1.
         23    2    1    2    0    0 -0.35753115536E+03 -0.22594506158E+03  0.16644366128E+04  0.17197959974E+04  0.92029000048E+02 0.  0.
         11    1    3    3    0    0 -0.29674808988E+03 -0.22382222697E+03  0.14063012862E+04  0.14545924260E+04  0.00000000000E+00 0.  1.
        -11    1    3    3    0    0 -0.60783065486E+02 -0.21228346175E+01  0.25813532658E+03  0.26520357144E+03  0.00000000000E+00 0. -1.
         22    1    1    2    0    0  0.35753115536E+03  0.22594506158E+03  0.20649306609E+03  0.47065813948E+03  0.00000000000E+00 0. -1.
<mgrwt>
<rscale>  0 0.11391714E+04</rscale>
<asrwt>0</asrwt>
<pdfrwt beam="1">  1        2 0.31241412E+00 0.11391714E+04</pdfrwt>
<pdfrwt beam="2">  1       -2 0.24578806E-01 0.11391714E+04</pdfrwt>
<totfact> 0.94329059E+01</totfact>
</mgrwt>
</event>
<event>
 6    1  0.9512547E-007  0.2575289E+04  0.7818608E-02  0.8376644E-01
         -2   -1    0    0    0  501 -0.00000000000E+00  0.00000000000E+00  0.15754675163E+04  0.15754675163E+04  0.00000000000E+00 0.  1.
          2   -1    0    0  501    0  0.00000000000E+00 -0.00000000000E+00 -0.10524037107E+04  0.10524037107E+04  0.00000000000E+00 0. -1.
         23    2    1    2    0    0 -0.17206198476E+03 -0.22530726649E+03 -0.10181462911E+04  0.10608047788E+04  0.91193298467E+02 0.  0.
         11    1    3    3    0    0 -0.26969591401E+02 -0.24592908326E+02 -0.27650030715E+03  0.27889888823E+03  0.00000000000E+00 0. -1.
        -11    1    3    3    0    0 -0.14509239336E+03 -0.20071435816E+03 -0.74164598391E+03  0.78190589053E+03  0.00000000000E+00 0.  1.
         22    1    1    2    0    0  0.17206198476E+03  0.22530726649E+03  0.15412100967E+04  0.15670664482E+04  0.00000000000E+00 0.  1.
<mgrwt>
<rscale>  0 0.25752886E+04</rscale>
<asrwt>0</asrwt>
<pdfrwt beam="1">  1        2 0.16190826E+00 0.25752886E+04</pdfrwt>
<pdfrwt beam="2">  1       -2 0.24237962E+00 0.25752886E+04</pdfrwt>
<totfact> 0.14803859E+00</totfact>
</mgrwt>
</event>
<event>
 6    1  0.9512547E-007  0.2010928E+04  0.7818608E-02  0.8601528E-01
         -1   -1    0    0    0  501 -0.00000000000E+00  0.00000000000E+00  0.57165957329E+03  0.57165957329E+03  0.00000000000E+00 0.  1.
          1   -1    0    0  501    0  0.00000000000E+00 -0.00000000000E+00 -0.17684615814E+04  0.17684615814E+04  0.00000000000E+00 0. -1.
         23    2    1    2    0    0 -0.37231348713E+02  0.81212223178E+03 -0.12838389332E+04  0.15225001428E+04  0.93997797048E+02 0.  0.
         11    1    3    3    0    0  0.18941033431E+02  0.54483628965E+03 -0.84398651472E+03  0.10047480193E+04  0.00000000000E+00 0. -1.
        -11    1    3    3    0    0 -0.56172382144E+02  0.26728594213E+03 -0.43985241849E+03  0.51775212353E+03  0.00000000000E+00 0.  1.
         22    1    1    2    0    0  0.37231348713E+02 -0.81212223178E+03  0.87036925093E+02  0.81762101184E+03  0.00000000000E+00 0.  1.
<mgrwt>
<rscale>  0 0.20109281E+04</rscale>
<asrwt>0</asrwt>
<pdfrwt beam="1">  1        1 0.27207101E+00 0.20109281E+04</pdfrwt>
<pdfrwt beam="2">  1       -1 0.87947627E-01 0.20109281E+04</pdfrwt>
<totfact> 0.50410466E+00</totfact>
</mgrwt>
</event>
<event>
 6    1  0.9512547E-007  0.4214902E+04  0.7818608E-02  0.7962544E-01
         -2   -1    0    0    0  501 -0.00000000000E+00  0.00000000000E+00  0.13101723927E+04  0.13101723927E+04  0.00000000000E+00 0.  1.
          2   -1    0    0  501    0  0.00000000000E+00 -0.00000000000E+00 -0.33898964889E+04  0.33898964889E+04  0.00000000000E+00 0. -1.
         23    2    1    2    0    0 -0.31238405096E+03  0.14263179856E+04 -0.27333947312E+04  0.31003026204E+04  0.91993425144E+02 0.  0.
         13    1    3    3    0    0 -0.15131712534E+03  0.83678248675E+03 -0.16597270519E+04  0.18648848998E+04  0.00000000000E+00 0.  1.
        -13    1    3    3    0    0 -0.16106692562E+03  0.58953549886E+03 -0.10736676793E+04  0.12354177207E+04  0.00000000000E+00 0. -1.
         22    1    1    2    0    0  0.31238405096E+03 -0.14263179856E+04  0.65367063495E+03  0.15997662612E+04  0.00000000000E+00 0.  1.
<mgrwt>
<rscale>  0 0.42149016E+04</rscale>
<asrwt>0</asrwt>
<pdfrwt beam="1">  1        2 0.52152252E+00 0.42149016E+04</pdfrwt>
<pdfrwt beam="2">  1       -2 0.20156499E+00 0.42149016E+04</pdfrwt>
<totfact> 0.97407230E-02</totfact>
</mgrwt>
</event>
<event>
 6    1  0.9512547E-007  0.1832975E+04  0.7818608E-02  0.8688958E-01
          4   -1    0    0  501    0  0.00000000000E+00  0.00000000000E+00  0.41002246242E+03  0.41002246242E+03  0.00000000000E+00 0. -1.
         -4   -1    0    0    0  501 -0.00000000000E+00 -0.00000000000E+00 -0.20485438385E+04  0.20485438385E+04  0.00000000000E+00 0.  1.
         23    2    1    2    0    0 -0.31623968598E+03  0.85747235066E+03 -0.85581779504E+03  0.12552827654E+04  0.89690309366E+02 0.  0.
         11    1    3    3    0    0 -0.21564474658E+03  0.68774610842E+03 -0.65948140742E+03  0.97694068044E+03  0.00000000000E+00 0. -1.
        -11    1    3    3    0    0 -0.10059493939E+03  0.16972624224E+03 -0.19633638763E+03  0.27834208493E+03  0.00000000000E+00 0.  1.
         22    1    1    2    0    0  0.31623968598E+03 -0.85747235066E+03 -0.78270358104E+03  0.12032835355E+04  0.00000000000E+00 0. -1.
<mgrwt>
<rscale>  0 0.18329746E+04</rscale>
<asrwt>0</asrwt>
<pdfrwt beam="1">  1        4 0.63080379E-01 0.18329746E+04</pdfrwt>
<pdfrwt beam="2">  1       -4 0.31516059E+00 0.18329746E+04</pdfrwt>
<totfact> 0.11034652E-01</totfact>
</mgrwt>
</event>
<event>
 6    1  0.9512547E-007  0.5164033E+03  0.7818608E-02  0.1009584E+00
          2   -1    0    0  501    0  0.00000000000E+00  0.00000000000E+00  0.67470618832E+03  0.67470618832E+03  0.00000000000E+00 0. -1.
         -2   -1    0    0    0  501 -0.00000000000E+00 -0.00000000000E+00 -0.98810556725E+02  0.98810556725E+02  0.00000000000E+00 0.  1.
         23    2    1    2    0    0  0.10778773348E+03 -0.21217110253E+03  0.41555325819E+03  0.48655952010E+03  0.86144552742E+02 0.  0.
         13    1    3    3    0    0  0.80348259301E+02 -0.72764856733E+02  0.21495679029E+03  0.24074257796E+03  0.00000000000E+00 0. -1.
        -13    1    3    3    0    0  0.27439474180E+02 -0.13940624580E+03  0.20059646790E+03  0.24581694215E+03  0.00000000000E+00 0.  1.
         22    1    1    2    0    0 -0.10778773348E+03  0.21217110253E+03  0.16034237341E+03  0.28695722495E+03  0.00000000000E+00 0. -1.
<mgrwt>
<rscale>  0 0.51640331E+03</rscale>
<asrwt>0</asrwt>
<pdfrwt beam="1">  1        2 0.10380095E+00 0.51640331E+03</pdfrwt>
<pdfrwt beam="2">  1       -2 0.15201625E-01 0.51640331E+03</pdfrwt>
<totfact> 0.14722436E+03</totfact>
</mgrwt>
</event>
<event>
 6    1  0.9512547E-007  0.2257417E+04  0.7818608E-02  0.8494903E-01
          2   -1    0    0  501    0  0.00000000000E+00  0.00000000000E+00  0.96751899329E+03  0.96751899329E+03  0.00000000000E+00 0. -1.
         -2   -1    0    0    0  501 -0.00000000000E+00 -0.00000000000E+00 -0.13167520823E+04  0.13167520823E+04  0.00000000000E+00 0.  1.
         23    2    1    2    0    0 -0.81890598846E+03  0.68193233643E+03  0.19591869914E+03  0.10872626372E+04  0.90095372585E+02 0.  0.
         13    1    3    3    0    0 -0.10510420444E+03  0.51161028209E+02  0.20632028378E+02  0.11870141193E+03  0.00000000000E+00 0.  1.
        -13    1    3    3    0    0 -0.71380178402E+03  0.63077130822E+03  0.17528667076E+03  0.96856122527E+03  0.00000000000E+00 0. -1.
         22    1    1    2    0    0  0.81890598846E+03 -0.68193233643E+03 -0.54515178811E+03  0.11970084383E+04  0.00000000000E+00 0.  1.
<mgrwt>
<rscale>  0 0.22574168E+04</rscale>
<asrwt>0</asrwt>
<pdfrwt beam="1">  1        2 0.14884908E+00 0.22574168E+04</pdfrwt>
<pdfrwt beam="2">  1       -2 0.20257724E+00 0.22574168E+04</pdfrwt>
<totfact> 0.30764095E+00</totfact>
</mgrwt>
</event>
<event>
 6    1  0.9512547E-007  0.1224099E+04  0.7818608E-02  0.9092021E-01
          2   -1    0    0  501    0  0.00000000000E+00  0.00000000000E+00  0.38273830071E+03  0.38273830071E+03  0.00000000000E+00 0. -1.
         -2   -1    0    0    0  501 -0.00000000000E+00 -0.00000000000E+00 -0.97874837349E+03  0.97874837349E+03  0.00000000000E+00 0.  1.
         23    2    1    2    0    0  0.45448573901E+03 -0.27778681316E+03 -0.62722634047E+03  0.82791638276E+03  0.91158401391E+02 0.  0.
         13    1    3    3    0    0  0.29800453758E+03 -0.14606200336E+03 -0.43571725520E+03  0.54771373885E+03  0.00000000000E+00 0. -1.
        -13    1    3    3    0    0  0.15648120143E+03 -0.13172480980E+03 -0.19150908526E+03  0.28020264391E+03  0.00000000000E+00 0.  1.
         22    1    1    2    0    0 -0.45448573901E+03  0.27778681316E+03  0.31216267692E+02  0.53357029143E+03  0.00000000000E+00 0. -1.
<mgrwt>
<rscale>  0 0.12240988E+04</rscale>
<asrwt>0</asrwt>
<pdfrwt beam="1">  1        2 0.58882815E-01 0.12240988E+04</pdfrwt>
<pdfrwt beam="2">  1       -2 0.15057667E+00 0.12240988E+04</pdfrwt>
<totfact> 0.24394042E+01</totfact>
</mgrwt>
</event>
<event>
 6    1  0.9512547E-007  0.2812756E+04  0.7818608E-02  0.8299319E-01
         -1   -1    0    0    0  501 -0.00000000000E+00  0.00000000000E+00  0.95215590741E+03  0.95215590741E+03  0.00000000000E+00 0.  1.
          1   -1    0    0  501    0  0.00000000000E+00 -0.00000000000E+00 -0.20772849424E+04  0.20772849424E+04  0.00000000000E+00 0. -1.
         23    2    1    2    0    0  0.15943501673E+03 -0.13912338388E+04 -0.68682893901E+03  0.15621105895E+04  0.86627846500E+02 0.  0.
         11    1    3    3    0    0  0.11212880339E+03 -0.68096198281E+03 -0.36815559881E+03  0.78218964166E+03  0.00000000000E+00 0.  1.
        -11    1    3    3    0    0  0.47306213340E+02 -0.71027185595E+03 -0.31867334020E+03  0.77992094787E+03  0.00000000000E+00 0. -1.
         22    1    1    2    0    0 -0.15943501673E+03  0.13912338388E+04 -0.43830009601E+03  0.14673302603E+04  0.00000000000E+00 0.  1.
<mgrwt>
<rscale>  0 0.28127560E+04</rscale>
<asrwt>0</asrwt>
<pdfrwt beam="1">  1        1 0.31958230E+00 0.28127560E+04</pdfrwt>
<pdfrwt beam="2">  1       -1 0.14648552E+00 0.28127560E+04</pdfrwt>
<totfact> 0.84902651E-01</totfact>
</mgrwt>
</event>
<event>
 6    1  0.9512547E-007  0.2893623E+04  0.7818608E-02  0.8274777E-01
         -2   -1    0    0    0  501 -0.00000000000E+00  0.00000000000E+00  0.10211229589E+04  0.10211229589E+04  0.00000000000E+00 0.  1.
          2   -1    0    0  501    0  0.00000000000E+00 -0.00000000000E+00 -0.20499628978E+04  0.20499628978E+04  0.00000000000E+00 0. -1.
         23    2    1    2    0    0 -0.38596002991E+03 -0.43670549917E+03 -0.19187182469E+04  0.20073376531E+04  0.90817975420E+02 0.  0.
         11    1    3    3    0    0 -0.27763797753E+03 -0.35089316980E+03 -0.15606935511E+04  0.16235680533E+04  0.00000000000E+00 0. -1.
        -11    1    3    3    0    0 -0.10832205238E+03 -0.85812329368E+02 -0.35802469580E+03  0.38376959977E+03  0.00000000000E+00 0.  1.
         22    1    1    2    0    0  0.38596002991E+03  0.43670549917E+03  0.88987830796E+03  0.10637482036E+04  0.00000000000E+00 0.  1.
<mgrwt>
<rscale>  0 0.28936235E+04</rscale>
<asrwt>0</asrwt>
<pdfrwt beam="1">  1        2 0.31537891E+00 0.28936235E+04</pdfrwt>
<pdfrwt beam="2">  1       -2 0.15709584E+00 0.28936235E+04</pdfrwt>
<totfact> 0.14326448E+00</totfact>
</mgrwt>
</event>
<event>
 6    1  0.9512547E-007  0.2963256E+04  0.7818608E-02  0.8254302E-01
         -2   -1    0    0    0  501 -0.00000000000E+00  0.00000000000E+00  0.19951726365E+04  0.19951726365E+04  0.00000000000E+00 0.  1.
          2   -1    0    0  501    0  0.00000000000E+00 -0.00000000000E+00 -0.11002660897E+04  0.11002660897E+04  0.00000000000E+00 0. -1.
         23    2    1    2    0    0  0.19971147635E+03  0.65911392489E+03  0.18165694630E+04  0.19448830470E+04  0.91266712883E+02 0.  0.
         13    1    3    3    0    0  0.26784667095E+02  0.18193640759E+03  0.40357841055E+03  0.44350175678E+03  0.00000000000E+00 0. -1.
        -13    1    3    3    0    0  0.17292680926E+03  0.47717751729E+03  0.14129910525E+04  0.15013812903E+04  0.00000000000E+00 0.  1.
         22    1    1    2    0    0 -0.19971147635E+03 -0.65911392489E+03 -0.92166291623E+03  0.11505556792E+04  0.00000000000E+00 0. -1.
<mgrwt>
<rscale>  0 0.29632555E+04</rscale>
<asrwt>0</asrwt>
<pdfrwt beam="1">  1        2 0.16927171E+00 0.29632555E+04</pdfrwt>
<pdfrwt beam="2">  1       -2 0.30694964E+00 0.29632555E+04</pdfrwt>
<totfact> 0.53871055E-01</totfact>
</mgrwt>
</event>
<event>
 6    1  0.9512547E-007  0.6712634E+04  0.7818608E-02  0.7607820E-01
          2   -1    0    0  501    0  0.00000000000E+00  0.00000000000E+00  0.30461977666E+04  0.30461977666E+04  0.00000000000E+00 0. -1.
         -2   -1    0    0    0  501 -0.00000000000E+00 -0.00000000000E+00 -0.36980082843E+04  0.36980082843E+04  0.00000000000E+00 0.  1.
         23    2    1    2    0    0 -0.59412187501E+03  0.12948200200E+04 -0.33785014529E+04  0.36677822922E+04  0.93889239872E+02 0.  0.
         13    1    3    3    0    0 -0.23602296905E+03  0.41006531746E+03 -0.11395975410E+04  0.12339136768E+04  0.00000000000E+00 0. -1.
        -13    1    3    3    0    0 -0.35809890596E+03  0.88475470258E+03 -0.22389039119E+04  0.24338686154E+04  0.00000000000E+00 0.  1.
         22    1    1    2    0    0  0.59412187501E+03 -0.12948200200E+04  0.27266909352E+04  0.30764237586E+04  0.00000000000E+00 0. -1.
<mgrwt>
<rscale>  0 0.67126342E+04</rscale>
<asrwt>0</asrwt>
<pdfrwt beam="1">  1        2 0.46864581E+00 0.67126342E+04</pdfrwt>
<pdfrwt beam="2">  1       -2 0.56892435E+00 0.67126342E+04</pdfrwt>
<totfact> 0.73326674E-04</totfact>
</mgrwt>
</event>
<event>
 6    1  0.9512547E-007  0.2922594E+04  0.7818608E-02  0.8266187E-01
          1   -1    0    0  501    0  0.00000000000E+00  0.00000000000E+00  0.15108174575E+04  0.15108174575E+04  0.00000000000E+00 0. -1.
         -1   -1    0    0    0  501 -0.00000000000E+00 -0.00000000000E+00 -0.14133998889E+04  0.14133998889E+04  0.00000000000E+00 0.  1.
         23    2    1    2    0    0 -0.85630886021E+03 -0.11566474251E+04  0.29458329143E+03  0.14716429241E+04  0.88630978625E+02 0.  0.
         13    1    3    3    0    0 -0.42318300109E+03 -0.55367982805E+03  0.98771848493E+02  0.70384734314E+03  0.00000000000E+00 0. -1.
        -13    1    3    3    0    0 -0.43312585912E+03 -0.60296759701E+03  0.19581144294E+03  0.76779558091E+03  0.00000000000E+00 0.  1.
         22    1    1    2    0    0  0.85630886021E+03  0.11566474251E+04 -0.19716572285E+03  0.14525744223E+04  0.00000000000E+00 0.  1.
<mgrwt>
<rscale>  0 0.29225942E+04</rscale>
<asrwt>0</asrwt>
<pdfrwt beam="1">  1        1 0.23243346E+00 0.29225942E+04</pdfrwt>
<pdfrwt beam="2">  1       -1 0.21744614E+00 0.29225942E+04</pdfrwt>
<totfact> 0.63063707E-01</totfact>
</mgrwt>
</event>
<event>
 6    1  0.9512547E-007  0.9641065E+03  0.7818608E-02  0.9348812E-01
         -2   -1    0    0    0  501 -0.00000000000E+00  0.00000000000E+00  0.67921547276E+03  0.67921547276E+03  0.00000000000E+00 0.  1.
          2   -1    0    0  501    0  0.00000000000E+00 -0.00000000000E+00 -0.34212317267E+03  0.34212317267E+03  0.00000000000E+00 0. -1.
         23    2    1    2    0    0 -0.40620008556E+03 -0.24959534650E+03  0.13870877584E+03  0.50495470959E+03  0.91884643626E+02 0.  0.
         11    1    3    3    0    0 -0.18692083340E+03 -0.10514288195E+03  0.15841569437E+02  0.21504738758E+03  0.00000000000E+00 0.  1.
        -11    1    3    3    0    0 -0.21927925216E+03 -0.14445246455E+03  0.12286720640E+03  0.28990732201E+03  0.00000000000E+00 0. -1.
         22    1    1    2    0    0  0.40620008556E+03  0.24959534650E+03  0.19838352425E+03  0.51638393584E+03  0.00000000000E+00 0. -1.
<mgrwt>
<rscale>  0 0.96410653E+03</rscale>
<asrwt>0</asrwt>
<pdfrwt beam="1">  1        2 0.52634334E-01 0.96410653E+03</pdfrwt>
<pdfrwt beam="2">  1       -2 0.10449469E+00 0.96410653E+03</pdfrwt>
<totfact> 0.70517288E+01</totfact>
</mgrwt>
</event>
<event>
 6    1  0.9512547E-007  0.2186992E+04  0.7818608E-02  0.8523862E-01
         -2   -1    0    0    0  501 -0.00000000000E+00  0.00000000000E+00  0.56041848265E+03  0.56041848265E+03  0.00000000000E+00 0.  1.
          2   -1    0    0  501    0  0.00000000000E+00 -0.00000000000E+00 -0.21336441824E+04  0.21336441824E+04  0.00000000000E+00 0. -1.
         23    2    1    2    0    0  0.38518360377E+03 -0.94949578079E+03 -0.12538657983E+04  0.16207969044E+04  0.69960837441E+02 0.  0.
         11    1    3    3    0    0  0.71404459017E+02 -0.22892156002E+03 -0.25935969859E+03  0.35322957218E+03  0.00000000000E+00 0.  1.
        -11    1    3    3    0    0  0.31377914475E+03 -0.72057422077E+03 -0.99450609974E+03  0.12675673322E+04  0.00000000000E+00 0. -1.
         22    1    1    2    0    0 -0.38518360377E+03  0.94949578079E+03 -0.31935990145E+03  0.10732657607E+04  0.00000000000E+00 0.  1.
<mgrwt>
<rscale>  0 0.21869921E+04</rscale>
<asrwt>0</asrwt>
<pdfrwt beam="1">  1        2 0.32825295E+00 0.21869921E+04</pdfrwt>
<pdfrwt beam="2">  1       -2 0.86218229E-01 0.21869921E+04</pdfrwt>
<totfact> 0.60042853E+00</totfact>
</mgrwt>
</event>
<event>
 6    1  0.9512547E-007  0.3482538E+04  0.7818608E-02  0.8117941E-01
         -1   -1    0    0    0  501 -0.00000000000E+00  0.00000000000E+00  0.18879774944E+04  0.18879774944E+04  0.00000000000E+00 0.  1.
          1   -1    0    0  501    0  0.00000000000E+00 -0.00000000000E+00 -0.16059604955E+04  0.16059604955E+04  0.00000000000E+00 0. -1.
         23    2    1    2    0    0  0.59013870702E+03  0.12699169060E+04 -0.89519352664E+03  0.16645180645E+04  0.91084001281E+02 0.  0.
         13    1    3    3    0    0  0.29052621411E+03  0.60686453345E+03 -0.37696372284E+03  0.77122739279E+03  0.00000000000E+00 0. -1.
        -13    1    3    3    0    0  0.29961249291E+03  0.66305237254E+03 -0.51822980380E+03  0.89329067172E+03  0.00000000000E+00 0.  1.
         22    1    1    2    0    0 -0.59013870702E+03 -0.12699169060E+04  0.11772105255E+04  0.18294199253E+04  0.00000000000E+00 0.  1.
<mgrwt>
<rscale>  0 0.34825377E+04</rscale>
<asrwt>0</asrwt>
<pdfrwt beam="1">  1        1 0.24707085E+00 0.34825377E+04</pdfrwt>
<pdfrwt beam="2">  1       -1 0.29045807E+00 0.34825377E+04</pdfrwt>
<totfact> 0.17196462E-01</totfact>
</mgrwt>
</event>
<event>
 6    1  0.9512547E-007  0.2386354E+04  0.7818608E-02  0.8444630E-01
          2   -1    0    0  501    0  0.00000000000E+00  0.00000000000E+00  0.21127768723E+04  0.21127768723E+04  0.00000000000E+00 0. -1.
         -2   -1    0    0    0  501 -0.00000000000E+00 -0.00000000000E+00 -0.67383891858E+03  0.67383891858E+03  0.00000000000E+00 0.  1.
         23    2    1    2    0    0  0.24159267147E+03  0.28844575357E+03  0.20405433033E+04  0.20770405882E+04  0.93341633043E+02 0.  0.
         13    1    3    3    0    0  0.20601439063E+03  0.24629042668E+03  0.15176357495E+04  0.15512315016E+04  0.00000000000E+00 0. -1.
        -13    1    3    3    0    0  0.35578280838E+02  0.42155326886E+02  0.52290755384E+03  0.52580908657E+03  0.00000000000E+00 0.  1.
         22    1    1    2    0    0 -0.24159267147E+03 -0.28844575357E+03 -0.60160534960E+03  0.70957520272E+03  0.00000000000E+00 0.  1.
<mgrwt>
<rscale>  0 0.23863539E+04</rscale>
<asrwt>0</asrwt>
<pdfrwt beam="1">  1        2 0.32504259E+00 0.23863539E+04</pdfrwt>
<pdfrwt beam="2">  1       -2 0.10366753E+00 0.23863539E+04</pdfrwt>
<totfact> 0.39435335E+00</totfact>
</mgrwt>
</event>
<event>
 6    1  0.9512547E-007  0.5649879E+03  0.7818608E-02  0.9980831E-01
         -2   -1    0    0    0  501 -0.00000000000E+00  0.00000000000E+00  0.93538444736E+02  0.93538444736E+02  0.00000000000E+00 0.  1.
          2   -1    0    0  501    0  0.00000000000E+00 -0.00000000000E+00 -0.85315556321E+03  0.85315556321E+03  0.00000000000E+00 0. -1.
         23    2    1    2    0    0  0.97673350608E+01  0.13684284631E+03  0.10063560408E+02  0.16488219372E+03  0.90903779547E+02 0.  0.
         13    1    3    3    0    0  0.45178930534E+02  0.76729365594E+02 -0.15878465878E+02  0.90446984402E+02  0.00000000000E+00 0.  1.
        -13    1    3    3    0    0 -0.35411595473E+02  0.60113480718E+02  0.25942026287E+02  0.74435209316E+02  0.00000000000E+00 0. -1.
         22    1    1    2    0    0 -0.97673350608E+01 -0.13684284631E+03 -0.76968067888E+03  0.78181181423E+03  0.00000000000E+00 0. -1.
<mgrwt>
<rscale>  0 0.56498795E+03</rscale>
<asrwt>0</asrwt>
<pdfrwt beam="1">  1        2 0.13125470E+00 0.56498795E+03</pdfrwt>
<pdfrwt beam="2">  1       -2 0.14390530E-01 0.56498795E+03</pdfrwt>
<totfact> 0.11931147E+03</totfact>
</mgrwt>
</event>
<event>
 6    1  0.9512547E-007  0.4371794E+04  0.7818608E-02  0.7933475E-01
          2   -1    0    0  501    0  0.00000000000E+00  0.00000000000E+00  0.20108866506E+04  0.20108866506E+04  0.00000000000E+00 0. -1.
         -2   -1    0    0    0  501 -0.00000000000E+00 -0.00000000000E+00 -0.23761382297E+04  0.23761382297E+04  0.00000000000E+00 0.  1.
         23    2    1    2    0    0  0.18179782815E+04 -0.10182166289E+04  0.47679662756E+03  0.21396140773E+04  0.93825584536E+02 0.  0.
         13    1    3    3    0    0  0.15412091722E+04 -0.82400032148E+03  0.39448679634E+03  0.17916255398E+04  0.00000000000E+00 0.  1.
        -13    1    3    3    0    0  0.27676910927E+03 -0.19421630738E+03  0.82309831217E+02  0.34798853748E+03  0.00000000000E+00 0. -1.
         22    1    1    2    0    0 -0.18179782815E+04  0.10182166289E+04 -0.84204820668E+03  0.22474108031E+04  0.00000000000E+00 0. -1.
<mgrwt>
<rscale>  0 0.43717935E+04</rscale>
<asrwt>0</asrwt>
<pdfrwt beam="1">  1        2 0.30936718E+00 0.43717935E+04</pdfrwt>
<pdfrwt beam="2">  1       -2 0.36555973E+00 0.43717935E+04</pdfrwt>
<totfact> 0.62512139E-02</totfact>
</mgrwt>
</event>
<event>
 6    1  0.9512547E-007  0.3857420E+04  0.7818608E-02  0.8033944E-01
          2   -1    0    0  501    0  0.00000000000E+00  0.00000000000E+00  0.93973706193E+03  0.93973706193E+03  0.00000000000E+00 0. -1.
         -2   -1    0    0    0  501 -0.00000000000E+00 -0.00000000000E+00 -0.39584715531E+04  0.39584715531E+04  0.00000000000E+00 0.  1.
         23    2    1    2    0    0 -0.53748205578E+03 -0.33362319612E+03 -0.38223583972E+04  0.38754658421E+04  0.92846000297E+02 0.  0.
         13    1    3    3    0    0 -0.29674407414E+03 -0.13098485272E+03 -0.18763329866E+04  0.19041637413E+04  0.00000000000E+00 0. -1.
        -13    1    3    3    0    0 -0.24073798164E+03 -0.20263834341E+03 -0.19460254105E+04  0.19713021008E+04  0.00000000000E+00 0.  1.
         22    1    1    2    0    0  0.53748205578E+03  0.33362319612E+03  0.80362390599E+03  0.10227427729E+04  0.00000000000E+00 0. -1.
<mgrwt>
<rscale>  0 0.38574201E+04</rscale>
<asrwt>0</asrwt>
<pdfrwt beam="1">  1        2 0.14457493E+00 0.38574201E+04</pdfrwt>
<pdfrwt beam="2">  1       -2 0.60899561E+00 0.38574201E+04</pdfrwt>
<totfact> 0.10281975E-02</totfact>
</mgrwt>
</event>
<event>
 6    1  0.9512547E-007  0.3050280E+04  0.7818608E-02  0.8229517E-01
         -2   -1    0    0    0  501 -0.00000000000E+00  0.00000000000E+00  0.11184626397E+04  0.11184626397E+04  0.00000000000E+00 0.  1.
          2   -1    0    0  501    0  0.00000000000E+00 -0.00000000000E+00 -0.20796871966E+04  0.20796871966E+04  0.00000000000E+00 0. -1.
         23    2    1    2    0    0 -0.59038243998E+02  0.15168032441E+04 -0.61983105824E+03  0.16422812311E+04  0.93378294839E+02 0.  0.
         13    1    3    3    0    0 -0.83882531915E+02  0.12205094961E+04 -0.50605029541E+03  0.13239209232E+04  0.00000000000E+00 0. -1.
        -13    1    3    3    0    0  0.24844287916E+02  0.29629374792E+03 -0.11378076283E+03  0.31836030797E+03  0.00000000000E+00 0.  1.
         22    1    1    2    0    0  0.59038243998E+02 -0.15168032441E+04 -0.34139349868E+03  0.15558686051E+04  0.00000000000E+00 0. -1.
<mgrwt>
<rscale>  0 0.30502803E+04</rscale>
<asrwt>0</asrwt>
<pdfrwt beam="1">  1        2 0.31995187E+00 0.30502803E+04</pdfrwt>
<pdfrwt beam="2">  1       -2 0.17207118E+00 0.30502803E+04</pdfrwt>
<totfact> 0.10594842E+00</totfact>
</mgrwt>
</event>
<event>
 6    1  0.9512547E-007  0.4434519E+03  0.7818608E-02  0.1029693E+00
          1   -1    0    0  501    0  0.00000000000E+00  0.00000000000E+00  0.41656187908E+02  0.41656187908E+02  0.00000000000E+00 0. -1.
         -1   -1    0    0    0  501 -0.00000000000E+00 -0.00000000000E+00 -0.11801944638E+04  0.11801944638E+04  0.00000000000E+00 0.  1.
         23    2    1    2    0    0  0.20730561988E+03  0.48018385676E+02 -0.55664792988E+03  0.60227195600E+03  0.87139002433E+02 0.  0.
         13    1    3    3    0    0  0.26018704244E+02  0.40469843321E+02 -0.13146976434E+03  0.13999671469E+03  0.00000000000E+00 0. -1.
        -13    1    3    3    0    0  0.18128691564E+03  0.75485423556E+01 -0.42517816554E+03  0.46227524131E+03  0.00000000000E+00 0.  1.
         22    1    1    2    0    0 -0.20730561988E+03 -0.48018385676E+02 -0.58189034602E+03  0.61957869572E+03  0.00000000000E+00 0. -1.
<mgrwt>
<rscale>  0 0.44345192E+03</rscale>
<asrwt>0</asrwt>
<pdfrwt beam="1">  1        1 0.64086443E-02 0.44345192E+03</pdfrwt>
<pdfrwt beam="2">  1       -1 0.18156838E+00 0.44345192E+03</pdfrwt>
<totfact> 0.26122144E+02</totfact>
</mgrwt>
</event>
<event>
 6    1  0.9512547E-007  0.2869327E+04  0.7818608E-02  0.8282062E-01
          1   -1    0    0  501    0  0.00000000000E+00  0.00000000000E+00  0.11016649872E+04  0.11016649872E+04  0.00000000000E+00 0. -1.
         -1   -1    0    0    0  501 -0.00000000000E+00 -0.00000000000E+00 -0.18683173122E+04  0.18683173122E+04  0.00000000000E+00 0.  1.
         23    2    1    2    0    0  0.78891492271E+03  0.80946498066E+03  0.52782082689E+03  0.12514710102E+04  0.99822611462E+02 0.  0.
         13    1    3    3    0    0  0.54974811263E+03  0.54764762925E+03  0.41107535319E+03  0.87813658344E+03  0.00000000000E+00 0.  1.
        -13    1    3    3    0    0  0.23916681008E+03  0.26181735141E+03  0.11674547370E+03  0.37333442672E+03  0.00000000000E+00 0. -1.
         22    1    1    2    0    0 -0.78891492271E+03 -0.80946498066E+03 -0.12944731519E+04  0.17185112892E+04  0.00000000000E+00 0. -1.
<mgrwt>
<rscale>  0 0.28693273E+04</rscale>
<asrwt>0</asrwt>
<pdfrwt beam="1">  1        1 0.16948692E+00 0.28693273E+04</pdfrwt>
<pdfrwt beam="2">  1       -1 0.28743343E+00 0.28693273E+04</pdfrwt>
<totfact> 0.43339114E-01</totfact>
</mgrwt>
</event>
<event>
 6    1  0.9512547E-007  0.1634612E+04  0.7818608E-02  0.8799562E-01
          2   -1    0    0  501    0  0.00000000000E+00  0.00000000000E+00  0.21986527024E+04  0.21986527024E+04  0.00000000000E+00 0. -1.
         -2   -1    0    0    0  501 -0.00000000000E+00 -0.00000000000E+00 -0.30381749644E+03  0.30381749644E+03  0.00000000000E+00 0.  1.
         23    2    1    2    0    0  0.49928189365E+02  0.72448204939E+03  0.15158947319E+04  0.16833469194E+04  0.91394468808E+02 0.  0.
         11    1    3    3    0    0 -0.14230653215E+02  0.58605730265E+02  0.16977040780E+03  0.18016418755E+03  0.00000000000E+00 0. -1.
        -11    1    3    3    0    0  0.64158842580E+02  0.66587631912E+03  0.13461243241E+04  0.15031827319E+04  0.00000000000E+00 0.  1.
         22    1    1    2    0    0 -0.49928189365E+02 -0.72448204939E+03  0.37894047402E+03  0.81912327938E+03  0.00000000000E+00 0.  1.
<mgrwt>
<rscale>  0 0.16346121E+04</rscale>
<asrwt>0</asrwt>
<pdfrwt beam="1">  1        2 0.33825425E+00 0.16346121E+04</pdfrwt>
<pdfrwt beam="2">  1       -2 0.46741155E-01 0.16346121E+04</pdfrwt>
<totfact> 0.21481235E+01</totfact>
</mgrwt>
</event>
<event>
 6    1  0.9512547E-007  0.1391699E+04  0.7818608E-02  0.8959849E-01
         -2   -1    0    0    0  501 -0.00000000000E+00  0.00000000000E+00  0.51615176543E+03  0.51615176543E+03  0.00000000000E+00 0.  1.
          2   -1    0    0  501    0  0.00000000000E+00 -0.00000000000E+00 -0.93810949118E+03  0.93810949118E+03  0.00000000000E+00 0. -1.
         23    2    1    2    0    0  0.20721305869E+03  0.19890248066E+02 -0.90235136599E+03  0.93070522021E+03  0.92958837927E+02 0.  0.
         13    1    3    3    0    0  0.66284173206E+02 -0.20638069992E+02 -0.16664872587E+03  0.18053066051E+03  0.00000000000E+00 0. -1.
        -13    1    3    3    0    0  0.14092888549E+03  0.40528318058E+02 -0.73570264013E+03  0.75017455970E+03  0.00000000000E+00 0.  1.
         22    1    1    2    0    0 -0.20721305869E+03 -0.19890248066E+02  0.48039364025E+03  0.52355603640E+03  0.00000000000E+00 0.  1.
<mgrwt>
<rscale>  0 0.13916995E+04</rscale>
<asrwt>0</asrwt>
<pdfrwt beam="1">  1        2 0.14432454E+00 0.13916995E+04</pdfrwt>
<pdfrwt beam="2">  1       -2 0.79407965E-01 0.13916995E+04</pdfrwt>
<totfact> 0.37855799E+01</totfact>
</mgrwt>
</event>
<event>
 6    1  0.9512547E-007  0.4494652E+04  0.7818608E-02  0.7911574E-01
         -2   -1    0    0    0  501 -0.00000000000E+00  0.00000000000E+00  0.37908645971E+04  0.37908645971E+04  0.00000000000E+00 0.  1.
          2   -1    0    0  501    0  0.00000000000E+00 -0.00000000000E+00 -0.13322748105E+04  0.13322748105E+04  0.00000000000E+00 0. -1.
         23    2    1    2    0    0 -0.12333268526E+04  0.44156192448E+03  0.33098913234E+04  0.35608377834E+04  0.90072684824E+02 0.  0.
         13    1    3    3    0    0 -0.45906445009E+03  0.14618084948E+03  0.13268403193E+04  0.14115998878E+04  0.00000000000E+00 0. -1.
        -13    1    3    3    0    0 -0.77426240249E+03  0.29538107500E+03  0.19830510041E+04  0.21492378957E+04  0.00000000000E+00 0.  1.
         22    1    1    2    0    0  0.12333268526E+04 -0.44156192448E+03 -0.85130153682E+03  0.15623016242E+04  0.00000000000E+00 0. -1.
<mgrwt>
<rscale>  0 0.44946517E+04</rscale>
<asrwt>0</asrwt>
<pdfrwt beam="1">  1        2 0.20496536E+00 0.44946517E+04</pdfrwt>
<pdfrwt beam="2">  1       -2 0.58320993E+00 0.44946517E+04</pdfrwt>
<totfact> 0.71784486E-03</totfact>
</mgrwt>
</event>
<event>
 6    1  0.9512547E-007  0.2665109E+04  0.7818608E-02  0.8346415E-01
         -2   -1    0    0    0  501 -0.00000000000E+00  0.00000000000E+00  0.80712982720E+03  0.80712982720E+03  0.00000000000E+00 0.  1.
          2   -1    0    0  501    0  0.00000000000E+00 -0.00000000000E+00 -0.22000197117E+04  0.22000197117E+04  0.00000000000E+00 0. -1.
         23    2    1    2    0    0  0.77249454617E+02 -0.42747715057E+03  0.72213586414E+03  0.84797420793E+03  0.94211774965E+02 0.  0.
         11    1    3    3    0    0  0.41861274562E+02 -0.95336888773E+02  0.11584087868E+03  0.15575813893E+03  0.00000000000E+00 0. -1.
        -11    1    3    3    0    0  0.35388180055E+02 -0.33214026180E+03  0.60629498545E+03  0.69221606900E+03  0.00000000000E+00 0.  1.
         22    1    1    2    0    0 -0.77249454617E+02  0.42747715057E+03 -0.21150257486E+04  0.21591753309E+04  0.00000000000E+00 0. -1.
<mgrwt>
<rscale>  0 0.26651090E+04</rscale>
<asrwt>0</asrwt>
<pdfrwt beam="1">  1        2 0.33846456E+00 0.26651090E+04</pdfrwt>
<pdfrwt beam="2">  1       -2 0.12417382E+00 0.26651090E+04</pdfrwt>
<totfact> 0.22147062E+00</totfact>
</mgrwt>
</event>
<event>
 6    1  0.9512547E-007  0.2250845E+04  0.7818608E-02  0.8497558E-01
         -1   -1    0    0    0  501 -0.00000000000E+00  0.00000000000E+00  0.80629858044E+03  0.80629858044E+03  0.00000000000E+00 0.  1.
          1   -1    0    0  501    0  0.00000000000E+00 -0.00000000000E+00 -0.15708519698E+04  0.15708519698E+04  0.00000000000E+00 0. -1.
         23    2    1    2    0    0  0.98161518986E+02 -0.22171834084E+03 -0.15416375724E+04  0.15631145966E+04  0.88803891068E+02 0.  0.
         11    1    3    3    0    0  0.55553105188E+02 -0.36225449354E+02 -0.32716243463E+03  0.33381684995E+03  0.00000000000E+00 0. -1.
        -11    1    3    3    0    0  0.42608413798E+02 -0.18549289148E+03 -0.12144751377E+04  0.12292977466E+04  0.00000000000E+00 0.  1.
         22    1    1    2    0    0 -0.98161518986E+02  0.22171834084E+03  0.77708418297E+03  0.81403595369E+03  0.00000000000E+00 0.  1.
<mgrwt>
<rscale>  0 0.22508449E+04</rscale>
<asrwt>0</asrwt>
<pdfrwt beam="1">  1        1 0.24166953E+00 0.22508449E+04</pdfrwt>
<pdfrwt beam="2">  1       -1 0.12404594E+00 0.22508449E+04</pdfrwt>
<totfact> 0.30257031E+00</totfact>
</mgrwt>
</event>
<event>
 6    1  0.9512547E-007  0.3674655E+04  0.7818608E-02  0.8073602E-01
         -1   -1    0    0    0  501 -0.00000000000E+00  0.00000000000E+00  0.21597243199E+04  0.21597243199E+04  0.00000000000E+00 0.  1.
          1   -1    0    0  501    0  0.00000000000E+00 -0.00000000000E+00 -0.15630573651E+04  0.15630573651E+04  0.00000000000E+00 0. -1.
         23    2    1    2    0    0 -0.18249561541E+04 -0.20180102302E+03  0.32056353593E+03  0.18660583036E+04  0.90686241799E+02 0.  0.
         13    1    3    3    0    0 -0.11735843736E+04 -0.91329646276E+02  0.18416760647E+03  0.11914525142E+04  0.00000000000E+00 0. -1.
        -13    1    3    3    0    0 -0.65137178049E+03 -0.11047137675E+03  0.13639592946E+03  0.67460578939E+03  0.00000000000E+00 0.  1.
         22    1    1    2    0    0  0.18249561541E+04  0.20180102302E+03  0.27610341881E+03  0.18567233814E+04  0.00000000000E+00 0. -1.
<mgrwt>
<rscale>  0 0.36746554E+04</rscale>
<asrwt>0</asrwt>
<pdfrwt beam="1">  1        1 0.24047036E+00 0.36746554E+04</pdfrwt>
<pdfrwt beam="2">  1       -1 0.33226528E+00 0.36746554E+04</pdfrwt>
<totfact> 0.96744546E-02</totfact>
</mgrwt>
</event>
<event>
 6    1  0.9512547E-007  0.3667231E+04  0.7818608E-02  0.8075263E-01
          2   -1    0    0  501    0  0.00000000000E+00  0.00000000000E+00  0.18323596861E+04  0.18323596861E+04  0.00000000000E+00 0. -1.
         -2   -1    0    0    0  501 -0.00000000000E+00 -0.00000000000E+00 -0.18348717669E+04  0.18348717669E+04  0.00000000000E+00 0.  1.
         23    2    1    2    0    0  0.86982312677E+03 -0.14043463507E+04 -0.79462941657E+03  0.18352295921E+04  0.88604747929E+02 0.  0.
         13    1    3    3    0    0  0.29163095356E+03 -0.41222351150E+03 -0.27250602537E+03  0.57379122542E+03  0.00000000000E+00 0.  1.
        -13    1    3    3    0    0  0.57819217321E+03 -0.99212283919E+03 -0.52212339120E+03  0.12614383666E+04  0.00000000000E+00 0. -1.
         22    1    1    2    0    0 -0.86982312677E+03  0.14043463507E+04  0.79211733580E+03  0.18320018609E+04  0.00000000000E+00 0. -1.
<mgrwt>
<rscale>  0 0.36672306E+04</rscale>
<asrwt>0</asrwt>
<pdfrwt beam="1">  1        2 0.28190149E+00 0.36672306E+04</pdfrwt>
<pdfrwt beam="2">  1       -2 0.28228797E+00 0.36672306E+04</pdfrwt>
<totfact> 0.27367552E-01</totfact>
</mgrwt>
</event>
<event>
 6    1  0.9512547E-007  0.2851831E+04  0.7818608E-02  0.8287355E-01
          2   -1    0    0  501    0  0.00000000000E+00  0.00000000000E+00  0.18986459621E+04  0.18986459621E+04  0.00000000000E+00 0. -1.
         -2   -1    0    0    0  501 -0.00000000000E+00 -0.00000000000E+00 -0.10708868149E+04  0.10708868149E+04  0.00000000000E+00 0.  1.
         23    2    1    2    0    0 -0.10678025816E+04 -0.84556804813E+03 -0.19963108659E+02  0.13652196217E+04  0.90765700124E+02 0.  0.
         13    1    3    3    0    0 -0.96993154605E+03 -0.79533438378E+03 -0.60767779734E+01  0.12543368420E+04  0.00000000000E+00 0. -1.
        -13    1    3    3    0    0 -0.97871035573E+02 -0.50233664345E+02 -0.13886330685E+02  0.11088277963E+03  0.00000000000E+00 0.  1.
         22    1    1    2    0    0  0.10678025816E+04  0.84556804813E+03  0.84772225587E+03  0.16043131554E+04  0.00000000000E+00 0. -1.
<mgrwt>
<rscale>  0 0.28518309E+04</rscale>
<asrwt>0</asrwt>
<pdfrwt beam="1">  1        2 0.29209938E+00 0.28518309E+04</pdfrwt>
<pdfrwt beam="2">  1       -2 0.16475182E+00 0.28518309E+04</pdfrwt>
<totfact> 0.15324392E+00</totfact>
</mgrwt>
</event>
<event>
 6    1  0.9512547E-007  0.6055225E+04  0.7818608E-02  0.7683592E-01
         -2   -1    0    0    0  501 -0.00000000000E+00  0.00000000000E+00  0.31923109042E+04  0.31923109042E+04  0.00000000000E+00 0.  1.
          2   -1    0    0  501    0  0.00000000000E+00 -0.00000000000E+00 -0.28714116057E+04  0.28714116057E+04  0.00000000000E+00 0. -1.
         23    2    1    2    0    0 -0.48793340760E+02  0.26411016108E+04  0.16405385689E+04  0.31108855159E+04  0.91887911697E+02 0.  0.
         11    1    3    3    0    0 -0.12326614987E+02  0.18147627354E+04  0.11701498275E+04  0.21593439629E+04  0.00000000000E+00 0. -1.
        -11    1    3    3    0    0 -0.36466725774E+02  0.82633887543E+03  0.47038874144E+03  0.95154155306E+03  0.00000000000E+00 0.  1.
         22    1    1    2    0    0  0.48793340760E+02 -0.26411016108E+04 -0.13196392705E+04  0.29528369940E+04  0.00000000000E+00 0. -1.
<mgrwt>
<rscale>  0 0.60552254E+04</rscale>
<asrwt>0</asrwt>
<pdfrwt beam="1">  1        2 0.44175563E+00 0.60552254E+04</pdfrwt>
<pdfrwt beam="2">  1       -2 0.49112475E+00 0.60552254E+04</pdfrwt>
<totfact> 0.26555154E-03</totfact>
</mgrwt>
</event>
<event>
 6    1  0.9512547E-007  0.5169420E+04  0.7818608E-02  0.7802891E-01
         -1   -1    0    0    0  501 -0.00000000000E+00  0.00000000000E+00  0.31668568024E+04  0.31668568024E+04  0.00000000000E+00 0.  1.
          1   -1    0    0  501    0  0.00000000000E+00 -0.00000000000E+00 -0.21095759063E+04  0.21095759063E+04  0.00000000000E+00 0. -1.
         23    2    1    2    0    0  0.86684134685E+03  0.15875440371E+04  0.24122306839E+04  0.30164329481E+04  0.91109097838E+02 0.  0.
         11    1    3    3    0    0  0.63558170828E+03  0.11808378945E+04  0.17218055145E+04  0.21824198658E+04  0.00000000000E+00 0.  1.
        -11    1    3    3    0    0  0.23125963857E+03  0.40670614253E+03  0.69042516943E+03  0.83401308226E+03  0.00000000000E+00 0. -1.
         22    1    1    2    0    0 -0.86684134685E+03 -0.15875440371E+04 -0.13549497878E+04  0.22599997606E+04  0.00000000000E+00 0.  1.
<mgrwt>
<rscale>  0 0.51694196E+04</rscale>
<asrwt>0</asrwt>
<pdfrwt beam="1">  1        1 0.32455014E+00 0.51694196E+04</pdfrwt>
<pdfrwt beam="2">  1       -1 0.48720874E+00 0.51694196E+04</pdfrwt>
<totfact> 0.32507716E-03</totfact>
</mgrwt>
</event>
<event>
 6    1  0.9512547E-007  0.8495096E+03  0.7818608E-02  0.9490995E-01
         -2   -1    0    0    0  501 -0.00000000000E+00  0.00000000000E+00  0.17213021493E+04  0.17213021493E+04  0.00000000000E+00 0.  1.
          2   -1    0    0  501    0  0.00000000000E+00 -0.00000000000E+00 -0.10481405674E+03  0.10481405674E+03  0.00000000000E+00 0. -1.
         23    2    1    2    0    0 -0.26961093325E+03 -0.24676829801E+03  0.12612126684E+04  0.13164052338E+04  0.93170254562E+02 0.  0.
         11    1    3    3    0    0 -0.19607354115E+03 -0.19363685887E+03  0.10675775744E+04  0.11025706073E+04  0.00000000000E+00 0. -1.
        -11    1    3    3    0    0 -0.73537392104E+02 -0.53131439144E+02  0.19363509399E+03  0.21383462649E+03  0.00000000000E+00 0.  1.
         22    1    1    2    0    0  0.26961093325E+03  0.24676829801E+03  0.35527542413E+03  0.50971097224E+03  0.00000000000E+00 0. -1.
<mgrwt>
<rscale>  0 0.84950965E+03</rscale>
<asrwt>0</asrwt>
<pdfrwt beam="1">  1        2 0.16125241E-01 0.84950965E+03</pdfrwt>
<pdfrwt beam="2">  1       -2 0.26481570E+00 0.84950965E+03</pdfrwt>
<totfact> 0.19579708E+01</totfact>
</mgrwt>
</event>
<event>
 6    1  0.9512547E-007  0.3477692E+04  0.7818608E-02  0.8119097E-01
         -1   -1    0    0    0  501 -0.00000000000E+00  0.00000000000E+00  0.86150106989E+03  0.86150106989E+03  0.00000000000E+00 0.  1.
          1   -1    0    0  501    0  0.00000000000E+00 -0.00000000000E+00 -0.35096709508E+04  0.35096709508E+04  0.00000000000E+00 0. -1.
         23    2    1    2    0    0  0.13218780633E+04 -0.16983733524E+02  0.92516009548E+02  0.13283100107E+04  0.90543973913E+02 0.  0.
         13    1    3    3    0    0  0.37490729573E+03 -0.43741987217E+01 -0.14599553686E+02  0.37521695188E+03  0.00000000000E+00 0.  1.
        -13    1    3    3    0    0  0.94697076756E+03 -0.12609534802E+02  0.10711556323E+03  0.95309305887E+03  0.00000000000E+00 0. -1.
         22    1    1    2    0    0 -0.13218780633E+04  0.16983733524E+02 -0.27406858904E+04  0.30428620099E+04  0.00000000000E+00 0. -1.
<mgrwt>
<rscale>  0 0.34776919E+04</rscale>
<asrwt>0</asrwt>
<pdfrwt beam="1">  1        1 0.53994938E+00 0.34776919E+04</pdfrwt>
<pdfrwt beam="2">  1       -1 0.13253863E+00 0.34776919E+04</pdfrwt>
<totfact> 0.96755869E-02</totfact>
</mgrwt>
</event>
<event>
 6    1  0.9512547E-007  0.2039753E+04  0.7818608E-02  0.8588257E-01
         -4   -1    0    0    0  501 -0.00000000000E+00  0.00000000000E+00  0.23274214542E+04  0.23274214542E+04  0.00000000000E+00 0.  1.
          4   -1    0    0  501    0  0.00000000000E+00 -0.00000000000E+00 -0.44690990568E+03  0.44690990568E+03  0.00000000000E+00 0. -1.
         23    2    1    2    0    0  0.23431985718E+03  0.86615898121E+03  0.28919117784E+03  0.94746582066E+03  0.94460403196E+02 0.  0.
         11    1    3    3    0    0  0.12805496096E+03  0.33843410857E+03  0.14794418171E+03  0.39092607968E+03  0.00000000000E+00 0. -1.
        -11    1    3    3    0    0  0.10626489621E+03  0.52772487265E+03  0.14124699612E+03  0.55653974098E+03  0.00000000000E+00 0.  1.
         22    1    1    2    0    0 -0.23431985718E+03 -0.86615898121E+03  0.15913203707E+04  0.18268655392E+04  0.00000000000E+00 0.  1.
<mgrwt>
<rscale>  0 0.20397526E+04</rscale>
<asrwt>0</asrwt>
<pdfrwt beam="1">  1        4 0.68755372E-01 0.20397526E+04</pdfrwt>
<pdfrwt beam="2">  1       -4 0.35806483E+00 0.20397526E+04</pdfrwt>
<totfact> 0.47517902E-02</totfact>
</mgrwt>
</event>
<event>
 6    1  0.9512547E-007  0.2075011E+04  0.7818608E-02  0.8572332E-01
          2   -1    0    0  501    0  0.00000000000E+00  0.00000000000E+00  0.18688533586E+04  0.18688533586E+04  0.00000000000E+00 0. -1.
         -2   -1    0    0    0  501 -0.00000000000E+00 -0.00000000000E+00 -0.57597746120E+03  0.57597746120E+03  0.00000000000E+00 0.  1.
         23    2    1    2    0    0  0.82403562817E+03 -0.20130332332E+03  0.13475254142E+04  0.15948047530E+04  0.89552854920E+02 0.  0.
         13    1    3    3    0    0  0.68075288661E+03 -0.16797130946E+03  0.10454188920E+04  0.12587849352E+04  0.00000000000E+00 0.  1.
        -13    1    3    3    0    0  0.14328274156E+03 -0.33332013857E+02  0.30210652222E+03  0.33601981779E+03  0.00000000000E+00 0. -1.
         22    1    1    2    0    0 -0.82403562817E+03  0.20130332332E+03 -0.54649516848E+02  0.85002606675E+03  0.00000000000E+00 0.  1.
<mgrwt>
<rscale>  0 0.20750108E+04</rscale>
<asrwt>0</asrwt>
<pdfrwt beam="1">  1        2 0.28751590E+00 0.20750108E+04</pdfrwt>
<pdfrwt beam="2">  1       -2 0.88611918E-01 0.20750108E+04</pdfrwt>
<totfact> 0.79922069E+00</totfact>
</mgrwt>
</event>
<event>
 6    1  0.9512547E-007  0.2095734E+04  0.7818608E-02  0.8563125E-01
         -1   -1    0    0    0  501 -0.00000000000E+00  0.00000000000E+00  0.91382934873E+03  0.91382934873E+03  0.00000000000E+00 0.  1.
          1   -1    0    0  501    0  0.00000000000E+00 -0.00000000000E+00 -0.12015643712E+04  0.12015643712E+04  0.00000000000E+00 0. -1.
         23    2    1    2    0    0 -0.76742225815E+03  0.32320339788E+03  0.49460244673E+03  0.97283112892E+03  0.91495717897E+02 0.  0.
         11    1    3    3    0    0 -0.62590243367E+03  0.28058820830E+03  0.44179365852E+03  0.81588310181E+03  0.00000000000E+00 0. -1.
        -11    1    3    3    0    0 -0.14151982448E+03  0.42615189575E+02  0.52808788210E+02  0.15694802711E+03  0.00000000000E+00 0.  1.
         22    1    1    2    0    0  0.76742225815E+03 -0.32320339788E+03 -0.78233746923E+03  0.11425625910E+04  0.00000000000E+00 0. -1.
<mgrwt>
<rscale>  0 0.20957336E+04</rscale>
<asrwt>0</asrwt>
<pdfrwt beam="1">  1        1 0.18485606E+00 0.20957336E+04</pdfrwt>
<pdfrwt beam="2">  1       -1 0.14058913E+00 0.20957336E+04</pdfrwt>
<totfact> 0.40652695E+00</totfact>
</mgrwt>
</event>
<event>
 6    1  0.9512547E-007  0.3012746E+04  0.7818608E-02  0.8240101E-01
          2   -1    0    0  501    0  0.00000000000E+00  0.00000000000E+00  0.18093360349E+04  0.18093360349E+04  0.00000000000E+00 0. -1.
         -2   -1    0    0    0  501 -0.00000000000E+00 -0.00000000000E+00 -0.12541390070E+04  0.12541390070E+04  0.00000000000E+00 0.  1.
         23    2    1    2    0    0 -0.22359884081E+02  0.90726659824E+03  0.14986740048E+04  0.17543602835E+04  0.90130943355E+02 0.  0.
         13    1    3    3    0    0 -0.35064805555E+02  0.56128873395E+03  0.85263378318E+03  0.10214004854E+04  0.00000000000E+00 0.  1.
        -13    1    3    3    0    0  0.12704921474E+02  0.34597786428E+03  0.64604022162E+03  0.73295979805E+03  0.00000000000E+00 0. -1.
         22    1    1    2    0    0  0.22359884081E+02 -0.90726659824E+03 -0.94347697689E+03  0.13091147584E+04  0.00000000000E+00 0.  1.
<mgrwt>
<rscale>  0 0.30127455E+04</rscale>
<asrwt>0</asrwt>
<pdfrwt beam="1">  1        2 0.27835939E+00 0.30127455E+04</pdfrwt>
<pdfrwt beam="2">  1       -2 0.19294446E+00 0.30127455E+04</pdfrwt>
<totfact> 0.10800869E+00</totfact>
</mgrwt>
</event>
<event>
 6    1  0.9512547E-007  0.2193180E+04  0.7818608E-02  0.8521272E-01
         -2   -1    0    0    0  501 -0.00000000000E+00  0.00000000000E+00  0.47164433404E+03  0.47164433404E+03  0.00000000000E+00 0.  1.
          2   -1    0    0  501    0  0.00000000000E+00 -0.00000000000E+00 -0.25496105873E+04  0.25496105873E+04  0.00000000000E+00 0. -1.
         23    2    1    2    0    0  0.31308867388E+03 -0.77461521590E+03 -0.66107960778E+02  0.84280890654E+03  0.88900731351E+02 0.  0.
         13    1    3    3    0    0  0.21940114677E+03 -0.56432459571E+03 -0.86732842366E+01  0.60553640550E+03  0.00000000000E+00 0.  1.
        -13    1    3    3    0    0  0.93687527114E+02 -0.21029062019E+03 -0.57434676541E+02  0.23727250103E+03  0.00000000000E+00 0. -1.
         22    1    1    2    0    0 -0.31308867388E+03  0.77461521590E+03 -0.20118582925E+04  0.21784460148E+04  0.00000000000E+00 0. -1.
<mgrwt>
<rscale>  0 0.21931798E+04</rscale>
<asrwt>0</asrwt>
<pdfrwt beam="1">  1        2 0.39224778E+00 0.21931798E+04</pdfrwt>
<pdfrwt beam="2">  1       -2 0.72560667E-01 0.21931798E+04</pdfrwt>
<totfact> 0.51185490E+00</totfact>
</mgrwt>
</event>
<event>
 6    1  0.9512547E-007  0.2710591E+04  0.7818608E-02  0.8331577E-01
         -2   -1    0    0    0  501 -0.00000000000E+00  0.00000000000E+00  0.89374352968E+03  0.89374352968E+03  0.00000000000E+00 0.  1.
          2   -1    0    0  501    0  0.00000000000E+00 -0.00000000000E+00 -0.20552049940E+04  0.20552049940E+04  0.00000000000E+00 0. -1.
         23    2    1    2    0    0  0.10780606233E+04 -0.12408469034E+03  0.29904589137E+03  0.11294174154E+04  0.92431245696E+02 0.  0.
         13    1    3    3    0    0  0.45753403275E+03 -0.69454639978E+02  0.17173986722E+03  0.49361515387E+03  0.00000000000E+00 0.  1.
        -13    1    3    3    0    0  0.62052659056E+03 -0.54630050357E+02  0.12730602416E+03  0.63580226155E+03  0.00000000000E+00 0. -1.
         22    1    1    2    0    0 -0.10780606233E+04  0.12408469034E+03 -0.14605073557E+04  0.18195311083E+04  0.00000000000E+00 0. -1.
<mgrwt>
<rscale>  0 0.27105912E+04</rscale>
<asrwt>0</asrwt>
<pdfrwt beam="1">  1        2 0.31618539E+00 0.27105912E+04</pdfrwt>
<pdfrwt beam="2">  1       -2 0.13749900E+00 0.27105912E+04</pdfrwt>
<totfact> 0.20533971E+00</totfact>
</mgrwt>
</event>
<event>
 6    1  0.9512547E-007  0.8096481E+04  0.7818608E-02  0.7473841E-01
         -2   -1    0    0    0  501 -0.00000000000E+00  0.00000000000E+00  0.57945265019E+04  0.57945265019E+04  0.00000000000E+00 0.  1.
          2   -1    0    0  501    0  0.00000000000E+00 -0.00000000000E+00 -0.28282294326E+04  0.28282294326E+04  0.00000000000E+00 0. -1.
         23    2    1    2    0    0  0.65336392614E+03 -0.26135336777E+04  0.47007386345E+04  0.54187381057E+04  0.91303032085E+02 0.  0.
         11    1    3    3    0    0  0.34758188414E+03 -0.12204885025E+04  0.21741585007E+04  0.25174134617E+04  0.00000000000E+00 0. -1.
        -11    1    3    3    0    0  0.30578204200E+03 -0.13930451752E+04  0.25265801338E+04  0.29013246440E+04  0.00000000000E+00 0.  1.
         22    1    1    2    0    0 -0.65336392614E+03  0.26135336777E+04 -0.17344415652E+04  0.32040178289E+04  0.00000000000E+00 0. -1.
<mgrwt>
<rscale>  0 0.80964808E+04</rscale>
<asrwt>0</asrwt>
<pdfrwt beam="1">  1        2 0.43511222E+00 0.80964808E+04</pdfrwt>
<pdfrwt beam="2">  1       -2 0.89146562E+00 0.80964808E+04</pdfrwt>
<totfact> 0.14386745E-05</totfact>
</mgrwt>
</event>
<event>
 6    1  0.9512547E-007  0.2873002E+04  0.7818608E-02  0.8280956E-01
         -1   -1    0    0    0  501 -0.00000000000E+00  0.00000000000E+00  0.19548486623E+04  0.19548486623E+04  0.00000000000E+00 0.  1.
          1   -1    0    0  501    0  0.00000000000E+00 -0.00000000000E+00 -0.10555985369E+04  0.10555985369E+04  0.00000000000E+00 0. -1.
         23    2    1    2    0    0  0.58257950720E+03  0.76985911731E+03 -0.66241524278E+03  0.11744513754E+04  0.91979001454E+02 0.  0.
         11    1    3    3    0    0  0.43007589040E+03  0.60941618653E+03 -0.47395899875E+03  0.88373666463E+03  0.00000000000E+00 0.  1.
        -11    1    3    3    0    0  0.15250361680E+03  0.16044293078E+03 -0.18845624403E+03  0.29071471082E+03  0.00000000000E+00 0. -1.
         22    1    1    2    0    0 -0.58257950720E+03 -0.76985911731E+03  0.15616653682E+04  0.18359958238E+04  0.00000000000E+00 0.  1.
<mgrwt>
<rscale>  0 0.28730022E+04</rscale>
<asrwt>0</asrwt>
<pdfrwt beam="1">  1        1 0.16239978E+00 0.28730022E+04</pdfrwt>
<pdfrwt beam="2">  1       -1 0.30074595E+00 0.28730022E+04</pdfrwt>
<totfact> 0.38499582E-01</totfact>
</mgrwt>
</event>
<event>
 6    1  0.9512547E-007  0.1291986E+04  0.7818608E-02  0.9035945E-01
          2   -1    0    0  501    0  0.00000000000E+00  0.00000000000E+00  0.19177929210E+04  0.19177929210E+04  0.00000000000E+00 0. -1.
         -2   -1    0    0    0  501 -0.00000000000E+00 -0.00000000000E+00 -0.21759739095E+03  0.21759739095E+03  0.00000000000E+00 0.  1.
         23    2    1    2    0    0 -0.38032554239E+03  0.34342821048E+03  0.14956058002E+04  0.15836227780E+04  0.91836482565E+02 0.  0.
         13    1    3    3    0    0 -0.31904757508E+03  0.32357146164E+03  0.12628362357E+04  0.13421047664E+04  0.00000000000E+00 0. -1.
        -13    1    3    3    0    0 -0.61277967311E+02  0.19856748843E+02  0.23276956452E+03  0.24151801158E+03  0.00000000000E+00 0.  1.
         22    1    1    2    0    0  0.38032554239E+03 -0.34342821048E+03  0.20458972987E+03  0.55176753395E+03  0.00000000000E+00 0.  1.
<mgrwt>
<rscale>  0 0.12919857E+04</rscale>
<asrwt>0</asrwt>
<pdfrwt beam="1">  1        2 0.29504505E+00 0.12919857E+04</pdfrwt>
<pdfrwt beam="2">  1       -2 0.33476523E-01 0.12919857E+04</pdfrwt>
<totfact> 0.60742747E+01</totfact>
</mgrwt>
</event>
<event>
 6    1  0.9512547E-007  0.7574763E+03  0.7818608E-02  0.9623694E-01
         -1   -1    0    0    0  501 -0.00000000000E+00  0.00000000000E+00  0.17009809942E+03  0.17009809942E+03  0.00000000000E+00 0.  1.
          1   -1    0    0  501    0  0.00000000000E+00 -0.00000000000E+00 -0.84329330007E+03  0.84329330007E+03  0.00000000000E+00 0. -1.
         23    2    1    2    0    0 -0.17146962668E+03 -0.24543858635E+03 -0.63857405434E+03  0.71199372810E+03  0.97551593699E+02 0.  0.
         11    1    3    3    0    0 -0.66281178381E+02 -0.15730212386E+03 -0.27842416544E+03  0.32658409128E+03  0.00000000000E+00 0.  1.
        -11    1    3    3    0    0 -0.10518844830E+03 -0.88136462490E+02 -0.36014988890E+03  0.38540963682E+03  0.00000000000E+00 0. -1.
         22    1    1    2    0    0  0.17146962668E+03  0.24543858635E+03 -0.34621146313E+02  0.30139767138E+03  0.00000000000E+00 0.  1.
<mgrwt>
<rscale>  0 0.75747630E+03</rscale>
<asrwt>0</asrwt>
<pdfrwt beam="1">  1        1 0.12973743E+00 0.75747630E+03</pdfrwt>
<pdfrwt beam="2">  1       -1 0.26168939E-01 0.75747630E+03</pdfrwt>
<totfact> 0.26546689E+02</totfact>
</mgrwt>
</event>
<event>
 6    1  0.9512547E-007  0.5141028E+03  0.7818608E-02  0.1010162E+00
         -2   -1    0    0    0  501 -0.00000000000E+00  0.00000000000E+00  0.59181073217E+02  0.59181073217E+02  0.00000000000E+00 0.  1.
          2   -1    0    0  501    0  0.00000000000E+00 -0.00000000000E+00 -0.11164957993E+04  0.11164957993E+04  0.00000000000E+00 0. -1.
         23    2    1    2    0    0 -0.19474170098E+03  0.49587865358E+02 -0.20927695842E+03  0.30415444488E+03  0.91267707993E+02 0.  0.
         11    1    3    3    0    0 -0.14671450247E+03 -0.63695913626E+01 -0.14393214447E+03  0.20562630946E+03  0.00000000000E+00 0.  1.
        -11    1    3    3    0    0 -0.48027198508E+02  0.55957456720E+02 -0.65344813951E+02  0.98528135420E+02  0.00000000000E+00 0. -1.
         22    1    1    2    0    0  0.19474170098E+03 -0.49587865358E+02 -0.84803776767E+03  0.87152242765E+03  0.00000000000E+00 0. -1.
<mgrwt>
<rscale>  0 0.51410279E+03</rscale>
<asrwt>0</asrwt>
<pdfrwt beam="1">  1        2 0.17176857E+00 0.51410279E+03</pdfrwt>
<pdfrwt beam="2">  1       -2 0.91047810E-02 0.51410279E+03</pdfrwt>
<totfact> 0.17167537E+03</totfact>
</mgrwt>
</event>
<event>
 6    1  0.9512547E-007  0.2808488E+04  0.7818608E-02  0.8300638E-01
          1   -1    0    0  501    0  0.00000000000E+00  0.00000000000E+00  0.30355129770E+04  0.30355129770E+04  0.00000000000E+00 0. -1.
         -1   -1    0    0    0  501 -0.00000000000E+00 -0.00000000000E+00 -0.64961044778E+03  0.64961044778E+03  0.00000000000E+00 0.  1.
         23    2    1    2    0    0  0.49779465306E+03  0.48214707094E+03 -0.40428840258E+03  0.81015720750E+03  0.11242897213E+03 0.  0.
         11    1    3    3    0    0  0.28981065024E+03  0.32021558887E+03 -0.19637296610E+03  0.47443711718E+03  0.00000000000E+00 0. -1.
        -11    1    3    3    0    0  0.20798400282E+03  0.16193148207E+03 -0.20791543649E+03  0.33572009032E+03  0.00000000000E+00 0.  1.
         22    1    1    2    0    0 -0.49779465306E+03 -0.48214707094E+03  0.27901909318E+04  0.28749662173E+04  0.00000000000E+00 0. -1.
<mgrwt>
<rscale>  0 0.28084878E+04</rscale>
<asrwt>0</asrwt>
<pdfrwt beam="1">  1        1 0.46700199E+00 0.28084878E+04</pdfrwt>
<pdfrwt beam="2">  1       -1 0.99940071E-01 0.28084878E+04</pdfrwt>
<totfact> 0.46459611E-01</totfact>
</mgrwt>
</event>
<event>
 6    1  0.9512547E-007  0.4574735E+04  0.7818608E-02  0.7897682E-01
         -2   -1    0    0    0  501 -0.00000000000E+00  0.00000000000E+00  0.22097204579E+04  0.22097204579E+04  0.00000000000E+00 0.  1.
          2   -1    0    0  501    0  0.00000000000E+00 -0.00000000000E+00 -0.23677425009E+04  0.23677425009E+04  0.00000000000E+00 0. -1.
         23    2    1    2    0    0  0.91087673365E+03  0.43671365399E+03  0.19733829208E+04  0.22187975821E+04  0.91691433127E+02 0.  0.
         11    1    3    3    0    0  0.56066679876E+03  0.28656747601E+03  0.11369842605E+04  0.12996928045E+04  0.00000000000E+00 0. -1.
        -11    1    3    3    0    0  0.35020993489E+03  0.15014617798E+03  0.83639866030E+03  0.91910477760E+03  0.00000000000E+00 0.  1.
         22    1    1    2    0    0 -0.91087673365E+03 -0.43671365399E+03 -0.21314049638E+04  0.23586653767E+04  0.00000000000E+00 0. -1.
<mgrwt>
<rscale>  0 0.45747345E+04</rscale>
<asrwt>0</asrwt>
<pdfrwt beam="1">  1        2 0.36426807E+00 0.45747345E+04</pdfrwt>
<pdfrwt beam="2">  1       -2 0.33995700E+00 0.45747345E+04</pdfrwt>
<totfact> 0.56211718E-02</totfact>
</mgrwt>
</event>
<event>
 6    1  0.9512547E-007  0.1659158E+04  0.7818608E-02  0.8785007E-01
         -2   -1    0    0    0  501 -0.00000000000E+00  0.00000000000E+00  0.30137481981E+03  0.30137481981E+03  0.00000000000E+00 0.  1.
          2   -1    0    0  501    0  0.00000000000E+00 -0.00000000000E+00 -0.22835406331E+04  0.22835406331E+04  0.00000000000E+00 0. -1.
         23    2    1    2    0    0 -0.11527212953E+03 -0.70708084073E+03 -0.34993954049E+03  0.80238534523E+03  0.90075418856E+02 0.  0.
         11    1    3    3    0    0 -0.12518678932E+03 -0.52809794964E+03 -0.26770671025E+03  0.60516614193E+03  0.00000000000E+00 0. -1.
        -11    1    3    3    0    0  0.99146597915E+01 -0.17898289109E+03 -0.82232830245E+02  0.19721920330E+03  0.00000000000E+00 0.  1.
         22    1    1    2    0    0  0.11527212953E+03  0.70708084073E+03 -0.16322262728E+04  0.17825301077E+04  0.00000000000E+00 0.  1.
<mgrwt>
<rscale>  0 0.16591584E+04</rscale>
<asrwt>0</asrwt>
<pdfrwt beam="1">  1        2 0.35131395E+00 0.16591584E+04</pdfrwt>
<pdfrwt beam="2">  1       -2 0.46365356E-01 0.16591584E+04</pdfrwt>
<totfact> 0.19518627E+01</totfact>
</mgrwt>
</event>
<event>
 6    1  0.9512547E-007  0.2804230E+04  0.7818608E-02  0.8301956E-01
         -1   -1    0    0    0  501 -0.00000000000E+00  0.00000000000E+00  0.65128974863E+03  0.65128974863E+03  0.00000000000E+00 0.  1.
          1   -1    0    0  501    0  0.00000000000E+00 -0.00000000000E+00 -0.30185133884E+04  0.30185133884E+04  0.00000000000E+00 0. -1.
         23    2    1    2    0    0  0.12355936384E+04  0.42023302633E+03 -0.18502192519E+04  0.22660293045E+04  0.91049949181E+02 0.  0.
         11    1    3    3    0    0  0.10294780290E+04  0.31345457233E+03 -0.15219724444E+04  0.18639954138E+04  0.00000000000E+00 0.  1.
        -11    1    3    3    0    0  0.20611560939E+03  0.10677845400E+03 -0.32824680742E+03  0.40203389068E+03  0.00000000000E+00 0. -1.
         22    1    1    2    0    0 -0.12355936384E+04 -0.42023302633E+03 -0.51700438789E+03  0.14037738325E+04  0.00000000000E+00 0. -1.
<mgrwt>
<rscale>  0 0.28042303E+04</rscale>
<asrwt>0</asrwt>
<pdfrwt beam="1">  1        1 0.46438667E+00 0.28042303E+04</pdfrwt>
<pdfrwt beam="2">  1       -1 0.10019842E+00 0.28042303E+04</pdfrwt>
<totfact> 0.47546712E-01</totfact>
</mgrwt>
</event>
<event>
 6    1  0.9512547E-007  0.2389405E+04  0.7818608E-02  0.8443481E-01
          1   -1    0    0  501    0  0.00000000000E+00  0.00000000000E+00  0.10744191869E+04  0.10744191869E+04  0.00000000000E+00 0. -1.
         -1   -1    0    0    0  501 -0.00000000000E+00 -0.00000000000E+00 -0.13284519590E+04  0.13284519590E+04  0.00000000000E+00 0.  1.
         23    2    1    2    0    0 -0.20160027463E+03 -0.63460992167E+03  0.86819515846E+03  0.10979696356E+04  0.91662774294E+02 0.  0.
         11    1    3    3    0    0 -0.14282435355E+03 -0.31625498009E+03  0.41375009435E+03  0.54000476754E+03  0.00000000000E+00 0.  1.
        -11    1    3    3    0    0 -0.58775921081E+02 -0.31835494159E+03  0.45444506411E+03  0.55796486810E+03  0.00000000000E+00 0. -1.
         22    1    1    2    0    0  0.20160027463E+03  0.63460992167E+03 -0.11222279306E+04  0.13049015103E+04  0.00000000000E+00 0.  1.
<mgrwt>
<rscale>  0 0.23894052E+04</rscale>
<asrwt>0</asrwt>
<pdfrwt beam="1">  1        1 0.16529526E+00 0.23894052E+04</pdfrwt>
<pdfrwt beam="2">  1       -1 0.20437722E+00 0.23894052E+04</pdfrwt>
<totfact> 0.16697660E+00</totfact>
</mgrwt>
</event>
<event>
 6    1  0.9512547E-007  0.2149560E+04  0.7818608E-02  0.8539721E-01
          2   -1    0    0  501    0  0.00000000000E+00  0.00000000000E+00  0.16491789461E+04  0.16491789461E+04  0.00000000000E+00 0. -1.
         -2   -1    0    0    0  501 -0.00000000000E+00 -0.00000000000E+00 -0.70044054476E+03  0.70044054476E+03  0.00000000000E+00 0.  1.
         23    2    1    2    0    0  0.49596016567E+03  0.51138512413E+03  0.13520908671E+04  0.15309715552E+04  0.90735653539E+02 0.  0.
         13    1    3    3    0    0  0.12007680223E+03  0.11977498369E+03  0.40992158241E+03  0.44362167314E+03  0.00000000000E+00 0. -1.
        -13    1    3    3    0    0  0.37588336344E+03  0.39161014044E+03  0.94216928465E+03  0.10873498820E+04  0.00000000000E+00 0.  1.
         22    1    1    2    0    0 -0.49596016567E+03 -0.51138512413E+03 -0.40335246568E+03  0.81864793573E+03  0.00000000000E+00 0.  1.
<mgrwt>
<rscale>  0 0.21495598E+04</rscale>
<asrwt>0</asrwt>
<pdfrwt beam="1">  1        2 0.25371984E+00 0.21495598E+04</pdfrwt>
<pdfrwt beam="2">  1       -2 0.10776008E+00 0.21495598E+04</pdfrwt>
<totfact> 0.66351729E+00</totfact>
</mgrwt>
</event>
<event>
 6    1  0.9512547E-007  0.3219547E+04  0.7818608E-02  0.8183674E-01
         -2   -1    0    0    0  501 -0.00000000000E+00  0.00000000000E+00  0.74489204246E+03  0.74489204246E+03  0.00000000000E+00 0.  1.
          2   -1    0    0  501    0  0.00000000000E+00 -0.00000000000E+00 -0.34788538119E+04  0.34788538119E+04  0.00000000000E+00 0. -1.
         23    2    1    2    0    0  0.15127760606E+04  0.32718075827E+03 -0.19428152812E+04  0.24855135845E+04  0.87794668920E+02 0.  0.
         11    1    3    3    0    0  0.12405791070E+04  0.23344400188E+03 -0.15841665259E+04  0.20256150189E+04  0.00000000000E+00 0.  1.
        -11    1    3    3    0    0  0.27219695356E+03  0.93736756388E+02 -0.35864875527E+03  0.45989856565E+03  0.00000000000E+00 0. -1.
         22    1    1    2    0    0 -0.15127760606E+04 -0.32718075827E+03 -0.79114648820E+03  0.17382322698E+04  0.00000000000E+00 0.  1.
<mgrwt>
<rscale>  0 0.32195469E+04</rscale>
<asrwt>0</asrwt>
<pdfrwt beam="1">  1        2 0.53520827E+00 0.32195469E+04</pdfrwt>
<pdfrwt beam="2">  1       -2 0.11459878E+00 0.32195469E+04</pdfrwt>
<totfact> 0.41999124E-01</totfact>
</mgrwt>
</event>
<event>
 6    1  0.9512547E-007  0.1734890E+04  0.7818608E-02  0.8741712E-01
         -1   -1    0    0    0  501 -0.00000000000E+00  0.00000000000E+00  0.59576180716E+03  0.59576180716E+03  0.00000000000E+00 0.  1.
          1   -1    0    0  501    0  0.00000000000E+00 -0.00000000000E+00 -0.12630231642E+04  0.12630231642E+04  0.00000000000E+00 0. -1.
         23    2    1    2    0    0  0.47228613008E+03  0.51993888109E+03 -0.87558590603E+03  0.11261256055E+04  0.90097568115E+02 0.  0.
         11    1    3    3    0    0  0.30122279150E+02  0.75273892856E+02 -0.10216701519E+03  0.13042856144E+03  0.00000000000E+00 0. -1.
        -11    1    3    3    0    0  0.44216385093E+03  0.44466498823E+03 -0.77341889084E+03  0.99569704405E+03  0.00000000000E+00 0.  1.
         22    1    1    2    0    0 -0.47228613008E+03 -0.51993888109E+03  0.20832454897E+03  0.73265936590E+03  0.00000000000E+00 0.  1.
<mgrwt>
<rscale>  0 0.17348902E+04</rscale>
<asrwt>0</asrwt>
<pdfrwt beam="1">  1        1 0.19431126E+00 0.17348902E+04</pdfrwt>
<pdfrwt beam="2">  1       -1 0.91655663E-01 0.17348902E+04</pdfrwt>
<totfact> 0.10585720E+01</totfact>
</mgrwt>
</event>
<event>
 6    1  0.9512547E-007  0.2656839E+04  0.7818608E-02  0.8349147E-01
          2   -1    0    0  501    0  0.00000000000E+00  0.00000000000E+00  0.11290833801E+04  0.11290833801E+04  0.00000000000E+00 0. -1.
         -2   -1    0    0    0  501 -0.00000000000E+00 -0.00000000000E+00 -0.15629474294E+04  0.15629474294E+04  0.00000000000E+00 0.  1.
         23    2    1    2    0    0 -0.36763752084E+03  0.29898163158E+03 -0.14729815245E+04  0.15499657983E+04  0.90399346188E+02 0.  0.
         13    1    3    3    0    0 -0.19221695850E+03  0.99011374740E+02 -0.68171837086E+03  0.71518567424E+03  0.00000000000E+00 0.  1.
        -13    1    3    3    0    0 -0.17542056234E+03  0.19997025684E+03 -0.79126315361E+03  0.83478012409E+03  0.00000000000E+00 0. -1.
         22    1    1    2    0    0  0.36763752084E+03 -0.29898163158E+03  0.10391174752E+04  0.11420650113E+04  0.00000000000E+00 0. -1.
<mgrwt>
<rscale>  0 0.26568387E+04</rscale>
<asrwt>0</asrwt>
<pdfrwt beam="1">  1        2 0.17370514E+00 0.26568387E+04</pdfrwt>
<pdfrwt beam="2">  1       -2 0.24045345E+00 0.26568387E+04</pdfrwt>
<totfact> 0.13546551E+00</totfact>
</mgrwt>
</event>
<event>
 6    1  0.9512547E-007  0.1854146E+04  0.7818608E-02  0.8678024E-01
         -1   -1    0    0    0  501 -0.00000000000E+00  0.00000000000E+00  0.51501928956E+03  0.51501928956E+03  0.00000000000E+00 0.  1.
          1   -1    0    0  501    0  0.00000000000E+00 -0.00000000000E+00 -0.16688000606E+04  0.16688000606E+04  0.00000000000E+00 0. -1.
         23    2    1    2    0    0 -0.91979915195E+03 -0.97813157967E+02 -0.56121240785E+03  0.10853043713E+04  0.85605594348E+02 0.  0.
         11    1    3    3    0    0 -0.76890730759E+03 -0.50270408603E+02 -0.45740116073E+03  0.89608112550E+03  0.00000000000E+00 0. -1.
        -11    1    3    3    0    0 -0.15089184436E+03 -0.47542749364E+02 -0.10381124712E+03  0.18922324577E+03  0.00000000000E+00 0.  1.
         22    1    1    2    0    0  0.91979915195E+03  0.97813157967E+02 -0.59256836319E+03  0.10985149789E+04  0.00000000000E+00 0. -1.
<mgrwt>
<rscale>  0 0.18541459E+04</rscale>
<asrwt>0</asrwt>
<pdfrwt beam="1">  1        1 0.25673848E+00 0.18541459E+04</pdfrwt>
<pdfrwt beam="2">  1       -1 0.79233735E-01 0.18541459E+04</pdfrwt>
<totfact> 0.74855902E+00</totfact>
</mgrwt>
</event>
<event>
 6    1  0.9512547E-007  0.1528652E+04  0.7818608E-02  0.8865620E-01
         -1   -1    0    0    0  501 -0.00000000000E+00  0.00000000000E+00  0.10633968871E+04  0.10633968871E+04  0.00000000000E+00 0.  1.
          1   -1    0    0  501    0  0.00000000000E+00 -0.00000000000E+00 -0.54936604356E+03  0.54936604356E+03  0.00000000000E+00 0. -1.
         23    2    1    2    0    0 -0.12127087314E+02 -0.61186421758E+03 -0.22023261725E+03  0.65690325640E+03  0.92166130212E+02 0.  0.
         13    1    3    3    0    0  0.17921594964E+02 -0.53700189804E+03 -0.17917871004E+03  0.56638964697E+03  0.00000000000E+00 0.  1.
        -13    1    3    3    0    0 -0.30048682277E+02 -0.74862319546E+02 -0.41053907213E+02  0.90513609429E+02  0.00000000000E+00 0. -1.
         22    1    1    2    0    0  0.12127087314E+02  0.61186421758E+03  0.73426346078E+03  0.95585967424E+03  0.00000000000E+00 0.  1.
<mgrwt>
<rscale>  0 0.15286519E+04</rscale>
<asrwt>0</asrwt>
<pdfrwt beam="1">  1        1 0.84517853E-01 0.15286519E+04</pdfrwt>
<pdfrwt beam="2">  1       -1 0.16359952E+00 0.15286519E+04</pdfrwt>
<totfact> 0.10294123E+01</totfact>
</mgrwt>
</event>
<event>
 6    1  0.9512547E-007  0.4526893E+04  0.7818608E-02  0.7905946E-01
         -2   -1    0    0    0  501 -0.00000000000E+00  0.00000000000E+00  0.28413910470E+04  0.28413910470E+04  0.00000000000E+00 0.  1.
          2   -1    0    0  501    0  0.00000000000E+00 -0.00000000000E+00 -0.18030567058E+04  0.18030567058E+04  0.00000000000E+00 0. -1.
         23    2    1    2    0    0  0.61447167230E+03 -0.18271464038E+04  0.17347911344E+04  0.25947913227E+04  0.86036687385E+02 0.  0.
         11    1    3    3    0    0  0.23270751009E+03 -0.56636779870E+03  0.54970549246E+03  0.82286171201E+03  0.00000000000E+00 0. -1.
        -11    1    3    3    0    0  0.38176416221E+03 -0.12607786051E+04  0.11850856419E+04  0.17719296107E+04  0.00000000000E+00 0.  1.
         22    1    1    2    0    0 -0.61447167230E+03  0.18271464038E+04 -0.69645679322E+03  0.20496564301E+04  0.00000000000E+00 0. -1.
<mgrwt>
<rscale>  0 0.45268926E+04</rscale>
<asrwt>0</asrwt>
<pdfrwt beam="1">  1        2 0.27739334E+00 0.45268926E+04</pdfrwt>
<pdfrwt beam="2">  1       -2 0.43713708E+00 0.45268926E+04</pdfrwt>
<totfact> 0.27467101E-02</totfact>
</mgrwt>
</event>
<event>
 6    1  0.9512547E-007  0.4911028E+03  0.7818608E-02  0.1016128E+00
         -1   -1    0    0    0  501 -0.00000000000E+00  0.00000000000E+00  0.14302978854E+04  0.14302978854E+04  0.00000000000E+00 0.  1.
          1   -1    0    0  501    0  0.00000000000E+00 -0.00000000000E+00 -0.42155890964E+02  0.42155890964E+02  0.00000000000E+00 0. -1.
         23    2    1    2    0    0  0.69491529661E+02 -0.49569732540E+02  0.13810596422E+04  0.13868010427E+04  0.92764031777E+02 0.  0.
         13    1    3    3    0    0  0.69356417954E+02  0.51936513011E+01  0.65616450371E+03  0.65984024025E+03  0.00000000000E+00 0. -1.
        -13    1    3    3    0    0  0.13511170670E+00 -0.54763383841E+02  0.72489513848E+03  0.72696080242E+03  0.00000000000E+00 0.  1.
         22    1    1    2    0    0 -0.69491529661E+02  0.49569732540E+02  0.70823522653E+01  0.85652733712E+02  0.00000000000E+00 0. -1.
<mgrwt>
<rscale>  0 0.49110277E+03</rscale>
<asrwt>0</asrwt>
<pdfrwt beam="1">  1        1 0.64855228E-02 0.49110277E+03</pdfrwt>
<pdfrwt beam="2">  1       -1 0.22004579E+00 0.49110277E+03</pdfrwt>
<totfact> 0.14059673E+02</totfact>
</mgrwt>
</event>
<event>
 6    1  0.9512547E-007  0.1285006E+04  0.7818608E-02  0.9041541E-01
         -2   -1    0    0    0  501 -0.00000000000E+00  0.00000000000E+00  0.50739784584E+03  0.50739784584E+03  0.00000000000E+00 0.  1.
          2   -1    0    0  501    0  0.00000000000E+00 -0.00000000000E+00 -0.81358275569E+03  0.81358275569E+03  0.00000000000E+00 0. -1.
         23    2    1    2    0    0  0.18781539025E+03  0.99046360223E+01 -0.78200352205E+03  0.80934003008E+03  0.90161262000E+02 0.  0.
         11    1    3    3    0    0  0.32526844657E+02 -0.28319577662E+02 -0.25446019816E+03  0.25808910584E+03  0.00000000000E+00 0. -1.
        -11    1    3    3    0    0  0.15528854560E+03  0.38224213684E+02 -0.52754332389E+03  0.55125092425E+03  0.00000000000E+00 0.  1.
         22    1    1    2    0    0 -0.18781539025E+03 -0.99046360223E+01  0.47581861221E+03  0.51164057145E+03  0.00000000000E+00 0.  1.
<mgrwt>
<rscale>  0 0.12850061E+04</rscale>
<asrwt>0</asrwt>
<pdfrwt beam="1">  1        2 0.12516658E+00 0.12850061E+04</pdfrwt>
<pdfrwt beam="2">  1       -2 0.78061208E-01 0.12850061E+04</pdfrwt>
<totfact> 0.48284965E+01</totfact>
</mgrwt>
</event>
<event>
 6    1  0.9512547E-007  0.1157765E+04  0.7818608E-02  0.9150649E-01
          2   -1    0    0  501    0  0.00000000000E+00  0.00000000000E+00  0.72744462233E+03  0.72744462233E+03  0.00000000000E+00 0. -1.
         -2   -1    0    0    0  501 -0.00000000000E+00 -0.00000000000E+00 -0.46066076033E+03  0.46066076033E+03  0.00000000000E+00 0.  1.
         23    2    1    2    0    0 -0.48324360561E+03  0.16303184150E+03 -0.13932537822E+03  0.53616330034E+03  0.89195066602E+02 0.  0.
         13    1    3    3    0    0 -0.26692842120E+03  0.11432195115E+03 -0.11788972259E+03  0.31339795349E+03  0.00000000000E+00 0.  1.
        -13    1    3    3    0    0 -0.21631518441E+03  0.48709890351E+02 -0.21435655634E+02  0.22276534685E+03  0.00000000000E+00 0. -1.
         22    1    1    2    0    0  0.48324360561E+03 -0.16303184150E+03  0.40610924023E+03  0.65194208232E+03  0.00000000000E+00 0. -1.
<mgrwt>
<rscale>  0 0.11577654E+04</rscale>
<asrwt>0</asrwt>
<pdfrwt beam="1">  1        2 0.11191456E+00 0.11577654E+04</pdfrwt>
<pdfrwt beam="2">  1       -2 0.70870887E-01 0.11577654E+04</pdfrwt>
<totfact> 0.69867088E+01</totfact>
</mgrwt>
</event>
<event>
 6    1  0.9512547E-007  0.3182493E+04  0.7818608E-02  0.8193456E-01
          1   -1    0    0  501    0  0.00000000000E+00  0.00000000000E+00  0.23794408251E+04  0.23794408251E+04  0.00000000000E+00 0. -1.
         -1   -1    0    0    0  501 -0.00000000000E+00 -0.00000000000E+00 -0.10641431874E+04  0.10641431874E+04  0.00000000000E+00 0.  1.
         23    2    1    2    0    0 -0.82739749081E+03 -0.95751876100E+03 -0.38320557453E+03  0.13254853492E+04  0.92930689921E+02 0.  0.
         11    1    3    3    0    0 -0.61482402464E+03 -0.75000119289E+03 -0.32466800665E+03  0.10227021488E+04  0.00000000000E+00 0. -1.
        -11    1    3    3    0    0 -0.21257346617E+03 -0.20751756811E+03 -0.58537567886E+02  0.30278320041E+03  0.00000000000E+00 0.  1.
         22    1    1    2    0    0  0.82739749081E+03  0.95751876100E+03  0.16985032122E+04  0.21180986633E+04  0.00000000000E+00 0. -1.
<mgrwt>
<rscale>  0 0.31824932E+04</rscale>
<asrwt>0</asrwt>
<pdfrwt beam="1">  1        1 0.36606782E+00 0.31824932E+04</pdfrwt>
<pdfrwt beam="2">  1       -1 0.16371434E+00 0.31824932E+04</pdfrwt>
<totfact> 0.37673649E-01</totfact>
</mgrwt>
</event>
<event>
 6    1  0.9512547E-007  0.5814695E+04  0.7818608E-02  0.7713811E-01
          2   -1    0    0  501    0  0.00000000000E+00  0.00000000000E+00  0.30705290267E+04  0.30705290267E+04  0.00000000000E+00 0. -1.
         -2   -1    0    0    0  501 -0.00000000000E+00 -0.00000000000E+00 -0.27528385803E+04  0.27528385803E+04  0.00000000000E+00 0.  1.
         23    2    1    2    0    0  0.95390432624E+03 -0.20056713918E+03  0.29013442961E+04  0.30619498813E+04  0.87050045231E+02 0.  0.
         11    1    3    3    0    0  0.46486538799E+03 -0.10811614491E+03  0.12881101664E+04  0.13736872753E+04  0.00000000000E+00 0. -1.
        -11    1    3    3    0    0  0.48903893825E+03 -0.92450994273E+02  0.16132341297E+04  0.16882626060E+04  0.00000000000E+00 0.  1.
         22    1    1    2    0    0 -0.95390432624E+03  0.20056713918E+03 -0.25836538497E+04  0.27614177257E+04  0.00000000000E+00 0.  1.
<mgrwt>
<rscale>  0 0.58146954E+04</rscale>
<asrwt>0</asrwt>
<pdfrwt beam="1">  1        2 0.47238908E+00 0.58146954E+04</pdfrwt>
<pdfrwt beam="2">  1       -2 0.42351363E+00 0.58146954E+04</pdfrwt>
<totfact> 0.55866416E-03</totfact>
</mgrwt>
</event>
<event>
 6    1  0.9512547E-007  0.1847440E+04  0.7818608E-02  0.8681470E-01
         -1   -1    0    0    0  501 -0.00000000000E+00  0.00000000000E+00  0.70951192499E+03  0.70951192499E+03  0.00000000000E+00 0.  1.
          1   -1    0    0  501    0  0.00000000000E+00 -0.00000000000E+00 -0.12026000063E+04  0.12026000063E+04  0.00000000000E+00 0. -1.
         23    2    1    2    0    0  0.38927077174E+03 -0.35008462879E+03 -0.10316593501E+04  0.11610127417E+04  0.97665708292E+02 0.  0.
         11    1    3    3    0    0  0.25771490664E+03 -0.17572593661E+03 -0.65818244898E+03  0.72835479957E+03  0.00000000000E+00 0.  1.
        -11    1    3    3    0    0  0.13155586510E+03 -0.17435869217E+03 -0.37347690116E+03  0.43265794212E+03  0.00000000000E+00 0. -1.
         22    1    1    2    0    0 -0.38927077174E+03  0.35008462879E+03  0.53857126882E+03  0.75109918961E+03  0.00000000000E+00 0.  1.
<mgrwt>
<rscale>  0 0.18474404E+04</rscale>
<asrwt>0</asrwt>
<pdfrwt beam="1">  1        1 0.18501538E+00 0.18474404E+04</pdfrwt>
<pdfrwt beam="2">  1       -1 0.10915568E+00 0.18474404E+04</pdfrwt>
<totfact> 0.77717551E+00</totfact>
</mgrwt>
</event>
<event>
 6    1  0.9512547E-007  0.5306170E+03  0.7818608E-02  0.1006083E+00
         -2   -1    0    0    0  501 -0.00000000000E+00  0.00000000000E+00  0.26058945380E+03  0.26058945380E+03  0.00000000000E+00 0.  1.
          2   -1    0    0  501    0  0.00000000000E+00 -0.00000000000E+00 -0.27011300714E+03  0.27011300714E+03  0.00000000000E+00 0. -1.
         23    2    1    2    0    0  0.17563697606E+03 -0.63393286932E+02  0.17224961973E+03  0.27010978523E+03  0.91773135476E+02 0.  0.
         11    1    3    3    0    0  0.34230727261E+02 -0.36348127514E+02  0.93535002568E+02  0.10602700490E+03  0.00000000000E+00 0.  1.
        -11    1    3    3    0    0  0.14140624880E+03 -0.27045159418E+02  0.78714617159E+02  0.16408278034E+03  0.00000000000E+00 0. -1.
         22    1    1    2    0    0 -0.17563697606E+03  0.63393286932E+02 -0.18177317307E+03  0.26059267571E+03  0.00000000000E+00 0. -1.
<mgrwt>
<rscale>  0 0.53061700E+03</rscale>
<asrwt>0</asrwt>
<pdfrwt beam="1">  1        2 0.41555847E-01 0.53061700E+03</pdfrwt>
<pdfrwt beam="2">  1       -2 0.40090685E-01 0.53061700E+03</pdfrwt>
<totfact> 0.73049596E+02</totfact>
</mgrwt>
</event>
<event>
 6    1  0.9512547E-007  0.1226494E+04  0.7818608E-02  0.9089977E-01
         -2   -1    0    0    0  501 -0.00000000000E+00  0.00000000000E+00  0.32325087735E+03  0.32325087735E+03  0.00000000000E+00 0.  1.
          2   -1    0    0  501    0  0.00000000000E+00 -0.00000000000E+00 -0.11634061966E+04  0.11634061966E+04  0.00000000000E+00 0. -1.
         23    2    1    2    0    0  0.35492588434E+03  0.14556659752E+03 -0.99715831212E+03  0.10721550144E+04  0.89608357372E+02 0.  0.
         11    1    3    3    0    0  0.20122256043E+03  0.10960171609E+03 -0.48857918764E+03  0.53964124897E+03  0.00000000000E+00 0. -1.
        -11    1    3    3    0    0  0.15370332390E+03  0.35964881426E+02 -0.50857912447E+03  0.53251376539E+03  0.00000000000E+00 0.  1.
         22    1    1    2    0    0 -0.35492588434E+03 -0.14556659752E+03  0.15700299282E+03  0.41450205963E+03  0.00000000000E+00 0.  1.
<mgrwt>
<rscale>  0 0.12264943E+04</rscale>
<asrwt>0</asrwt>
<pdfrwt beam="1">  1        2 0.17898557E+00 0.12264943E+04</pdfrwt>
<pdfrwt beam="2">  1       -2 0.49730904E-01 0.12264943E+04</pdfrwt>
<totfact> 0.75079752E+01</totfact>
</mgrwt>
</event>
<event>
 6    1  0.9512547E-007  0.1376082E+04  0.7818608E-02  0.8971316E-01
         -2   -1    0    0    0  501 -0.00000000000E+00  0.00000000000E+00  0.58058787361E+03  0.58058787361E+03  0.00000000000E+00 0.  1.
          2   -1    0    0  501    0  0.00000000000E+00 -0.00000000000E+00 -0.81538116250E+03  0.81538116250E+03  0.00000000000E+00 0. -1.
         23    2    1    2    0    0  0.11036201741E+03  0.59098034631E+03  0.21498046943E+03  0.64514683460E+03  0.92521842549E+02 0.  0.
         13    1    3    3    0    0  0.87723646728E+02  0.35460443672E+03  0.87474100143E+02  0.37562143566E+03  0.00000000000E+00 0. -1.
        -13    1    3    3    0    0  0.22638370678E+02  0.23637590959E+03  0.12750636929E+03  0.26952539894E+03  0.00000000000E+00 0.  1.
         22    1    1    2    0    0 -0.11036201741E+03 -0.59098034631E+03 -0.44977375833E+03  0.75082220151E+03  0.00000000000E+00 0.  1.
<mgrwt>
<rscale>  0 0.13760820E+04</rscale>
<asrwt>0</asrwt>
<pdfrwt beam="1">  1        2 0.12544326E+00 0.13760820E+04</pdfrwt>
<pdfrwt beam="2">  1       -2 0.89321212E-01 0.13760820E+04</pdfrwt>
<totfact> 0.35220403E+01</totfact>
</mgrwt>
</event>
<event>
 6    1  0.9512547E-007  0.2896412E+04  0.7818608E-02  0.8273946E-01
          2   -1    0    0  501    0  0.00000000000E+00  0.00000000000E+00  0.35541746165E+04  0.35541746165E+04  0.00000000000E+00 0. -1.
         -2   -1    0    0    0  501 -0.00000000000E+00 -0.00000000000E+00 -0.59009493368E+03  0.59009493368E+03  0.00000000000E+00 0.  1.
         23    2    1    2    0    0  0.68186764861E+03  0.67180413465E+03 -0.68809983054E+02  0.96391044923E+03  0.90134648275E+02 0.  0.
         11    1    3    3    0    0  0.53770410187E+03  0.50611343368E+03 -0.86972313168E+02  0.74353257641E+03  0.00000000000E+00 0.  1.
        -11    1    3    3    0    0  0.14416354674E+03  0.16569070097E+03  0.18162330114E+02  0.22037787283E+03  0.00000000000E+00 0. -1.
         22    1    1    2    0    0 -0.68186764861E+03 -0.67180413465E+03  0.30328896659E+04  0.31803591009E+04  0.00000000000E+00 0. -1.
<mgrwt>
<rscale>  0 0.28964119E+04</rscale>
<asrwt>0</asrwt>
<pdfrwt beam="1">  1        2 0.54679608E+00 0.28964119E+04</pdfrwt>
<pdfrwt beam="2">  1       -2 0.90783838E-01 0.28964119E+04</pdfrwt>
<totfact> 0.66545235E-01</totfact>
</mgrwt>
</event>
<event>
 6    1  0.9512547E-007  0.1954308E+04  0.7818608E-02  0.8628286E-01
          2   -1    0    0  501    0  0.00000000000E+00  0.00000000000E+00  0.26806646438E+04  0.26806646438E+04  0.00000000000E+00 0. -1.
         -2   -1    0    0    0  501 -0.00000000000E+00 -0.00000000000E+00 -0.35619161923E+03  0.35619161923E+03  0.00000000000E+00 0.  1.
         23    2    1    2    0    0  0.13300515067E+03  0.92181363445E+03  0.71840720589E+03  0.11802792620E+04  0.97567802565E+02 0.  0.
         11    1    3    3    0    0  0.99431495260E+02  0.68319349517E+03  0.47672183999E+03  0.83898968219E+03  0.00000000000E+00 0. -1.
        -11    1    3    3    0    0  0.33573655411E+02  0.23862013928E+03  0.24168536589E+03  0.34128957982E+03  0.00000000000E+00 0.  1.
         22    1    1    2    0    0 -0.13300515067E+03 -0.92181363445E+03  0.16060658187E+04  0.18565770010E+04  0.00000000000E+00 0. -1.
<mgrwt>
<rscale>  0 0.19543083E+04</rscale>
<asrwt>0</asrwt>
<pdfrwt beam="1">  1        2 0.41240993E+00 0.19543083E+04</pdfrwt>
<pdfrwt beam="2">  1       -2 0.54798712E-01 0.19543083E+04</pdfrwt>
<totfact> 0.79758711E+00</totfact>
</mgrwt>
</event>
<event>
 6    1  0.9512547E-007  0.1368602E+04  0.7818608E-02  0.8976865E-01
          1   -1    0    0  501    0  0.00000000000E+00  0.00000000000E+00  0.80386406243E+03  0.80386406243E+03  0.00000000000E+00 0. -1.
         -1   -1    0    0    0  501 -0.00000000000E+00 -0.00000000000E+00 -0.58252150715E+03  0.58252150715E+03  0.00000000000E+00 0.  1.
         23    2    1    2    0    0 -0.56534902760E+02  0.66854829965E+03  0.23088692973E+03  0.71538324524E+03  0.91166819929E+02 0.  0.
         13    1    3    3    0    0 -0.17145298879E+02  0.57701100458E+03  0.19097748434E+03  0.60803623264E+03  0.00000000000E+00 0.  1.
        -13    1    3    3    0    0 -0.39389603881E+02  0.91537295070E+02  0.39909445389E+02  0.10734701260E+03  0.00000000000E+00 0. -1.
         22    1    1    2    0    0  0.56534902760E+02 -0.66854829965E+03 -0.95443744485E+01  0.67100232434E+03  0.00000000000E+00 0. -1.
<mgrwt>
<rscale>  0 0.13686024E+04</rscale>
<asrwt>0</asrwt>
<pdfrwt beam="1">  1        1 0.12367139E+00 0.13686024E+04</pdfrwt>
<pdfrwt beam="2">  1       -1 0.89618693E-01 0.13686024E+04</pdfrwt>
<totfact> 0.26157503E+01</totfact>
</mgrwt>
</event>
<event>
 6    1  0.9512547E-007  0.3537259E+04  0.7818608E-02  0.8105016E-01
          1   -1    0    0  501    0  0.00000000000E+00  0.00000000000E+00  0.13503017254E+04  0.13503017254E+04  0.00000000000E+00 0. -1.
         -1   -1    0    0    0  501 -0.00000000000E+00 -0.00000000000E+00 -0.23165559733E+04  0.23165559733E+04  0.00000000000E+00 0.  1.
         23    2    1    2    0    0  0.85131131269E+03  0.47821335031E+03 -0.20106052745E+04  0.22371416339E+04  0.94075292606E+02 0.  0.
         13    1    3    3    0    0  0.41096985683E+03  0.21640127787E+03 -0.10597108875E+04  0.11570276148E+04  0.00000000000E+00 0.  1.
        -13    1    3    3    0    0  0.44034145585E+03  0.26181207245E+03 -0.95089438695E+03  0.10801140191E+04  0.00000000000E+00 0. -1.
         22    1    1    2    0    0 -0.85131131269E+03 -0.47821335031E+03  0.10443510265E+04  0.14297160648E+04  0.00000000000E+00 0. -1.
<mgrwt>
<rscale>  0 0.35372586E+04</rscale>
<asrwt>0</asrwt>
<pdfrwt beam="1">  1        1 0.20773873E+00 0.35372586E+04</pdfrwt>
<pdfrwt beam="2">  1       -1 0.35639322E+00 0.35372586E+04</pdfrwt>
<totfact> 0.95400924E-02</totfact>
</mgrwt>
</event>
<event>
 6    1  0.9512547E-007  0.3110784E+04  0.7818608E-02  0.8212785E-01
          1   -1    0    0  501    0  0.00000000000E+00  0.00000000000E+00  0.10273090121E+04  0.10273090121E+04  0.00000000000E+00 0. -1.
         -1   -1    0    0    0  501 -0.00000000000E+00 -0.00000000000E+00 -0.23549332641E+04  0.23549332641E+04  0.00000000000E+00 0.  1.
         23    2    1    2    0    0  0.21786638659E+03 -0.15381647181E+04 -0.70763893322E+03  0.17095802488E+04  0.92169978435E+02 0.  0.
         13    1    3    3    0    0  0.10435053225E+03 -0.64279222895E+03 -0.24895096486E+03  0.69717104507E+03  0.00000000000E+00 0.  1.
        -13    1    3    3    0    0  0.11351585435E+03 -0.89537248912E+03 -0.45868796836E+03  0.10124092037E+04  0.00000000000E+00 0. -1.
         22    1    1    2    0    0 -0.21786638659E+03  0.15381647181E+04 -0.61998531883E+03  0.16726620274E+04  0.00000000000E+00 0.  1.
<mgrwt>
<rscale>  0 0.31107839E+04</rscale>
<asrwt>0</asrwt>
<pdfrwt beam="1">  1        1 0.15804754E+00 0.31107839E+04</pdfrwt>
<pdfrwt beam="2">  1       -1 0.36229742E+00 0.31107839E+04</pdfrwt>
<totfact> 0.15623371E-01</totfact>
</mgrwt>
</event>
<event>
 6    1  0.9512547E-007  0.3358189E+04  0.7818608E-02  0.8148245E-01
         -1   -1    0    0    0  501 -0.00000000000E+00  0.00000000000E+00  0.13653378340E+04  0.13653378340E+04  0.00000000000E+00 0.  1.
          1   -1    0    0  501    0  0.00000000000E+00 -0.00000000000E+00 -0.20649527340E+04  0.20649527340E+04  0.00000000000E+00 0. -1.
         23    2    1    2    0    0 -0.37009367404E+03  0.40733561682E+03 -0.19690778213E+04  0.20466620988E+04  0.93094833223E+02 0.  0.
         11    1    3    3    0    0 -0.21698808427E+03  0.30333627288E+03 -0.12950116760E+04  0.13476468247E+04  0.00000000000E+00 0.  1.
        -11    1    3    3    0    0 -0.15310558977E+03  0.10399934395E+03 -0.67406614527E+03  0.69901527405E+03  0.00000000000E+00 0. -1.
         22    1    1    2    0    0  0.37009367404E+03 -0.40733561682E+03  0.12694629213E+04  0.13836284692E+04  0.00000000000E+00 0.  1.
<mgrwt>
<rscale>  0 0.33581889E+04</rscale>
<asrwt>0</asrwt>
<pdfrwt beam="1">  1        1 0.31768504E+00 0.33581889E+04</pdfrwt>
<pdfrwt beam="2">  1       -1 0.21005198E+00 0.33581889E+04</pdfrwt>
<totfact> 0.28552185E-01</totfact>
</mgrwt>
</event>
<event>
 6    1  0.9512547E-007  0.1861983E+04  0.7818608E-02  0.8674015E-01
          1   -1    0    0  501    0  0.00000000000E+00  0.00000000000E+00  0.16734931703E+04  0.16734931703E+04  0.00000000000E+00 0. -1.
         -1   -1    0    0    0  501 -0.00000000000E+00 -0.00000000000E+00 -0.51792578771E+03  0.51792578771E+03  0.00000000000E+00 0.  1.
         23    2    1    2    0    0 -0.62727713287E+02 -0.46002122948E+03  0.15258984049E+04  0.15975339828E+04  0.90523955124E+02 0.  0.
         13    1    3    3    0    0 -0.82230647797E+02 -0.27801312069E+03  0.92379584283E+03  0.96822101503E+03  0.00000000000E+00 0. -1.
        -13    1    3    3    0    0  0.19502934510E+02 -0.18200810880E+03  0.60210256211E+03  0.62931296778E+03  0.00000000000E+00 0.  1.
         22    1    1    2    0    0  0.62727713287E+02  0.46002122948E+03 -0.37033102238E+03  0.59388497517E+03  0.00000000000E+00 0.  1.
<mgrwt>
<rscale>  0 0.18619831E+04</rscale>
<asrwt>0</asrwt>
<pdfrwt beam="1">  1        1 0.25746048E+00 0.18619831E+04</pdfrwt>
<pdfrwt beam="2">  1       -1 0.79680891E-01 0.18619831E+04</pdfrwt>
<totfact> 0.73371036E+00</totfact>
</mgrwt>
</event>
<event>
 6    1  0.9512547E-007  0.1001405E+04  0.7818608E-02  0.9307005E-01
          2   -1    0    0  501    0  0.00000000000E+00  0.00000000000E+00  0.89623454996E+03  0.89623454996E+03  0.00000000000E+00 0. -1.
         -2   -1    0    0    0  501 -0.00000000000E+00 -0.00000000000E+00 -0.27972911015E+03  0.27972911015E+03  0.00000000000E+00 0.  1.
         23    2    1    2    0    0 -0.22966520056E+03 -0.21499336035E+03 -0.14035249065E+03  0.35632826785E+03  0.91119501184E+02 0.  0.
         11    1    3    3    0    0 -0.58218098721E+02 -0.24181057789E+02 -0.61228968696E+02  0.87880926156E+02  0.00000000000E+00 0. -1.
        -11    1    3    3    0    0 -0.17144710184E+03 -0.19081230256E+03 -0.79123521958E+02  0.26844734170E+03  0.00000000000E+00 0.  1.
         22    1    1    2    0    0  0.22966520056E+03  0.21499336035E+03  0.75685793047E+03  0.81963539226E+03  0.00000000000E+00 0. -1.
<mgrwt>
<rscale>  0 0.10014048E+04</rscale>
<asrwt>0</asrwt>
<pdfrwt beam="1">  1        2 0.13788224E+00 0.10014048E+04</pdfrwt>
<pdfrwt beam="2">  1       -2 0.43035248E-01 0.10014048E+04</pdfrwt>
<totfact> 0.15065182E+02</totfact>
</mgrwt>
</event>
<event>
 6    1  0.9512547E-007  0.3066422E+04  0.7818608E-02  0.8225014E-01
         -1   -1    0    0    0  501 -0.00000000000E+00  0.00000000000E+00  0.57257390571E+03  0.57257390571E+03  0.00000000000E+00 0.  1.
          1   -1    0    0  501    0  0.00000000000E+00 -0.00000000000E+00 -0.41055597133E+04  0.41055597133E+04  0.00000000000E+00 0. -1.
         23    2    1    2    0    0 -0.47510974808E+03 -0.12977890877E+04 -0.27763069046E+04  0.31025230227E+04  0.88222949755E+02 0.  0.
         11    1    3    3    0    0 -0.41956889664E+03 -0.11596137916E+04 -0.24122905344E+04  0.27092227348E+04  0.00000000000E+00 0.  1.
        -11    1    3    3    0    0 -0.55540851444E+02 -0.13817529614E+03 -0.36401637029E+03  0.39330028792E+03  0.00000000000E+00 0. -1.
         22    1    1    2    0    0  0.47510974808E+03  0.12977890877E+04 -0.75667890293E+03  0.15756105963E+04  0.00000000000E+00 0.  1.
<mgrwt>
<rscale>  0 0.30664223E+04</rscale>
<asrwt>0</asrwt>
<pdfrwt beam="1">  1        1 0.63162456E+00 0.30664223E+04</pdfrwt>
<pdfrwt beam="2">  1       -1 0.88088294E-01 0.30664223E+04</pdfrwt>
<totfact> 0.82680304E-02</totfact>
</mgrwt>
</event>
<event>
 6    1  0.9512547E-007  0.1323710E+04  0.7818608E-02  0.9010971E-01
         -2   -1    0    0    0  501 -0.00000000000E+00  0.00000000000E+00  0.48151163173E+03  0.48151163173E+03  0.00000000000E+00 0.  1.
          2   -1    0    0  501    0  0.00000000000E+00 -0.00000000000E+00 -0.90974338899E+03  0.90974338899E+03  0.00000000000E+00 0. -1.
         23    2    1    2    0    0 -0.51320924503E+03 -0.41117771281E+03 -0.17540033395E+03  0.68671647010E+03  0.91451585297E+02 0.  0.
         13    1    3    3    0    0 -0.23356495756E+03 -0.13343037621E+03 -0.54542580995E+02  0.27446520332E+03  0.00000000000E+00 0. -1.
        -13    1    3    3    0    0 -0.27964428748E+03 -0.27774733660E+03 -0.12085775295E+03  0.41225126677E+03  0.00000000000E+00 0.  1.
         22    1    1    2    0    0  0.51320924503E+03  0.41117771281E+03 -0.25283142330E+03  0.70453855062E+03  0.00000000000E+00 0.  1.
<mgrwt>
<rscale>  0 0.13237100E+04</rscale>
<asrwt>0</asrwt>
<pdfrwt beam="1">  1        2 0.13996052E+00 0.13237100E+04</pdfrwt>
<pdfrwt beam="2">  1       -2 0.74078714E-01 0.13237100E+04</pdfrwt>
<totfact> 0.46397081E+01</totfact>
</mgrwt>
</event>
<event>
 6    1  0.9512547E-007  0.1465672E+04  0.7818608E-02  0.8907607E-01
         -2   -1    0    0    0  501 -0.00000000000E+00  0.00000000000E+00  0.29207979990E+03  0.29207979990E+03  0.00000000000E+00 0.  1.
          2   -1    0    0  501    0  0.00000000000E+00 -0.00000000000E+00 -0.18387052973E+04  0.18387052973E+04  0.00000000000E+00 0. -1.
         23    2    1    2    0    0  0.58592020046E+03  0.28593198219E+03 -0.29930303279E+03  0.72335022821E+03  0.92702035950E+02 0.  0.
         11    1    3    3    0    0  0.13986110977E+03  0.75985436925E+02 -0.31307075717E+02  0.16221914079E+03  0.00000000000E+00 0.  1.
        -11    1    3    3    0    0  0.44605909070E+03  0.20994654527E+03 -0.26799595707E+03  0.56113108742E+03  0.00000000000E+00 0. -1.
         22    1    1    2    0    0 -0.58592020046E+03 -0.28593198219E+03 -0.12473224646E+04  0.14074348690E+04  0.00000000000E+00 0. -1.
<mgrwt>
<rscale>  0 0.14656721E+04</rscale>
<asrwt>0</asrwt>
<pdfrwt beam="1">  1        2 0.28287774E+00 0.14656721E+04</pdfrwt>
<pdfrwt beam="2">  1       -2 0.44935354E-01 0.14656721E+04</pdfrwt>
<totfact> 0.37363935E+01</totfact>
</mgrwt>
</event>
<event>
 6    1  0.9512547E-007  0.5505193E+03  0.7818608E-02  0.1001374E+00
         -2   -1    0    0    0  501 -0.00000000000E+00  0.00000000000E+00  0.27941939123E+02  0.27941939123E+02  0.00000000000E+00 0.  1.
          2   -1    0    0  501    0  0.00000000000E+00 -0.00000000000E+00 -0.27116184364E+04  0.27116184364E+04  0.00000000000E+00 0. -1.
         23    2    1    2    0    0 -0.11023927166E+03 -0.19100652635E+02 -0.25888715408E+04  0.25929127990E+04  0.91779061546E+02 0.  0.
         13    1    3    3    0    0 -0.23116418712E+02  0.30690197087E+02 -0.43096325037E+03  0.43267260160E+03  0.00000000000E+00 0.  1.
        -13    1    3    3    0    0 -0.87122852947E+02 -0.49790849722E+02 -0.21579082905E+04  0.21602401974E+04  0.00000000000E+00 0. -1.
         22    1    1    2    0    0  0.11023927166E+03  0.19100652635E+02 -0.94804956463E+02  0.14664757658E+03  0.00000000000E+00 0.  1.
<mgrwt>
<rscale>  0 0.55051931E+03</rscale>
<asrwt>0</asrwt>
<pdfrwt beam="1">  1        2 0.41717215E+00 0.55051931E+03</pdfrwt>
<pdfrwt beam="2">  1       -2 0.42987590E-02 0.55051931E+03</pdfrwt>
<totfact> 0.72570384E+02</totfact>
</mgrwt>
</event>
<event>
 6    1  0.9512547E-007  0.1982088E+04  0.7818608E-02  0.8615041E-01
         -2   -1    0    0    0  501 -0.00000000000E+00  0.00000000000E+00  0.41807490742E+03  0.41807490742E+03  0.00000000000E+00 0.  1.
          2   -1    0    0  501    0  0.00000000000E+00 -0.00000000000E+00 -0.23492638941E+04  0.23492638941E+04  0.00000000000E+00 0. -1.
         23    2    1    2    0    0 -0.57158091270E+03  0.77312948113E+03 -0.12915195821E+04  0.16125180875E+04  0.88078471718E+02 0.  0.
         11    1    3    3    0    0 -0.63117273145E+02  0.13853391604E+03 -0.19549620595E+03  0.24777853540E+03  0.00000000000E+00 0. -1.
        -11    1    3    3    0    0 -0.50846363956E+03  0.63459556509E+03 -0.10960233761E+04  0.13647395521E+04  0.00000000000E+00 0.  1.
         22    1    1    2    0    0  0.57158091270E+03 -0.77312948113E+03 -0.63966940458E+03  0.11548207140E+04  0.00000000000E+00 0. -1.
<mgrwt>
<rscale>  0 0.19820881E+04</rscale>
<asrwt>0</asrwt>
<pdfrwt beam="1">  1        2 0.36142522E+00 0.19820881E+04</pdfrwt>
<pdfrwt beam="2">  1       -2 0.64319216E-01 0.19820881E+04</pdfrwt>
<totfact> 0.88330677E+00</totfact>
</mgrwt>
</event>
<event>
 6    1  0.9512547E-007  0.6068301E+04  0.7818608E-02  0.7681991E-01
         -2   -1    0    0    0  501 -0.00000000000E+00  0.00000000000E+00  0.32605144819E+04  0.32605144819E+04  0.00000000000E+00 0.  1.
          2   -1    0    0  501    0  0.00000000000E+00 -0.00000000000E+00 -0.28235017515E+04  0.28235017515E+04  0.00000000000E+00 0. -1.
         23    2    1    2    0    0 -0.15111484219E+04  0.25885323809E+04 -0.24983775069E+03  0.30089824086E+04  0.86526260433E+02 0.  0.
         13    1    3    3    0    0 -0.45402628035E+03  0.85779023067E+03 -0.77785701230E+02  0.97365012114E+03  0.00000000000E+00 0.  1.
        -13    1    3    3    0    0 -0.10571221416E+04  0.17307421502E+04 -0.17205204946E+03  0.20353322875E+04  0.00000000000E+00 0. -1.
         22    1    1    2    0    0  0.15111484219E+04 -0.25885323809E+04  0.68685048113E+03  0.30750338248E+04  0.00000000000E+00 0.  1.
<mgrwt>
<rscale>  0 0.60683007E+04</rscale>
<asrwt>0</asrwt>
<pdfrwt beam="1">  1        2 0.43438489E+00 0.60683007E+04</pdfrwt>
<pdfrwt beam="2">  1       -2 0.50161761E+00 0.60683007E+04</pdfrwt>
<totfact> 0.24439413E-03</totfact>
</mgrwt>
</event>
<event>
 6    1  0.9512547E-007  0.2905068E+04  0.7818608E-02  0.8271371E-01
         -1   -1    0    0    0  501 -0.00000000000E+00  0.00000000000E+00  0.15204944051E+04  0.15204944051E+04  0.00000000000E+00 0.  1.
          1   -1    0    0  501    0  0.00000000000E+00 -0.00000000000E+00 -0.13876108521E+04  0.13876108521E+04  0.00000000000E+00 0. -1.
         23    2    1    2    0    0  0.99907070587E+02 -0.46788829214E+03 -0.13049183898E+04  0.13927916581E+04  0.90309036357E+02 0.  0.
         11    1    3    3    0    0  0.99745769302E+02 -0.25610779334E+03 -0.71445644430E+03  0.76549881196E+03  0.00000000000E+00 0. -1.
        -11    1    3    3    0    0  0.16130128516E+00 -0.21178049880E+03 -0.59046194554E+03  0.62729284614E+03  0.00000000000E+00 0.  1.
         22    1    1    2    0    0 -0.99907070587E+02  0.46788829214E+03  0.14378019429E+04  0.15153135991E+04  0.00000000000E+00 0.  1.
<mgrwt>
<rscale>  0 0.29050677E+04</rscale>
<asrwt>0</asrwt>
<pdfrwt beam="1">  1        1 0.21347859E+00 0.29050677E+04</pdfrwt>
<pdfrwt beam="2">  1       -1 0.23392222E+00 0.29050677E+04</pdfrwt>
<totfact> 0.59797319E-01</totfact>
</mgrwt>
</event>
<event>
 6    1  0.9512547E-007  0.1804767E+04  0.7818608E-02  0.8703768E-01
         -2   -1    0    0    0  501 -0.00000000000E+00  0.00000000000E+00  0.57409359102E+03  0.57409359102E+03  0.00000000000E+00 0.  1.
          2   -1    0    0  501    0  0.00000000000E+00 -0.00000000000E+00 -0.14184031051E+04  0.14184031051E+04  0.00000000000E+00 0. -1.
         23    2    1    2    0    0  0.23283665530E+02 -0.78150158404E+03  0.69287458152E+02  0.79002163085E+03  0.89702677914E+02 0.  0.
         13    1    3    3    0    0 -0.29841143582E+02 -0.46392108984E+03  0.47258761927E+02  0.46727578797E+03  0.00000000000E+00 0. -1.
        -13    1    3    3    0    0  0.53124809112E+02 -0.31758049420E+03  0.22028696225E+02  0.32274584288E+03  0.00000000000E+00 0.  1.
         22    1    1    2    0    0 -0.23283665530E+02  0.78150158404E+03 -0.91359697222E+03  0.12024750653E+04  0.00000000000E+00 0. -1.
<mgrwt>
<rscale>  0 0.18047672E+04</rscale>
<asrwt>0</asrwt>
<pdfrwt beam="1">  1        2 0.21821586E+00 0.18047672E+04</pdfrwt>
<pdfrwt beam="2">  1       -2 0.88322092E-01 0.18047672E+04</pdfrwt>
<totfact> 0.14711541E+01</totfact>
</mgrwt>
</event>
<event>
 6    1  0.1105436E-006  0.3508151E+04  0.7818608E-02  0.8111861E-01
         -2   -1    0    0    0  501 -0.00000000000E+00  0.00000000000E+00  0.21300627158E+04  0.21300627158E+04  0.00000000000E+00 0.  1.
          2   -1    0    0  501    0  0.00000000000E+00 -0.00000000000E+00 -0.14444554609E+04  0.14444554609E+04  0.00000000000E+00 0. -1.
         23    2    1    2    0    0  0.10285232069E+04  0.13880413734E+04  0.64862152935E+03  0.18465463061E+04  0.67115801899E+02 0.  0.
         11    1    3    3    0    0  0.67298843754E+03  0.85585277176E+03  0.41790089005E+03  0.11662069104E+04  0.00000000000E+00 0. -1.
        -11    1    3    3    0    0  0.35553476941E+03  0.53218860160E+03  0.23072063930E+03  0.68033939569E+03  0.00000000000E+00 0.  1.
         22    1    1    2    0    0 -0.10285232069E+04 -0.13880413734E+04  0.36985725564E+02  0.17279718705E+04  0.00000000000E+00 0. -1.
<mgrwt>
<rscale>  0 0.35081509E+04</rscale>
<asrwt>0</asrwt>
<pdfrwt beam="1">  1        2 0.22222392E+00 0.35081509E+04</pdfrwt>
<pdfrwt beam="2">  1       -2 0.32770196E+00 0.35081509E+04</pdfrwt>
<totfact> 0.24037849E-01</totfact>
</mgrwt>
</event>
<event>
 6    1  0.9512547E-007  0.2376764E+04  0.7818608E-02  0.8448254E-01
         -2   -1    0    0    0  501 -0.00000000000E+00  0.00000000000E+00  0.25142354915E+04  0.25142354915E+04  0.00000000000E+00 0.  1.
          2   -1    0    0  501    0  0.00000000000E+00 -0.00000000000E+00 -0.56170245624E+03  0.56170245624E+03  0.00000000000E+00 0. -1.
         23    2    1    2    0    0  0.26726326839E+03 -0.58146252048E+03 -0.31554610120E+03  0.71930660478E+03  0.91128109535E+02 0.  0.
         11    1    3    3    0    0  0.11851438682E+03 -0.30561009270E+03 -0.11568454265E+03  0.34760049202E+03  0.00000000000E+00 0. -1.
        -11    1    3    3    0    0  0.14874888157E+03 -0.27585242778E+03 -0.19986155854E+03  0.37170611276E+03  0.00000000000E+00 0.  1.
         22    1    1    2    0    0 -0.26726326839E+03  0.58146252048E+03  0.22680791365E+04  0.23566313430E+04  0.00000000000E+00 0.  1.
<mgrwt>
<rscale>  0 0.23767644E+04</rscale>
<asrwt>0</asrwt>
<pdfrwt beam="1">  1        2 0.86415764E-01 0.23767644E+04</pdfrwt>
<pdfrwt beam="2">  1       -2 0.38680545E+00 0.23767644E+04</pdfrwt>
<totfact> 0.43799442E-01</totfact>
</mgrwt>
</event>
<event>
 6    1  0.9512547E-007  0.2977713E+04  0.7818608E-02  0.8250124E-01
          2   -1    0    0  501    0  0.00000000000E+00  0.00000000000E+00  0.17741605766E+04  0.17741605766E+04  0.00000000000E+00 0. -1.
         -2   -1    0    0    0  501 -0.00000000000E+00 -0.00000000000E+00 -0.12494327673E+04  0.12494327673E+04  0.00000000000E+00 0.  1.
         23    2    1    2    0    0 -0.78765604042E+03 -0.64465599408E+03 -0.83870814411E+03  0.13221407328E+04  0.92959010243E+02 0.  0.
         13    1    3    3    0    0 -0.40616876944E+03 -0.32381944600E+03 -0.36843830501E+03  0.63685075762E+03  0.00000000000E+00 0.  1.
        -13    1    3    3    0    0 -0.38148727098E+03 -0.32083654807E+03 -0.47026983910E+03  0.68528997517E+03  0.00000000000E+00 0. -1.
         22    1    1    2    0    0  0.78765604042E+03  0.64465599408E+03  0.13634359535E+04  0.17014526111E+04  0.00000000000E+00 0. -1.
<mgrwt>
<rscale>  0 0.29777135E+04</rscale>
<asrwt>0</asrwt>
<pdfrwt beam="1">  1        2 0.27294778E+00 0.29777135E+04</pdfrwt>
<pdfrwt beam="2">  1       -2 0.19222042E+00 0.29777135E+04</pdfrwt>
<totfact> 0.11457394E+00</totfact>
</mgrwt>
</event>
<event>
 6    1  0.9512547E-007  0.2811549E+04  0.7818608E-02  0.8299692E-01
         -2   -1    0    0    0  501 -0.00000000000E+00  0.00000000000E+00  0.90490710096E+03  0.90490710096E+03  0.00000000000E+00 0.  1.
          2   -1    0    0  501    0  0.00000000000E+00 -0.00000000000E+00 -0.21838729282E+04  0.21838729282E+04  0.00000000000E+00 0. -1.
         23    2    1    2    0    0  0.35531999393E+03  0.80532741722E+03  0.56187615241E+03  0.10483134793E+04  0.91933635100E+02 0.  0.
         11    1    3    3    0    0  0.15798034953E+03  0.30729615848E+03  0.17351713870E+03  0.38664831213E+03  0.00000000000E+00 0.  1.
        -11    1    3    3    0    0  0.19733964439E+03  0.49803125874E+03  0.38835901372E+03  0.66166516718E+03  0.00000000000E+00 0. -1.
         22    1    1    2    0    0 -0.35531999393E+03 -0.80532741722E+03 -0.18408419797E+04  0.20404665499E+04  0.00000000000E+00 0. -1.
<mgrwt>
<rscale>  0 0.28115491E+04</rscale>
<asrwt>0</asrwt>
<pdfrwt beam="1">  1        2 0.33598045E+00 0.28115491E+04</pdfrwt>
<pdfrwt beam="2">  1       -2 0.13921648E+00 0.28115491E+04</pdfrwt>
<totfact> 0.16704746E+00</totfact>
</mgrwt>
</event>
<event>
 6    1  0.9512547E-007  0.2099920E+04  0.7818608E-02  0.8561279E-01
          2   -1    0    0  501    0  0.00000000000E+00  0.00000000000E+00  0.22478053232E+04  0.22478053232E+04  0.00000000000E+00 0. -1.
         -2   -1    0    0    0  501 -0.00000000000E+00 -0.00000000000E+00 -0.49044086213E+03  0.49044086213E+03  0.00000000000E+00 0.  1.
         23    2    1    2    0    0 -0.73527080049E+03  0.37158136889E+03  0.35705927812E+02  0.82963308443E+03  0.91215556487E+02 0.  0.
         13    1    3    3    0    0 -0.41162940866E+03  0.16571765494E+03  0.44533818509E+02  0.44596454145E+03  0.00000000000E+00 0. -1.
        -13    1    3    3    0    0 -0.32364139183E+03  0.20586371394E+03 -0.88278906977E+01  0.38366854299E+03  0.00000000000E+00 0.  1.
         22    1    1    2    0    0  0.73527080049E+03 -0.37158136889E+03  0.17216585333E+04  0.19086131009E+04  0.00000000000E+00 0. -1.
<mgrwt>
<rscale>  0 0.20999196E+04</rscale>
<asrwt>0</asrwt>
<pdfrwt beam="1">  1        2 0.34581620E+00 0.20999196E+04</pdfrwt>
<pdfrwt beam="2">  1       -2 0.75452442E-01 0.20999196E+04</pdfrwt>
<totfact> 0.70464392E+00</totfact>
</mgrwt>
</event>
<event>
 6    1  0.9512547E-007  0.2131178E+04  0.7818608E-02  0.8547632E-01
          1   -1    0    0  501    0  0.00000000000E+00  0.00000000000E+00  0.10257461271E+04  0.10257461271E+04  0.00000000000E+00 0. -1.
         -1   -1    0    0    0  501 -0.00000000000E+00 -0.00000000000E+00 -0.11069790354E+04  0.11069790354E+04  0.00000000000E+00 0.  1.
         23    2    1    2    0    0  0.18053959981E+02 -0.77470414464E+03  0.68844859359E+03  0.10405245987E+04  0.90760769647E+02 0.  0.
         11    1    3    3    0    0 -0.34921927288E+02 -0.37351287073E+03  0.31464279579E+03  0.48962382964E+03  0.00000000000E+00 0. -1.
        -11    1    3    3    0    0  0.52975887269E+02 -0.40119127391E+03  0.37380579780E+03  0.55090076907E+03  0.00000000000E+00 0.  1.
         22    1    1    2    0    0 -0.18053959981E+02  0.77470414464E+03 -0.76968150194E+03  0.10922005638E+04  0.00000000000E+00 0.  1.
<mgrwt>
<rscale>  0 0.21311776E+04</rscale>
<asrwt>0</asrwt>
<pdfrwt beam="1">  1        1 0.15780710E+00 0.21311776E+04</pdfrwt>
<pdfrwt beam="2">  1       -1 0.17030447E+00 0.21311776E+04</pdfrwt>
<totfact> 0.32441511E+00</totfact>
</mgrwt>
</event>
<event>
 6    1  0.9512547E-007  0.1138858E+04  0.7818608E-02  0.9168125E-01
          2   -1    0    0  501    0  0.00000000000E+00  0.00000000000E+00  0.46485810659E+03  0.46485810659E+03  0.00000000000E+00 0. -1.
         -2   -1    0    0    0  501 -0.00000000000E+00 -0.00000000000E+00 -0.69752296836E+03  0.69752296836E+03  0.00000000000E+00 0.  1.
         23    2    1    2    0    0 -0.24005713344E+03 -0.34206591312E+03 -0.50613743846E+03  0.66295764094E+03  0.93280281020E+02 0.  0.
         11    1    3    3    0    0 -0.16221874753E+03 -0.26170123277E+03 -0.42473408366E+03  0.52459651077E+03  0.00000000000E+00 0. -1.
        -11    1    3    3    0    0 -0.77838385914E+02 -0.80364680349E+02 -0.81403354800E+02  0.13836113017E+03  0.00000000000E+00 0.  1.
         22    1    1    2    0    0  0.24005713344E+03  0.34206591312E+03  0.27347257669E+03  0.49942343401E+03  0.00000000000E+00 0. -1.
<mgrwt>
<rscale>  0 0.11388577E+04</rscale>
<asrwt>0</asrwt>
<pdfrwt beam="1">  1        2 0.71516632E-01 0.11388577E+04</pdfrwt>
<pdfrwt beam="2">  1       -2 0.10731123E+00 0.11388577E+04</pdfrwt>
<totfact> 0.46296466E+01</totfact>
</mgrwt>
</event>
<event>
 6    1  0.9512547E-007  0.1164620E+04  0.7818608E-02  0.9144401E-01
          2   -1    0    0  501    0  0.00000000000E+00  0.00000000000E+00  0.88549550420E+03  0.88549550420E+03  0.00000000000E+00 0. -1.
         -2   -1    0    0    0  501 -0.00000000000E+00 -0.00000000000E+00 -0.38293216799E+03  0.38293216799E+03  0.00000000000E+00 0.  1.
         23    2    1    2    0    0  0.11284260112E+03 -0.38112077077E+03 -0.20539712534E+03  0.45651972811E+03  0.90751245277E+02 0.  0.
         13    1    3    3    0    0 -0.10015711379E+02 -0.10502809170E+03 -0.52173438178E+02  0.11769996675E+03  0.00000000000E+00 0. -1.
        -13    1    3    3    0    0  0.12285831250E+03 -0.27609267906E+03 -0.15322368716E+03  0.33881976136E+03  0.00000000000E+00 0.  1.
         22    1    1    2    0    0 -0.11284260112E+03  0.38112077077E+03  0.70796046155E+03  0.81190794407E+03  0.00000000000E+00 0. -1.
<mgrwt>
<rscale>  0 0.11646196E+04</rscale>
<asrwt>0</asrwt>
<pdfrwt beam="1">  1        2 0.13623008E+00 0.11646196E+04</pdfrwt>
<pdfrwt beam="2">  1       -2 0.58912641E-01 0.11646196E+04</pdfrwt>
<totfact> 0.79874319E+01</totfact>
</mgrwt>
</event>
<event>
 6    1  0.9512547E-007  0.1402634E+04  0.7818608E-02  0.8951914E-01
         -2   -1    0    0    0  501 -0.00000000000E+00  0.00000000000E+00  0.56238649761E+03  0.56238649761E+03  0.00000000000E+00 0.  1.
          2   -1    0    0  501    0  0.00000000000E+00 -0.00000000000E+00 -0.87456842531E+03  0.87456842531E+03  0.00000000000E+00 0. -1.
         23    2    1    2    0    0  0.44658627200E+03 -0.37156497734E+03  0.24046145923E+03  0.63513540218E+03  0.89863424121E+02 0.  0.
         11    1    3    3    0    0  0.24384320014E+03 -0.17332427490E+03  0.81534006496E+02  0.31007838483E+03  0.00000000000E+00 0.  1.
        -11    1    3    3    0    0  0.20274307186E+03 -0.19824070244E+03  0.15892745274E+03  0.32505701734E+03  0.00000000000E+00 0. -1.
         22    1    1    2    0    0 -0.44658627200E+03  0.37156497734E+03 -0.55264338693E+03  0.80181952075E+03  0.00000000000E+00 0. -1.
<mgrwt>
<rscale>  0 0.14026339E+04</rscale>
<asrwt>0</asrwt>
<pdfrwt beam="1">  1        2 0.13454899E+00 0.14026339E+04</pdfrwt>
<pdfrwt beam="2">  1       -2 0.86521000E-01 0.14026339E+04</pdfrwt>
<totfact> 0.34373226E+01</totfact>
</mgrwt>
</event>
<event>
 6    1  0.9512547E-007  0.4130505E+04  0.7818608E-02  0.7978725E-01
         -2   -1    0    0    0  501 -0.00000000000E+00  0.00000000000E+00  0.17417001641E+04  0.17417001641E+04  0.00000000000E+00 0.  1.
          2   -1    0    0  501    0  0.00000000000E+00 -0.00000000000E+00 -0.24489101137E+04  0.24489101137E+04  0.00000000000E+00 0. -1.
         23    2    1    2    0    0  0.25813783654E+03  0.14495215279E+04  0.11140672385E+04  0.18486456328E+04  0.92720338576E+02 0.  0.
         11    1    3    3    0    0  0.15813254421E+03  0.88504545263E+03  0.62315007273E+03  0.10939046430E+04  0.00000000000E+00 0.  1.
        -11    1    3    3    0    0  0.10000529233E+03  0.56447607523E+03  0.49091716582E+03  0.75474098981E+03  0.00000000000E+00 0. -1.
         22    1    1    2    0    0 -0.25813783654E+03 -0.14495215279E+04 -0.18212771882E+04  0.23419646450E+04  0.00000000000E+00 0. -1.
<mgrwt>
<rscale>  0 0.41305046E+04</rscale>
<asrwt>0</asrwt>
<pdfrwt beam="1">  1        2 0.37675540E+00 0.41305046E+04</pdfrwt>
<pdfrwt beam="2">  1       -2 0.26795387E+00 0.41305046E+04</pdfrwt>
<totfact> 0.14510116E-01</totfact>
</mgrwt>
</event>
<event>
 6    1  0.9512547E-007  0.2153878E+04  0.7818608E-02  0.8537874E-01
         -2   -1    0    0    0  501 -0.00000000000E+00  0.00000000000E+00  0.12326683821E+04  0.12326683821E+04  0.00000000000E+00 0.  1.
          2   -1    0    0  501    0  0.00000000000E+00 -0.00000000000E+00 -0.94088396843E+03  0.94088396843E+03  0.00000000000E+00 0. -1.
         23    2    1    2    0    0  0.81108876622E+03 -0.16755440827E+03  0.83780054615E+03  0.11815477723E+04  0.90586514944E+02 0.  0.
         13    1    3    3    0    0  0.25889113798E+03 -0.92294257073E+02  0.30428759254E+03  0.41004120547E+03  0.00000000000E+00 0. -1.
        -13    1    3    3    0    0  0.55219762824E+03 -0.75260151193E+02  0.53351295361E+03  0.77150656683E+03  0.00000000000E+00 0.  1.
         22    1    1    2    0    0 -0.81108876622E+03  0.16755440827E+03 -0.54601613244E+03  0.99200457826E+03  0.00000000000E+00 0. -1.
<mgrwt>
<rscale>  0 0.21538783E+04</rscale>
<asrwt>0</asrwt>
<pdfrwt beam="1">  1        2 0.14475138E+00 0.21538783E+04</pdfrwt>
<pdfrwt beam="2">  1       -2 0.18964129E+00 0.21538783E+04</pdfrwt>
<totfact> 0.39356333E+00</totfact>
</mgrwt>
</event>
<event>
 6    1  0.9512547E-007  0.1304915E+04  0.7818608E-02  0.9025677E-01
          1   -1    0    0  501    0  0.00000000000E+00  0.00000000000E+00  0.89847990436E+03  0.89847990436E+03  0.00000000000E+00 0. -1.
         -1   -1    0    0    0  501 -0.00000000000E+00 -0.00000000000E+00 -0.47380100732E+03  0.47380100732E+03  0.00000000000E+00 0.  1.
         23    2    1    2    0    0 -0.36664760895E+03 -0.33491576472E+03 -0.22629945472E+03  0.55351852059E+03  0.92586558509E+02 0.  0.
         13    1    3    3    0    0 -0.22409373031E+03 -0.14454068259E+03 -0.13358829097E+03  0.29825465692E+03  0.00000000000E+00 0. -1.
        -13    1    3    3    0    0 -0.14255387864E+03 -0.19037508213E+03 -0.92711163748E+02  0.25526386367E+03  0.00000000000E+00 0.  1.
         22    1    1    2    0    0  0.36664760895E+03  0.33491576472E+03  0.65097835176E+03  0.81876239110E+03  0.00000000000E+00 0. -1.
<mgrwt>
<rscale>  0 0.13049148E+04</rscale>
<asrwt>0</asrwt>
<pdfrwt beam="1">  1        1 0.13822768E+00 0.13049148E+04</pdfrwt>
<pdfrwt beam="2">  1       -1 0.72892463E-01 0.13049148E+04</pdfrwt>
<totfact> 0.34019035E+01</totfact>
</mgrwt>
</event>
<event>
 6    1  0.9512547E-007  0.3541800E+04  0.7818608E-02  0.8103955E-01
         -1   -1    0    0    0  501 -0.00000000000E+00  0.00000000000E+00  0.11199350174E+04  0.11199350174E+04  0.00000000000E+00 0.  1.
          1   -1    0    0  501    0  0.00000000000E+00 -0.00000000000E+00 -0.28002393566E+04  0.28002393566E+04  0.00000000000E+00 0. -1.
         23    2    1    2    0    0  0.16797893014E+04  0.48847126835E+03 -0.54496059280E+03  0.18346764240E+04  0.93590896376E+02 0.  0.
         11    1    3    3    0    0  0.12464050864E+04  0.39026863004E+03 -0.43860232994E+03  0.13777544218E+04  0.00000000000E+00 0.  1.
        -11    1    3    3    0    0  0.43338421495E+03  0.98202638308E+02 -0.10635826285E+03  0.45692200212E+03  0.00000000000E+00 0. -1.
         22    1    1    2    0    0 -0.16797893014E+04 -0.48847126835E+03 -0.11353437464E+04  0.20854979500E+04  0.00000000000E+00 0. -1.
<mgrwt>
<rscale>  0 0.35417996E+04</rscale>
<asrwt>0</asrwt>
<pdfrwt beam="1">  1        1 0.43080605E+00 0.35417996E+04</pdfrwt>
<pdfrwt beam="2">  1       -1 0.17229770E+00 0.35417996E+04</pdfrwt>
<totfact> 0.16023415E-01</totfact>
</mgrwt>
</event>
<event>
 6    1  0.9512547E-007  0.4438152E+03  0.7818608E-02  0.1029583E+00
          1   -1    0    0  501    0  0.00000000000E+00  0.00000000000E+00  0.45618576147E+03  0.45618576147E+03  0.00000000000E+00 0. -1.
         -1   -1    0    0    0  501 -0.00000000000E+00 -0.00000000000E+00 -0.10794501621E+03  0.10794501621E+03  0.00000000000E+00 0.  1.
         23    2    1    2    0    0  0.44740041867E+02 -0.12929846183E+03 -0.25587000252E+02  0.16605170652E+03  0.90546734220E+02 0.  0.
         11    1    3    3    0    0  0.55452692326E+02 -0.11196600013E+03  0.96818217497E+01  0.12532008595E+03  0.00000000000E+00 0.  1.
        -11    1    3    3    0    0 -0.10712650459E+02 -0.17332461703E+02 -0.35268822002E+02  0.40731620566E+02  0.00000000000E+00 0. -1.
         22    1    1    2    0    0 -0.44740041867E+02  0.12929846183E+03  0.37382774552E+03  0.39807907116E+03  0.00000000000E+00 0. -1.
<mgrwt>
<rscale>  0 0.44381518E+03</rscale>
<asrwt>0</asrwt>
<pdfrwt beam="1">  1        1 0.70182423E-01 0.44381518E+03</pdfrwt>
<pdfrwt beam="2">  1       -1 0.16606926E-01 0.44381518E+03</pdfrwt>
<totfact> 0.13974931E+03</totfact>
</mgrwt>
</event>
<event>
 6    1  0.9512547E-007  0.5025580E+03  0.7818608E-02  0.1013113E+00
         -2   -1    0    0    0  501 -0.00000000000E+00  0.00000000000E+00  0.58250938403E+03  0.58250938403E+03  0.00000000000E+00 0.  1.
          2   -1    0    0  501    0  0.00000000000E+00 -0.00000000000E+00 -0.10839506920E+03  0.10839506920E+03  0.00000000000E+00 0. -1.
         23    2    1    2    0    0  0.10789160663E+03  0.79494162946E+02  0.52387439970E+03  0.54794996128E+03  0.88571172989E+02 0.  0.
         11    1    3    3    0    0  0.87712706736E+02  0.27718738158E+02  0.42196106729E+03  0.43187149672E+03  0.00000000000E+00 0. -1.
        -11    1    3    3    0    0  0.20178899899E+02  0.51775424788E+02  0.10191333240E+03  0.11607846456E+03  0.00000000000E+00 0.  1.
         22    1    1    2    0    0 -0.10789160663E+03 -0.79494162946E+02 -0.49760084861E+02  0.14295449195E+03  0.00000000000E+00 0. -1.
<mgrwt>
<rscale>  0 0.50255804E+03</rscale>
<asrwt>0</asrwt>
<pdfrwt beam="1">  1        2 0.16676165E-01 0.50255804E+03</pdfrwt>
<pdfrwt beam="2">  1       -2 0.89616826E-01 0.50255804E+03</pdfrwt>
<totfact> 0.38048816E+02</totfact>
</mgrwt>
</event>
<event>
 6    1  0.9512547E-007  0.3483174E+04  0.7818608E-02  0.8117789E-01
          1   -1    0    0  501    0  0.00000000000E+00  0.00000000000E+00  0.12481830380E+04  0.12481830380E+04  0.00000000000E+00 0. -1.
         -1   -1    0    0    0  501 -0.00000000000E+00 -0.00000000000E+00 -0.24300325123E+04  0.24300325123E+04  0.00000000000E+00 0.  1.
         23    2    1    2    0    0  0.94606599099E+01 -0.10647504059E+04  0.86238587823E+03  0.13732901486E+04  0.91834080276E+02 0.  0.
         11    1    3    3    0    0 -0.16520387708E+02 -0.70134004783E+03  0.61461356598E+03  0.93268463126E+03  0.00000000000E+00 0. -1.
        -11    1    3    3    0    0  0.25981047617E+02 -0.36341035805E+03  0.24777231225E+03  0.44060551732E+03  0.00000000000E+00 0.  1.
         22    1    1    2    0    0 -0.94606599099E+01  0.10647504059E+04 -0.20442353525E+04  0.23049254017E+04  0.00000000000E+00 0.  1.
<mgrwt>
<rscale>  0 0.34831740E+04</rscale>
<asrwt>0</asrwt>
<pdfrwt beam="1">  1        1 0.19202816E+00 0.34831740E+04</pdfrwt>
<pdfrwt beam="2">  1       -1 0.37385116E+00 0.34831740E+04</pdfrwt>
<totfact> 0.86629736E-02</totfact>
</mgrwt>
</event>
<event>
 6    1  0.9512547E-007  0.3211847E+04  0.7818608E-02  0.8185695E-01
          1   -1    0    0  501    0  0.00000000000E+00  0.00000000000E+00  0.25601919366E+04  0.25601919366E+04  0.00000000000E+00 0. -1.
         -1   -1    0    0    0  501 -0.00000000000E+00 -0.00000000000E+00 -0.10073425879E+04  0.10073425879E+04  0.00000000000E+00 0.  1.
         23    2    1    2    0    0 -0.88547124769E+03  0.12378949414E+04  0.21250412218E+03  0.15394890264E+04  0.91789127114E+02 0.  0.
         13    1    3    3    0    0 -0.36248803591E+03  0.58434262042E+03  0.88791780217E+02  0.69335261913E+03  0.00000000000E+00 0. -1.
        -13    1    3    3    0    0 -0.52298321178E+03  0.65355232100E+03  0.12371234196E+03  0.84613640723E+03  0.00000000000E+00 0.  1.
         22    1    1    2    0    0  0.88547124769E+03 -0.12378949414E+04  0.13403452265E+04  0.20280454982E+04  0.00000000000E+00 0.  1.
<mgrwt>
<rscale>  0 0.32118471E+04</rscale>
<asrwt>0</asrwt>
<pdfrwt beam="1">  1        1 0.39387568E+00 0.32118471E+04</pdfrwt>
<pdfrwt beam="2">  1       -1 0.15497578E+00 0.32118471E+04</pdfrwt>
<totfact> 0.32813826E-01</totfact>
</mgrwt>
</event>
<event>
 6    1  0.9512547E-007  0.1598060E+04  0.7818608E-02  0.8821740E-01
          2   -1    0    0  501    0  0.00000000000E+00  0.00000000000E+00  0.10464454023E+04  0.10464454023E+04  0.00000000000E+00 0. -1.
         -2   -1    0    0    0  501 -0.00000000000E+00 -0.00000000000E+00 -0.61011238603E+03  0.61011238603E+03  0.00000000000E+00 0.  1.
         23    2    1    2    0    0  0.83941178270E+02 -0.44838221959E+03 -0.45805456453E+03  0.65255485959E+03  0.89000699056E+02 0.  0.
         13    1    3    3    0    0  0.51230860989E+02 -0.23834397321E+03 -0.18246456237E+03  0.30450905932E+03  0.00000000000E+00 0.  1.
        -13    1    3    3    0    0  0.32710317281E+02 -0.21003824638E+03 -0.27559000216E+03  0.34804580027E+03  0.00000000000E+00 0. -1.
         22    1    1    2    0    0 -0.83941178270E+02  0.44838221959E+03  0.89438758077E+03  0.10040029287E+04  0.00000000000E+00 0. -1.
<mgrwt>
<rscale>  0 0.15980605E+04</rscale>
<asrwt>0</asrwt>
<pdfrwt beam="1">  1        2 0.16099160E+00 0.15980605E+04</pdfrwt>
<pdfrwt beam="2">  1       -2 0.93863444E-01 0.15980605E+04</pdfrwt>
<totfact> 0.21636304E+01</totfact>
</mgrwt>
</event>
<event>
 6    1  0.9512547E-007  0.2932076E+04  0.7818608E-02  0.8263397E-01
         -4   -1    0    0    0  501 -0.00000000000E+00  0.00000000000E+00  0.12116628492E+04  0.12116628492E+04  0.00000000000E+00 0.  1.
          4   -1    0    0  501    0  0.00000000000E+00 -0.00000000000E+00 -0.17738160812E+04  0.17738160812E+04  0.00000000000E+00 0. -1.
         23    2    1    2    0    0  0.96976642941E+03  0.10836795736E+03  0.83078067666E+03  0.12847569026E+04  0.90626840437E+02 0.  0.
         11    1    3    3    0    0  0.22692876871E+03  0.13728690006E+02  0.24315578659E+03  0.33288117933E+03  0.00000000000E+00 0.  1.
        -11    1    3    3    0    0  0.74283766069E+03  0.94639267357E+02  0.58762489007E+03  0.95187572324E+03  0.00000000000E+00 0. -1.
         22    1    1    2    0    0 -0.96976642941E+03 -0.10836795736E+03 -0.13929339087E+04  0.17007220278E+04  0.00000000000E+00 0. -1.
<mgrwt>
<rscale>  0 0.29320757E+04</rscale>
<asrwt>0</asrwt>
<pdfrwt beam="1">  1        4 0.27289478E+00 0.29320757E+04</pdfrwt>
<pdfrwt beam="2">  1       -4 0.18640967E+00 0.29320757E+04</pdfrwt>
<totfact> 0.12639099E-02</totfact>
</mgrwt>
</event>
<event>
 6    1  0.9512547E-007  0.3876522E+04  0.7818608E-02  0.8029930E-01
         -2   -1    0    0    0  501 -0.00000000000E+00  0.00000000000E+00  0.20484934330E+04  0.20484934330E+04  0.00000000000E+00 0.  1.
          2   -1    0    0  501    0  0.00000000000E+00 -0.00000000000E+00 -0.18339602222E+04  0.18339602222E+04  0.00000000000E+00 0. -1.
         23    2    1    2    0    0 -0.82047472834E+03 -0.82275404407E+03 -0.14450108203E+04  0.18565737505E+04  0.93310359666E+02 0.  0.
         11    1    3    3    0    0 -0.15400866728E+03 -0.20928319571E+03 -0.32531255586E+03  0.41634887367E+03  0.00000000000E+00 0. -1.
        -11    1    3    3    0    0 -0.66646606106E+03 -0.61347084836E+03 -0.11196982645E+04  0.14402248768E+04  0.00000000000E+00 0.  1.
         22    1    1    2    0    0  0.82047472834E+03  0.82275404407E+03  0.16595440312E+04  0.20258799047E+04  0.00000000000E+00 0.  1.
<mgrwt>
<rscale>  0 0.38765219E+04</rscale>
<asrwt>0</asrwt>
<pdfrwt beam="1">  1        2 0.28214773E+00 0.38765219E+04</pdfrwt>
<pdfrwt beam="2">  1       -2 0.31515283E+00 0.38765219E+04</pdfrwt>
<totfact> 0.16886055E-01</totfact>
</mgrwt>
</event>
<event>
 6    1  0.9512547E-007  0.2196591E+04  0.7818608E-02  0.8519848E-01
          2   -1    0    0  501    0  0.00000000000E+00  0.00000000000E+00  0.34667410904E+04  0.34667410904E+04  0.00000000000E+00 0. -1.
         -2   -1    0    0    0  501 -0.00000000000E+00 -0.00000000000E+00 -0.34795010049E+03  0.34795010049E+03  0.00000000000E+00 0.  1.
         23    2    1    2    0    0  0.60007297323E+03  0.87596235069E+03  0.10882573036E+04  0.15233019476E+04  0.93526743334E+02 0.  0.
         13    1    3    3    0    0  0.18354788008E+03  0.21047974005E+03  0.25020425495E+03  0.37495828361E+03  0.00000000000E+00 0.  1.
        -13    1    3    3    0    0  0.41652509314E+03  0.66548261064E+03  0.83805304869E+03  0.11483436640E+04  0.00000000000E+00 0. -1.
         22    1    1    2    0    0 -0.60007297323E+03 -0.87596235069E+03  0.20305336862E+04  0.22913892432E+04  0.00000000000E+00 0.  1.
<mgrwt>
<rscale>  0 0.21965909E+04</rscale>
<asrwt>0</asrwt>
<pdfrwt beam="1">  1        2 0.53334476E+00 0.21965909E+04</pdfrwt>
<pdfrwt beam="2">  1       -2 0.53530787E-01 0.21965909E+04</pdfrwt>
<totfact> 0.25873814E+00</totfact>
</mgrwt>
</event>
<event>
 6    1  0.9512547E-007  0.1824031E+04  0.7818608E-02  0.8693623E-01
          2   -1    0    0  501    0  0.00000000000E+00  0.00000000000E+00  0.30502389021E+04  0.30502389021E+04  0.00000000000E+00 0. -1.
         -2   -1    0    0    0  501 -0.00000000000E+00 -0.00000000000E+00 -0.27269094650E+03  0.27269094650E+03  0.00000000000E+00 0.  1.
         23    2    1    2    0    0 -0.31087267968E+03 -0.35235127790E+03 -0.27200150840E+02  0.47909349843E+03  0.89428664458E+02 0.  0.
         11    1    3    3    0    0 -0.22613943193E+03 -0.29392066382E+03  0.61487506903E+01  0.37089918635E+03  0.00000000000E+00 0.  1.
        -11    1    3    3    0    0 -0.84733247741E+02 -0.58430614079E+02 -0.33348901531E+02  0.10819431209E+03  0.00000000000E+00 0. -1.
         22    1    1    2    0    0  0.31087267968E+03  0.35235127790E+03  0.28047481064E+04  0.28438363501E+04  0.00000000000E+00 0. -1.
<mgrwt>
<rscale>  0 0.18240313E+04</rscale>
<asrwt>0</asrwt>
<pdfrwt beam="1">  1        2 0.46926750E+00 0.18240313E+04</pdfrwt>
<pdfrwt beam="2">  1       -2 0.41952456E-01 0.18240313E+04</pdfrwt>
<totfact> 0.82455434E+00</totfact>
</mgrwt>
</event>
<event>
 6    1  0.9512547E-007  0.3342556E+04  0.7818608E-02  0.8152151E-01
          1   -1    0    0  501    0  0.00000000000E+00  0.00000000000E+00  0.16645920692E+04  0.16645920692E+04  0.00000000000E+00 0. -1.
         -1   -1    0    0    0  501 -0.00000000000E+00 -0.00000000000E+00 -0.16779902947E+04  0.16779902947E+04  0.00000000000E+00 0.  1.
         23    2    1    2    0    0 -0.10264408918E+04 -0.67955411807E+02 -0.13221560597E+04  0.16779364822E+04  0.95788046136E+02 0.  0.
         13    1    3    3    0    0 -0.90529366813E+03 -0.78284222177E+02 -0.11227655764E+04  0.14443986930E+04  0.00000000000E+00 0.  1.
        -13    1    3    3    0    0 -0.12114722371E+03  0.10328810369E+02 -0.19939048333E+03  0.23353778919E+03  0.00000000000E+00 0. -1.
         22    1    1    2    0    0  0.10264408918E+04  0.67955411807E+02  0.13087578342E+04  0.16646458816E+04  0.00000000000E+00 0. -1.
<mgrwt>
<rscale>  0 0.33425555E+04</rscale>
<asrwt>0</asrwt>
<pdfrwt beam="1">  1        1 0.25609109E+00 0.33425555E+04</pdfrwt>
<pdfrwt beam="2">  1       -1 0.25815235E+00 0.33425555E+04</pdfrwt>
<totfact> 0.25696207E-01</totfact>
</mgrwt>
</event>
<event>
 6    1  0.9512547E-007  0.2832009E+04  0.7818608E-02  0.8293399E-01
         -2   -1    0    0    0  501 -0.00000000000E+00  0.00000000000E+00  0.17227320764E+04  0.17227320764E+04  0.00000000000E+00 0.  1.
          2   -1    0    0  501    0  0.00000000000E+00 -0.00000000000E+00 -0.11638886456E+04  0.11638886456E+04  0.00000000000E+00 0. -1.
         23    2    1    2    0    0  0.58006659215E+03  0.80506139286E+03 -0.74745512208E+03  0.12461887645E+04  0.98469181806E+02 0.  0.
         13    1    3    3    0    0  0.30250988098E+03  0.43091474641E+03 -0.45722883656E+03  0.69732198857E+03  0.00000000000E+00 0. -1.
        -13    1    3    3    0    0  0.27755671118E+03  0.37414664645E+03 -0.29022628551E+03  0.54886677598E+03  0.00000000000E+00 0.  1.
         22    1    1    2    0    0 -0.58006659215E+03 -0.80506139286E+03  0.13062985529E+04  0.16404319574E+04  0.00000000000E+00 0.  1.
<mgrwt>
<rscale>  0 0.28320087E+04</rscale>
<asrwt>0</asrwt>
<pdfrwt beam="1">  1        2 0.17905979E+00 0.28320087E+04</pdfrwt>
<pdfrwt beam="2">  1       -2 0.26503570E+00 0.28320087E+04</pdfrwt>
<totfact> 0.89817997E-01</totfact>
</mgrwt>
</event>
<event>
 6    1  0.9512547E-007  0.1586503E+04  0.7818608E-02  0.8828883E-01
          2   -1    0    0  501    0  0.00000000000E+00  0.00000000000E+00  0.20870170958E+04  0.20870170958E+04  0.00000000000E+00 0. -1.
         -2   -1    0    0    0  501 -0.00000000000E+00 -0.00000000000E+00 -0.30150598849E+03  0.30150598849E+03  0.00000000000E+00 0.  1.
         23    2    1    2    0    0 -0.55784056814E+03  0.13841731206E+03  0.78425534796E+02  0.58727723666E+03  0.91643529197E+02 0.  0.
         11    1    3    3    0    0 -0.20756108878E+03  0.70086764776E+02 -0.11037902740E+02  0.21935267372E+03  0.00000000000E+00 0. -1.
        -11    1    3    3    0    0 -0.35027947937E+03  0.68330547283E+02  0.89463437536E+02  0.36792456294E+03  0.00000000000E+00 0.  1.
         22    1    1    2    0    0  0.55784056814E+03 -0.13841731206E+03  0.17070855726E+04  0.18012458477E+04  0.00000000000E+00 0. -1.
<mgrwt>
<rscale>  0 0.15865033E+04</rscale>
<asrwt>0</asrwt>
<pdfrwt beam="1">  1        2 0.32107954E+00 0.15865033E+04</pdfrwt>
<pdfrwt beam="2">  1       -2 0.46385538E-01 0.15865033E+04</pdfrwt>
<totfact> 0.25284172E+01</totfact>
</mgrwt>
</event>
<event>
 6    1  0.9512547E-007  0.1188046E+04  0.7818608E-02  0.9123384E-01
         -1   -1    0    0    0  501 -0.00000000000E+00  0.00000000000E+00  0.80487412649E+03  0.80487412649E+03  0.00000000000E+00 0.  1.
          1   -1    0    0  501    0  0.00000000000E+00 -0.00000000000E+00 -0.43840824274E+03  0.43840824274E+03  0.00000000000E+00 0. -1.
         23    2    1    2    0    0 -0.10374924162E+03  0.39560359401E+03  0.63010706938E+03  0.75668933240E+03  0.90981966105E+02 0.  0.
         11    1    3    3    0    0 -0.73530504425E+00  0.83274458590E+02  0.78287500871E+02  0.11429833297E+03  0.00000000000E+00 0.  1.
        -11    1    3    3    0    0 -0.10301393658E+03  0.31232913542E+03  0.55181956851E+03  0.64239099943E+03  0.00000000000E+00 0. -1.
         22    1    1    2    0    0  0.10374924162E+03 -0.39560359401E+03 -0.26364118563E+03  0.48659303682E+03  0.00000000000E+00 0. -1.
<mgrwt>
<rscale>  0 0.11880462E+04</rscale>
<asrwt>0</asrwt>
<pdfrwt beam="1">  1        1 0.67447422E-01 0.11880462E+04</pdfrwt>
<pdfrwt beam="2">  1       -1 0.12382679E+00 0.11880462E+04</pdfrwt>
<totfact> 0.30114320E+01</totfact>
</mgrwt>
</event>
<event>
 6    1  0.9512547E-007  0.2844392E+04  0.7818608E-02  0.8289617E-01
          2   -1    0    0  501    0  0.00000000000E+00  0.00000000000E+00  0.30235774920E+04  0.30235774920E+04  0.00000000000E+00 0. -1.
         -2   -1    0    0    0  501 -0.00000000000E+00 -0.00000000000E+00 -0.66895634486E+03  0.66895634486E+03  0.00000000000E+00 0.  1.
         23    2    1    2    0    0 -0.45866158914E+02  0.61920251012E+03  0.28374162310E+04  0.29060183913E+04  0.92176837071E+02 0.  0.
         13    1    3    3    0    0 -0.42672485325E+02  0.38093410018E+03  0.19398706672E+04  0.19773795627E+04  0.00000000000E+00 0.  1.
        -13    1    3    3    0    0 -0.31936735898E+01  0.23826840994E+03  0.89754556388E+03  0.92863882859E+03  0.00000000000E+00 0. -1.
         22    1    1    2    0    0  0.45866158914E+02 -0.61920251012E+03 -0.48279508390E+03  0.78651544557E+03  0.00000000000E+00 0.  1.
<mgrwt>
<rscale>  0 0.28443919E+04</rscale>
<asrwt>0</asrwt>
<pdfrwt beam="1">  1        2 0.46516576E+00 0.28443919E+04</pdfrwt>
<pdfrwt beam="2">  1       -2 0.10291636E+00 0.28443919E+04</pdfrwt>
<totfact> 0.11247055E+00</totfact>
</mgrwt>
</event>
<event>
 6    1  0.9512547E-007  0.7343656E+03  0.7818608E-02  0.9660203E-01
          1   -1    0    0  501    0  0.00000000000E+00  0.00000000000E+00  0.33015912890E+03  0.33015912890E+03  0.00000000000E+00 0. -1.
         -1   -1    0    0    0  501 -0.00000000000E+00 -0.00000000000E+00 -0.40835830767E+03  0.40835830767E+03  0.00000000000E+00 0.  1.
         23    2    1    2    0    0  0.30645633824E+03 -0.16744062864E+03 -0.13559584129E+03  0.38461599799E+03  0.87128539339E+02 0.  0.
         11    1    3    3    0    0  0.18985058264E+03 -0.55162009214E+02 -0.82910567229E+02  0.21438342554E+03  0.00000000000E+00 0. -1.
        -11    1    3    3    0    0  0.11660575560E+03 -0.11227861942E+03 -0.52685274063E+02  0.17023257245E+03  0.00000000000E+00 0.  1.
         22    1    1    2    0    0 -0.30645633824E+03  0.16744062864E+03  0.57396662518E+02  0.35390143859E+03  0.00000000000E+00 0.  1.
<mgrwt>
<rscale>  0 0.73436564E+03</rscale>
<asrwt>0</asrwt>
<pdfrwt beam="1">  1        1 0.50793712E-01 0.73436564E+03</pdfrwt>
<pdfrwt beam="2">  1       -1 0.62824355E-01 0.73436564E+03</pdfrwt>
<totfact> 0.20149555E+02</totfact>
</mgrwt>
</event>
<event>
 6    1  0.9512547E-007  0.2651241E+04  0.7818608E-02  0.8351001E-01
          1   -1    0    0  501    0  0.00000000000E+00  0.00000000000E+00  0.17664622561E+04  0.17664622561E+04  0.00000000000E+00 0. -1.
         -1   -1    0    0    0  501 -0.00000000000E+00 -0.00000000000E+00 -0.99479630928E+03  0.99479630928E+03  0.00000000000E+00 0.  1.
         23    2    1    2    0    0  0.99719338268E+03  0.72885619233E+03 -0.11066382547E+03  0.12433218676E+04  0.89312891157E+02 0.  0.
         13    1    3    3    0    0  0.26989004518E+03  0.24681512985E+03 -0.40347874936E+02  0.36794876793E+03  0.00000000000E+00 0.  1.
        -13    1    3    3    0    0  0.72730333750E+03  0.48204106249E+03 -0.70315950535E+02  0.87537309963E+03  0.00000000000E+00 0. -1.
         22    1    1    2    0    0 -0.99719338268E+03 -0.72885619233E+03  0.88232977234E+03  0.15179366979E+04  0.00000000000E+00 0.  1.
<mgrwt>
<rscale>  0 0.26512413E+04</rscale>
<asrwt>0</asrwt>
<pdfrwt beam="1">  1        1 0.27176342E+00 0.26512413E+04</pdfrwt>
<pdfrwt beam="2">  1       -1 0.15304559E+00 0.26512413E+04</pdfrwt>
<totfact> 0.12438805E+00</totfact>
</mgrwt>
</event>
<event>
 6    1  0.9512547E-007  0.4166006E+04  0.7818608E-02  0.7971870E-01
          2   -1    0    0  501    0  0.00000000000E+00  0.00000000000E+00  0.24670086253E+04  0.24670086253E+04  0.00000000000E+00 0. -1.
         -2   -1    0    0    0  501 -0.00000000000E+00 -0.00000000000E+00 -0.17587699223E+04  0.17587699223E+04  0.00000000000E+00 0.  1.
         23    2    1    2    0    0 -0.58290351584E+03 -0.18521082479E+04 -0.40796971006E+03  0.19861351180E+04  0.90619819498E+02 0.  0.
         11    1    3    3    0    0 -0.47890035376E+03 -0.14663183227E+04 -0.35720294896E+03  0.15833600093E+04  0.00000000000E+00 0. -1.
        -11    1    3    3    0    0 -0.10400316209E+03 -0.38578992517E+03 -0.50766761103E+02  0.40277510862E+03  0.00000000000E+00 0.  1.
         22    1    1    2    0    0  0.58290351584E+03  0.18521082479E+04  0.11162084130E+04  0.22396434297E+04  0.00000000000E+00 0. -1.
<mgrwt>
<rscale>  0 0.41660056E+04</rscale>
<asrwt>0</asrwt>
<pdfrwt beam="1">  1        2 0.37953979E+00 0.41660056E+04</pdfrwt>
<pdfrwt beam="2">  1       -2 0.27057999E+00 0.41660056E+04</pdfrwt>
<totfact> 0.13612371E-01</totfact>
</mgrwt>
</event>
<event>
 6    1  0.9512547E-007  0.4575345E+04  0.7818608E-02  0.7897577E-01
         -1   -1    0    0    0  501 -0.00000000000E+00  0.00000000000E+00  0.33262703719E+04  0.33262703719E+04  0.00000000000E+00 0.  1.
          1   -1    0    0  501    0  0.00000000000E+00 -0.00000000000E+00 -0.15733674229E+04  0.15733674229E+04  0.00000000000E+00 0. -1.
         23    2    1    2    0    0 -0.12491819442E+04 -0.20161378940E+02  0.29279113957E+04  0.31845556216E+04  0.88698110690E+02 0.  0.
         13    1    3    3    0    0 -0.57634610952E+03 -0.51382026804E+02  0.13876307088E+04  0.15034406987E+04  0.00000000000E+00 0. -1.
        -13    1    3    3    0    0 -0.67283583472E+03  0.31220647864E+02  0.15402806869E+04  0.16811149228E+04  0.00000000000E+00 0.  1.
         22    1    1    2    0    0  0.12491819442E+04  0.20161378940E+02 -0.11750084468E+04  0.17150821732E+04  0.00000000000E+00 0. -1.
<mgrwt>
<rscale>  0 0.45753450E+04</rscale>
<asrwt>0</asrwt>
<pdfrwt beam="1">  1        1 0.24205653E+00 0.45753450E+04</pdfrwt>
<pdfrwt beam="2">  1       -1 0.51173390E+00 0.45753450E+04</pdfrwt>
<totfact> 0.54783309E-03</totfact>
</mgrwt>
</event>
<event>
 6    1  0.9512547E-007  0.1900998E+04  0.7818608E-02  0.8654360E-01
         -2   -1    0    0    0  501 -0.00000000000E+00  0.00000000000E+00  0.12033098783E+04  0.12033098783E+04  0.00000000000E+00 0.  1.
          2   -1    0    0  501    0  0.00000000000E+00 -0.00000000000E+00 -0.75080293969E+03  0.75080293969E+03  0.00000000000E+00 0. -1.
         23    2    1    2    0    0  0.11630609657E+03 -0.60973283896E+03  0.96376995062E+03  0.11499417476E+04  0.90621532153E+02 0.  0.
         13    1    3    3    0    0 -0.15014119572E+02 -0.53996456273E+02  0.95116913114E+02  0.11040049020E+03  0.00000000000E+00 0. -1.
        -13    1    3    3    0    0  0.13132021614E+03 -0.55573638268E+03  0.86865303750E+03  0.10395412574E+04  0.00000000000E+00 0.  1.
         22    1    1    2    0    0 -0.11630609657E+03  0.60973283896E+03 -0.51126301203E+03  0.80417107040E+03  0.00000000000E+00 0. -1.
<mgrwt>
<rscale>  0 0.19009983E+04</rscale>
<asrwt>0</asrwt>
<pdfrwt beam="1">  1        2 0.11550814E+00 0.19009983E+04</pdfrwt>
<pdfrwt beam="2">  1       -2 0.18512460E+00 0.19009983E+04</pdfrwt>
<totfact> 0.58608729E+00</totfact>
</mgrwt>
</event>
<event>
 6    1  0.9512547E-007  0.2693894E+04  0.7818608E-02  0.8336989E-01
         -2   -1    0    0    0  501 -0.00000000000E+00  0.00000000000E+00  0.73450195071E+03  0.73450195071E+03  0.00000000000E+00 0.  1.
          2   -1    0    0  501    0  0.00000000000E+00 -0.00000000000E+00 -0.24700639373E+04  0.24700639373E+04  0.00000000000E+00 0. -1.
         23    2    1    2    0    0 -0.10925328516E+04 -0.78314948923E+03 -0.80183178136E+03  0.15678608900E+04  0.91117563953E+02 0.  0.
         13    1    3    3    0    0 -0.32931089151E+03 -0.19129658716E+03 -0.20486870265E+03  0.43244795392E+03  0.00000000000E+00 0.  1.
        -13    1    3    3    0    0 -0.76322196011E+03 -0.59185290206E+03 -0.59696307872E+03  0.11354129361E+04  0.00000000000E+00 0. -1.
         22    1    1    2    0    0  0.10925328516E+04  0.78314948923E+03 -0.93373020527E+03  0.16367049980E+04  0.00000000000E+00 0. -1.
<mgrwt>
<rscale>  0 0.26938944E+04</rscale>
<asrwt>0</asrwt>
<pdfrwt beam="1">  1        2 0.38000984E+00 0.26938944E+04</pdfrwt>
<pdfrwt beam="2">  1       -2 0.11300030E+00 0.26938944E+04</pdfrwt>
<totfact> 0.19565856E+00</totfact>
</mgrwt>
</event>
<event>
 6    1  0.9512547E-007  0.3576525E+04  0.7818608E-02  0.8095890E-01
         -2   -1    0    0    0  501 -0.00000000000E+00  0.00000000000E+00  0.19319780935E+04  0.19319780935E+04  0.00000000000E+00 0.  1.
          2   -1    0    0  501    0  0.00000000000E+00 -0.00000000000E+00 -0.16552376823E+04  0.16552376823E+04  0.00000000000E+00 0. -1.
         23    2    1    2    0    0 -0.75171870979E+03 -0.15974329187E+04  0.41619623318E+03  0.18162496907E+04  0.93116518636E+02 0.  0.
         13    1    3    3    0    0 -0.16492581908E+03 -0.37240959593E+03  0.57141305426E+02  0.41128404020E+03  0.00000000000E+00 0.  1.
        -13    1    3    3    0    0 -0.58679289072E+03 -0.12250233228E+04  0.35905492776E+03  0.14049656505E+04  0.00000000000E+00 0. -1.
         22    1    1    2    0    0  0.75171870979E+03  0.15974329187E+04 -0.13945582190E+03  0.17709660851E+04  0.00000000000E+00 0. -1.
<mgrwt>
<rscale>  0 0.35765251E+04</rscale>
<asrwt>0</asrwt>
<pdfrwt beam="1">  1        2 0.25465195E+00 0.35765251E+04</pdfrwt>
<pdfrwt beam="2">  1       -2 0.29722740E+00 0.35765251E+04</pdfrwt>
<totfact> 0.28030392E-01</totfact>
</mgrwt>
</event>
<event>
 6    1  0.9512547E-007  0.3016486E+04  0.7818608E-02  0.8239039E-01
         -1   -1    0    0    0  501 -0.00000000000E+00  0.00000000000E+00  0.10549103820E+04  0.10549103820E+04  0.00000000000E+00 0.  1.
          1   -1    0    0  501    0  0.00000000000E+00 -0.00000000000E+00 -0.21563881535E+04  0.21563881535E+04  0.00000000000E+00 0. -1.
         23    2    1    2    0    0 -0.23834692990E+03 -0.73016444484E+03  0.82911431901E+03  0.11335268455E+04  0.86620898776E+02 0.  0.
         11    1    3    3    0    0 -0.76433301019E+02 -0.25026670272E+03  0.22428306959E+03  0.34464237595E+03  0.00000000000E+00 0. -1.
        -11    1    3    3    0    0 -0.16191362888E+03 -0.47989774211E+03  0.60483124942E+03  0.78888446960E+03  0.00000000000E+00 0.  1.
         22    1    1    2    0    0  0.23834692990E+03  0.73016444484E+03 -0.19305920905E+04  0.20777716899E+04  0.00000000000E+00 0. -1.
<mgrwt>
<rscale>  0 0.30164855E+04</rscale>
<asrwt>0</asrwt>
<pdfrwt beam="1">  1        1 0.33175202E+00 0.30164855E+04</pdfrwt>
<pdfrwt beam="2">  1       -1 0.16229391E+00 0.30164855E+04</pdfrwt>
<totfact> 0.55667478E-01</totfact>
</mgrwt>
</event>
<event>
 6    1  0.9512547E-007  0.6546215E+03  0.7818608E-02  0.9798146E-01
          1   -1    0    0  501    0  0.00000000000E+00  0.00000000000E+00  0.69749504401E+03  0.69749504401E+03  0.00000000000E+00 0. -1.
         -1   -1    0    0    0  501 -0.00000000000E+00 -0.00000000000E+00 -0.15359582820E+03  0.15359582820E+03  0.00000000000E+00 0.  1.
         23    2    1    2    0    0  0.13546698643E+03  0.15302690418E+03  0.59906584898E+03  0.63940266936E+03  0.90483945291E+02 0.  0.
         11    1    3    3    0    0  0.11490689058E+02  0.11495344376E+02  0.17150656007E+03  0.17227500987E+03  0.00000000000E+00 0. -1.
        -11    1    3    3    0    0  0.12397629738E+03  0.14153155980E+03  0.42755928890E+03  0.46712765949E+03  0.00000000000E+00 0.  1.
         22    1    1    2    0    0 -0.13546698643E+03 -0.15302690418E+03 -0.55166633166E+02  0.21168820286E+03  0.00000000000E+00 0.  1.
<mgrwt>
<rscale>  0 0.65462151E+03</rscale>
<asrwt>0</asrwt>
<pdfrwt beam="1">  1        1 0.10730693E+00 0.65462151E+03</pdfrwt>
<pdfrwt beam="2">  1       -1 0.23630128E-01 0.65462151E+03</pdfrwt>
<totfact> 0.42716154E+02</totfact>
</mgrwt>
</event>
<event>
 6    1  0.9512547E-007  0.1839838E+04  0.7818608E-02  0.8685396E-01
         -2   -1    0    0    0  501 -0.00000000000E+00  0.00000000000E+00  0.56391340085E+03  0.56391340085E+03  0.00000000000E+00 0.  1.
          2   -1    0    0  501    0  0.00000000000E+00 -0.00000000000E+00 -0.15006761717E+04  0.15006761717E+04  0.00000000000E+00 0. -1.
         23    2    1    2    0    0  0.66845604954E+03  0.43260646624E+03 -0.98235834506E+03  0.12670553719E+04  0.80122109681E+02 0.  0.
         13    1    3    3    0    0  0.61896719284E+03  0.37988351739E+03 -0.91545634242E+03  0.11685427624E+04  0.00000000000E+00 0. -1.
        -13    1    3    3    0    0  0.49488856704E+02  0.52722948852E+02 -0.66902002634E+02  0.98512609497E+02  0.00000000000E+00 0.  1.
         22    1    1    2    0    0 -0.66845604954E+03 -0.43260646624E+03  0.45595574253E+02  0.79753420064E+03  0.00000000000E+00 0. -1.
<mgrwt>
<rscale>  0 0.18398385E+04</rscale>
<asrwt>0</asrwt>
<pdfrwt beam="1">  1        2 0.23087325E+00 0.18398385E+04</pdfrwt>
<pdfrwt beam="2">  1       -2 0.86755911E-01 0.18398385E+04</pdfrwt>
<totfact> 0.13724860E+01</totfact>
</mgrwt>
</event>
<event>
 6    1  0.9512547E-007  0.6860295E+04  0.7818608E-02  0.7592017E-01
          2   -1    0    0  501    0  0.00000000000E+00  0.00000000000E+00  0.41161191102E+04  0.41161191102E+04  0.00000000000E+00 0. -1.
         -2   -1    0    0    0  501 -0.00000000000E+00 -0.00000000000E+00 -0.28584961814E+04  0.28584961814E+04  0.00000000000E+00 0.  1.
         23    2    1    2    0    0  0.18434188266E+04 -0.18897429903E+04 -0.15967045584E+04  0.30866200572E+04  0.91849829221E+02 0.  0.
         13    1    3    3    0    0  0.52630853478E+03 -0.48222329290E+03 -0.44067915665E+03  0.83889099238E+03  0.00000000000E+00 0. -1.
        -13    1    3    3    0    0  0.13171102918E+04 -0.14075196974E+04 -0.11560254017E+04  0.22477290648E+04  0.00000000000E+00 0.  1.
         22    1    1    2    0    0 -0.18434188266E+04  0.18897429903E+04  0.28543274872E+04  0.38879952345E+04  0.00000000000E+00 0. -1.
<mgrwt>
<rscale>  0 0.68602947E+04</rscale>
<asrwt>0</asrwt>
<pdfrwt beam="1">  1        2 0.63324909E+00 0.68602947E+04</pdfrwt>
<pdfrwt beam="2">  1       -2 0.43976865E+00 0.68602947E+04</pdfrwt>
<totfact> 0.69956268E-04</totfact>
</mgrwt>
</event>
<event>
 6    1  0.9512547E-007  0.2051522E+04  0.7818608E-02  0.8582904E-01
         -1   -1    0    0    0  501 -0.00000000000E+00  0.00000000000E+00  0.16683593244E+04  0.16683593244E+04  0.00000000000E+00 0.  1.
          1   -1    0    0  501    0  0.00000000000E+00 -0.00000000000E+00 -0.63067115038E+03  0.63067115038E+03  0.00000000000E+00 0. -1.
         23    2    1    2    0    0  0.82261245578E+03 -0.49606380398E+03  0.12318567715E+03  0.97272531879E+03  0.90825573170E+02 0.  0.
         11    1    3    3    0    0  0.52743591086E+03 -0.28055686887E+03  0.10679628332E+03  0.60688239624E+03  0.00000000000E+00 0. -1.
        -11    1    3    3    0    0  0.29517654492E+03 -0.21550693511E+03  0.16389393829E+02  0.36584292255E+03  0.00000000000E+00 0.  1.
         22    1    1    2    0    0 -0.82261245578E+03  0.49606380398E+03  0.91450249685E+03  0.13263051560E+04  0.00000000000E+00 0.  1.
<mgrwt>
<rscale>  0 0.20515225E+04</rscale>
<asrwt>0</asrwt>
<pdfrwt beam="1">  1        1 0.97026331E-01 0.20515225E+04</pdfrwt>
<pdfrwt beam="2">  1       -1 0.25667066E+00 0.20515225E+04</pdfrwt>
<totfact> 0.18550133E+00</totfact>
</mgrwt>
</event>
<event>
 6    1  0.9512547E-007  0.2052676E+04  0.7818608E-02  0.8582381E-01
         -2   -1    0    0    0  501 -0.00000000000E+00  0.00000000000E+00  0.65043026898E+03  0.65043026898E+03  0.00000000000E+00 0.  1.
          2   -1    0    0  501    0  0.00000000000E+00 -0.00000000000E+00 -0.16194973240E+04  0.16194973240E+04  0.00000000000E+00 0. -1.
         23    2    1    2    0    0 -0.83926010987E+03 -0.58350841017E+03 -0.55866722412E+03  0.11684433135E+04  0.91165304556E+02 0.  0.
         13    1    3    3    0    0 -0.61196999042E+03 -0.46739767474E+03 -0.39751137728E+03  0.86659284015E+03  0.00000000000E+00 0.  1.
        -13    1    3    3    0    0 -0.22729011945E+03 -0.11611073543E+03 -0.16115584683E+03  0.30185047333E+03  0.00000000000E+00 0. -1.
         22    1    1    2    0    0  0.83926010987E+03  0.58350841017E+03 -0.41039983089E+03  0.11014842795E+04  0.00000000000E+00 0. -1.
<mgrwt>
<rscale>  0 0.20526764E+04</rscale>
<asrwt>0</asrwt>
<pdfrwt beam="1">  1        2 0.24915343E+00 0.20526764E+04</pdfrwt>
<pdfrwt beam="2">  1       -2 0.10006620E+00 0.20526764E+04</pdfrwt>
<totfact> 0.82978839E+00</totfact>
</mgrwt>
</event>
<event>
 6    1  0.9512547E-007  0.2359710E+04  0.7818608E-02  0.8454743E-01
         -2   -1    0    0    0  501 -0.00000000000E+00  0.00000000000E+00  0.45001856215E+03  0.45001856215E+03  0.00000000000E+00 0.  1.
          2   -1    0    0  501    0  0.00000000000E+00 -0.00000000000E+00 -0.30933354254E+04  0.30933354254E+04  0.00000000000E+00 0. -1.
         23    2    1    2    0    0  0.11932561838E+03 -0.47399104537E+03 -0.29332804330E+04  0.29750363070E+04  0.88322221305E+02 0.  0.
         11    1    3    3    0    0 -0.11837122430E+02 -0.92783544320E+02 -0.54223558768E+03  0.55024388785E+03  0.00000000000E+00 0. -1.
        -11    1    3    3    0    0  0.13116274081E+03 -0.38120750105E+03 -0.23910448453E+04  0.24247924191E+04  0.00000000000E+00 0.  1.
         22    1    1    2    0    0 -0.11932561838E+03  0.47399104537E+03  0.28996356974E+03  0.56831768059E+03  0.00000000000E+00 0.  1.
<mgrwt>
<rscale>  0 0.23597105E+04</rscale>
<asrwt>0</asrwt>
<pdfrwt beam="1">  1        2 0.47589775E+00 0.23597105E+04</pdfrwt>
<pdfrwt beam="2">  1       -2 0.69233627E-01 0.23597105E+04</pdfrwt>
<totfact> 0.26128758E+00</totfact>
</mgrwt>
</event>
<event>
 6    1  0.9512547E-007  0.3078188E+04  0.7818608E-02  0.8221750E-01
         -2   -1    0    0    0  501 -0.00000000000E+00  0.00000000000E+00  0.99043388978E+03  0.99043388978E+03  0.00000000000E+00 0.  1.
          2   -1    0    0  501    0  0.00000000000E+00 -0.00000000000E+00 -0.23916892462E+04  0.23916892462E+04  0.00000000000E+00 0. -1.
         23    2    1    2    0    0 -0.12124447898E+04  0.41658126540E+03  0.23171730928E+03  0.13060301598E+04  0.91975800716E+02 0.  0.
         13    1    3    3    0    0 -0.72253289339E+03  0.20940866522E+03  0.16264389503E+03  0.76964849619E+03  0.00000000000E+00 0. -1.
        -13    1    3    3    0    0 -0.48991189639E+03  0.20717260018E+03  0.69073414249E+02  0.53638166360E+03  0.00000000000E+00 0.  1.
         22    1    1    2    0    0  0.12124447898E+04 -0.41658126540E+03 -0.16329726657E+04  0.20760929762E+04  0.00000000000E+00 0. -1.
<mgrwt>
<rscale>  0 0.30781878E+04</rscale>
<asrwt>0</asrwt>
<pdfrwt beam="1">  1        2 0.36795219E+00 0.30781878E+04</pdfrwt>
<pdfrwt beam="2">  1       -2 0.15237445E+00 0.30781878E+04</pdfrwt>
<totfact> 0.98223859E-01</totfact>
</mgrwt>
</event>
<event>
 6    1  0.9512547E-007  0.1917992E+04  0.7818608E-02  0.8645952E-01
         -1   -1    0    0    0  501 -0.00000000000E+00  0.00000000000E+00  0.62368306657E+03  0.62368306657E+03  0.00000000000E+00 0.  1.
          1   -1    0    0  501    0  0.00000000000E+00 -0.00000000000E+00 -0.14745845171E+04  0.14745845171E+04  0.00000000000E+00 0. -1.
         23    2    1    2    0    0 -0.54169233346E+03 -0.77670051090E+03 -0.57730862292E+03  0.11125965924E+04  0.88835035487E+02 0.  0.
         13    1    3    3    0    0 -0.29421026757E+03 -0.47911404992E+03 -0.30796777666E+03  0.64105702230E+03  0.00000000000E+00 0. -1.
        -13    1    3    3    0    0 -0.24748206589E+03 -0.29758646097E+03 -0.26934084626E+03  0.47153957009E+03  0.00000000000E+00 0.  1.
         22    1    1    2    0    0  0.54169233346E+03  0.77670051090E+03 -0.27359282761E+03  0.98567099129E+03  0.00000000000E+00 0.  1.
<mgrwt>
<rscale>  0 0.19179921E+04</rscale>
<asrwt>0</asrwt>
<pdfrwt beam="1">  1        1 0.22685915E+00 0.19179921E+04</pdfrwt>
<pdfrwt beam="2">  1       -1 0.95951242E-01 0.19179921E+04</pdfrwt>
<totfact> 0.66636869E+00</totfact>
</mgrwt>
</event>
<event>
 6    1  0.9512547E-007  0.4789878E+04  0.7818608E-02  0.7861764E-01
          1   -1    0    0  501    0  0.00000000000E+00  0.00000000000E+00  0.23231658264E+04  0.23231658264E+04  0.00000000000E+00 0. -1.
         -1   -1    0    0    0  501 -0.00000000000E+00 -0.00000000000E+00 -0.24689297754E+04  0.24689297754E+04  0.00000000000E+00 0.  1.
         23    2    1    2    0    0 -0.22786476076E+04  0.70912621983E+03 -0.26256748032E+03  0.24027990567E+04  0.96988194708E+02 0.  0.
         11    1    3    3    0    0 -0.17510866834E+04  0.51502026142E+03 -0.17089276394E+03  0.18332361493E+04  0.00000000000E+00 0. -1.
        -11    1    3    3    0    0 -0.52756092423E+03  0.19410595841E+03 -0.91674716379E+02  0.56956290740E+03  0.00000000000E+00 0.  1.
         22    1    1    2    0    0  0.22786476076E+04 -0.70912621983E+03  0.11680353131E+03  0.23892965450E+04  0.00000000000E+00 0.  1.
<mgrwt>
<rscale>  0 0.47898782E+04</rscale>
<asrwt>0</asrwt>
<pdfrwt beam="1">  1        1 0.35741013E+00 0.47898782E+04</pdfrwt>
<pdfrwt beam="2">  1       -1 0.37983535E+00 0.47898782E+04</pdfrwt>
<totfact> 0.12921241E-02</totfact>
</mgrwt>
</event>
<event>
 6    1  0.9512547E-007  0.2284771E+04  0.7818608E-02  0.8483950E-01
         -1   -1    0    0    0  501 -0.00000000000E+00  0.00000000000E+00  0.51310848943E+03  0.51310848943E+03  0.00000000000E+00 0.  1.
          1   -1    0    0  501    0  0.00000000000E+00 -0.00000000000E+00 -0.25434077513E+04  0.25434077513E+04  0.00000000000E+00 0. -1.
         23    2    1    2    0    0  0.10120584843E+04  0.48433849622E+02 -0.31618553353E+03  0.10653371712E+04  0.91442786970E+02 0.  0.
         13    1    3    3    0    0  0.43697913750E+03  0.42167760656E+02 -0.17892529021E+03  0.47407082396E+03  0.00000000000E+00 0. -1.
        -13    1    3    3    0    0  0.57507934677E+03  0.62660889664E+01 -0.13726024333E+03  0.59126634721E+03  0.00000000000E+00 0.  1.
         22    1    1    2    0    0 -0.10120584843E+04 -0.48433849622E+02 -0.17141137284E+04  0.19911790696E+04  0.00000000000E+00 0. -1.
<mgrwt>
<rscale>  0 0.22847705E+04</rscale>
<asrwt>0</asrwt>
<pdfrwt beam="1">  1        1 0.39129350E+00 0.22847705E+04</pdfrwt>
<pdfrwt beam="2">  1       -1 0.78939769E-01 0.22847705E+04</pdfrwt>
<totfact> 0.18355049E+00</totfact>
</mgrwt>
</event>
<event>
 6    1  0.9512547E-007  0.2592563E+04  0.7818608E-02  0.8370732E-01
         -2   -1    0    0    0  501 -0.00000000000E+00  0.00000000000E+00  0.58579515602E+03  0.58579515602E+03  0.00000000000E+00 0.  1.
          2   -1    0    0  501    0  0.00000000000E+00 -0.00000000000E+00 -0.28684862246E+04  0.28684862246E+04  0.00000000000E+00 0. -1.
         23    2    1    2    0    0 -0.18006373977E+03  0.12820952821E+04 -0.11425430451E+04  0.17291353641E+04  0.91176942084E+02 0.  0.
         11    1    3    3    0    0 -0.14724558029E+03  0.74651758522E+03 -0.69116244140E+03  0.10279471224E+04  0.00000000000E+00 0. -1.
        -11    1    3    3    0    0 -0.32818159477E+02  0.53557769688E+03 -0.45138060374E+03  0.70118824179E+03  0.00000000000E+00 0.  1.
         22    1    1    2    0    0  0.18006373977E+03 -0.12820952821E+04 -0.11401480234E+04  0.17251460164E+04  0.00000000000E+00 0. -1.
<mgrwt>
<rscale>  0 0.25925627E+04</rscale>
<asrwt>0</asrwt>
<pdfrwt beam="1">  1        2 0.44130557E+00 0.25925627E+04</pdfrwt>
<pdfrwt beam="2">  1       -2 0.90122332E-01 0.25925627E+04</pdfrwt>
<totfact> 0.19584480E+00</totfact>
</mgrwt>
</event>
<event>
 6    1  0.9512547E-007  0.1435758E+04  0.7818608E-02  0.8928334E-01
         -2   -1    0    0    0  501 -0.00000000000E+00  0.00000000000E+00  0.51633477626E+03  0.51633477626E+03  0.00000000000E+00 0.  1.
          2   -1    0    0  501    0  0.00000000000E+00 -0.00000000000E+00 -0.99809349492E+03  0.99809349492E+03  0.00000000000E+00 0. -1.
         23    2    1    2    0    0  0.31779469927E+03  0.32060104717E+03  0.34318165329E+03  0.57405328236E+03  0.89358947494E+02 0.  0.
         13    1    3    3    0    0  0.18902728348E+03  0.24646289784E+03  0.24946946174E+03  0.39838459591E+03  0.00000000000E+00 0.  1.
        -13    1    3    3    0    0  0.12876741578E+03  0.74138149330E+02  0.93712191550E+02  0.17566868645E+03  0.00000000000E+00 0. -1.
         22    1    1    2    0    0 -0.31779469927E+03 -0.32060104717E+03 -0.82494037195E+03  0.94037498883E+03  0.00000000000E+00 0. -1.
<mgrwt>
<rscale>  0 0.14357582E+04</rscale>
<asrwt>0</asrwt>
<pdfrwt beam="1">  1        2 0.15355285E+00 0.14357582E+04</pdfrwt>
<pdfrwt beam="2">  1       -2 0.79436119E-01 0.14357582E+04</pdfrwt>
<totfact> 0.34449051E+01</totfact>
</mgrwt>
</event>
<event>
 6    1  0.9512547E-007  0.1868533E+04  0.7818608E-02  0.8670680E-01
         -1   -1    0    0    0  501 -0.00000000000E+00  0.00000000000E+00  0.89529668667E+03  0.89529668667E+03  0.00000000000E+00 0.  1.
          1   -1    0    0  501    0  0.00000000000E+00 -0.00000000000E+00 -0.97493264841E+03  0.97493264841E+03  0.00000000000E+00 0. -1.
         23    2    1    2    0    0  0.87717697171E+03  0.15213028358E+03  0.23692116337E+03  0.92535290065E+03  0.86967178879E+02 0.  0.
         13    1    3    3    0    0  0.53380952617E+03  0.12960688138E+03  0.16778181046E+03  0.57437034207E+03  0.00000000000E+00 0.  1.
        -13    1    3    3    0    0  0.34336744554E+03  0.22523402205E+02  0.69139352914E+02  0.35098255858E+03  0.00000000000E+00 0. -1.
         22    1    1    2    0    0 -0.87717697171E+03 -0.15213028358E+03 -0.31655712512E+03  0.94487643443E+03  0.00000000000E+00 0.  1.
<mgrwt>
<rscale>  0 0.18685331E+04</rscale>
<asrwt>0</asrwt>
<pdfrwt beam="1">  1        1 0.14998964E+00 0.18685331E+04</pdfrwt>
<pdfrwt beam="2">  1       -1 0.13773795E+00 0.18685331E+04</pdfrwt>
<totfact> 0.64976546E+00</totfact>
</mgrwt>
</event>
<event>
 6    1  0.9512547E-007  0.1662788E+04  0.7818608E-02  0.8782877E-01
          1   -1    0    0  501    0  0.00000000000E+00  0.00000000000E+00  0.42831604814E+03  0.42831604814E+03  0.00000000000E+00 0. -1.
         -1   -1    0    0    0  501 -0.00000000000E+00 -0.00000000000E+00 -0.16137997449E+04  0.16137997449E+04  0.00000000000E+00 0.  1.
         23    2    1    2    0    0 -0.71482729118E+03  0.41878617880E+03 -0.62789609507E+03  0.10434848035E+04  0.90813595265E+02 0.  0.
         11    1    3    3    0    0 -0.35962298518E+03  0.24745990004E+03 -0.28922017211E+03  0.52365389482E+03  0.00000000000E+00 0.  1.
        -11    1    3    3    0    0 -0.35520430599E+03  0.17132627876E+03 -0.33867592296E+03  0.51983090865E+03  0.00000000000E+00 0. -1.
         22    1    1    2    0    0  0.71482729118E+03 -0.41878617880E+03 -0.55758760165E+03  0.99863098955E+03  0.00000000000E+00 0.  1.
<mgrwt>
<rscale>  0 0.16627884E+04</rscale>
<asrwt>0</asrwt>
<pdfrwt beam="1">  1        1 0.65894777E-01 0.16627884E+04</pdfrwt>
<pdfrwt beam="2">  1       -1 0.24827688E+00 0.16627884E+04</pdfrwt>
<totfact> 0.37397295E+00</totfact>
</mgrwt>
</event>
<event>
 6    1  0.9512547E-007  0.2712751E+04  0.7818608E-02  0.8330879E-01
         -2   -1    0    0    0  501 -0.00000000000E+00  0.00000000000E+00  0.15791383946E+04  0.15791383946E+04  0.00000000000E+00 0.  1.
          2   -1    0    0  501    0  0.00000000000E+00 -0.00000000000E+00 -0.11650373087E+04  0.11650373087E+04  0.00000000000E+00 0. -1.
         23    2    1    2    0    0 -0.81798459169E+03 -0.59089997054E+03  0.11219385018E+04  0.15115786990E+04  0.88671269967E+02 0.  0.
         13    1    3    3    0    0 -0.72668824869E+03 -0.49196172417E+03  0.99246299240E+03  0.13247961881E+04  0.00000000000E+00 0. -1.
        -13    1    3    3    0    0 -0.91296343004E+02 -0.98938246371E+02  0.12947550941E+03  0.18678251090E+03  0.00000000000E+00 0.  1.
         22    1    1    2    0    0  0.81798459169E+03  0.59089997054E+03 -0.70783741596E+03  0.12325970042E+04  0.00000000000E+00 0. -1.
<mgrwt>
<rscale>  0 0.27127515E+04</rscale>
<asrwt>0</asrwt>
<pdfrwt beam="1">  1        2 0.17923651E+00 0.27127515E+04</pdfrwt>
<pdfrwt beam="2">  1       -2 0.24294437E+00 0.27127515E+04</pdfrwt>
<totfact> 0.12375648E+00</totfact>
</mgrwt>
</event>
<event>
 6    1  0.9512547E-007  0.2769287E+04  0.7818608E-02  0.8312867E-01
         -2   -1    0    0    0  501 -0.00000000000E+00  0.00000000000E+00  0.12435785700E+04  0.12435785700E+04  0.00000000000E+00 0.  1.
          2   -1    0    0  501    0  0.00000000000E+00 -0.00000000000E+00 -0.15417101458E+04  0.15417101458E+04  0.00000000000E+00 0. -1.
         23    2    1    2    0    0  0.11978517828E+04 -0.54084664384E+03  0.28401888700E+03  0.13478384916E+04  0.92940225354E+02 0.  0.
         13    1    3    3    0    0  0.10084617345E+04 -0.48553985793E+03  0.26018190271E+03  0.11491034096E+04  0.00000000000E+00 0.  1.
        -13    1    3    3    0    0  0.18939004837E+03 -0.55306785907E+02  0.23836984296E+02  0.19873508198E+03  0.00000000000E+00 0. -1.
         22    1    1    2    0    0 -0.11978517828E+04  0.54084664384E+03 -0.58215046277E+03  0.14374502242E+04  0.00000000000E+00 0. -1.
<mgrwt>
<rscale>  0 0.27692871E+04</rscale>
<asrwt>0</asrwt>
<pdfrwt beam="1">  1        2 0.23718618E+00 0.27692871E+04</pdfrwt>
<pdfrwt beam="2">  1       -2 0.19131978E+00 0.27692871E+04</pdfrwt>
<totfact> 0.15932989E+00</totfact>
</mgrwt>
</event>
<event>
 6    1  0.9512547E-007  0.3534930E+04  0.7818608E-02  0.8105562E-01
         -1   -1    0    0    0  501 -0.00000000000E+00  0.00000000000E+00  0.75506438036E+03  0.75506438036E+03  0.00000000000E+00 0.  1.
          1   -1    0    0  501    0  0.00000000000E+00 -0.00000000000E+00 -0.41373054127E+04  0.41373054127E+04  0.00000000000E+00 0. -1.
         23    2    1    2    0    0 -0.82177990702E+03  0.99827764083E+02  0.46706294669E+03  0.95505739486E+03  0.93268608064E+02 0.  0.
         11    1    3    3    0    0 -0.31930527676E+03  0.49883511131E+02  0.13225325651E+03  0.34919213666E+03  0.00000000000E+00 0. -1.
        -11    1    3    3    0    0 -0.50247463026E+03  0.49944252952E+02  0.33480969018E+03  0.60586525820E+03  0.00000000000E+00 0.  1.
         22    1    1    2    0    0  0.82177990702E+03 -0.99827764083E+02 -0.38493039791E+04  0.39373123982E+04  0.00000000000E+00 0. -1.
<mgrwt>
<rscale>  0 0.35349297E+04</rscale>
<asrwt>0</asrwt>
<pdfrwt beam="1">  1        1 0.63650852E+00 0.35349297E+04</pdfrwt>
<pdfrwt beam="2">  1       -1 0.11616375E+00 0.35349297E+04</pdfrwt>
<totfact> 0.39264197E-02</totfact>
</mgrwt>
</event>
<event>
 6    1  0.9512547E-007  0.1004391E+04  0.7818608E-02  0.9303742E-01
          1   -1    0    0  501    0  0.00000000000E+00  0.00000000000E+00  0.18491615411E+04  0.18491615411E+04  0.00000000000E+00 0. -1.
         -1   -1    0    0    0  501 -0.00000000000E+00 -0.00000000000E+00 -0.13638633268E+03  0.13638633268E+03  0.00000000000E+00 0.  1.
         23    2    1    2    0    0 -0.19829285108E+03 -0.24098779047E+03  0.96183151168E+02  0.33910775962E+03  0.91365771057E+02 0.  0.
         11    1    3    3    0    0 -0.18284108185E+03 -0.16129363851E+03  0.77102210787E+02  0.25571712877E+03  0.00000000000E+00 0.  1.
        -11    1    3    3    0    0 -0.15451769231E+02 -0.79694151952E+02  0.19080940380E+02  0.83390630850E+02  0.00000000000E+00 0. -1.
         22    1    1    2    0    0  0.19829285108E+03  0.24098779047E+03  0.16165920573E+04  0.16464401142E+04  0.00000000000E+00 0. -1.
<mgrwt>
<rscale>  0 0.10043911E+04</rscale>
<asrwt>0</asrwt>
<pdfrwt beam="1">  1        1 0.28448637E+00 0.10043911E+04</pdfrwt>
<pdfrwt beam="2">  1       -1 0.20982514E-01 0.10043911E+04</pdfrwt>
<totfact> 0.71561872E+01</totfact>
</mgrwt>
</event>
<event>
 6    1  0.9512547E-007  0.2206374E+04  0.7818608E-02  0.8515780E-01
          2   -1    0    0  501    0  0.00000000000E+00  0.00000000000E+00  0.39709598971E+03  0.39709598971E+03  0.00000000000E+00 0. -1.
         -2   -1    0    0    0  501 -0.00000000000E+00 -0.00000000000E+00 -0.30648057971E+04  0.30648057971E+04  0.00000000000E+00 0.  1.
         23    2    1    2    0    0 -0.86771465486E+03  0.58843540164E+03 -0.18670920213E+04  0.21427453201E+04  0.78357813269E+02 0.  0.
         13    1    3    3    0    0 -0.49266753466E+03  0.32755163084E+03 -0.97446086965E+03  0.11399935776E+04  0.00000000000E+00 0.  1.
        -13    1    3    3    0    0 -0.37504712020E+03  0.26088377081E+03 -0.89263115162E+03  0.10027517425E+04  0.00000000000E+00 0. -1.
         22    1    1    2    0    0  0.86771465486E+03 -0.58843540164E+03 -0.80061778617E+03  0.13191564667E+04  0.00000000000E+00 0. -1.
<mgrwt>
<rscale>  0 0.22063745E+04</rscale>
<asrwt>0</asrwt>
<pdfrwt beam="1">  1        2 0.61091689E-01 0.22063745E+04</pdfrwt>
<pdfrwt beam="2">  1       -2 0.47150860E+00 0.22063745E+04</pdfrwt>
<totfact> 0.18338922E-01</totfact>
</mgrwt>
</event>
<event>
 6    1  0.9512547E-007  0.4356391E+04  0.7818608E-02  0.7936272E-01
          2   -1    0    0  501    0  0.00000000000E+00  0.00000000000E+00  0.20472624505E+04  0.20472624505E+04  0.00000000000E+00 0. -1.
         -2   -1    0    0    0  501 -0.00000000000E+00 -0.00000000000E+00 -0.23175023739E+04  0.23175023739E+04  0.00000000000E+00 0.  1.
         23    2    1    2    0    0  0.12310960521E+04  0.14083996469E+04  0.98108914838E+03  0.21142067823E+04  0.90262653704E+02 0.  0.
         11    1    3    3    0    0  0.75252359948E+03  0.85526545157E+03  0.64677921973E+03  0.13099977555E+04  0.00000000000E+00 0.  1.
        -11    1    3    3    0    0  0.47857245260E+03  0.55313419531E+03  0.33430992864E+03  0.80420902681E+03  0.00000000000E+00 0. -1.
         22    1    1    2    0    0 -0.12310960521E+04 -0.14083996469E+04 -0.12513290717E+04  0.22505580420E+04  0.00000000000E+00 0.  1.
<mgrwt>
<rscale>  0 0.43563910E+04</rscale>
<asrwt>0</asrwt>
<pdfrwt beam="1">  1        2 0.31496345E+00 0.43563910E+04</pdfrwt>
<pdfrwt beam="2">  1       -2 0.35653883E+00 0.43563910E+04</pdfrwt>
<totfact> 0.68176137E-02</totfact>
</mgrwt>
</event>
<event>
 6    1  0.9512547E-007  0.2319404E+04  0.7818608E-02  0.8470310E-01
          1   -1    0    0  501    0  0.00000000000E+00  0.00000000000E+00  0.22224236935E+04  0.22224236935E+04  0.00000000000E+00 0. -1.
         -1   -1    0    0    0  501 -0.00000000000E+00 -0.00000000000E+00 -0.60515383123E+03  0.60515383123E+03  0.00000000000E+00 0.  1.
         23    2    1    2    0    0 -0.15789027205E+03  0.48438593865E+03  0.20774510822E+04  0.21410457841E+04  0.93354030406E+02 0.  0.
         11    1    3    3    0    0 -0.15901224953E+03  0.36228139502E+03  0.16123257289E+04  0.16601587155E+04  0.00000000000E+00 0. -1.
        -11    1    3    3    0    0  0.11219774878E+01  0.12210454363E+03  0.46512535335E+03  0.48088706859E+03  0.00000000000E+00 0.  1.
         22    1    1    2    0    0  0.15789027205E+03 -0.48438593865E+03 -0.46018122001E+03  0.68653174058E+03  0.00000000000E+00 0.  1.
<mgrwt>
<rscale>  0 0.23194036E+04</rscale>
<asrwt>0</asrwt>
<pdfrwt beam="1">  1        1 0.34191133E+00 0.23194036E+04</pdfrwt>
<pdfrwt beam="2">  1       -1 0.93100590E-01 0.23194036E+04</pdfrwt>
<totfact> 0.21257243E+00</totfact>
</mgrwt>
</event>
<event>
 6    1  0.9512547E-007  0.3115318E+04  0.7818608E-02  0.8211546E-01
          2   -1    0    0  501    0  0.00000000000E+00  0.00000000000E+00  0.12646654153E+04  0.12646654153E+04  0.00000000000E+00 0. -1.
         -2   -1    0    0    0  501 -0.00000000000E+00 -0.00000000000E+00 -0.19185328546E+04  0.19185328546E+04  0.00000000000E+00 0.  1.
         23    2    1    2    0    0 -0.84589707360E+03 -0.67831599007E+03 -0.14679160354E+04  0.18273481460E+04  0.93644638229E+02 0.  0.
         11    1    3    3    0    0 -0.43374026364E+03 -0.36553728442E+03 -0.84247239174E+03  0.10156317509E+04  0.00000000000E+00 0.  1.
        -11    1    3    3    0    0 -0.41215680996E+03 -0.31277870566E+03 -0.62544364368E+03  0.81171639514E+03  0.00000000000E+00 0. -1.
         22    1    1    2    0    0  0.84589707360E+03  0.67831599007E+03  0.81404859610E+03  0.13558501238E+04  0.00000000000E+00 0. -1.
<mgrwt>
<rscale>  0 0.31153184E+04</rscale>
<asrwt>0</asrwt>
<pdfrwt beam="1">  1        2 0.19456391E+00 0.31153184E+04</pdfrwt>
<pdfrwt beam="2">  1       -2 0.29515890E+00 0.31153184E+04</pdfrwt>
<totfact> 0.50024612E-01</totfact>
</mgrwt>
</event>
<event>
 6    1  0.9512547E-007  0.5531233E+04  0.7818608E-02  0.7751406E-01
         -2   -1    0    0    0  501 -0.00000000000E+00  0.00000000000E+00  0.26983044152E+04  0.26983044152E+04  0.00000000000E+00 0.  1.
          2   -1    0    0  501    0  0.00000000000E+00 -0.00000000000E+00 -0.28346075301E+04  0.28346075301E+04  0.00000000000E+00 0. -1.
         23    2    1    2    0    0 -0.22156706402E+04 -0.93161167948E+03  0.12987275424E+04  0.27335531447E+04  0.92319328767E+02 0.  0.
         13    1    3    3    0    0 -0.17579113182E+04 -0.71030646789E+03  0.99343677068E+03  0.21404915553E+04  0.00000000000E+00 0. -1.
        -13    1    3    3    0    0 -0.45775932205E+03 -0.22130521159E+03  0.30529077172E+03  0.59306158946E+03  0.00000000000E+00 0.  1.
         22    1    1    2    0    0  0.22156706402E+04  0.93161167948E+03 -0.14350306573E+04  0.27993588006E+04  0.00000000000E+00 0. -1.
<mgrwt>
<rscale>  0 0.55312328E+04</rscale>
<asrwt>0</asrwt>
<pdfrwt beam="1">  1        2 0.43609347E+00 0.55312328E+04</pdfrwt>
<pdfrwt beam="2">  1       -2 0.41512375E+00 0.55312328E+04</pdfrwt>
<totfact> 0.90949165E-03</totfact>
</mgrwt>
</event>
<event>
 6    1  0.9512547E-007  0.2453866E+04  0.7818608E-02  0.8419608E-01
         -2   -1    0    0    0  501 -0.00000000000E+00  0.00000000000E+00  0.18130328610E+04  0.18130328610E+04  0.00000000000E+00 0.  1.
          2   -1    0    0  501    0  0.00000000000E+00 -0.00000000000E+00 -0.83030217482E+03  0.83030217482E+03  0.00000000000E+00 0. -1.
         23    2    1    2    0    0 -0.26603545649E+03  0.60516608865E+03  0.16033774995E+04  0.17365807550E+04  0.88839482704E+02 0.  0.
         11    1    3    3    0    0 -0.24994435927E+03  0.51423081037E+03  0.14316196896E+04  0.15415707719E+04  0.00000000000E+00 0. -1.
        -11    1    3    3    0    0 -0.16091097221E+02  0.90935278280E+02  0.17175780992E+03  0.19500998311E+03  0.00000000000E+00 0.  1.
         22    1    1    2    0    0  0.26603545649E+03 -0.60516608865E+03 -0.62064681331E+03  0.90675428085E+03  0.00000000000E+00 0. -1.
<mgrwt>
<rscale>  0 0.24538664E+04</rscale>
<asrwt>0</asrwt>
<pdfrwt beam="1">  1        2 0.12773880E+00 0.24538664E+04</pdfrwt>
<pdfrwt beam="2">  1       -2 0.27892813E+00 0.24538664E+04</pdfrwt>
<totfact> 0.12541960E+00</totfact>
</mgrwt>
</event>
<event>
 6    1  0.9512547E-007  0.1508140E+04  0.7818608E-02  0.8879058E-01
         -2   -1    0    0    0  501 -0.00000000000E+00  0.00000000000E+00  0.21341958799E+03  0.21341958799E+03  0.00000000000E+00 0.  1.
          2   -1    0    0  501    0  0.00000000000E+00 -0.00000000000E+00 -0.26643364013E+04  0.26643364013E+04  0.00000000000E+00 0. -1.
         23    2    1    2    0    0 -0.34569924083E+03 -0.33543311635E+03 -0.23301406777E+04  0.23811573429E+04  0.91276355539E+02 0.  0.
         11    1    3    3    0    0 -0.23171118366E+03 -0.27725609680E+03 -0.16533430754E+04  0.16923664913E+04  0.00000000000E+00 0. -1.
        -11    1    3    3    0    0 -0.11398805717E+03 -0.58177019559E+02 -0.67679760231E+03  0.68879085162E+03  0.00000000000E+00 0.  1.
         22    1    1    2    0    0  0.34569924083E+03  0.33543311635E+03 -0.12077613560E+03  0.49659864638E+03  0.00000000000E+00 0.  1.
<mgrwt>
<rscale>  0 0.15081400E+04</rscale>
<asrwt>0</asrwt>
<pdfrwt beam="1">  1        2 0.40989794E+00 0.15081400E+04</pdfrwt>
<pdfrwt beam="2">  1       -2 0.32833780E-01 0.15081400E+04</pdfrwt>
<totfact> 0.23389710E+01</totfact>
</mgrwt>
</event>
<event>
 6    1  0.9512547E-007  0.1640349E+04  0.7818608E-02  0.8796136E-01
          1   -1    0    0  501    0  0.00000000000E+00  0.00000000000E+00  0.44390749352E+03  0.44390749352E+03  0.00000000000E+00 0. -1.
         -1   -1    0    0    0  501 -0.00000000000E+00 -0.00000000000E+00 -0.15153746902E+04  0.15153746902E+04  0.00000000000E+00 0.  1.
         23    2    1    2    0    0 -0.42485396787E+03  0.19473539866E+03  0.26423480656E+03  0.54417702475E+03  0.88802205801E+02 0.  0.
         11    1    3    3    0    0 -0.18396469064E+03  0.10146815131E+03  0.71653541795E+02  0.22197527607E+03  0.00000000000E+00 0.  1.
        -11    1    3    3    0    0 -0.24088927724E+03  0.93267247345E+02  0.19258126477E+03  0.32220174868E+03  0.00000000000E+00 0. -1.
         22    1    1    2    0    0  0.42485396787E+03 -0.19473539866E+03 -0.13357020033E+04  0.14151051590E+04  0.00000000000E+00 0.  1.
<mgrwt>
<rscale>  0 0.16403490E+04</rscale>
<asrwt>0</asrwt>
<pdfrwt beam="1">  1        1 0.68293461E-01 0.16403490E+04</pdfrwt>
<pdfrwt beam="2">  1       -1 0.23313457E+00 0.16403490E+04</pdfrwt>
<totfact> 0.44887463E+00</totfact>
</mgrwt>
</event>
<event>
 6    1  0.9512547E-007  0.1815288E+04  0.7818608E-02  0.8698212E-01
          1   -1    0    0  501    0  0.00000000000E+00  0.00000000000E+00  0.82514336526E+03  0.82514336526E+03  0.00000000000E+00 0. -1.
         -1   -1    0    0    0  501 -0.00000000000E+00 -0.00000000000E+00 -0.99839294559E+03  0.99839294559E+03  0.00000000000E+00 0.  1.
         23    2    1    2    0    0  0.46450740828E+03 -0.64007833363E+03 -0.52924522496E+03  0.95624149101E+03  0.93967417004E+02 0.  0.
         13    1    3    3    0    0  0.29951855287E+03 -0.43831281529E+03 -0.40375657632E+03  0.66696990973E+03  0.00000000000E+00 0. -1.
        -13    1    3    3    0    0  0.16498885541E+03 -0.20176551834E+03 -0.12548864864E+03  0.28927158128E+03  0.00000000000E+00 0.  1.
         22    1    1    2    0    0 -0.46450740828E+03  0.64007833363E+03  0.35599564463E+03  0.86729481984E+03  0.00000000000E+00 0. -1.
<mgrwt>
<rscale>  0 0.18152877E+04</rscale>
<asrwt>0</asrwt>
<pdfrwt beam="1">  1        1 0.12694513E+00 0.18152877E+04</pdfrwt>
<pdfrwt beam="2">  1       -1 0.15359891E+00 0.18152877E+04</pdfrwt>
<totfact> 0.64834929E+00</totfact>
</mgrwt>
</event>
<event>
 6    1  0.9512547E-007  0.5965134E+03  0.7818608E-02  0.9912666E-01
         -1   -1    0    0    0  501 -0.00000000000E+00  0.00000000000E+00  0.17345164539E+03  0.17345164539E+03  0.00000000000E+00 0.  1.
          1   -1    0    0  501    0  0.00000000000E+00 -0.00000000000E+00 -0.51286366144E+03  0.51286366144E+03  0.00000000000E+00 0. -1.
         23    2    1    2    0    0  0.38112698768E+02  0.55015817385E+02 -0.49979206430E+03  0.51253073373E+03  0.91740544514E+02 0.  0.
         13    1    3    3    0    0 -0.66629036310E+00  0.32743533694E+02 -0.45598636394E+02  0.56141059686E+02  0.00000000000E+00 0.  1.
        -13    1    3    3    0    0  0.38778989132E+02  0.22272283691E+02 -0.45419342791E+03  0.45638967404E+03  0.00000000000E+00 0. -1.
         22    1    1    2    0    0 -0.38112698768E+02 -0.55015817385E+02  0.16038004825E+03  0.17378457310E+03  0.00000000000E+00 0.  1.
<mgrwt>
<rscale>  0 0.59651336E+03</rscale>
<asrwt>0</asrwt>
<pdfrwt beam="1">  1        1 0.78902100E-01 0.59651336E+03</pdfrwt>
<pdfrwt beam="2">  1       -1 0.26684869E-01 0.59651336E+03</pdfrwt>
<totfact> 0.54083030E+02</totfact>
</mgrwt>
</event>
<event>
 6    1  0.9512547E-007  0.3926059E+04  0.7818608E-02  0.8019631E-01
         -2   -1    0    0    0  501 -0.00000000000E+00  0.00000000000E+00  0.23967358933E+04  0.23967358933E+04  0.00000000000E+00 0.  1.
          2   -1    0    0  501    0  0.00000000000E+00 -0.00000000000E+00 -0.16078054684E+04  0.16078054684E+04  0.00000000000E+00 0. -1.
         23    2    1    2    0    0  0.14230192930E+02 -0.43136563515E+03  0.23468448126E+04  0.23879473963E+04  0.91287366879E+02 0.  0.
         11    1    3    3    0    0 -0.12471945591E+02 -0.88935258669E+02  0.32700586068E+03  0.33911334768E+03  0.00000000000E+00 0. -1.
        -11    1    3    3    0    0  0.26702138520E+02 -0.34243037648E+03  0.20198389519E+04  0.20488340486E+04  0.00000000000E+00 0.  1.
         22    1    1    2    0    0 -0.14230192930E+02  0.43136563515E+03 -0.15579143878E+04  0.16165939655E+04  0.00000000000E+00 0. -1.
<mgrwt>
<rscale>  0 0.39260591E+04</rscale>
<asrwt>0</asrwt>
<pdfrwt beam="1">  1        2 0.24735469E+00 0.39260591E+04</pdfrwt>
<pdfrwt beam="2">  1       -2 0.36872860E+00 0.39260591E+04</pdfrwt>
<totfact> 0.10360158E-01</totfact>
</mgrwt>
</event>
<event>
 6    1  0.9512547E-007  0.1066902E+04  0.7818608E-02  0.9238065E-01
         -2   -1    0    0    0  501 -0.00000000000E+00  0.00000000000E+00  0.25196206166E+03  0.25196206166E+03  0.00000000000E+00 0.  1.
          2   -1    0    0  501    0  0.00000000000E+00 -0.00000000000E+00 -0.11294169301E+04  0.11294169301E+04  0.00000000000E+00 0. -1.
         23    2    1    2    0    0  0.17476159371E+03 -0.44441543659E+02  0.20193934966E+03  0.28702596667E+03  0.95329634252E+02 0.  0.
         11    1    3    3    0    0  0.13234679976E+03  0.69892423956E+01  0.10359143992E+03  0.16821329122E+03  0.00000000000E+00 0.  1.
        -11    1    3    3    0    0  0.42414793943E+02 -0.51430786055E+02  0.98347909740E+02  0.11881267546E+03  0.00000000000E+00 0. -1.
         22    1    1    2    0    0 -0.17476159371E+03  0.44441543659E+02 -0.10793942181E+04  0.10943530251E+04  0.00000000000E+00 0. -1.
<mgrwt>
<rscale>  0 0.10669025E+04</rscale>
<asrwt>0</asrwt>
<pdfrwt beam="1">  1        2 0.17375645E+00 0.10669025E+04</pdfrwt>
<pdfrwt beam="2">  1       -2 0.38763394E-01 0.10669025E+04</pdfrwt>
<totfact> 0.13061265E+02</totfact>
</mgrwt>
</event>
<event>
 6    1  0.9512547E-007  0.2262304E+04  0.7818608E-02  0.8492934E-01
          1   -1    0    0  501    0  0.00000000000E+00  0.00000000000E+00  0.20695472449E+04  0.20695472449E+04  0.00000000000E+00 0. -1.
         -1   -1    0    0    0  501 -0.00000000000E+00 -0.00000000000E+00 -0.61825325056E+03  0.61825325056E+03  0.00000000000E+00 0.  1.
         23    2    1    2    0    0  0.67983420882E+03 -0.85312685081E+03  0.10730689651E+04  0.15332208543E+04  0.96380542572E+02 0.  0.
         13    1    3    3    0    0  0.14832792956E+03 -0.23646563382E+03  0.31403499735E+03  0.42016086232E+03  0.00000000000E+00 0. -1.
        -13    1    3    3    0    0  0.53150627926E+03 -0.61666121699E+03  0.75903396777E+03  0.11130599919E+04  0.00000000000E+00 0.  1.
         22    1    1    2    0    0 -0.67983420882E+03  0.85312685081E+03  0.37822502917E+03  0.11545796411E+04  0.00000000000E+00 0.  1.
<mgrwt>
<rscale>  0 0.22623035E+04</rscale>
<asrwt>0</asrwt>
<pdfrwt beam="1">  1        1 0.31839188E+00 0.22623035E+04</pdfrwt>
<pdfrwt beam="2">  1       -1 0.95115886E-01 0.22623035E+04</pdfrwt>
<totfact> 0.25877352E+00</totfact>
</mgrwt>
</event>
<event>
 6    1  0.9512547E-007  0.1234266E+04  0.7818608E-02  0.9083382E-01
         -2   -1    0    0    0  501 -0.00000000000E+00  0.00000000000E+00  0.13261478633E+03  0.13261478633E+03  0.00000000000E+00 0.  1.
          2   -1    0    0  501    0  0.00000000000E+00 -0.00000000000E+00 -0.28718731799E+04  0.28718731799E+04  0.00000000000E+00 0. -1.
         23    2    1    2    0    0 -0.52353478110E+03  0.21105119468E+02 -0.59948715889E+03  0.80150021549E+03  0.92106724340E+02 0.  0.
         11    1    3    3    0    0 -0.30691506393E+03  0.56472768033E+02 -0.36788788939E+03  0.48241841710E+03  0.00000000000E+00 0.  1.
        -11    1    3    3    0    0 -0.21661971718E+03 -0.35367648565E+02 -0.23159926950E+03  0.31908179839E+03  0.00000000000E+00 0. -1.
         22    1    1    2    0    0  0.52353478110E+03 -0.21105119468E+02 -0.21397712346E+04  0.22029877507E+04  0.00000000000E+00 0. -1.
<mgrwt>
<rscale>  0 0.12342655E+04</rscale>
<asrwt>0</asrwt>
<pdfrwt beam="1">  1        2 0.44182665E+00 0.12342655E+04</pdfrwt>
<pdfrwt beam="2">  1       -2 0.20402275E-01 0.12342655E+04</pdfrwt>
<totfact> 0.42954671E+01</totfact>
</mgrwt>
</event>
<event>
 6    1  0.9512547E-007  0.2657619E+04  0.7818608E-02  0.8348889E-01
          2   -1    0    0  501    0  0.00000000000E+00  0.00000000000E+00  0.11962083563E+04  0.11962083563E+04  0.00000000000E+00 0. -1.
         -2   -1    0    0    0  501 -0.00000000000E+00 -0.00000000000E+00 -0.14761091077E+04  0.14761091077E+04  0.00000000000E+00 0.  1.
         23    2    1    2    0    0 -0.72283223191E+03  0.55344485377E+03  0.83112165753E+03  0.12359475831E+04  0.89529754205E+02 0.  0.
         11    1    3    3    0    0 -0.58044862898E+03  0.40131707145E+03  0.62057504556E+03  0.93972835963E+03  0.00000000000E+00 0.  1.
        -11    1    3    3    0    0 -0.14238360292E+03  0.15212778232E+03  0.21054661196E+03  0.29621922346E+03  0.00000000000E+00 0. -1.
         22    1    1    2    0    0  0.72283223191E+03 -0.55344485377E+03 -0.11110224089E+04  0.14363698809E+04  0.00000000000E+00 0.  1.
<mgrwt>
<rscale>  0 0.26576185E+04</rscale>
<asrwt>0</asrwt>
<pdfrwt beam="1">  1        2 0.18403206E+00 0.26576185E+04</pdfrwt>
<pdfrwt beam="2">  1       -2 0.22709371E+00 0.26576185E+04</pdfrwt>
<totfact> 0.14945023E+00</totfact>
</mgrwt>
</event>
<event>
 6    1  0.9512547E-007  0.1059810E+04  0.7818608E-02  0.9245274E-01
          2   -1    0    0  501    0  0.00000000000E+00  0.00000000000E+00  0.20064813416E+04  0.20064813416E+04  0.00000000000E+00 0. -1.
         -2   -1    0    0    0  501 -0.00000000000E+00 -0.00000000000E+00 -0.13994613818E+03  0.13994613818E+03  0.00000000000E+00 0.  1.
         23    2    1    2    0    0 -0.41389867080E+03  0.10323332773E+03  0.15642299645E+04  0.16235912845E+04  0.85229382060E+02 0.  0.
         11    1    3    3    0    0 -0.19529590663E+03  0.15039438254E+02  0.60997659993E+03  0.64065445313E+03  0.00000000000E+00 0. -1.
        -11    1    3    3    0    0 -0.21860276417E+03  0.88193889476E+02  0.95425336457E+03  0.98293683135E+03  0.00000000000E+00 0.  1.
         22    1    1    2    0    0  0.41389867080E+03 -0.10323332773E+03  0.30230523896E+03  0.52283619533E+03  0.00000000000E+00 0.  1.
<mgrwt>
<rscale>  0 0.10598100E+04</rscale>
<asrwt>0</asrwt>
<pdfrwt beam="1">  1        2 0.30868942E+00 0.10598100E+04</pdfrwt>
<pdfrwt beam="2">  1       -2 0.21530177E-01 0.10598100E+04</pdfrwt>
<totfact> 0.12405889E+02</totfact>
</mgrwt>
</event>
<event>
 6    1  0.1336573E-006  0.2507793E+04  0.7818608E-02  0.8400215E-01
          1   -1    0    0  501    0  0.00000000000E+00  0.00000000000E+00  0.18944554492E+04  0.18944554492E+04  0.00000000000E+00 0. -1.
         -1   -1    0    0    0  501 -0.00000000000E+00 -0.00000000000E+00 -0.82992495390E+03  0.82992495390E+03  0.00000000000E+00 0.  1.
         23    2    1    2    0    0  0.42129302008E+03 -0.27511687686E+03 -0.71272964264E+03  0.87726624783E+03  0.91844550130E+02 0.  0.
         13    1    3    3    0    0  0.35140254849E+03 -0.23276186309E+03 -0.53059707590E+03  0.67763935315E+03  0.00000000000E+00 0. -1.
        -13    1    3    3    0    0  0.69890471590E+02 -0.42355013770E+02 -0.18213256674E+03  0.19962689468E+03  0.00000000000E+00 0.  1.
         22    1    1    2    0    0 -0.42129302008E+03  0.27511687686E+03  0.17772601380E+04  0.18471141553E+04  0.00000000000E+00 0. -1.
<mgrwt>
<rscale>  0 0.25077925E+04</rscale>
<asrwt>0</asrwt>
<pdfrwt beam="1">  1        1 0.29145468E+00 0.25077925E+04</pdfrwt>
<pdfrwt beam="2">  1       -1 0.12768076E+00 0.25077925E+04</pdfrwt>
<totfact> 0.16556168E+00</totfact>
</mgrwt>
</event>
<event>
 6    1  0.9512547E-007  0.2272273E+04  0.7818608E-02  0.8488934E-01
          1   -1    0    0  501    0  0.00000000000E+00  0.00000000000E+00  0.96460194605E+03  0.96460194605E+03  0.00000000000E+00 0. -1.
         -1   -1    0    0    0  501 -0.00000000000E+00 -0.00000000000E+00 -0.13381750317E+04  0.13381750317E+04  0.00000000000E+00 0.  1.
         23    2    1    2    0    0  0.32899859026E+03  0.99603833324E+03  0.25025981452E+03  0.10823262737E+04  0.92020401500E+02 0.  0.
         11    1    3    3    0    0  0.57237406631E+02  0.24490956920E+03  0.27131784305E+02  0.25296828165E+03  0.00000000000E+00 0. -1.
        -11    1    3    3    0    0  0.27176118363E+03  0.75112876404E+03  0.22312803022E+03  0.82935799204E+03  0.00000000000E+00 0.  1.
         22    1    1    2    0    0 -0.32899859026E+03 -0.99603833324E+03 -0.62383290017E+03  0.12204507040E+04  0.00000000000E+00 0.  1.
<mgrwt>
<rscale>  0 0.22722731E+04</rscale>
<asrwt>0</asrwt>
<pdfrwt beam="1">  1        1 0.14840030E+00 0.22722731E+04</pdfrwt>
<pdfrwt beam="2">  1       -1 0.20587308E+00 0.22722731E+04</pdfrwt>
<totfact> 0.20051055E+00</totfact>
</mgrwt>
</event>
<event>
 6    1  0.9512547E-007  0.5389436E+03  0.7818608E-02  0.1004086E+00
          1   -1    0    0  501    0  0.00000000000E+00  0.00000000000E+00  0.55322957449E+03  0.55322957449E+03  0.00000000000E+00 0. -1.
         -1   -1    0    0    0  501 -0.00000000000E+00 -0.00000000000E+00 -0.13125665052E+03  0.13125665052E+03  0.00000000000E+00 0.  1.
         23    2    1    2    0    0  0.18292982997E+03  0.11770310751E+03  0.32449545267E+02  0.23834072547E+03  0.91847614118E+02 0.  0.
         13    1    3    3    0    0  0.55517801510E+02  0.44064820095E+02  0.54666659318E+02  0.89511889130E+02  0.00000000000E+00 0. -1.
        -13    1    3    3    0    0  0.12741202846E+03  0.73638287413E+02 -0.22217114051E+02  0.14882883634E+03  0.00000000000E+00 0.  1.
         22    1    1    2    0    0 -0.18292982997E+03 -0.11770310751E+03  0.38952337869E+03  0.44614549954E+03  0.00000000000E+00 0. -1.
<mgrwt>
<rscale>  0 0.53894364E+03</rscale>
<asrwt>0</asrwt>
<pdfrwt beam="1">  1        1 0.85112241E-01 0.53894364E+03</pdfrwt>
<pdfrwt beam="2">  1       -1 0.20193331E-01 0.53894364E+03</pdfrwt>
<totfact> 0.77960405E+02</totfact>
</mgrwt>
</event>
<event>
 6    1  0.9512547E-007  0.1867033E+04  0.7818608E-02  0.8671442E-01
          1   -1    0    0  501    0  0.00000000000E+00  0.00000000000E+00  0.73039283235E+03  0.73039283235E+03  0.00000000000E+00 0. -1.
         -1   -1    0    0    0  501 -0.00000000000E+00 -0.00000000000E+00 -0.11931290475E+04  0.11931290475E+04  0.00000000000E+00 0.  1.
         23    2    1    2    0    0  0.56042567482E+03  0.70774601910E+03 -0.46802368153E+03  0.10207432127E+04  0.88821028976E+02 0.  0.
         11    1    3    3    0    0  0.25241824395E+03  0.38995795093E+03 -0.24448371841E+03  0.52493281659E+03  0.00000000000E+00 0. -1.
        -11    1    3    3    0    0  0.30800743087E+03  0.31778806817E+03 -0.22353996313E+03  0.49581039608E+03  0.00000000000E+00 0.  1.
         22    1    1    2    0    0 -0.56042567482E+03 -0.70774601910E+03  0.52874664076E+01  0.90277866715E+03  0.00000000000E+00 0. -1.
<mgrwt>
<rscale>  0 0.18670328E+04</rscale>
<asrwt>0</asrwt>
<pdfrwt beam="1">  1        1 0.11236813E+00 0.18670328E+04</pdfrwt>
<pdfrwt beam="2">  1       -1 0.18355832E+00 0.18670328E+04</pdfrwt>
<totfact> 0.46991746E+00</totfact>
</mgrwt>
</event>
<event>
 6    1  0.9512547E-007  0.1331506E+04  0.7818608E-02  0.9004947E-01
          1   -1    0    0  501    0  0.00000000000E+00  0.00000000000E+00  0.13679928941E+04  0.13679928941E+04  0.00000000000E+00 0. -1.
         -1   -1    0    0    0  501 -0.00000000000E+00 -0.00000000000E+00 -0.32399795014E+03  0.32399795014E+03  0.00000000000E+00 0.  1.
         23    2    1    2    0    0  0.28095715785E+03 -0.20962432148E+03 -0.19001996887E+03  0.40915333084E+03  0.91758263191E+02 0.  0.
         11    1    3    3    0    0  0.73795096757E+02 -0.14580534191E+02 -0.60485318299E+02  0.96523479073E+02  0.00000000000E+00 0.  1.
        -11    1    3    3    0    0  0.20716206110E+03 -0.19504378729E+03 -0.12953465058E+03  0.31262985177E+03  0.00000000000E+00 0. -1.
         22    1    1    2    0    0 -0.28095715785E+03  0.20962432148E+03  0.12340149129E+04  0.12828375134E+04  0.00000000000E+00 0. -1.
<mgrwt>
<rscale>  0 0.13315058E+04</rscale>
<asrwt>0</asrwt>
<pdfrwt beam="1">  1        1 0.21046044E+00 0.13315058E+04</pdfrwt>
<pdfrwt beam="2">  1       -1 0.49845839E-01 0.13315058E+04</pdfrwt>
<totfact> 0.32022140E+01</totfact>
</mgrwt>
</event>
<event>
 6    1  0.9512547E-007  0.2281697E+04  0.7818608E-02  0.8485173E-01
         -1   -1    0    0    0  501 -0.00000000000E+00  0.00000000000E+00  0.97869591826E+03  0.97869591826E+03  0.00000000000E+00 0.  1.
          1   -1    0    0  501    0  0.00000000000E+00 -0.00000000000E+00 -0.13298663457E+04  0.13298663457E+04  0.00000000000E+00 0. -1.
         23    2    1    2    0    0  0.85580325539E+03 -0.26826485452E+03 -0.88627266185E+03  0.12641965974E+04  0.91370464218E+02 0.  0.
         13    1    3    3    0    0  0.59190773486E+03 -0.18480825309E+03 -0.67025164661E+03  0.91309699747E+03  0.00000000000E+00 0.  1.
        -13    1    3    3    0    0  0.26389552053E+03 -0.83456601430E+02 -0.21602101525E+03  0.35109959998E+03  0.00000000000E+00 0. -1.
         22    1    1    2    0    0 -0.85580325539E+03  0.26826485452E+03  0.53510223442E+03  0.10443656665E+04  0.00000000000E+00 0.  1.
<mgrwt>
<rscale>  0 0.22816965E+04</rscale>
<asrwt>0</asrwt>
<pdfrwt beam="1">  1        1 0.20459482E+00 0.22816965E+04</pdfrwt>
<pdfrwt beam="2">  1       -1 0.15056860E+00 0.22816965E+04</pdfrwt>
<totfact> 0.26928736E+00</totfact>
</mgrwt>
</event>
<event>
 6    1  0.9512547E-007  0.1484482E+04  0.7818608E-02  0.8894838E-01
         -1   -1    0    0    0  501 -0.00000000000E+00  0.00000000000E+00  0.10513275848E+04  0.10513275848E+04  0.00000000000E+00 0.  1.
          1   -1    0    0  501    0  0.00000000000E+00 -0.00000000000E+00 -0.52402471341E+03  0.52402471341E+03  0.00000000000E+00 0. -1.
         23    2    1    2    0    0  0.60823972693E+03  0.40179599286E+03  0.13394369855E+03  0.74702445001E+03  0.93322179756E+02 0.  0.
         11    1    3    3    0    0  0.18185076270E+03  0.87097050839E+02  0.53681804713E+01  0.20170377666E+03  0.00000000000E+00 0. -1.
        -11    1    3    3    0    0  0.42638896423E+03  0.31469894202E+03  0.12857551808E+03  0.54532067334E+03  0.00000000000E+00 0.  1.
         22    1    1    2    0    0 -0.60823972693E+03 -0.40179599286E+03  0.39335917287E+03  0.82832784824E+03  0.00000000000E+00 0.  1.
<mgrwt>
<rscale>  0 0.14844819E+04</rscale>
<asrwt>0</asrwt>
<pdfrwt beam="1">  1        1 0.80619187E-01 0.14844819E+04</pdfrwt>
<pdfrwt beam="2">  1       -1 0.16174270E+00 0.14844819E+04</pdfrwt>
<totfact> 0.11401211E+01</totfact>
</mgrwt>
</event>
<event>
 6    1  0.9512547E-007  0.2688279E+04  0.7818608E-02  0.8338818E-01
          1   -1    0    0  501    0  0.00000000000E+00  0.00000000000E+00  0.18339950338E+04  0.18339950338E+04  0.00000000000E+00 0. -1.
         -1   -1    0    0    0  501 -0.00000000000E+00 -0.00000000000E+00 -0.98512336467E+03  0.98512336467E+03  0.00000000000E+00 0.  1.
         23    2    1    2    0    0 -0.11664958490E+04  0.29168813075E+03 -0.20138268231E+03  0.12226132359E+04  0.91834680012E+02 0.  0.
         11    1    3    3    0    0 -0.68289917888E+03  0.12447796247E+03 -0.12262617376E+03  0.70489944683E+03  0.00000000000E+00 0. -1.
        -11    1    3    3    0    0 -0.48359667014E+03  0.16721016828E+03 -0.78756508550E+02  0.51771378906E+03  0.00000000000E+00 0.  1.
         22    1    1    2    0    0  0.11664958490E+04 -0.29168813075E+03  0.10502543515E+04  0.15965051626E+04  0.00000000000E+00 0. -1.
<mgrwt>
<rscale>  0 0.26882793E+04</rscale>
<asrwt>0</asrwt>
<pdfrwt beam="1">  1        1 0.28215308E+00 0.26882793E+04</pdfrwt>
<pdfrwt beam="2">  1       -1 0.15155744E+00 0.26882793E+04</pdfrwt>
<totfact> 0.11454730E+00</totfact>
</mgrwt>
</event>
<event>
 6    1  0.9512547E-007  0.3924458E+04  0.7818608E-02  0.8019961E-01
         -2   -1    0    0    0  501 -0.00000000000E+00  0.00000000000E+00  0.12891416242E+04  0.12891416242E+04  0.00000000000E+00 0.  1.
          2   -1    0    0  501    0  0.00000000000E+00 -0.00000000000E+00 -0.29867497126E+04  0.29867497126E+04  0.00000000000E+00 0. -1.
         23    2    1    2    0    0  0.18411433547E+04 -0.48902687888E+03 -0.13570289472E+04  0.23407039318E+04  0.91712552190E+02 0.  0.
         11    1    3    3    0    0  0.85104013743E+03 -0.22108981456E+03 -0.68228500665E+03  0.11129523134E+04  0.00000000000E+00 0. -1.
        -11    1    3    3    0    0  0.99010321728E+03 -0.26793706432E+03 -0.67474394052E+03  0.12277516184E+04  0.00000000000E+00 0.  1.
         22    1    1    2    0    0 -0.18411433547E+04  0.48902687888E+03 -0.34057914123E+03  0.19351874050E+04  0.00000000000E+00 0.  1.
<mgrwt>
<rscale>  0 0.39244584E+04</rscale>
<asrwt>0</asrwt>
<pdfrwt beam="1">  1        2 0.45949995E+00 0.39244584E+04</pdfrwt>
<pdfrwt beam="2">  1       -2 0.19832948E+00 0.39244584E+04</pdfrwt>
<totfact> 0.19203921E-01</totfact>
</mgrwt>
</event>
<event>
 6    1  0.9512547E-007  0.8452926E+03  0.7818608E-02  0.9496677E-01
          1   -1    0    0  501    0  0.00000000000E+00  0.00000000000E+00  0.23408288657E+04  0.23408288657E+04  0.00000000000E+00 0. -1.
         -1   -1    0    0    0  501 -0.00000000000E+00 -0.00000000000E+00 -0.76310538197E+02  0.76310538197E+02  0.00000000000E+00 0.  1.
         23    2    1    2    0    0  0.18863685938E+03 -0.32820895502E+03  0.16505667879E+04  0.16958617349E+04  0.90946795332E+02 0.  0.
         13    1    3    3    0    0 -0.13243244769E+01 -0.58501020613E+02  0.20958433721E+03  0.21759990269E+03  0.00000000000E+00 0. -1.
        -13    1    3    3    0    0  0.18996118386E+03 -0.26970793441E+03  0.14409824507E+04  0.14782618322E+04  0.00000000000E+00 0.  1.
         22    1    1    2    0    0 -0.18863685938E+03  0.32820895502E+03  0.61395153961E+03  0.72127766905E+03  0.00000000000E+00 0. -1.
<mgrwt>
<rscale>  0 0.84529264E+03</rscale>
<asrwt>0</asrwt>
<pdfrwt beam="1">  1        1 0.36012746E+00 0.84529264E+03</pdfrwt>
<pdfrwt beam="2">  1       -1 0.11740085E-01 0.84529264E+03</pdfrwt>
<totfact> 0.87693413E+01</totfact>
</mgrwt>
</event>
<event>
 6    1  0.9512547E-007  0.1723485E+04  0.7818608E-02  0.8748082E-01
          1   -1    0    0  501    0  0.00000000000E+00  0.00000000000E+00  0.26161852058E+04  0.26161852058E+04  0.00000000000E+00 0. -1.
         -1   -1    0    0    0  501 -0.00000000000E+00 -0.00000000000E+00 -0.28384844419E+03  0.28384844419E+03  0.00000000000E+00 0.  1.
         23    2    1    2    0    0 -0.60877865881E+03  0.58023325526E+03  0.14692493903E+04  0.16949602512E+04  0.83152849074E+02 0.  0.
         11    1    3    3    0    0 -0.20836213089E+03  0.17435084325E+03  0.54578815759E+03  0.60967016254E+03  0.00000000000E+00 0. -1.
        -11    1    3    3    0    0 -0.40041652792E+03  0.40588241201E+03  0.92346123275E+03  0.10852900887E+04  0.00000000000E+00 0.  1.
         22    1    1    2    0    0  0.60877865881E+03 -0.58023325526E+03  0.86308737123E+03  0.12050733987E+04  0.00000000000E+00 0.  1.
<mgrwt>
<rscale>  0 0.17234850E+04</rscale>
<asrwt>0</asrwt>
<pdfrwt beam="1">  1        1 0.40249001E+00 0.17234850E+04</pdfrwt>
<pdfrwt beam="2">  1       -1 0.43668993E-01 0.17234850E+04</pdfrwt>
<totfact> 0.55400836E+00</totfact>
</mgrwt>
</event>
<event>
 6    1  0.9512547E-007  0.2695698E+04  0.7818608E-02  0.8336402E-01
          3   -1    0    0  501    0  0.00000000000E+00  0.00000000000E+00  0.48732142996E+03  0.48732142996E+03  0.00000000000E+00 0. -1.
         -3   -1    0    0    0  501 -0.00000000000E+00 -0.00000000000E+00 -0.37279244802E+04  0.37279244802E+04  0.00000000000E+00 0.  1.
         23    2    1    2    0    0 -0.63816031872E+03  0.91706359933E+03 -0.27967556359E+04  0.30130584186E+04  0.91786216923E+02 0.  0.
         13    1    3    3    0    0 -0.12977460521E+03  0.15750985308E+03 -0.43074327678E+03  0.47664512215E+03  0.00000000000E+00 0. -1.
        -13    1    3    3    0    0 -0.50838571351E+03  0.75955374625E+03 -0.23660123591E+04  0.25364132965E+04  0.00000000000E+00 0.  1.
         22    1    1    2    0    0  0.63816031872E+03 -0.91706359933E+03 -0.44384741440E+03  0.12021874916E+04  0.00000000000E+00 0. -1.
<mgrwt>
<rscale>  0 0.26956984E+04</rscale>
<asrwt>0</asrwt>
<pdfrwt beam="1">  1        3 0.74972530E-01 0.26956984E+04</pdfrwt>
<pdfrwt beam="2">  1       -3 0.57352683E+00 0.26956984E+04</pdfrwt>
<totfact> 0.47987197E-03</totfact>
</mgrwt>
</event>
<event>
 6    1  0.9512547E-007  0.2970080E+04  0.7818608E-02  0.8252327E-01
         -2   -1    0    0    0  501 -0.00000000000E+00  0.00000000000E+00  0.77902206876E+03  0.77902206876E+03  0.00000000000E+00 0.  1.
          2   -1    0    0  501    0  0.00000000000E+00 -0.00000000000E+00 -0.28309139908E+04  0.28309139908E+04  0.00000000000E+00 0. -1.
         23    2    1    2    0    0  0.62997118591E+03 -0.98539273631E+03  0.82474157619E+02  0.11761363345E+04  0.92909368470E+02 0.  0.
         13    1    3    3    0    0  0.20722291673E+03 -0.31332874539E+03 -0.16535727417E+02  0.37601817800E+03  0.00000000000E+00 0.  1.
        -13    1    3    3    0    0  0.42274826918E+03 -0.67206399092E+03  0.99009885036E+02  0.80011815647E+03  0.00000000000E+00 0. -1.
         22    1    1    2    0    0 -0.62997118591E+03  0.98539273631E+03 -0.21343660797E+04  0.24337997251E+04  0.00000000000E+00 0. -1.
<mgrwt>
<rscale>  0 0.29700805E+04</rscale>
<asrwt>0</asrwt>
<pdfrwt beam="1">  1        2 0.43552523E+00 0.29700805E+04</pdfrwt>
<pdfrwt beam="2">  1       -2 0.11984955E+00 0.29700805E+04</pdfrwt>
<totfact> 0.10118041E+00</totfact>
</mgrwt>
</event>
<event>
 6    1  0.9512547E-007  0.4869787E+04  0.7818608E-02  0.7848914E-01
          2   -1    0    0  501    0  0.00000000000E+00  0.00000000000E+00  0.33323683122E+04  0.33323683122E+04  0.00000000000E+00 0. -1.
         -2   -1    0    0    0  501 -0.00000000000E+00 -0.00000000000E+00 -0.17791267591E+04  0.17791267591E+04  0.00000000000E+00 0.  1.
         23    2    1    2    0    0  0.11216478565E+04 -0.92033479423E+03 -0.12744530637E+04  0.19332932380E+04  0.91005961349E+02 0.  0.
         13    1    3    3    0    0  0.30484910667E+03 -0.22116093078E+03 -0.37534744260E+03  0.53172440024E+03  0.00000000000E+00 0.  1.
        -13    1    3    3    0    0  0.81679874981E+03 -0.69917386344E+03 -0.89910562115E+03  0.14015688378E+04  0.00000000000E+00 0. -1.
         22    1    1    2    0    0 -0.11216478565E+04  0.92033479423E+03  0.28276946168E+04  0.31782018334E+04  0.00000000000E+00 0. -1.
<mgrwt>
<rscale>  0 0.48697867E+04</rscale>
<asrwt>0</asrwt>
<pdfrwt beam="1">  1        2 0.51267205E+00 0.48697867E+04</pdfrwt>
<pdfrwt beam="2">  1       -2 0.27371181E+00 0.48697867E+04</pdfrwt>
<totfact> 0.35805800E-02</totfact>
</mgrwt>
</event>
<event>
 6    1  0.9512547E-007  0.3561346E+04  0.7818608E-02  0.8099404E-01
          2   -1    0    0  501    0  0.00000000000E+00  0.00000000000E+00  0.13006996596E+04  0.13006996596E+04  0.00000000000E+00 0. -1.
         -2   -1    0    0    0  501 -0.00000000000E+00 -0.00000000000E+00 -0.24377625424E+04  0.24377625424E+04  0.00000000000E+00 0.  1.
         23    2    1    2    0    0  0.94925828271E+03  0.69692985661E+03 -0.19693728230E+04  0.22964003625E+04  0.90679636194E+02 0.  0.
         11    1    3    3    0    0  0.40297382638E+03  0.28695409869E+03 -0.91404367535E+03  0.10393297840E+04  0.00000000000E+00 0. -1.
        -11    1    3    3    0    0  0.54628445633E+03  0.40997575792E+03 -0.10553291477E+04  0.12570705785E+04  0.00000000000E+00 0.  1.
         22    1    1    2    0    0 -0.94925828271E+03 -0.69692985661E+03  0.83230994025E+03  0.14420618395E+04  0.00000000000E+00 0. -1.
<mgrwt>
<rscale>  0 0.35613463E+04</rscale>
<asrwt>0</asrwt>
<pdfrwt beam="1">  1        2 0.20010764E+00 0.35613463E+04</pdfrwt>
<pdfrwt beam="2">  1       -2 0.37504039E+00 0.35613463E+04</pdfrwt>
<totfact> 0.14543160E-01</totfact>
</mgrwt>
</event>
<event>
 6    1  0.9512547E-007  0.2422227E+03  0.7818608E-02  0.1118321E+00
         -1   -1    0    0    0  501 -0.00000000000E+00  0.00000000000E+00  0.14587041271E+03  0.14587041271E+03  0.00000000000E+00 0.  1.
          1   -1    0    0  501    0  0.00000000000E+00 -0.00000000000E+00 -0.10055468356E+03  0.10055468356E+03  0.00000000000E+00 0. -1.
         23    2    1    2    0    0  0.25414140018E+01  0.10195104309E+03  0.49771163678E+02  0.14434510377E+03  0.89206873478E+02 0.  0.
         13    1    3    3    0    0 -0.39401578144E+02  0.72362583644E+02  0.19200810087E+02  0.84602003403E+02  0.00000000000E+00 0. -1.
        -13    1    3    3    0    0  0.41942992145E+02  0.29588459443E+02  0.30570353591E+02  0.59743100363E+02  0.00000000000E+00 0.  1.
         22    1    1    2    0    0 -0.25414140018E+01 -0.10195104309E+03 -0.44554345263E+01  0.10207999250E+03  0.00000000000E+00 0. -1.
<mgrwt>
<rscale>  0 0.24222265E+03</rscale>
<asrwt>0</asrwt>
<pdfrwt beam="1">  1        1 0.15469951E-01 0.24222265E+03</pdfrwt>
<pdfrwt beam="2">  1       -1 0.22441602E-01 0.24222265E+03</pdfrwt>
<totfact> 0.58785852E+03</totfact>
</mgrwt>
</event>
<event>
 6    1  0.9512547E-007  0.2463597E+04  0.7818608E-02  0.8416070E-01
          1   -1    0    0  501    0  0.00000000000E+00  0.00000000000E+00  0.24018713444E+04  0.24018713444E+04  0.00000000000E+00 0. -1.
         -1   -1    0    0    0  501 -0.00000000000E+00 -0.00000000000E+00 -0.63172699005E+03  0.63172699005E+03  0.00000000000E+00 0.  1.
         23    2    1    2    0    0 -0.31491157632E+03  0.87618298998E+03 -0.10387980294E+03  0.94103233191E+03  0.88796978701E+02 0.  0.
         11    1    3    3    0    0 -0.19655965098E+03  0.60965315963E+03 -0.35743717329E+02  0.64155302569E+03  0.00000000000E+00 0.  1.
        -11    1    3    3    0    0 -0.11835192533E+03  0.26652983034E+03 -0.68136085615E+02  0.29947930622E+03  0.00000000000E+00 0. -1.
         22    1    1    2    0    0  0.31491157632E+03 -0.87618298998E+03  0.18740241573E+04  0.20925660025E+04  0.00000000000E+00 0. -1.
<mgrwt>
<rscale>  0 0.24635965E+04</rscale>
<asrwt>0</asrwt>
<pdfrwt beam="1">  1        1 0.36951867E+00 0.24635965E+04</pdfrwt>
<pdfrwt beam="2">  1       -1 0.97188768E-01 0.24635965E+04</pdfrwt>
<totfact> 0.14353530E+00</totfact>
</mgrwt>
</event>
<event>
 6    1  0.9512547E-007  0.1808399E+04  0.7818608E-02  0.8701845E-01
          2   -1    0    0  501    0  0.00000000000E+00  0.00000000000E+00  0.13308440766E+04  0.13308440766E+04  0.00000000000E+00 0. -1.
         -2   -1    0    0    0  501 -0.00000000000E+00 -0.00000000000E+00 -0.61432975262E+03  0.61432975262E+03  0.00000000000E+00 0.  1.
         23    2    1    2    0    0 -0.48110299176E+03  0.18934492729E+03 -0.43562543698E+03  0.68234461710E+03  0.92266272070E+02 0.  0.
         11    1    3    3    0    0 -0.35900329125E+03  0.10409937206E+03 -0.28067546060E+03  0.46743850566E+03  0.00000000000E+00 0.  1.
        -11    1    3    3    0    0 -0.12209970051E+03  0.85245555229E+02 -0.15494997638E+03  0.21490611144E+03  0.00000000000E+00 0. -1.
         22    1    1    2    0    0  0.48110299176E+03 -0.18934492729E+03  0.11521397610E+04  0.12628292121E+04  0.00000000000E+00 0. -1.
<mgrwt>
<rscale>  0 0.18083994E+04</rscale>
<asrwt>0</asrwt>
<pdfrwt beam="1">  1        2 0.20474524E+00 0.18083994E+04</pdfrwt>
<pdfrwt beam="2">  1       -2 0.94512270E-01 0.18083994E+04</pdfrwt>
<totfact> 0.14117978E+01</totfact>
</mgrwt>
</event>
<event>
 6    1  0.9512547E-007  0.1193051E+04  0.7818608E-02  0.9118960E-01
         -1   -1    0    0    0  501 -0.00000000000E+00  0.00000000000E+00  0.41535677247E+03  0.41535677247E+03  0.00000000000E+00 0.  1.
          1   -1    0    0  501    0  0.00000000000E+00 -0.00000000000E+00 -0.85671621020E+03  0.85671621020E+03  0.00000000000E+00 0. -1.
         23    2    1    2    0    0  0.33239217354E+03 -0.20972412652E+03 -0.69597005324E+03  0.80378318798E+03  0.84996070458E+02 0.  0.
         11    1    3    3    0    0  0.13349027269E+03 -0.13438575103E+03 -0.32869729825E+03  0.37936934096E+03  0.00000000000E+00 0.  1.
        -11    1    3    3    0    0  0.19890190086E+03 -0.75338375493E+02 -0.36727275499E+03  0.42441384702E+03  0.00000000000E+00 0. -1.
         22    1    1    2    0    0 -0.33239217354E+03  0.20972412652E+03  0.25461061551E+03  0.46828979469E+03  0.00000000000E+00 0.  1.
<mgrwt>
<rscale>  0 0.11930513E+04</rscale>
<asrwt>0</asrwt>
<pdfrwt beam="1">  1        1 0.13180249E+00 0.11930513E+04</pdfrwt>
<pdfrwt beam="2">  1       -1 0.63901042E-01 0.11930513E+04</pdfrwt>
<totfact> 0.48623383E+01</totfact>
</mgrwt>
</event>
<event>
 6    1  0.9512547E-007  0.3557964E+04  0.7818608E-02  0.8100189E-01
          2   -1    0    0  501    0  0.00000000000E+00  0.00000000000E+00  0.19640074975E+04  0.19640074975E+04  0.00000000000E+00 0. -1.
         -2   -1    0    0    0  501 -0.00000000000E+00 -0.00000000000E+00 -0.16113878149E+04  0.16113878149E+04  0.00000000000E+00 0.  1.
         23    2    1    2    0    0  0.28018080334E+03 -0.72036953836E+03 -0.14325794102E+04  0.16300497505E+04  0.85702206999E+02 0.  0.
         13    1    3    3    0    0  0.17853414850E+03 -0.45095386377E+03 -0.81002147538E+03  0.94412320171E+03  0.00000000000E+00 0. -1.
        -13    1    3    3    0    0  0.10164665484E+03 -0.26941567460E+03 -0.62255793485E+03  0.68592654884E+03  0.00000000000E+00 0.  1.
         22    1    1    2    0    0 -0.28018080334E+03  0.72036953836E+03  0.17851990928E+04  0.19453455619E+04  0.00000000000E+00 0. -1.
<mgrwt>
<rscale>  0 0.35579644E+04</rscale>
<asrwt>0</asrwt>
<pdfrwt beam="1">  1        2 0.30215500E+00 0.35579644E+04</pdfrwt>
<pdfrwt beam="2">  1       -2 0.24790582E+00 0.35579644E+04</pdfrwt>
<totfact> 0.37881210E-01</totfact>
</mgrwt>
</event>
<event>
 6    1  0.9512547E-007  0.1733974E+04  0.7818608E-02  0.8742221E-01
         -2   -1    0    0    0  501 -0.00000000000E+00  0.00000000000E+00  0.25250433544E+03  0.25250433544E+03  0.00000000000E+00 0.  1.
          2   -1    0    0  501    0  0.00000000000E+00 -0.00000000000E+00 -0.29768472479E+04  0.29768472479E+04  0.00000000000E+00 0. -1.
         23    2    1    2    0    0  0.38713435917E+03 -0.71137748842E+03 -0.19296921257E+04  0.20947147181E+04  0.90482634334E+02 0.  0.
         13    1    3    3    0    0  0.28532751816E+03 -0.45922146571E+03 -0.12069091659E+04  0.13224696148E+04  0.00000000000E+00 0.  1.
        -13    1    3    3    0    0  0.10180684101E+03 -0.25215602271E+03 -0.72278295982E+03  0.77224510337E+03  0.00000000000E+00 0. -1.
         22    1    1    2    0    0 -0.38713435917E+03  0.71137748842E+03 -0.79465078672E+03  0.11346368652E+04  0.00000000000E+00 0.  1.
<mgrwt>
<rscale>  0 0.17339744E+04</rscale>
<asrwt>0</asrwt>
<pdfrwt beam="1">  1        2 0.45797647E+00 0.17339744E+04</pdfrwt>
<pdfrwt beam="2">  1       -2 0.38846824E-01 0.17339744E+04</pdfrwt>
<totfact> 0.10745430E+01</totfact>
</mgrwt>
</event>
<event>
 6    1  0.9512547E-007  0.2142902E+04  0.7818608E-02  0.8542577E-01
         -2   -1    0    0    0  501 -0.00000000000E+00  0.00000000000E+00  0.30170915094E+03  0.30170915094E+03  0.00000000000E+00 0.  1.
          2   -1    0    0  501    0  0.00000000000E+00 -0.00000000000E+00 -0.38050140245E+04  0.38050140245E+04  0.00000000000E+00 0. -1.
         23    2    1    2    0    0 -0.54712718087E+03 -0.90901218492E+03 -0.20139191770E+04  0.22780840482E+04  0.90250623349E+02 0.  0.
         13    1    3    3    0    0 -0.14647484406E+03 -0.22713012284E+03 -0.59860599800E+03  0.65678924586E+03  0.00000000000E+00 0.  1.
        -13    1    3    3    0    0 -0.40065233682E+03 -0.68188206209E+03 -0.14153131790E+04  0.16212948024E+04  0.00000000000E+00 0. -1.
         22    1    1    2    0    0  0.54712718087E+03  0.90901218492E+03 -0.14893856966E+04  0.18286391272E+04  0.00000000000E+00 0. -1.
<mgrwt>
<rscale>  0 0.21429023E+04</rscale>
<asrwt>0</asrwt>
<pdfrwt beam="1">  1        2 0.58538677E+00 0.21429023E+04</pdfrwt>
<pdfrwt beam="2">  1       -2 0.46416793E-01 0.21429023E+04</pdfrwt>
<totfact> 0.19798185E+00</totfact>
</mgrwt>
</event>
<event>
 6    1  0.9512547E-007  0.3459330E+04  0.7818608E-02  0.8123496E-01
         -2   -1    0    0    0  501 -0.00000000000E+00  0.00000000000E+00  0.16451436988E+04  0.16451436988E+04  0.00000000000E+00 0.  1.
          2   -1    0    0  501    0  0.00000000000E+00 -0.00000000000E+00 -0.18185283785E+04  0.18185283785E+04  0.00000000000E+00 0. -1.
         23    2    1    2    0    0 -0.77826381221E+03 -0.14977080486E+04 -0.46028439417E+03  0.17516161768E+04  0.86449678495E+02 0.  0.
         11    1    3    3    0    0 -0.31801921855E+03 -0.53749581970E+03 -0.14566223618E+03  0.64129202912E+03  0.00000000000E+00 0. -1.
        -11    1    3    3    0    0 -0.46024459366E+03 -0.96021222891E+03 -0.31462215799E+03  0.11103241476E+04  0.00000000000E+00 0.  1.
         22    1    1    2    0    0  0.77826381221E+03  0.14977080486E+04  0.28689971441E+03  0.17120559005E+04  0.00000000000E+00 0. -1.
<mgrwt>
<rscale>  0 0.34593297E+04</rscale>
<asrwt>0</asrwt>
<pdfrwt beam="1">  1        2 0.27977360E+00 0.34593297E+04</pdfrwt>
<pdfrwt beam="2">  1       -2 0.25309903E+00 0.34593297E+04</pdfrwt>
<totfact> 0.42730631E-01</totfact>
</mgrwt>
</event>
<event>
 6    1  0.9512547E-007  0.3380349E+04  0.7818608E-02  0.8142746E-01
          2   -1    0    0  501    0  0.00000000000E+00  0.00000000000E+00  0.13271493240E+04  0.13271493240E+04  0.00000000000E+00 0. -1.
         -2   -1    0    0    0  501 -0.00000000000E+00 -0.00000000000E+00 -0.21525007171E+04  0.21525007171E+04  0.00000000000E+00 0.  1.
         23    2    1    2    0    0  0.46319580065E+03  0.12881338075E+04 -0.14312959667E+04  0.19826504145E+04  0.91953607433E+02 0.  0.
         13    1    3    3    0    0  0.31388707852E+03  0.82571586841E+03 -0.98181165666E+03  0.13207141714E+04  0.00000000000E+00 0. -1.
        -13    1    3    3    0    0  0.14930872213E+03  0.46241793912E+03 -0.44948431002E+03  0.66193624306E+03  0.00000000000E+00 0.  1.
         22    1    1    2    0    0 -0.46319580065E+03 -0.12881338075E+04  0.60594457360E+03  0.14969996266E+04  0.00000000000E+00 0. -1.
<mgrwt>
<rscale>  0 0.33803490E+04</rscale>
<asrwt>0</asrwt>
<pdfrwt beam="1">  1        2 0.20417682E+00 0.33803490E+04</pdfrwt>
<pdfrwt beam="2">  1       -2 0.33115395E+00 0.33803490E+04</pdfrwt>
<totfact> 0.26999197E-01</totfact>
</mgrwt>
</event>
<event>
 6    1  0.9512547E-007  0.7237294E+03  0.7818608E-02  0.9677491E-01
         -1   -1    0    0    0  501 -0.00000000000E+00  0.00000000000E+00  0.37799808632E+03  0.37799808632E+03  0.00000000000E+00 0.  1.
          1   -1    0    0  501    0  0.00000000000E+00 -0.00000000000E+00 -0.34641987184E+03  0.34641987184E+03  0.00000000000E+00 0. -1.
         23    2    1    2    0    0 -0.53348372390E+02 -0.33725575731E+03 -0.89213600567E+02  0.36223270548E+03  0.81645402300E+02 0.  0.
         11    1    3    3    0    0 -0.21005410708E+01 -0.10620714810E+03 -0.64513395644E+02  0.12428334079E+03  0.00000000000E+00 0. -1.
        -11    1    3    3    0    0 -0.51247831320E+02 -0.23104860921E+03 -0.24700204923E+02  0.23794936468E+03  0.00000000000E+00 0.  1.
         22    1    1    2    0    0  0.53348372390E+02  0.33725575731E+03  0.12079181505E+03  0.36218525268E+03  0.00000000000E+00 0.  1.
<mgrwt>
<rscale>  0 0.72372937E+03</rscale>
<asrwt>0</asrwt>
<pdfrwt beam="1">  1        1 0.53295365E-01 0.72372937E+03</pdfrwt>
<pdfrwt beam="2">  1       -1 0.58153551E-01 0.72372937E+03</pdfrwt>
<totfact> 0.22051110E+02</totfact>
</mgrwt>
</event>
<event>
 6    1  0.9512547E-007  0.2707224E+04  0.7818608E-02  0.8332665E-01
          1   -1    0    0  501    0  0.00000000000E+00  0.00000000000E+00  0.18415166956E+04  0.18415166956E+04  0.00000000000E+00 0. -1.
         -1   -1    0    0    0  501 -0.00000000000E+00 -0.00000000000E+00 -0.99497619649E+03  0.99497619649E+03  0.00000000000E+00 0.  1.
         23    2    1    2    0    0  0.38038018294E+02  0.13483711094E+04  0.32629888248E+03  0.13907394970E+04  0.90187850229E+02 0.  0.
         11    1    3    3    0    0 -0.85792970411E+00  0.90979804745E+03  0.25361518475E+03  0.94448604285E+03  0.00000000000E+00 0.  1.
        -11    1    3    3    0    0  0.38895947998E+02  0.43857306199E+03  0.72683697733E+02  0.44625345420E+03  0.00000000000E+00 0. -1.
         22    1    1    2    0    0 -0.38038018294E+02 -0.13483711094E+04  0.52024161662E+03  0.14457533950E+04  0.00000000000E+00 0. -1.
<mgrwt>
<rscale>  0 0.27072239E+04</rscale>
<asrwt>0</asrwt>
<pdfrwt beam="1">  1        1 0.28331026E+00 0.27072239E+04</pdfrwt>
<pdfrwt beam="2">  1       -1 0.15307326E+00 0.27072239E+04</pdfrwt>
<totfact> 0.11000726E+00</totfact>
</mgrwt>
</event>
<event>
 6    1  0.9512547E-007  0.1669111E+04  0.7818608E-02  0.8779181E-01
         -1   -1    0    0    0  501 -0.00000000000E+00  0.00000000000E+00  0.43399809273E+03  0.43399809273E+03  0.00000000000E+00 0.  1.
          1   -1    0    0  501    0  0.00000000000E+00 -0.00000000000E+00 -0.16048054144E+04  0.16048054144E+04  0.00000000000E+00 0. -1.
         23    2    1    2    0    0  0.32216277545E+03  0.45065143247E+03  0.17118897974E+03  0.58696686326E+03  0.91372119951E+02 0.  0.
         13    1    3    3    0    0  0.18757808024E+03  0.32676670849E+03  0.93338818968E+02  0.38816768682E+03  0.00000000000E+00 0.  1.
        -13    1    3    3    0    0  0.13458469521E+03  0.12388472398E+03  0.77850160772E+02  0.19879917644E+03  0.00000000000E+00 0. -1.
         22    1    1    2    0    0 -0.32216277545E+03 -0.45065143247E+03 -0.13419963014E+04  0.14518366439E+04  0.00000000000E+00 0. -1.
<mgrwt>
<rscale>  0 0.16691105E+04</rscale>
<asrwt>0</asrwt>
<pdfrwt beam="1">  1        1 0.24689314E+00 0.16691105E+04</pdfrwt>
<pdfrwt beam="2">  1       -1 0.66768938E-01 0.16691105E+04</pdfrwt>
<totfact> 0.12006752E+01</totfact>
</mgrwt>
</event>
<event>
 6    1  0.9512547E-007  0.1965381E+04  0.7818608E-02  0.8622979E-01
         -1   -1    0    0    0  501 -0.00000000000E+00  0.00000000000E+00  0.46072826857E+03  0.46072826857E+03  0.00000000000E+00 0.  1.
          1   -1    0    0  501    0  0.00000000000E+00 -0.00000000000E+00 -0.20959875260E+04  0.20959875260E+04  0.00000000000E+00 0. -1.
         23    2    1    2    0    0  0.69958913155E+03  0.67325723738E+03 -0.64431704473E+03  0.11693922096E+04  0.98150012611E+02 0.  0.
         11    1    3    3    0    0  0.38962117576E+03  0.35103906063E+03 -0.29270946722E+03  0.60059296940E+03  0.00000000000E+00 0. -1.
        -11    1    3    3    0    0  0.30996795580E+03  0.32221817674E+03 -0.35160757751E+03  0.56879924016E+03  0.00000000000E+00 0.  1.
         22    1    1    2    0    0 -0.69958913155E+03 -0.67325723738E+03 -0.99094221274E+03  0.13873235851E+04  0.00000000000E+00 0.  1.
<mgrwt>
<rscale>  0 0.19653811E+04</rscale>
<asrwt>0</asrwt>
<pdfrwt beam="1">  1        1 0.32245962E+00 0.19653811E+04</pdfrwt>
<pdfrwt beam="2">  1       -1 0.70881272E-01 0.19653811E+04</pdfrwt>
<totfact> 0.47977475E+00</totfact>
</mgrwt>
</event>
<event>
 6    1  0.9512547E-007  0.2872801E+04  0.7818608E-02  0.8281016E-01
          2   -1    0    0  501    0  0.00000000000E+00  0.00000000000E+00  0.26359833562E+04  0.26359833562E+04  0.00000000000E+00 0. -1.
         -2   -1    0    0    0  501 -0.00000000000E+00 -0.00000000000E+00 -0.78272384609E+03  0.78272384609E+03  0.00000000000E+00 0.  1.
         23    2    1    2    0    0 -0.11751788621E+04 -0.26279344506E+03 -0.69338681120E+00  0.12079953041E+04  0.95636924701E+02 0.  0.
         13    1    3    3    0    0 -0.11553068685E+04 -0.26115623135E+03  0.11707869934E+02  0.11845140825E+04  0.00000000000E+00 0.  1.
        -13    1    3    3    0    0 -0.19871993624E+02 -0.16372137138E+01 -0.12401256745E+02  0.23481221608E+02  0.00000000000E+00 0. -1.
         22    1    1    2    0    0  0.11751788621E+04  0.26279344506E+03  0.18539528970E+04  0.22107118982E+04  0.00000000000E+00 0. -1.
<mgrwt>
<rscale>  0 0.28728014E+04</rscale>
<asrwt>0</asrwt>
<pdfrwt beam="1">  1        2 0.40553590E+00 0.28728014E+04</pdfrwt>
<pdfrwt beam="2">  1       -2 0.12041905E+00 0.28728014E+04</pdfrwt>
<totfact> 0.13192865E+00</totfact>
</mgrwt>
</event>
<event>
 6    1  0.9512547E-007  0.2174488E+04  0.7818608E-02  0.8529123E-01
          2   -1    0    0  501    0  0.00000000000E+00  0.00000000000E+00  0.23705579491E+04  0.23705579491E+04  0.00000000000E+00 0. -1.
         -2   -1    0    0    0  501 -0.00000000000E+00 -0.00000000000E+00 -0.49865858296E+03  0.49865858296E+03  0.00000000000E+00 0.  1.
         23    2    1    2    0    0 -0.22862986066E+03  0.10589723049E+04  0.10223335295E+04  0.14924609014E+04  0.92626892570E+02 0.  0.
         11    1    3    3    0    0 -0.87227192031E+02  0.53390544368E+03  0.45861791797E+03  0.70922069943E+03  0.00000000000E+00 0.  1.
        -11    1    3    3    0    0 -0.14140266863E+03  0.52506686117E+03  0.56371561149E+03  0.78324020201E+03  0.00000000000E+00 0. -1.
         22    1    1    2    0    0  0.22862986066E+03 -0.10589723049E+04  0.84956583668E+03  0.13767556306E+04  0.00000000000E+00 0. -1.
<mgrwt>
<rscale>  0 0.21744876E+04</rscale>
<asrwt>0</asrwt>
<pdfrwt beam="1">  1        2 0.36470122E+00 0.21744876E+04</pdfrwt>
<pdfrwt beam="2">  1       -2 0.76716706E-01 0.21744876E+04</pdfrwt>
<totfact> 0.57478629E+00</totfact>
</mgrwt>
</event>
<event>
 6    1  0.1106039E-006  0.5212034E+04  0.7818608E-02  0.7796606E-01
         -2   -1    0    0    0  501 -0.00000000000E+00  0.00000000000E+00  0.24374489735E+04  0.24374489735E+04  0.00000000000E+00 0.  1.
          2   -1    0    0  501    0  0.00000000000E+00 -0.00000000000E+00 -0.27862429705E+04  0.27862429705E+04  0.00000000000E+00 0. -1.
         23    2    1    2    0    0  0.90545847781E+02  0.92957240128E+03  0.22630559762E+04  0.24498744153E+04  0.90326627789E+02 0.  0.
         11    1    3    3    0    0  0.74718446068E+02  0.45876241991E+03  0.12123804526E+04  0.12984268042E+04  0.00000000000E+00 0. -1.
        -11    1    3    3    0    0  0.15827401713E+02  0.47080998137E+03  0.10506755236E+04  0.11514476111E+04  0.00000000000E+00 0.  1.
         22    1    1    2    0    0 -0.90545847781E+02 -0.92957240128E+03 -0.26118499732E+04  0.27738175287E+04  0.00000000000E+00 0. -1.
<mgrwt>
<rscale>  0 0.52120342E+04</rscale>
<asrwt>0</asrwt>
<pdfrwt beam="1">  1        2 0.42865277E+00 0.52120342E+04</pdfrwt>
<pdfrwt beam="2">  1       -2 0.37499215E+00 0.52120342E+04</pdfrwt>
<totfact> 0.18202302E-02</totfact>
</mgrwt>
</event>
<event>
 6    1  0.9512547E-007  0.4510523E+04  0.7818608E-02  0.7908797E-01
         -2   -1    0    0    0  501 -0.00000000000E+00  0.00000000000E+00  0.25371329928E+04  0.25371329928E+04  0.00000000000E+00 0.  1.
          2   -1    0    0  501    0  0.00000000000E+00 -0.00000000000E+00 -0.20047052975E+04  0.20047052975E+04  0.00000000000E+00 0. -1.
         23    2    1    2    0    0 -0.15965422619E+04  0.51550991423E+03  0.17825845609E+04  0.24495692221E+04  0.89911020025E+02 0.  0.
         13    1    3    3    0    0 -0.11396142540E+04  0.39032697843E+03  0.12283934707E+04  0.17204727016E+04  0.00000000000E+00 0. -1.
        -13    1    3    3    0    0 -0.45692800785E+03  0.12518293580E+03  0.55419109017E+03  0.72909652049E+03  0.00000000000E+00 0.  1.
         22    1    1    2    0    0  0.15965422619E+04 -0.51550991423E+03 -0.12501568656E+04  0.20922690683E+04  0.00000000000E+00 0. -1.
<mgrwt>
<rscale>  0 0.45105228E+04</rscale>
<asrwt>0</asrwt>
<pdfrwt beam="1">  1        2 0.30841620E+00 0.45105228E+04</pdfrwt>
<pdfrwt beam="2">  1       -2 0.39032815E+00 0.45105228E+04</pdfrwt>
<totfact> 0.43153952E-02</totfact>
</mgrwt>
</event>
<event>
 6    1  0.9512547E-007  0.1402259E+04  0.7818608E-02  0.8952185E-01
         -2   -1    0    0    0  501 -0.00000000000E+00  0.00000000000E+00  0.31020018670E+03  0.31020018670E+03  0.00000000000E+00 0.  1.
          2   -1    0    0  501    0  0.00000000000E+00 -0.00000000000E+00 -0.15847278083E+04  0.15847278083E+04  0.00000000000E+00 0. -1.
         23    2    1    2    0    0 -0.49337463164E+03  0.47761082445E+03 -0.81059604249E+03  0.10662162617E+04  0.90667225868E+02 0.  0.
         13    1    3    3    0    0 -0.20485538934E+03  0.18650156818E+03 -0.39544963126E+03  0.48283431562E+03  0.00000000000E+00 0. -1.
        -13    1    3    3    0    0 -0.28851924229E+03  0.29110925627E+03 -0.41514641124E+03  0.58338194609E+03  0.00000000000E+00 0.  1.
         22    1    1    2    0    0  0.49337463164E+03 -0.47761082445E+03 -0.46393157906E+03  0.82871173325E+03  0.00000000000E+00 0.  1.
<mgrwt>
<rscale>  0 0.14022594E+04</rscale>
<asrwt>0</asrwt>
<pdfrwt beam="1">  1        2 0.24380428E+00 0.14022594E+04</pdfrwt>
<pdfrwt beam="2">  1       -2 0.47723106E-01 0.14022594E+04</pdfrwt>
<totfact> 0.46040980E+01</totfact>
</mgrwt>
</event>
<event>
 6    1  0.9512547E-007  0.3000899E+04  0.7818608E-02  0.8243474E-01
          2   -1    0    0  501    0  0.00000000000E+00  0.00000000000E+00  0.34740983922E+04  0.34740983922E+04  0.00000000000E+00 0. -1.
         -2   -1    0    0    0  501 -0.00000000000E+00 -0.00000000000E+00 -0.64803823671E+03  0.64803823671E+03  0.00000000000E+00 0.  1.
         23    2    1    2    0    0 -0.68916270221E+03 -0.57301789922E+03 -0.23628251787E+03  0.93133149665E+03  0.90852547948E+02 0.  0.
         11    1    3    3    0    0 -0.43023256736E+03 -0.32058134342E+03 -0.10565401155E+03  0.54684113773E+03  0.00000000000E+00 0.  1.
        -11    1    3    3    0    0 -0.25893013485E+03 -0.25243655580E+03 -0.13062850632E+03  0.38449035892E+03  0.00000000000E+00 0. -1.
         22    1    1    2    0    0  0.68916270221E+03  0.57301789922E+03  0.30623426733E+04  0.31908051322E+04  0.00000000000E+00 0. -1.
<mgrwt>
<rscale>  0 0.30008989E+04</rscale>
<asrwt>0</asrwt>
<pdfrwt beam="1">  1        2 0.53447667E+00 0.30008989E+04</pdfrwt>
<pdfrwt beam="2">  1       -2 0.99698192E-01 0.30008989E+04</pdfrwt>
<totfact> 0.60307363E-01</totfact>
</mgrwt>
</event>
<event>
 6    1  0.9512547E-007  0.2280779E+04  0.7818608E-02  0.8485539E-01
         -1   -1    0    0    0  501 -0.00000000000E+00  0.00000000000E+00  0.39921139765E+03  0.39921139765E+03  0.00000000000E+00 0.  1.
          1   -1    0    0  501    0  0.00000000000E+00 -0.00000000000E+00 -0.32576422414E+04  0.32576422414E+04  0.00000000000E+00 0. -1.
         23    2    1    2    0    0 -0.21694232978E+03  0.79616016768E+03 -0.17363698390E+03  0.84810782339E+03  0.90565395514E+02 0.  0.
         11    1    3    3    0    0 -0.11452391196E+03  0.53317968774E+03 -0.14594721267E+03  0.56453245674E+03  0.00000000000E+00 0. -1.
        -11    1    3    3    0    0 -0.10241841781E+03  0.26298047994E+03 -0.27689771225E+02  0.28357536664E+03  0.00000000000E+00 0.  1.
         22    1    1    2    0    0  0.21694232978E+03 -0.79616016768E+03 -0.26847938599E+04  0.28087458157E+04  0.00000000000E+00 0. -1.
<mgrwt>
<rscale>  0 0.22807787E+04</rscale>
<asrwt>0</asrwt>
<pdfrwt beam="1">  1        1 0.50117574E+00 0.22807787E+04</pdfrwt>
<pdfrwt beam="2">  1       -1 0.61417136E-01 0.22807787E+04</pdfrwt>
<totfact> 0.93748739E-01</totfact>
</mgrwt>
</event>
<event>
 6    1  0.9512547E-007  0.2490375E+04  0.7818608E-02  0.8406423E-01
          1   -1    0    0  501    0  0.00000000000E+00  0.00000000000E+00  0.24402146719E+04  0.24402146719E+04  0.00000000000E+00 0. -1.
         -1   -1    0    0    0  501 -0.00000000000E+00 -0.00000000000E+00 -0.63539139481E+03  0.63539139481E+03  0.00000000000E+00 0.  1.
         23    2    1    2    0    0 -0.66629821488E+03  0.81569509140E+03  0.87006036506E+02  0.10606103185E+04  0.89512032856E+02 0.  0.
         11    1    3    3    0    0 -0.39644963046E+03  0.42919186550E+03  0.21249535413E+02  0.58466187635E+03  0.00000000000E+00 0. -1.
        -11    1    3    3    0    0 -0.26984858442E+03  0.38650322590E+03  0.65756501093E+02  0.47594844215E+03  0.00000000000E+00 0.  1.
         22    1    1    2    0    0  0.66629821488E+03 -0.81569509140E+03  0.17178172406E+04  0.20149957482E+04  0.00000000000E+00 0. -1.
<mgrwt>
<rscale>  0 0.24903746E+04</rscale>
<asrwt>0</asrwt>
<pdfrwt beam="1">  1        1 0.37541764E+00 0.24903746E+04</pdfrwt>
<pdfrwt beam="2">  1       -1 0.97752523E-01 0.24903746E+04</pdfrwt>
<totfact> 0.13297554E+00</totfact>
</mgrwt>
</event>
<event>
 6    1  0.9512547E-007  0.8109627E+03  0.7818608E-02  0.9544283E-01
          2   -1    0    0  501    0  0.00000000000E+00  0.00000000000E+00  0.83111832493E+03  0.83111832493E+03  0.00000000000E+00 0. -1.
         -2   -1    0    0    0  501 -0.00000000000E+00 -0.00000000000E+00 -0.19782396114E+03  0.19782396114E+03  0.00000000000E+00 0.  1.
         23    2    1    2    0    0  0.22806823049E+03 -0.11834591222E+03 -0.68736726493E+02  0.28136718990E+03  0.91770830231E+02 0.  0.
         11    1    3    3    0    0  0.16692106963E+03 -0.11749245169E+03 -0.23860984835E+02  0.20551512423E+03  0.00000000000E+00 0.  1.
        -11    1    3    3    0    0  0.61147160862E+02 -0.85346053358E+00 -0.44875741657E+02  0.75852065665E+02  0.00000000000E+00 0. -1.
         22    1    1    2    0    0 -0.22806823049E+03  0.11834591222E+03  0.70203109029E+03  0.74757509618E+03  0.00000000000E+00 0. -1.
<mgrwt>
<rscale>  0 0.81096269E+03</rscale>
<asrwt>0</asrwt>
<pdfrwt beam="1">  1        2 0.12786436E+00 0.81096269E+03</pdfrwt>
<pdfrwt beam="2">  1       -2 0.30434456E-01 0.81096269E+03</pdfrwt>
<totfact> 0.32799566E+02</totfact>
</mgrwt>
</event>
<event>
 6    1  0.9512547E-007  0.2649562E+04  0.7818608E-02  0.8351558E-01
         -2   -1    0    0    0  501 -0.00000000000E+00  0.00000000000E+00  0.10528945457E+04  0.10528945457E+04  0.00000000000E+00 0.  1.
          2   -1    0    0  501    0  0.00000000000E+00 -0.00000000000E+00 -0.16668762506E+04  0.16668762506E+04  0.00000000000E+00 0. -1.
         23    2    1    2    0    0 -0.16652485933E+03 -0.61853249908E+03 -0.14958582141E+04  0.16298078801E+04  0.91481955414E+02 0.  0.
         11    1    3    3    0    0 -0.69193572146E+02 -0.42164992637E+03 -0.97188764607E+03  0.10616694436E+04  0.00000000000E+00 0. -1.
        -11    1    3    3    0    0 -0.97331287185E+02 -0.19688257271E+03 -0.52397056801E+03  0.56813843651E+03  0.00000000000E+00 0.  1.
         22    1    1    2    0    0  0.16652485933E+03  0.61853249908E+03  0.88187650923E+03  0.10899629162E+04  0.00000000000E+00 0.  1.
<mgrwt>
<rscale>  0 0.26495622E+04</rscale>
<asrwt>0</asrwt>
<pdfrwt beam="1">  1        2 0.25644250E+00 0.26495622E+04</pdfrwt>
<pdfrwt beam="2">  1       -2 0.16198378E+00 0.26495622E+04</pdfrwt>
<totfact> 0.21958553E+00</totfact>
</mgrwt>
</event>
<event>
 6    1  0.9512547E-007  0.2564464E+04  0.7818608E-02  0.8380373E-01
          2   -1    0    0  501    0  0.00000000000E+00  0.00000000000E+00  0.33092177737E+04  0.33092177737E+04  0.00000000000E+00 0. -1.
         -2   -1    0    0    0  501 -0.00000000000E+00 -0.00000000000E+00 -0.49683012198E+03  0.49683012198E+03  0.00000000000E+00 0.  1.
         23    2    1    2    0    0  0.26735465449E+03  0.11718357346E+04  0.20629262335E+04  0.23895840177E+04  0.98841452635E+02 0.  0.
         13    1    3    3    0    0  0.24018237466E+03  0.94746135429E+03  0.16119027841E+04  0.18850997789E+04  0.00000000000E+00 0. -1.
        -13    1    3    3    0    0  0.27172279831E+02  0.22437438030E+03  0.45102344941E+03  0.50448423884E+03  0.00000000000E+00 0.  1.
         22    1    1    2    0    0 -0.26735465449E+03 -0.11718357346E+04  0.74946141821E+03  0.14164638779E+04  0.00000000000E+00 0.  1.
<mgrwt>
<rscale>  0 0.25644641E+04</rscale>
<asrwt>0</asrwt>
<pdfrwt beam="1">  1        2 0.50911041E+00 0.25644641E+04</pdfrwt>
<pdfrwt beam="2">  1       -2 0.76435405E-01 0.25644641E+04</pdfrwt>
<totfact> 0.14921491E+00</totfact>
</mgrwt>
</event>
<event>
 6    1  0.9512547E-007  0.2636067E+04  0.7818608E-02  0.8356052E-01
         -2   -1    0    0    0  501 -0.00000000000E+00  0.00000000000E+00  0.71080407525E+03  0.71080407525E+03  0.00000000000E+00 0.  1.
          2   -1    0    0  501    0  0.00000000000E+00 -0.00000000000E+00 -0.24440103122E+04  0.24440103122E+04  0.00000000000E+00 0. -1.
         23    2    1    2    0    0 -0.11358933320E+03  0.10055661566E+04  0.13994366108E+03  0.10257872922E+04  0.92679601762E+02 0.  0.
         11    1    3    3    0    0 -0.26204518663E+02  0.45602074122E+03  0.24108190748E+02  0.45740878663E+03  0.00000000000E+00 0.  1.
        -11    1    3    3    0    0 -0.87384814539E+02  0.54954541538E+03  0.11583547033E+03  0.56837850555E+03  0.00000000000E+00 0. -1.
         22    1    1    2    0    0  0.11358933320E+03 -0.10055661566E+04 -0.18731498981E+04  0.21290270953E+04  0.00000000000E+00 0.  1.
<mgrwt>
<rscale>  0 0.26360671E+04</rscale>
<asrwt>0</asrwt>
<pdfrwt beam="1">  1        2 0.37600158E+00 0.26360671E+04</pdfrwt>
<pdfrwt beam="2">  1       -2 0.10935447E+00 0.26360671E+04</pdfrwt>
<totfact> 0.22039521E+00</totfact>
</mgrwt>
</event>
<event>
 6    1  0.9512547E-007  0.2375273E+04  0.7818608E-02  0.8448819E-01
         -2   -1    0    0    0  501 -0.00000000000E+00  0.00000000000E+00  0.30200179722E+03  0.30200179722E+03  0.00000000000E+00 0.  1.
          2   -1    0    0  501    0  0.00000000000E+00 -0.00000000000E+00 -0.46704372444E+04  0.46704372444E+04  0.00000000000E+00 0. -1.
         23    2    1    2    0    0 -0.70065947117E+03  0.72320226681E+03 -0.87690648049E+03  0.13386091421E+04  0.94679705217E+02 0.  0.
         13    1    3    3    0    0 -0.32197610118E+03  0.32384258922E+03 -0.45990738153E+03  0.64811837801E+03  0.00000000000E+00 0. -1.
        -13    1    3    3    0    0 -0.37868336999E+03  0.39935967759E+03 -0.41699909896E+03  0.69049076411E+03  0.00000000000E+00 0.  1.
         22    1    1    2    0    0  0.70065947117E+03 -0.72320226681E+03 -0.34915289667E+04  0.36338298995E+04  0.00000000000E+00 0. -1.
<mgrwt>
<rscale>  0 0.23752730E+04</rscale>
<asrwt>0</asrwt>
<pdfrwt beam="1">  1        2 0.71852883E+00 0.23752730E+04</pdfrwt>
<pdfrwt beam="2">  1       -2 0.46461814E-01 0.23752730E+04</pdfrwt>
<totfact> 0.32971654E-01</totfact>
</mgrwt>
</event>
<event>
 6    1  0.9512547E-007  0.2195510E+04  0.7818608E-02  0.8520299E-01
          2   -1    0    0  501    0  0.00000000000E+00  0.00000000000E+00  0.13678881784E+04  0.13678881784E+04  0.00000000000E+00 0. -1.
         -2   -1    0    0    0  501 -0.00000000000E+00 -0.00000000000E+00 -0.88096793036E+03  0.88096793036E+03  0.00000000000E+00 0.  1.
         23    2    1    2    0    0 -0.33482606475E+03 -0.95603975363E+03 -0.18441752297E+03  0.10336133730E+04  0.90698830389E+02 0.  0.
         11    1    3    3    0    0 -0.18309017451E+03 -0.47503257757E+03 -0.49428520527E+02  0.51148914005E+03  0.00000000000E+00 0. -1.
        -11    1    3    3    0    0 -0.15173589024E+03 -0.48100717606E+03 -0.13498900244E+03  0.52212423290E+03  0.00000000000E+00 0.  1.
         22    1    1    2    0    0  0.33482606475E+03  0.95603975363E+03  0.67133777103E+03  0.12152427358E+04  0.00000000000E+00 0. -1.
<mgrwt>
<rscale>  0 0.21955096E+04</rscale>
<asrwt>0</asrwt>
<pdfrwt beam="1">  1        2 0.21044434E+00 0.21955096E+04</pdfrwt>
<pdfrwt beam="2">  1       -2 0.13553353E+00 0.21955096E+04</pdfrwt>
<totfact> 0.53928720E+00</totfact>
</mgrwt>
</event>
<event>
 6    1  0.9512547E-007  0.2103710E+04  0.7818608E-02  0.8559611E-01
         -1   -1    0    0    0  501 -0.00000000000E+00  0.00000000000E+00  0.50725849385E+03  0.50725849385E+03  0.00000000000E+00 0.  1.
          1   -1    0    0  501    0  0.00000000000E+00 -0.00000000000E+00 -0.21811344176E+04  0.21811344176E+04  0.00000000000E+00 0. -1.
         23    2    1    2    0    0 -0.91954117337E+03 -0.49224578324E+03 -0.99226687460E+03  0.14424182823E+04  0.90083683501E+02 0.  0.
         13    1    3    3    0    0 -0.52126171206E+03 -0.32506524163E+03 -0.60716813570E+03  0.86373278784E+03  0.00000000000E+00 0. -1.
        -13    1    3    3    0    0 -0.39827946131E+03 -0.16718054161E+03 -0.38509873890E+03  0.57868549446E+03  0.00000000000E+00 0.  1.
         22    1    1    2    0    0  0.91954117337E+03  0.49224578324E+03 -0.68160904918E+03  0.12459746292E+04  0.00000000000E+00 0.  1.
<mgrwt>
<rscale>  0 0.21037100E+04</rscale>
<asrwt>0</asrwt>
<pdfrwt beam="1">  1        1 0.33555914E+00 0.21037100E+04</pdfrwt>
<pdfrwt beam="2">  1       -1 0.78039768E-01 0.21037100E+04</pdfrwt>
<totfact> 0.33923136E+00</totfact>
</mgrwt>
</event>
<event>
 6    1  0.9512547E-007  0.2110235E+04  0.7818608E-02  0.8556748E-01
          1   -1    0    0  501    0  0.00000000000E+00  0.00000000000E+00  0.25295768804E+04  0.25295768804E+04  0.00000000000E+00 0. -1.
         -1   -1    0    0    0  501 -0.00000000000E+00 -0.00000000000E+00 -0.44010223059E+03  0.44010223059E+03  0.00000000000E+00 0.  1.
         23    2    1    2    0    0 -0.90714243722E+03  0.16613945998E+03  0.17620954449E+04  0.19910643424E+04  0.94059220749E+02 0.  0.
         11    1    3    3    0    0 -0.12315397284E+03 -0.95544801856E+01  0.22739177092E+03  0.25877636407E+03  0.00000000000E+00 0. -1.
        -11    1    3    3    0    0 -0.78398846438E+03  0.17569394017E+03  0.15347036740E+04  0.17322879783E+04  0.00000000000E+00 0.  1.
         22    1    1    2    0    0  0.90714243722E+03 -0.16613945998E+03  0.32737920493E+03  0.97861476864E+03  0.00000000000E+00 0.  1.
<mgrwt>
<rscale>  0 0.21102345E+04</rscale>
<asrwt>0</asrwt>
<pdfrwt beam="1">  1        1 0.38916566E+00 0.21102345E+04</pdfrwt>
<pdfrwt beam="2">  1       -1 0.67708037E-01 0.21102345E+04</pdfrwt>
<totfact> 0.26231907E+00</totfact>
</mgrwt>
</event>
<event>
 6    1  0.9512547E-007  0.4365355E+03  0.7818608E-02  0.1031815E+00
          2   -1    0    0  501    0  0.00000000000E+00  0.00000000000E+00  0.76452721512E+02  0.76452721512E+02  0.00000000000E+00 0. -1.
         -2   -1    0    0    0  501 -0.00000000000E+00 -0.00000000000E+00 -0.62314081114E+03  0.62314081114E+03  0.00000000000E+00 0.  1.
         23    2    1    2    0    0  0.52456492876E+02 -0.15285157452E+02 -0.60822839545E+03  0.61729815656E+03  0.90166032293E+02 0.  0.
         13    1    3    3    0    0  0.65161506509E+02  0.17135264117E+02 -0.32302552670E+03  0.32997746909E+03  0.00000000000E+00 0. -1.
        -13    1    3    3    0    0 -0.12705013633E+02 -0.32420421569E+02 -0.28520286876E+03  0.28732068748E+03  0.00000000000E+00 0.  1.
         22    1    1    2    0    0 -0.52456492876E+02  0.15285157452E+02  0.61540305829E+02  0.82295376083E+02  0.00000000000E+00 0. -1.
<mgrwt>
<rscale>  0 0.43653550E+03</rscale>
<asrwt>0</asrwt>
<pdfrwt beam="1">  1        2 0.11761958E-01 0.43653550E+03</pdfrwt>
<pdfrwt beam="2">  1       -2 0.95867813E-01 0.43653550E+03</pdfrwt>
<totfact> 0.49809523E+02</totfact>
</mgrwt>
</event>
<event>
 6    1  0.9512547E-007  0.4348672E+04  0.7818608E-02  0.7937679E-01
          2   -1    0    0  501    0  0.00000000000E+00  0.00000000000E+00  0.16440542110E+04  0.16440542110E+04  0.00000000000E+00 0. -1.
         -2   -1    0    0    0  501 -0.00000000000E+00 -0.00000000000E+00 -0.28756578343E+04  0.28756578343E+04  0.00000000000E+00 0.  1.
         23    2    1    2    0    0  0.75772166903E+03  0.24683344452E+03 -0.27175535607E+04  0.28335578135E+04  0.94253115336E+02 0.  0.
         11    1    3    3    0    0  0.16829157977E+03  0.68598879416E+02 -0.76039527518E+03  0.78181125382E+03  0.00000000000E+00 0.  1.
        -11    1    3    3    0    0  0.58943008926E+03  0.17823456511E+03 -0.19571582855E+04  0.20517465596E+04  0.00000000000E+00 0. -1.
         22    1    1    2    0    0 -0.75772166903E+03 -0.24683344452E+03  0.14859499374E+04  0.16861542318E+04  0.00000000000E+00 0. -1.
<mgrwt>
<rscale>  0 0.43486722E+04</rscale>
<asrwt>0</asrwt>
<pdfrwt beam="1">  1        2 0.25293142E+00 0.43486722E+04</pdfrwt>
<pdfrwt beam="2">  1       -2 0.44240889E+00 0.43486722E+04</pdfrwt>
<totfact> 0.31512420E-02</totfact>
</mgrwt>
</event>
<event>
 6    1  0.9512547E-007  0.1567157E+04  0.7818608E-02  0.8840983E-01
          1   -1    0    0  501    0  0.00000000000E+00  0.00000000000E+00  0.40044475532E+03  0.40044475532E+03  0.00000000000E+00 0. -1.
         -1   -1    0    0    0  501 -0.00000000000E+00 -0.00000000000E+00 -0.15332836237E+04  0.15332836237E+04  0.00000000000E+00 0.  1.
         23    2    1    2    0    0 -0.42921352371E+02  0.77984341354E+03 -0.56861932647E+03  0.97022348355E+03  0.89485627189E+02 0.  0.
         11    1    3    3    0    0 -0.44526843945E+02  0.46104223396E+03 -0.28737215983E+03  0.54509204688E+03  0.00000000000E+00 0.  1.
        -11    1    3    3    0    0  0.16054915731E+01  0.31880117958E+03 -0.28124716665E+03  0.42513143668E+03  0.00000000000E+00 0. -1.
         22    1    1    2    0    0  0.42921352371E+02 -0.77984341354E+03 -0.56421954194E+03  0.96350489549E+03  0.00000000000E+00 0. -1.
<mgrwt>
<rscale>  0 0.15671572E+04</rscale>
<asrwt>0</asrwt>
<pdfrwt beam="1">  1        1 0.61606885E-01 0.15671572E+04</pdfrwt>
<pdfrwt beam="2">  1       -1 0.23588979E+00 0.15671572E+04</pdfrwt>
<totfact> 0.49743345E+00</totfact>
</mgrwt>
</event>
<event>
 6    1  0.9512547E-007  0.4339924E+03  0.7818608E-02  0.1032606E+00
          1   -1    0    0  501    0  0.00000000000E+00  0.00000000000E+00  0.80306293330E+03  0.80306293330E+03  0.00000000000E+00 0. -1.
         -1   -1    0    0    0  501 -0.00000000000E+00 -0.00000000000E+00 -0.58634689016E+02  0.58634689016E+02  0.00000000000E+00 0.  1.
         23    2    1    2    0    0  0.31760429834E+02 -0.40689310240E+02  0.78773504587E+03  0.79431940674E+03  0.88048126423E+02 0.  0.
         13    1    3    3    0    0 -0.29017954290E+02 -0.74170186980E+01  0.16066869688E+03  0.16343648306E+03  0.00000000000E+00 0. -1.
        -13    1    3    3    0    0  0.60778384124E+02 -0.33272291542E+02  0.62706634899E+03  0.63088292368E+03  0.00000000000E+00 0.  1.
         22    1    1    2    0    0 -0.31760429834E+02  0.40689310240E+02 -0.43306801581E+02  0.67378215576E+02  0.00000000000E+00 0.  1.
<mgrwt>
<rscale>  0 0.43399237E+03</rscale>
<asrwt>0</asrwt>
<pdfrwt beam="1">  1        1 0.12354814E+00 0.43399237E+03</pdfrwt>
<pdfrwt beam="2">  1       -1 0.90207220E-02 0.43399237E+03</pdfrwt>
<totfact> 0.16406687E+03</totfact>
</mgrwt>
</event>
<event>
 6    1  0.9512547E-007  0.1103107E+04  0.7818608E-02  0.9202169E-01
          2   -1    0    0  501    0  0.00000000000E+00  0.00000000000E+00  0.64028935596E+03  0.64028935596E+03  0.00000000000E+00 0. -1.
         -2   -1    0    0    0  501 -0.00000000000E+00 -0.00000000000E+00 -0.47511551084E+03  0.47511551084E+03  0.00000000000E+00 0.  1.
         23    2    1    2    0    0 -0.18831803328E+03  0.44360117729E+03 -0.17948426940E+03  0.52292288221E+03  0.94805335407E+02 0.  0.
         11    1    3    3    0    0 -0.43328879265E+02  0.59535614971E+02  0.29436818621E+01  0.73692241730E+02  0.00000000000E+00 0.  1.
        -11    1    3    3    0    0 -0.14498915402E+03  0.38406556232E+03 -0.18242795126E+03  0.44923064048E+03  0.00000000000E+00 0. -1.
         22    1    1    2    0    0  0.18831803328E+03 -0.44360117729E+03  0.34465811452E+03  0.59248198459E+03  0.00000000000E+00 0. -1.
<mgrwt>
<rscale>  0 0.11031073E+04</rscale>
<asrwt>0</asrwt>
<pdfrwt beam="1">  1        2 0.98506054E-01 0.11031073E+04</pdfrwt>
<pdfrwt beam="2">  1       -2 0.73094694E-01 0.11031073E+04</pdfrwt>
<totfact> 0.76914562E+01</totfact>
</mgrwt>
</event>
<event>
 6    1  0.9512547E-007  0.3261936E+04  0.7818608E-02  0.8172649E-01
          2   -1    0    0  501    0  0.00000000000E+00  0.00000000000E+00  0.17936465002E+04  0.17936465002E+04  0.00000000000E+00 0. -1.
         -2   -1    0    0    0  501 -0.00000000000E+00 -0.00000000000E+00 -0.14830437581E+04  0.14830437581E+04  0.00000000000E+00 0.  1.
         23    2    1    2    0    0  0.11367756232E+04  0.30854789518E+03 -0.97589448547E+03  0.15324036598E+04  0.91816711704E+02 0.  0.
         11    1    3    3    0    0  0.50647147185E+03  0.18484124123E+03 -0.44675670493E+03  0.70019368010E+03  0.00000000000E+00 0.  1.
        -11    1    3    3    0    0  0.63030415139E+03  0.12370665395E+03 -0.52913778054E+03  0.83220997968E+03  0.00000000000E+00 0. -1.
         22    1    1    2    0    0 -0.11367756232E+04 -0.30854789518E+03  0.12864972276E+04  0.17442865986E+04  0.00000000000E+00 0. -1.
<mgrwt>
<rscale>  0 0.32619358E+04</rscale>
<asrwt>0</asrwt>
<pdfrwt beam="1">  1        2 0.27594562E+00 0.32619358E+04</pdfrwt>
<pdfrwt beam="2">  1       -2 0.22816058E+00 0.32619358E+04</pdfrwt>
<totfact> 0.63994082E-01</totfact>
</mgrwt>
</event>
<event>
 6    1  0.9512547E-007  0.2970679E+04  0.7818608E-02  0.8252153E-01
         -2   -1    0    0    0  501 -0.00000000000E+00  0.00000000000E+00  0.12162036753E+04  0.12162036753E+04  0.00000000000E+00 0.  1.
          2   -1    0    0  501    0  0.00000000000E+00 -0.00000000000E+00 -0.18140333316E+04  0.18140333316E+04  0.00000000000E+00 0. -1.
         23    2    1    2    0    0  0.83075605902E+03  0.11532004951E+04 -0.73429421815E+03  0.16024241382E+04  0.92455980309E+02 0.  0.
         11    1    3    3    0    0  0.34011242457E+03  0.41542502262E+03 -0.24329383607E+03  0.58944575784E+03  0.00000000000E+00 0. -1.
        -11    1    3    3    0    0  0.49064363445E+03  0.73777547250E+03 -0.49100038208E+03  0.10129783803E+04  0.00000000000E+00 0.  1.
         22    1    1    2    0    0 -0.83075605902E+03 -0.11532004951E+04  0.13646456183E+03  0.14278128688E+04  0.00000000000E+00 0.  1.
<mgrwt>
<rscale>  0 0.29706794E+04</rscale>
<asrwt>0</asrwt>
<pdfrwt beam="1">  1        2 0.27908205E+00 0.29706794E+04</pdfrwt>
<pdfrwt beam="2">  1       -2 0.18710826E+00 0.29706794E+04</pdfrwt>
<totfact> 0.11791593E+00</totfact>
</mgrwt>
</event>
<event>
 6    1  0.9512547E-007  0.1332575E+04  0.7818608E-02  0.9004125E-01
          2   -1    0    0  501    0  0.00000000000E+00  0.00000000000E+00  0.12087203389E+04  0.12087203389E+04  0.00000000000E+00 0. -1.
         -2   -1    0    0    0  501 -0.00000000000E+00 -0.00000000000E+00 -0.36728007318E+03  0.36728007318E+03  0.00000000000E+00 0.  1.
         23    2    1    2    0    0 -0.61117818646E+03 -0.23875949489E+03  0.30990014918E+03  0.73155990651E+03  0.92719589833E+02 0.  0.
         13    1    3    3    0    0 -0.44781011595E+03 -0.13342310884E+03  0.23723828404E+03  0.52403972114E+03  0.00000000000E+00 0. -1.
        -13    1    3    3    0    0 -0.16336807051E+03 -0.10533638604E+03  0.72661865141E+02  0.20752018536E+03  0.00000000000E+00 0.  1.
         22    1    1    2    0    0  0.61117818646E+03  0.23875949489E+03  0.53154011658E+03  0.84444050562E+03  0.00000000000E+00 0. -1.
<mgrwt>
<rscale>  0 0.13325748E+04</rscale>
<asrwt>0</asrwt>
<pdfrwt beam="1">  1        2 0.18595697E+00 0.13325748E+04</pdfrwt>
<pdfrwt beam="2">  1       -2 0.56504627E-01 0.13325748E+04</pdfrwt>
<totfact> 0.53780799E+01</totfact>
</mgrwt>
</event>
<event>
 6    1  0.9512547E-007  0.3556496E+04  0.7818608E-02  0.8100530E-01
          2   -1    0    0  501    0  0.00000000000E+00  0.00000000000E+00  0.20375698666E+04  0.20375698666E+04  0.00000000000E+00 0. -1.
         -2   -1    0    0    0  501 -0.00000000000E+00 -0.00000000000E+00 -0.15519304327E+04  0.15519304327E+04  0.00000000000E+00 0.  1.
         23    2    1    2    0    0 -0.55429164386E+03  0.11689713178E+04  0.14726024711E+04  0.19622851307E+04  0.90949041804E+02 0.  0.
         13    1    3    3    0    0 -0.44316614833E+03  0.98494899669E+03  0.11872367516E+04  0.16050083693E+04  0.00000000000E+00 0.  1.
        -13    1    3    3    0    0 -0.11112549553E+03  0.18402232107E+03  0.28536571949E+03  0.35727676144E+03  0.00000000000E+00 0. -1.
         22    1    1    2    0    0  0.55429164386E+03 -0.11689713178E+04 -0.98696303720E+03  0.16272151686E+04  0.00000000000E+00 0.  1.
<mgrwt>
<rscale>  0 0.35564964E+04</rscale>
<asrwt>0</asrwt>
<pdfrwt beam="1">  1        2 0.31347229E+00 0.35564964E+04</pdfrwt>
<pdfrwt beam="2">  1       -2 0.23875853E+00 0.35564964E+04</pdfrwt>
<totfact> 0.39268573E-01</totfact>
</mgrwt>
</event>
<event>
 6    1  0.9512547E-007  0.1482118E+04  0.7818608E-02  0.8896432E-01
          2   -1    0    0  501    0  0.00000000000E+00  0.00000000000E+00  0.10886393343E+04  0.10886393343E+04  0.00000000000E+00 0. -1.
         -2   -1    0    0    0  501 -0.00000000000E+00 -0.00000000000E+00 -0.50445427498E+03  0.50445427498E+03  0.00000000000E+00 0.  1.
         23    2    1    2    0    0 -0.38876915175E+03  0.52992905320E+03  0.65466639219E+03  0.93208387181E+03  0.90697322146E+02 0.  0.
         11    1    3    3    0    0 -0.20365356065E+03  0.20313836346E+03  0.27141752254E+03  0.39548380373E+03  0.00000000000E+00 0. -1.
        -11    1    3    3    0    0 -0.18511559110E+03  0.32679068974E+03  0.38324886964E+03  0.53660006807E+03  0.00000000000E+00 0.  1.
         22    1    1    2    0    0  0.38876915175E+03 -0.52992905320E+03 -0.70481332850E+02  0.66100973749E+03  0.00000000000E+00 0.  1.
<mgrwt>
<rscale>  0 0.14821184E+04</rscale>
<asrwt>0</asrwt>
<pdfrwt beam="1">  1        2 0.16748297E+00 0.14821184E+04</pdfrwt>
<pdfrwt beam="2">  1       -2 0.77608350E-01 0.14821184E+04</pdfrwt>
<totfact> 0.31704342E+01</totfact>
</mgrwt>
</event>
<event>
 6    1  0.9512547E-007  0.4531648E+04  0.7818608E-02  0.7905119E-01
          2   -1    0    0  501    0  0.00000000000E+00  0.00000000000E+00  0.39174887147E+04  0.39174887147E+04  0.00000000000E+00 0. -1.
         -2   -1    0    0    0  501 -0.00000000000E+00 -0.00000000000E+00 -0.13105228524E+04  0.13105228524E+04  0.00000000000E+00 0.  1.
         23    2    1    2    0    0  0.17258624585E+04 -0.61337590098E+03  0.28409993655E+04  0.33815005592E+04  0.91855406281E+02 0.  0.
         13    1    3    3    0    0  0.66502735350E+03 -0.24087243813E+03  0.11799737880E+04  0.13757249190E+04  0.00000000000E+00 0. -1.
        -13    1    3    3    0    0  0.10608351050E+04 -0.37250346285E+03  0.16610255775E+04  0.20057756402E+04  0.00000000000E+00 0.  1.
         22    1    1    2    0    0 -0.17258624585E+04  0.61337590098E+03 -0.23403350312E+03  0.18465110079E+04  0.00000000000E+00 0.  1.
<mgrwt>
<rscale>  0 0.45316480E+04</rscale>
<asrwt>0</asrwt>
<pdfrwt beam="1">  1        2 0.60269057E+00 0.45316480E+04</pdfrwt>
<pdfrwt beam="2">  1       -2 0.20161890E+00 0.45316480E+04</pdfrwt>
<totfact> 0.38916818E-02</totfact>
</mgrwt>
</event>
<event>
 6    1  0.9512547E-007  0.5233229E+04  0.7818608E-02  0.7793503E-01
         -2   -1    0    0    0  501 -0.00000000000E+00  0.00000000000E+00  0.23358953561E+04  0.23358953561E+04  0.00000000000E+00 0.  1.
          2   -1    0    0  501    0  0.00000000000E+00 -0.00000000000E+00 -0.29310691735E+04  0.29310691735E+04  0.00000000000E+00 0. -1.
         23    2    1    2    0    0 -0.59849895626E+03  0.25464458039E+04 -0.29574271764E+03  0.26340486144E+04  0.90338890601E+02 0.  0.
         11    1    3    3    0    0 -0.52312166144E+03  0.21924596786E+04 -0.28516482953E+03  0.22719715436E+04  0.00000000000E+00 0. -1.
        -11    1    3    3    0    0 -0.75377294813E+02  0.35398612534E+03 -0.10577888110E+02  0.36207707083E+03  0.00000000000E+00 0.  1.
         22    1    1    2    0    0  0.59849895626E+03 -0.25464458039E+04 -0.29943109978E+03  0.26329159152E+04  0.00000000000E+00 0.  1.
<mgrwt>
<rscale>  0 0.52332288E+04</rscale>
<asrwt>0</asrwt>
<pdfrwt beam="1">  1        2 0.45093372E+00 0.52332288E+04</pdfrwt>
<pdfrwt beam="2">  1       -2 0.35936852E+00 0.52332288E+04</pdfrwt>
<totfact> 0.18642861E-02</totfact>
</mgrwt>
</event>
<event>
 6    1  0.9512547E-007  0.3822581E+04  0.7818608E-02  0.8041326E-01
         -3   -1    0    0    0  501 -0.00000000000E+00  0.00000000000E+00  0.18850750249E+04  0.18850750249E+04  0.00000000000E+00 0.  1.
          3   -1    0    0  501    0  0.00000000000E+00 -0.00000000000E+00 -0.19378710563E+04  0.19378710563E+04  0.00000000000E+00 0. -1.
         23    2    1    2    0    0  0.13816534773E+04 -0.10934320052E+04 -0.76418812056E+03  0.19227780396E+04  0.92368958696E+02 0.  0.
         13    1    3    3    0    0  0.35733845202E+03 -0.24455509656E+03 -0.21632824767E+03  0.48404119173E+03  0.00000000000E+00 0. -1.
        -13    1    3    3    0    0  0.10243150253E+04 -0.84887690868E+03 -0.54785987289E+03  0.14387368479E+04  0.00000000000E+00 0.  1.
         22    1    1    2    0    0 -0.13816534773E+04  0.10934320052E+04  0.71139208922E+03  0.19001680415E+04  0.00000000000E+00 0. -1.
<mgrwt>
<rscale>  0 0.38225815E+04</rscale>
<asrwt>0</asrwt>
<pdfrwt beam="1">  1        3 0.29813401E+00 0.38225815E+04</pdfrwt>
<pdfrwt beam="2">  1       -3 0.29001154E+00 0.38225815E+04</pdfrwt>
<totfact> 0.35310357E-03</totfact>
</mgrwt>
</event>
<event>
 6    1  0.9512547E-007  0.1688377E+04  0.7818608E-02  0.8768021E-01
         -2   -1    0    0    0  501 -0.00000000000E+00  0.00000000000E+00  0.25990079470E+03  0.25990079470E+03  0.00000000000E+00 0.  1.
          2   -1    0    0  501    0  0.00000000000E+00 -0.00000000000E+00 -0.27420232250E+04  0.27420232250E+04  0.00000000000E+00 0. -1.
         23    2    1    2    0    0  0.33536568591E+03  0.53984789430E+03 -0.26033652452E+03  0.69102841337E+03  0.76415115191E+02 0.  0.
         11    1    3    3    0    0  0.31947592252E+03  0.50968050150E+03 -0.22584911586E+03  0.64253163487E+03  0.00000000000E+00 0. -1.
        -11    1    3    3    0    0  0.15889763390E+02  0.30167392799E+02 -0.34487408665E+02  0.48496778505E+02  0.00000000000E+00 0.  1.
         22    1    1    2    0    0 -0.33536568591E+03 -0.53984789430E+03 -0.22217859057E+04  0.23108956063E+04  0.00000000000E+00 0. -1.
<mgrwt>
<rscale>  0 0.16883768E+04</rscale>
<asrwt>0</asrwt>
<pdfrwt beam="1">  1        2 0.42184971E+00 0.16883768E+04</pdfrwt>
<pdfrwt beam="2">  1       -2 0.39984739E-01 0.16883768E+04</pdfrwt>
<totfact> 0.14170761E+01</totfact>
</mgrwt>
</event>
<event>
 6    1  0.9512547E-007  0.2555506E+04  0.7818608E-02  0.8383474E-01
          2   -1    0    0  501    0  0.00000000000E+00  0.00000000000E+00  0.31238525870E+04  0.31238525870E+04  0.00000000000E+00 0. -1.
         -2   -1    0    0    0  501 -0.00000000000E+00 -0.00000000000E+00 -0.52264058110E+03  0.52264058110E+03  0.00000000000E+00 0.  1.
         23    2    1    2    0    0 -0.70930042729E+02  0.10594408589E+04  0.23122973596E+04  0.25460761211E+04  0.91315555527E+02 0.  0.
         13    1    3    3    0    0  0.16177836635E+02  0.35923029001E+03  0.74301282790E+03  0.82545513875E+03  0.00000000000E+00 0.  1.
        -13    1    3    3    0    0 -0.87107879364E+02  0.70021056888E+03  0.15692845317E+04  0.17206209823E+04  0.00000000000E+00 0. -1.
         22    1    1    2    0    0  0.70930042729E+02 -0.10594408589E+04  0.28891464625E+03  0.11004170470E+04  0.00000000000E+00 0.  1.
<mgrwt>
<rscale>  0 0.25555055E+04</rscale>
<asrwt>0</asrwt>
<pdfrwt beam="1">  1        2 0.48059269E+00 0.25555055E+04</pdfrwt>
<pdfrwt beam="2">  1       -2 0.80406245E-01 0.25555055E+04</pdfrwt>
<totfact> 0.17629711E+00</totfact>
</mgrwt>
</event>
<event>
 6    1  0.9512547E-007  0.1125564E+04  0.7818608E-02  0.9180628E-01
         -2   -1    0    0    0  501 -0.00000000000E+00  0.00000000000E+00  0.11721287380E+04  0.11721287380E+04  0.00000000000E+00 0.  1.
          2   -1    0    0  501    0  0.00000000000E+00 -0.00000000000E+00 -0.27021212158E+03  0.27021212158E+03  0.00000000000E+00 0. -1.
         23    2    1    2    0    0 -0.12998158253E+03 -0.11671213347E+03  0.11344380133E+04  0.11515090629E+04  0.92231133713E+02 0.  0.
         13    1    3    3    0    0 -0.10550135199E+03 -0.41691074023E+02  0.53466821873E+03  0.54657001843E+03  0.00000000000E+00 0. -1.
        -13    1    3    3    0    0 -0.24480230537E+02 -0.75021059452E+02  0.59976979460E+03  0.60493904451E+03  0.00000000000E+00 0.  1.
         22    1    1    2    0    0  0.12998158253E+03  0.11671213347E+03 -0.23252139694E+03  0.29083179663E+03  0.00000000000E+00 0. -1.
<mgrwt>
<rscale>  0 0.11255637E+04</rscale>
<asrwt>0</asrwt>
<pdfrwt beam="1">  1        2 0.41571096E-01 0.11255637E+04</pdfrwt>
<pdfrwt beam="2">  1       -2 0.18032749E+00 0.11255637E+04</pdfrwt>
<totfact> 0.22043891E+01</totfact>
</mgrwt>
</event>
<event>
 6    1  0.9512547E-007  0.5879594E+04  0.7818608E-02  0.7705512E-01
          2   -1    0    0  501    0  0.00000000000E+00  0.00000000000E+00  0.17618867005E+04  0.17618867005E+04  0.00000000000E+00 0. -1.
         -2   -1    0    0    0  501 -0.00000000000E+00 -0.00000000000E+00 -0.49052004550E+04  0.49052004550E+04  0.00000000000E+00 0.  1.
         23    2    1    2    0    0 -0.25801193462E+04  0.72345392792E+03 -0.29411356608E+04  0.39798436966E+04  0.92062193860E+02 0.  0.
         11    1    3    3    0    0 -0.18767285722E+04  0.49347004248E+03 -0.20895961300E+04  0.28516722818E+04  0.00000000000E+00 0. -1.
        -11    1    3    3    0    0 -0.70339077397E+03  0.22998388544E+03 -0.85153953084E+03  0.11281714148E+04  0.00000000000E+00 0.  1.
         22    1    1    2    0    0  0.25801193462E+04 -0.72345392792E+03 -0.20217809369E+03  0.26872434590E+04  0.00000000000E+00 0. -1.
<mgrwt>
<rscale>  0 0.58795944E+04</rscale>
<asrwt>0</asrwt>
<pdfrwt beam="1">  1        2 0.27105949E+00 0.58795944E+04</pdfrwt>
<pdfrwt beam="2">  1       -2 0.75464623E+00 0.58795944E+04</pdfrwt>
<totfact> 0.84964017E-04</totfact>
</mgrwt>
</event>
<event>
 6    1  0.9512547E-007  0.1986494E+04  0.7818608E-02  0.8612961E-01
         -1   -1    0    0    0  501 -0.00000000000E+00  0.00000000000E+00  0.54050036692E+03  0.54050036692E+03  0.00000000000E+00 0.  1.
          1   -1    0    0  501    0  0.00000000000E+00 -0.00000000000E+00 -0.18252344302E+04  0.18252344302E+04  0.00000000000E+00 0. -1.
         23    2    1    2    0    0 -0.96001689253E+03 -0.11364440211E+03 -0.89981682942E+03  0.13252018755E+04  0.10928037424E+03 0.  0.
         13    1    3    3    0    0 -0.76037959341E+03 -0.45826918121E+02 -0.69160293675E+03  0.10288789310E+04  0.00000000000E+00 0. -1.
        -13    1    3    3    0    0 -0.19963729912E+03 -0.67817483990E+02 -0.20821389267E+03  0.29632294449E+03  0.00000000000E+00 0.  1.
         22    1    1    2    0    0  0.96001689253E+03  0.11364440211E+03 -0.38491723385E+03  0.10405329216E+04  0.00000000000E+00 0. -1.
<mgrwt>
<rscale>  0 0.19864943E+04</rscale>
<asrwt>0</asrwt>
<pdfrwt beam="1">  1        1 0.28080530E+00 0.19864943E+04</pdfrwt>
<pdfrwt beam="2">  1       -1 0.83153902E-01 0.19864943E+04</pdfrwt>
<totfact> 0.52213742E+00</totfact>
</mgrwt>
</event>
<event>
 6    1  0.9512547E-007  0.3404653E+04  0.7818608E-02  0.8136765E-01
         -1   -1    0    0    0  501 -0.00000000000E+00  0.00000000000E+00  0.10394499801E+04  0.10394499801E+04  0.00000000000E+00 0.  1.
          1   -1    0    0  501    0  0.00000000000E+00 -0.00000000000E+00 -0.27879320044E+04  0.27879320044E+04  0.00000000000E+00 0. -1.
         23    2    1    2    0    0 -0.57737829389E+03  0.12282500748E+04  0.27698552329E+03  0.13892509941E+04  0.10645846137E+03 0.  0.
         11    1    3    3    0    0 -0.21453890749E+03  0.57514443295E+03  0.10868961833E+03  0.62340315584E+03  0.00000000000E+00 0. -1.
        -11    1    3    3    0    0 -0.36283938641E+03  0.65310564183E+03  0.16829590496E+03  0.76584783824E+03  0.00000000000E+00 0.  1.
         22    1    1    2    0    0  0.57737829389E+03 -0.12282500748E+04 -0.20254675475E+04  0.24381309904E+04  0.00000000000E+00 0. -1.
<mgrwt>
<rscale>  0 0.34046532E+04</rscale>
<asrwt>0</asrwt>
<pdfrwt beam="1">  1        1 0.42891262E+00 0.34046532E+04</pdfrwt>
<pdfrwt beam="2">  1       -1 0.15991538E+00 0.34046532E+04</pdfrwt>
<totfact> 0.20449295E-01</totfact>
</mgrwt>
</event>
<event>
 6    1  0.9512547E-007  0.4784942E+04  0.7818608E-02  0.7862566E-01
         -2   -1    0    0    0  501 -0.00000000000E+00  0.00000000000E+00  0.20019296982E+04  0.20019296982E+04  0.00000000000E+00 0.  1.
          2   -1    0    0  501    0  0.00000000000E+00 -0.00000000000E+00 -0.28591998713E+04  0.28591998713E+04  0.00000000000E+00 0. -1.
         23    2    1    2    0    0  0.15684157037E+04 -0.67697625186E+03 -0.21294953561E+04  0.27311573675E+04  0.79028025280E+02 0.  0.
         11    1    3    3    0    0  0.11465564364E+04 -0.52714255336E+03 -0.15425623997E+04  0.19929801029E+04  0.00000000000E+00 0.  1.
        -11    1    3    3    0    0  0.42185926734E+03 -0.14983369850E+03 -0.58693295644E+03  0.73817726462E+03  0.00000000000E+00 0. -1.
         22    1    1    2    0    0 -0.15684157037E+04  0.67697625186E+03  0.12722251830E+04  0.21299722021E+04  0.00000000000E+00 0.  1.
<mgrwt>
<rscale>  0 0.47849419E+04</rscale>
<asrwt>0</asrwt>
<pdfrwt beam="1">  1        2 0.43987690E+00 0.47849419E+04</pdfrwt>
<pdfrwt beam="2">  1       -2 0.30798919E+00 0.47849419E+04</pdfrwt>
<totfact> 0.44736933E-02</totfact>
</mgrwt>
</event>
<event>
 6    1  0.9512547E-007  0.1663707E+04  0.7818608E-02  0.8782339E-01
          2   -1    0    0  501    0  0.00000000000E+00  0.00000000000E+00  0.65838113894E+03  0.65838113894E+03  0.00000000000E+00 0. -1.
         -2   -1    0    0    0  501 -0.00000000000E+00 -0.00000000000E+00 -0.10510326256E+04  0.10510326256E+04  0.00000000000E+00 0.  1.
         23    2    1    2    0    0 -0.49106504911E+02 -0.61814590669E+03  0.37142606320E+03  0.72537600462E+03  0.60804743771E+02 0.  0.
         13    1    3    3    0    0 -0.25487577927E+02 -0.52868735875E+03  0.29931663786E+03  0.60807103995E+03  0.00000000000E+00 0.  1.
        -13    1    3    3    0    0 -0.23618926985E+02 -0.89458547944E+02  0.72109425341E+02  0.11730496467E+03  0.00000000000E+00 0. -1.
         22    1    1    2    0    0  0.49106504911E+02  0.61814590669E+03 -0.76407754990E+03  0.98403775997E+03  0.00000000000E+00 0.  1.
<mgrwt>
<rscale>  0 0.16637068E+04</rscale>
<asrwt>0</asrwt>
<pdfrwt beam="1">  1        2 0.10128941E+00 0.16637068E+04</pdfrwt>
<pdfrwt beam="2">  1       -2 0.16169733E+00 0.16637068E+04</pdfrwt>
<totfact> 0.10327105E+01</totfact>
</mgrwt>
</event>
<event>
 6    1  0.9512547E-007  0.1773291E+04  0.7818608E-02  0.8720633E-01
         -1   -1    0    0    0  501 -0.00000000000E+00  0.00000000000E+00  0.60866068329E+03  0.60866068329E+03  0.00000000000E+00 0.  1.
          1   -1    0    0  501    0  0.00000000000E+00 -0.00000000000E+00 -0.12915907788E+04  0.12915907788E+04  0.00000000000E+00 0. -1.
         23    2    1    2    0    0 -0.75648167723E+03 -0.78268252034E+02 -0.82590057707E+03  0.11264097432E+04  0.91086217742E+02 0.  0.
         11    1    3    3    0    0 -0.54097439774E+02 -0.12513060246E+02 -0.98736724867E+02  0.11327864099E+03  0.00000000000E+00 0.  1.
        -11    1    3    3    0    0 -0.70238423745E+03 -0.65755191788E+02 -0.72716385220E+03  0.10131311022E+04  0.00000000000E+00 0. -1.
         22    1    1    2    0    0  0.75648167723E+03  0.78268252034E+02  0.14297048160E+03  0.77384171887E+03  0.00000000000E+00 0.  1.
<mgrwt>
<rscale>  0 0.17732913E+04</rscale>
<asrwt>0</asrwt>
<pdfrwt beam="1">  1        1 0.19870627E+00 0.17732913E+04</pdfrwt>
<pdfrwt beam="2">  1       -1 0.93640105E-01 0.17732913E+04</pdfrwt>
<totfact> 0.95941778E+00</totfact>
</mgrwt>
</event>
<event>
 6    1  0.9512547E-007  0.2592737E+04  0.7818608E-02  0.8370672E-01
         -2   -1    0    0    0  501 -0.00000000000E+00  0.00000000000E+00  0.57625000596E+03  0.57625000596E+03  0.00000000000E+00 0.  1.
          2   -1    0    0  501    0  0.00000000000E+00 -0.00000000000E+00 -0.29163934216E+04  0.29163934216E+04  0.00000000000E+00 0. -1.
         23    2    1    2    0    0 -0.11416617887E+03  0.78244629213E+03  0.20964201464E+03  0.82306258838E+03  0.90698035329E+02 0.  0.
         11    1    3    3    0    0  0.79177252323E+01  0.22813399430E+03  0.64198058343E+02  0.23712697110E+03  0.00000000000E+00 0.  1.
        -11    1    3    3    0    0 -0.12208390410E+03  0.55431229783E+03  0.14544395629E+03  0.58593561727E+03  0.00000000000E+00 0. -1.
         22    1    1    2    0    0  0.11416617887E+03 -0.78244629213E+03 -0.25497854302E+04  0.26695808391E+04  0.00000000000E+00 0. -1.
<mgrwt>
<rscale>  0 0.25927373E+04</rscale>
<asrwt>0</asrwt>
<pdfrwt beam="1">  1        2 0.44867592E+00 0.25927373E+04</pdfrwt>
<pdfrwt beam="2">  1       -2 0.88653846E-01 0.25927373E+04</pdfrwt>
<totfact> 0.19006356E+00</totfact>
</mgrwt>
</event>
<event>
 6    1  0.9512547E-007  0.9438824E+03  0.7818608E-02  0.9372330E-01
         -2   -1    0    0    0  501 -0.00000000000E+00  0.00000000000E+00  0.50828188315E+03  0.50828188315E+03  0.00000000000E+00 0.  1.
          2   -1    0    0  501    0  0.00000000000E+00 -0.00000000000E+00 -0.43819880239E+03  0.43819880239E+03  0.00000000000E+00 0. -1.
         23    2    1    2    0    0  0.44784841551E+03 -0.57254801120E+02 -0.78723604579E+02  0.47109689835E+03  0.10903470179E+03 0.  0.
         13    1    3    3    0    0  0.31516310624E+03 -0.43369641243E+02 -0.10521855635E+03  0.33508156308E+03  0.00000000000E+00 0. -1.
        -13    1    3    3    0    0  0.13268530927E+03 -0.13885159877E+02  0.26494951767E+02  0.13601533527E+03  0.00000000000E+00 0.  1.
         22    1    1    2    0    0 -0.44784841551E+03  0.57254801120E+02  0.14880668534E+03  0.47538378719E+03  0.00000000000E+00 0.  1.
<mgrwt>
<rscale>  0 0.94388243E+03</rscale>
<asrwt>0</asrwt>
<pdfrwt beam="1">  1        2 0.67415200E-01 0.94388243E+03</pdfrwt>
<pdfrwt beam="2">  1       -2 0.78197213E-01 0.94388243E+03</pdfrwt>
<totfact> 0.10451327E+02</totfact>
</mgrwt>
</event>
<event>
 6    1  0.9512547E-007  0.1000811E+04  0.7818608E-02  0.9307656E-01
          1   -1    0    0  501    0  0.00000000000E+00  0.00000000000E+00  0.56574093177E+03  0.56574093177E+03  0.00000000000E+00 0. -1.
         -1   -1    0    0    0  501 -0.00000000000E+00 -0.00000000000E+00 -0.44261552489E+03  0.44261552489E+03  0.00000000000E+00 0.  1.
         23    2    1    2    0    0  0.81572717406E+02  0.38310450615E+03  0.36913780777E+03  0.54581427237E+03  0.90704619161E+02 0.  0.
         11    1    3    3    0    0  0.68542634674E+02  0.12047303798E+03  0.14045031420E+03  0.19732748518E+03  0.00000000000E+00 0. -1.
        -11    1    3    3    0    0  0.13030082731E+02  0.26263146818E+03  0.22868749357E+03  0.34848678719E+03  0.00000000000E+00 0.  1.
         22    1    1    2    0    0 -0.81572717406E+02 -0.38310450615E+03 -0.24601240089E+03  0.46254218429E+03  0.00000000000E+00 0.  1.
<mgrwt>
<rscale>  0 0.10008111E+04</rscale>
<asrwt>0</asrwt>
<pdfrwt beam="1">  1        1 0.87037067E-01 0.10008111E+04</pdfrwt>
<pdfrwt beam="2">  1       -1 0.68094696E-01 0.10008111E+04</pdfrwt>
<totfact> 0.81608939E+01</totfact>
</mgrwt>
</event>
<event>
 6    1  0.9512547E-007  0.4927875E+03  0.7818608E-02  0.1015679E+00
         -1   -1    0    0    0  501 -0.00000000000E+00  0.00000000000E+00  0.18515048920E+03  0.18515048920E+03  0.00000000000E+00 0.  1.
          1   -1    0    0  501    0  0.00000000000E+00 -0.00000000000E+00 -0.32789474344E+03  0.32789474344E+03  0.00000000000E+00 0. -1.
         23    2    1    2    0    0  0.13553585859E+03 -0.14146455172E+03 -0.21334222327E+03  0.30479955660E+03  0.94898246108E+02 0.  0.
         13    1    3    3    0    0  0.96018561247E+02 -0.12237709351E+03 -0.10436387517E+03  0.18731667187E+03  0.00000000000E+00 0.  1.
        -13    1    3    3    0    0  0.39517297348E+02 -0.19087458216E+02 -0.10897834809E+03  0.11748288473E+03  0.00000000000E+00 0. -1.
         22    1    1    2    0    0 -0.13553585859E+03  0.14146455172E+03  0.70597969022E+02  0.20824567604E+03  0.00000000000E+00 0.  1.
<mgrwt>
<rscale>  0 0.49278747E+03</rscale>
<asrwt>0</asrwt>
<pdfrwt beam="1">  1        1 0.50445345E-01 0.49278747E+03</pdfrwt>
<pdfrwt beam="2">  1       -1 0.28484691E-01 0.49278747E+03</pdfrwt>
<totfact> 0.87564970E+02</totfact>
</mgrwt>
</event>
<event>
 6    1  0.9512547E-007  0.2456462E+04  0.7818608E-02  0.8418662E-01
         -1   -1    0    0    0  501 -0.00000000000E+00  0.00000000000E+00  0.13025787401E+04  0.13025787401E+04  0.00000000000E+00 0.  1.
          1   -1    0    0  501    0  0.00000000000E+00 -0.00000000000E+00 -0.11581269712E+04  0.11581269712E+04  0.00000000000E+00 0. -1.
         23    2    1    2    0    0  0.77802194558E+03  0.87592899182E+03 -0.29160720488E+03  0.12106188443E+04  0.89406250407E+02 0.  0.
         11    1    3    3    0    0  0.12297806657E+03  0.18261510879E+03 -0.74280386258E+02  0.23235631818E+03  0.00000000000E+00 0.  1.
        -11    1    3    3    0    0  0.65504387901E+03  0.69331388304E+03 -0.21732681862E+03  0.97826252608E+03  0.00000000000E+00 0. -1.
         22    1    1    2    0    0 -0.77802194558E+03 -0.87592899182E+03  0.43605897373E+03  0.12500868670E+04  0.00000000000E+00 0. -1.
<mgrwt>
<rscale>  0 0.24564621E+04</rscale>
<asrwt>0</asrwt>
<pdfrwt beam="1">  1        1 0.17817338E+00 0.24564621E+04</pdfrwt>
<pdfrwt beam="2">  1       -1 0.20039673E+00 0.24564621E+04</pdfrwt>
<totfact> 0.15300383E+00</totfact>
</mgrwt>
</event>
<event>
 6    1  0.9512547E-007  0.2369842E+04  0.7818608E-02  0.8450881E-01
          1   -1    0    0  501    0  0.00000000000E+00  0.00000000000E+00  0.27392425126E+04  0.27392425126E+04  0.00000000000E+00 0. -1.
         -1   -1    0    0    0  501 -0.00000000000E+00 -0.00000000000E+00 -0.51256434658E+03  0.51256434658E+03  0.00000000000E+00 0.  1.
         23    2    1    2    0    0  0.10627813091E+04 -0.49356867798E+02  0.40510033711E+03  0.11422841648E+04  0.93630222549E+02 0.  0.
         11    1    3    3    0    0  0.59443821754E+03 -0.72655600372E+02  0.21481011685E+03  0.63622245877E+03  0.00000000000E+00 0. -1.
        -11    1    3    3    0    0  0.46834309157E+03  0.23298732574E+02  0.19029022026E+03  0.50606170601E+03  0.00000000000E+00 0.  1.
         22    1    1    2    0    0 -0.10627813091E+04  0.49356867798E+02  0.18215778289E+04  0.21095226944E+04  0.00000000000E+00 0.  1.
<mgrwt>
<rscale>  0 0.23698422E+04</rscale>
<asrwt>0</asrwt>
<pdfrwt beam="1">  1        1 0.42142192E+00 0.23698422E+04</pdfrwt>
<pdfrwt beam="2">  1       -1 0.78856055E-01 0.23698422E+04</pdfrwt>
<totfact> 0.13303510E+00</totfact>
</mgrwt>
</event>
<event>
 6    1  0.9512547E-007  0.1930719E+04  0.7818608E-02  0.8639715E-01
          1   -1    0    0  501    0  0.00000000000E+00  0.00000000000E+00  0.30546039984E+04  0.30546039984E+04  0.00000000000E+00 0. -1.
         -1   -1    0    0    0  501 -0.00000000000E+00 -0.00000000000E+00 -0.30508675610E+03  0.30508675610E+03  0.00000000000E+00 0.  1.
         23    2    1    2    0    0  0.40023920554E+03 -0.59910580259E+03  0.24902171590E+04  0.25939520801E+04  0.91031370520E+02 0.  0.
         13    1    3    3    0    0  0.29790983817E+03 -0.36976514202E+03  0.16608443280E+04  0.17273912162E+04  0.00000000000E+00 0. -1.
        -13    1    3    3    0    0  0.10232936737E+03 -0.22934066057E+03  0.82937283093E+03  0.86656086382E+03  0.00000000000E+00 0.  1.
         22    1    1    2    0    0 -0.40023920554E+03  0.59910580259E+03  0.25930008336E+03  0.76573867447E+03  0.00000000000E+00 0.  1.
<mgrwt>
<rscale>  0 0.19307193E+04</rscale>
<asrwt>0</asrwt>
<pdfrwt beam="1">  1        1 0.46993906E+00 0.19307193E+04</pdfrwt>
<pdfrwt beam="2">  1       -1 0.46936426E-01 0.19307193E+04</pdfrwt>
<totfact> 0.23076480E+00</totfact>
</mgrwt>
</event>
<event>
 6    1  0.9512547E-007  0.2681429E+04  0.7818608E-02  0.8341056E-01
          3   -1    0    0  501    0  0.00000000000E+00  0.00000000000E+00  0.16039553261E+04  0.16039553261E+04  0.00000000000E+00 0. -1.
         -3   -1    0    0    0  501 -0.00000000000E+00 -0.00000000000E+00 -0.11206769640E+04  0.11206769640E+04  0.00000000000E+00 0.  1.
         23    2    1    2    0    0 -0.47476331306E+03  0.11818451347E+04  0.66229627696E+03  0.14384730699E+04  0.91707625004E+02 0.  0.
         11    1    3    3    0    0 -0.26180206783E+03  0.68419991487E+03  0.33141801821E+03  0.80405705583E+03  0.00000000000E+00 0.  1.
        -11    1    3    3    0    0 -0.21296124522E+03  0.49764521985E+03  0.33087825875E+03  0.63441601408E+03  0.00000000000E+00 0. -1.
         22    1    1    2    0    0  0.47476331306E+03 -0.11818451347E+04 -0.17901791488E+03  0.12861592202E+04  0.00000000000E+00 0.  1.
<mgrwt>
<rscale>  0 0.26814293E+04</rscale>
<asrwt>0</asrwt>
<pdfrwt beam="1">  1        3 0.24676236E+00 0.26814293E+04</pdfrwt>
<pdfrwt beam="2">  1       -3 0.17241184E+00 0.26814293E+04</pdfrwt>
<totfact> 0.39230678E-02</totfact>
</mgrwt>
</event>
<event>
 6    1  0.9512547E-007  0.2164950E+04  0.7818608E-02  0.8533160E-01
          1   -1    0    0  501    0  0.00000000000E+00  0.00000000000E+00  0.10191713175E+04  0.10191713175E+04  0.00000000000E+00 0. -1.
         -1   -1    0    0    0  501 -0.00000000000E+00 -0.00000000000E+00 -0.11497110209E+04  0.11497110209E+04  0.00000000000E+00 0.  1.
         23    2    1    2    0    0  0.20270480698E+03  0.28249395527E+03 -0.10900901301E+04  0.11482800187E+04  0.96739009751E+02 0.  0.
         11    1    3    3    0    0  0.16828947711E+03  0.17549912683E+03 -0.83146872207E+03  0.86629182578E+03  0.00000000000E+00 0.  1.
        -11    1    3    3    0    0  0.34415329869E+02  0.10699482845E+03 -0.25862140805E+03  0.28198819292E+03  0.00000000000E+00 0. -1.
         22    1    1    2    0    0 -0.20270480698E+03 -0.28249395527E+03  0.95955042674E+03  0.10206023197E+04  0.00000000000E+00 0. -1.
<mgrwt>
<rscale>  0 0.21649503E+04</rscale>
<asrwt>0</asrwt>
<pdfrwt beam="1">  1        1 0.15679559E+00 0.21649503E+04</pdfrwt>
<pdfrwt beam="2">  1       -1 0.17687862E+00 0.21649503E+04</pdfrwt>
<totfact> 0.29304790E+00</totfact>
</mgrwt>
</event>
<event>
 6    1  0.9512547E-007  0.3096386E+04  0.7818608E-02  0.8216730E-01
         -2   -1    0    0    0  501 -0.00000000000E+00  0.00000000000E+00  0.10857379106E+04  0.10857379106E+04  0.00000000000E+00 0.  1.
          2   -1    0    0  501    0  0.00000000000E+00 -0.00000000000E+00 -0.22076246616E+04  0.22076246616E+04  0.00000000000E+00 0. -1.
         23    2    1    2    0    0 -0.52894624312E+03  0.30029911159E+02 -0.21071073007E+04  0.21747270393E+04  0.94077599951E+02 0.  0.
         13    1    3    3    0    0 -0.24857088861E+02 -0.10627098049E+02 -0.19526815634E+03  0.19713057338E+03  0.00000000000E+00 0. -1.
        -13    1    3    3    0    0 -0.50408915426E+03  0.40657009209E+02 -0.19118391444E+04  0.19775964659E+04  0.00000000000E+00 0.  1.
         22    1    1    2    0    0  0.52894624312E+03 -0.30029911159E+02  0.98522054979E+03  0.11186355329E+04  0.00000000000E+00 0.  1.
<mgrwt>
<rscale>  0 0.30963861E+04</rscale>
<asrwt>0</asrwt>
<pdfrwt beam="1">  1        2 0.33963456E+00 0.30963861E+04</pdfrwt>
<pdfrwt beam="2">  1       -2 0.16703660E+00 0.30963861E+04</pdfrwt>
<totfact> 0.97181664E-01</totfact>
</mgrwt>
</event>
<event>
 6    1  0.9512547E-007  0.2678680E+04  0.7818608E-02  0.8341956E-01
          1   -1    0    0  501    0  0.00000000000E+00  0.00000000000E+00  0.80293194680E+03  0.80293194680E+03  0.00000000000E+00 0. -1.
         -1   -1    0    0    0  501 -0.00000000000E+00 -0.00000000000E+00 -0.22341014821E+04  0.22341014821E+04  0.00000000000E+00 0.  1.
         23    2    1    2    0    0 -0.66388852335E+03  0.11609790986E+04 -0.75946036892E+03  0.15404327330E+04  0.86790056728E+02 0.  0.
         13    1    3    3    0    0 -0.18772464560E+03  0.39845893823E+03 -0.22554543919E+03  0.49485433530E+03  0.00000000000E+00 0. -1.
        -13    1    3    3    0    0 -0.47616387775E+03  0.76252016040E+03 -0.53391492973E+03  0.10455783977E+04  0.00000000000E+00 0.  1.
         22    1    1    2    0    0  0.66388852335E+03 -0.11609790986E+04 -0.67170916640E+03  0.14966006960E+04  0.00000000000E+00 0. -1.
<mgrwt>
<rscale>  0 0.26786799E+04</rscale>
<asrwt>0</asrwt>
<pdfrwt beam="1">  1        1 0.12352799E+00 0.26786799E+04</pdfrwt>
<pdfrwt beam="2">  1       -1 0.34370792E+00 0.26786799E+04</pdfrwt>
<totfact> 0.32881775E-01</totfact>
</mgrwt>
</event>
<event>
 6    1  0.9512547E-007  0.6225853E+03  0.7818608E-02  0.9859626E-01
         -1   -1    0    0    0  501 -0.00000000000E+00  0.00000000000E+00  0.31496976518E+03  0.31496976518E+03  0.00000000000E+00 0.  1.
          1   -1    0    0  501    0  0.00000000000E+00 -0.00000000000E+00 -0.30765842836E+03  0.30765842836E+03  0.00000000000E+00 0. -1.
         23    2    1    2    0    0 -0.55591189002E+02  0.14374674197E+03  0.26629646479E+03  0.32125333952E+03  0.92392612648E+02 0.  0.
         11    1    3    3    0    0 -0.24409454158E+02  0.18312926144E+02  0.12952703996E+03  0.13307305812E+03  0.00000000000E+00 0.  1.
        -11    1    3    3    0    0 -0.31181734843E+02  0.12543381582E+03  0.13676942483E+03  0.18818028140E+03  0.00000000000E+00 0. -1.
         22    1    1    2    0    0  0.55591189002E+02 -0.14374674197E+03 -0.25898512797E+03  0.30137485401E+03  0.00000000000E+00 0. -1.
<mgrwt>
<rscale>  0 0.62258526E+03</rscale>
<asrwt>0</asrwt>
<pdfrwt beam="1">  1        1 0.47332066E-01 0.62258526E+03</pdfrwt>
<pdfrwt beam="2">  1       -1 0.48456887E-01 0.62258526E+03</pdfrwt>
<totfact> 0.36622722E+02</totfact>
</mgrwt>
</event>
<event>
 6    1  0.9512547E-007  0.4276618E+04  0.7818608E-02  0.7950956E-01
         -2   -1    0    0    0  501 -0.00000000000E+00  0.00000000000E+00  0.21780222498E+04  0.21780222498E+04  0.00000000000E+00 0.  1.
          2   -1    0    0  501    0  0.00000000000E+00 -0.00000000000E+00 -0.20993203451E+04  0.20993203451E+04  0.00000000000E+00 0. -1.
         23    2    1    2    0    0 -0.81538287156E+03 -0.16162989336E+04  0.11757327422E+04  0.21605648248E+04  0.91768245920E+02 0.  0.
         11    1    3    3    0    0 -0.21244180817E+03 -0.38088825425E+03  0.32528583154E+03  0.54407559795E+03  0.00000000000E+00 0.  1.
        -11    1    3    3    0    0 -0.60294106339E+03 -0.12354106793E+04  0.85044691068E+03  0.16164892268E+04  0.00000000000E+00 0. -1.
         22    1    1    2    0    0  0.81538287156E+03  0.16162989336E+04 -0.10970308374E+04  0.21167777701E+04  0.00000000000E+00 0. -1.
<mgrwt>
<rscale>  0 0.42766185E+04</rscale>
<asrwt>0</asrwt>
<pdfrwt beam="1">  1        2 0.32297236E+00 0.42766185E+04</pdfrwt>
<pdfrwt beam="2">  1       -2 0.33508034E+00 0.42766185E+04</pdfrwt>
<totfact> 0.87561018E-02</totfact>
</mgrwt>
</event>
<event>
 6    1  0.9512547E-007  0.2195507E+04  0.7818608E-02  0.8520301E-01
         -1   -1    0    0    0  501 -0.00000000000E+00  0.00000000000E+00  0.10365994451E+04  0.10365994451E+04  0.00000000000E+00 0.  1.
          1   -1    0    0  501    0  0.00000000000E+00 -0.00000000000E+00 -0.11625150356E+04  0.11625150356E+04  0.00000000000E+00 0. -1.
         23    2    1    2    0    0 -0.63085968438E+03  0.37443946073E+03  0.75240681259E+03  0.10547198394E+04  0.90161393178E+02 0.  0.
         11    1    3    3    0    0 -0.56455514941E+03  0.31956670702E+03  0.62389265309E+03  0.90004857622E+03  0.00000000000E+00 0. -1.
        -11    1    3    3    0    0 -0.66304534963E+02  0.54872753702E+02  0.12851415950E+03  0.15467126316E+03  0.00000000000E+00 0.  1.
         22    1    1    2    0    0  0.63085968438E+03 -0.37443946073E+03 -0.87832240311E+03  0.11443946413E+04  0.00000000000E+00 0. -1.
<mgrwt>
<rscale>  0 0.21955067E+04</rscale>
<asrwt>0</asrwt>
<pdfrwt beam="1">  1        1 0.17884847E+00 0.21955067E+04</pdfrwt>
<pdfrwt beam="2">  1       -1 0.15947684E+00 0.21955067E+04</pdfrwt>
<totfact> 0.30631402E+00</totfact>
</mgrwt>
</event>
<event>
 6    1  0.9512547E-007  0.1227221E+04  0.7818608E-02  0.9089358E-01
         -1   -1    0    0    0  501 -0.00000000000E+00  0.00000000000E+00  0.79991921850E+03  0.79991921850E+03  0.00000000000E+00 0.  1.
          1   -1    0    0  501    0  0.00000000000E+00 -0.00000000000E+00 -0.47069496934E+03  0.47069496934E+03  0.00000000000E+00 0. -1.
         23    2    1    2    0    0 -0.38797425949E+03 -0.26653647742E+03 -0.23658987393E+03  0.53460376555E+03  0.90888381401E+02 0.  0.
         13    1    3    3    0    0 -0.13362406090E+03 -0.67952570076E+02 -0.11811549584E+03  0.19085128187E+03  0.00000000000E+00 0.  1.
        -13    1    3    3    0    0 -0.25435019858E+03 -0.19858390734E+03 -0.11847437809E+03  0.34375248369E+03  0.00000000000E+00 0. -1.
         22    1    1    2    0    0  0.38797425949E+03  0.26653647742E+03  0.56581412310E+03  0.73601042229E+03  0.00000000000E+00 0.  1.
<mgrwt>
<rscale>  0 0.12272212E+04</rscale>
<asrwt>0</asrwt>
<pdfrwt beam="1">  1        1 0.72414611E-01 0.12272212E+04</pdfrwt>
<pdfrwt beam="2">  1       -1 0.12306449E+00 0.12272212E+04</pdfrwt>
<totfact> 0.27686424E+01</totfact>
</mgrwt>
</event>
<event>
 6    1  0.9512547E-007  0.1542654E+04  0.7818608E-02  0.8856573E-01
          1   -1    0    0  501    0  0.00000000000E+00  0.00000000000E+00  0.40094563570E+03  0.40094563570E+03  0.00000000000E+00 0. -1.
         -1   -1    0    0    0  501 -0.00000000000E+00 -0.00000000000E+00 -0.14838559101E+04  0.14838559101E+04  0.00000000000E+00 0.  1.
         23    2    1    2    0    0 -0.20745445932E+03 -0.24990958493E+03 -0.13944889709E+04  0.14347199560E+04  0.91267237365E+02 0.  0.
         11    1    3    3    0    0 -0.24871746361E+02 -0.14299839862E+02 -0.26548377747E+03  0.26702944648E+03  0.00000000000E+00 0. -1.
        -11    1    3    3    0    0 -0.18258271296E+03 -0.23560974507E+03 -0.11290051935E+04  0.11676905095E+04  0.00000000000E+00 0.  1.
         22    1    1    2    0    0  0.20745445932E+03  0.24990958493E+03  0.31157869657E+03  0.45008158981E+03  0.00000000000E+00 0. -1.
<mgrwt>
<rscale>  0 0.15426543E+04</rscale>
<asrwt>0</asrwt>
<pdfrwt beam="1">  1        1 0.61683944E-01 0.15426543E+04</pdfrwt>
<pdfrwt beam="2">  1       -1 0.22828552E+00 0.15426543E+04</pdfrwt>
<totfact> 0.55872433E+00</totfact>
</mgrwt>
</event>
<event>
 6    1  0.9512547E-007  0.2882026E+04  0.7818608E-02  0.8278246E-01
          1   -1    0    0  501    0  0.00000000000E+00  0.00000000000E+00  0.10413499589E+04  0.10413499589E+04  0.00000000000E+00 0. -1.
         -1   -1    0    0    0  501 -0.00000000000E+00 -0.00000000000E+00 -0.19940635080E+04  0.19940635080E+04  0.00000000000E+00 0.  1.
         23    2    1    2    0    0 -0.10197245190E+04 -0.41258999016E+03  0.50137490815E+03  0.12121082713E+04  0.88096925376E+02 0.  0.
         11    1    3    3    0    0 -0.72091408165E+03 -0.26063603042E+03  0.31717867330E+03  0.82960868141E+03  0.00000000000E+00 0. -1.
        -11    1    3    3    0    0 -0.29881043732E+03 -0.15195395974E+03  0.18419623485E+03  0.38249958989E+03  0.00000000000E+00 0.  1.
         22    1    1    2    0    0  0.10197245190E+04  0.41258999016E+03 -0.14540884573E+04  0.18233051955E+04  0.00000000000E+00 0.  1.
<mgrwt>
<rscale>  0 0.28820256E+04</rscale>
<asrwt>0</asrwt>
<pdfrwt beam="1">  1        1 0.16020769E+00 0.28820256E+04</pdfrwt>
<pdfrwt beam="2">  1       -1 0.30677900E+00 0.28820256E+04</pdfrwt>
<totfact> 0.36047831E-01</totfact>
</mgrwt>
</event>
<event>
 6    1  0.9512547E-007  0.5314750E+03  0.7818608E-02  0.1005875E+00
         -2   -1    0    0    0  501 -0.00000000000E+00  0.00000000000E+00  0.45684514527E+02  0.45684514527E+02  0.00000000000E+00 0.  1.
          2   -1    0    0  501    0  0.00000000000E+00 -0.00000000000E+00 -0.15457408954E+04  0.15457408954E+04  0.00000000000E+00 0. -1.
         23    2    1    2    0    0 -0.16463230440E+02  0.23393746464E+03 -0.10925575650E+04  0.11212626081E+04  0.92466361879E+02 0.  0.
         11    1    3    3    0    0  0.16125133729E+02  0.14650417214E+03 -0.49544724339E+03  0.51690566197E+03  0.00000000000E+00 0. -1.
        -11    1    3    3    0    0 -0.32588364168E+02  0.87433292499E+02 -0.59711032164E+03  0.60435694612E+03  0.00000000000E+00 0.  1.
         22    1    1    2    0    0  0.16463230440E+02 -0.23393746464E+03 -0.40749881587E+03  0.47016280186E+03  0.00000000000E+00 0. -1.
<mgrwt>
<rscale>  0 0.53147501E+03</rscale>
<asrwt>0</asrwt>
<pdfrwt beam="1">  1        2 0.23780634E+00 0.53147501E+03</pdfrwt>
<pdfrwt beam="2">  1       -2 0.70283855E-02 0.53147501E+03</pdfrwt>
<totfact> 0.14770830E+03</totfact>
</mgrwt>
</event>
<event>
 6    1  0.9512547E-007  0.2628405E+04  0.7818608E-02  0.8358616E-01
         -2   -1    0    0    0  501 -0.00000000000E+00  0.00000000000E+00  0.36289886640E+03  0.36289886640E+03  0.00000000000E+00 0.  1.
          2   -1    0    0  501    0  0.00000000000E+00 -0.00000000000E+00 -0.47592551852E+04  0.47592551852E+04  0.00000000000E+00 0. -1.
         23    2    1    2    0    0  0.95483004653E+03  0.81920023754E+03 -0.14711721534E+04  0.19378971762E+04  0.91151048648E+02 0.  0.
         11    1    3    3    0    0  0.65491572183E+03  0.53433698820E+03 -0.92936659049E+03  0.12562455489E+04  0.00000000000E+00 0. -1.
        -11    1    3    3    0    0  0.29991432470E+03  0.28486324934E+03 -0.54180556291E+03  0.68165162729E+03  0.00000000000E+00 0.  1.
         22    1    1    2    0    0 -0.95483004653E+03 -0.81920023754E+03 -0.29251841654E+04  0.31842568754E+04  0.00000000000E+00 0. -1.
<mgrwt>
<rscale>  0 0.26284051E+04</rscale>
<asrwt>0</asrwt>
<pdfrwt beam="1">  1        2 0.73219309E+00 0.26284051E+04</pdfrwt>
<pdfrwt beam="2">  1       -2 0.55830596E-01 0.26284051E+04</pdfrwt>
<totfact> 0.17672170E-01</totfact>
</mgrwt>
</event>
<event>
 6    1  0.9512547E-007  0.2147680E+04  0.7818608E-02  0.8540526E-01
          2   -1    0    0  501    0  0.00000000000E+00  0.00000000000E+00  0.21364768450E+04  0.21364768450E+04  0.00000000000E+00 0. -1.
         -2   -1    0    0    0  501 -0.00000000000E+00 -0.00000000000E+00 -0.53973523934E+03  0.53973523934E+03  0.00000000000E+00 0.  1.
         23    2    1    2    0    0 -0.73900385504E+03 -0.64780711883E+03  0.13331620035E+04  0.16587372848E+04  0.91146538006E+02 0.  0.
         11    1    3    3    0    0 -0.65937782316E+03 -0.53715656659E+03  0.11386421696E+04  0.14212045177E+04  0.00000000000E+00 0.  1.
        -11    1    3    3    0    0 -0.79626031879E+02 -0.11065055224E+03  0.19451983395E+03  0.23753276714E+03  0.00000000000E+00 0. -1.
         22    1    1    2    0    0  0.73900385504E+03  0.64780711883E+03  0.26357960211E+03  0.10174747995E+04  0.00000000000E+00 0.  1.
<mgrwt>
<rscale>  0 0.21476795E+04</rscale>
<asrwt>0</asrwt>
<pdfrwt beam="1">  1        2 0.32868874E+00 0.21476795E+04</pdfrwt>
<pdfrwt beam="2">  1       -2 0.83036191E-01 0.21476795E+04</pdfrwt>
<totfact> 0.65383589E+00</totfact>
</mgrwt>
</event>
<event>
 6    1  0.9512547E-007  0.2044771E+04  0.7818608E-02  0.8585970E-01
         -1   -1    0    0    0  501 -0.00000000000E+00  0.00000000000E+00  0.43418106559E+03  0.43418106559E+03  0.00000000000E+00 0.  1.
          1   -1    0    0  501    0  0.00000000000E+00 -0.00000000000E+00 -0.24074576503E+04  0.24074576503E+04  0.00000000000E+00 0. -1.
         23    2    1    2    0    0  0.88233957506E+03 -0.29704290796E+03 -0.40823602714E+03  0.10206198907E+04  0.90833322829E+02 0.  0.
         13    1    3    3    0    0  0.45481202994E+03 -0.12108819042E+03 -0.24279158230E+03  0.52958859965E+03  0.00000000000E+00 0. -1.
        -13    1    3    3    0    0  0.42752754512E+03 -0.17595471754E+03 -0.16544444484E+03  0.49103129105E+03  0.00000000000E+00 0.  1.
         22    1    1    2    0    0 -0.88233957506E+03  0.29704290796E+03 -0.15650405575E+04  0.18210188252E+04  0.00000000000E+00 0. -1.
<mgrwt>
<rscale>  0 0.20447714E+04</rscale>
<asrwt>0</asrwt>
<pdfrwt beam="1">  1        1 0.37037809E+00 0.20447714E+04</pdfrwt>
<pdfrwt beam="2">  1       -1 0.66797089E-01 0.20447714E+04</pdfrwt>
<totfact> 0.32950184E+00</totfact>
</mgrwt>
</event>
<event>
 6    1  0.9512547E-007  0.2499329E+04  0.7818608E-02  0.8403224E-01
          2   -1    0    0  501    0  0.00000000000E+00  0.00000000000E+00  0.22295780484E+04  0.22295780484E+04  0.00000000000E+00 0. -1.
         -2   -1    0    0    0  501 -0.00000000000E+00 -0.00000000000E+00 -0.70042933133E+03  0.70042933133E+03  0.00000000000E+00 0.  1.
         23    2    1    2    0    0 -0.17892796622E+03  0.11176795881E+04  0.13817818421E+04  0.17885434624E+04  0.91344287483E+02 0.  0.
         13    1    3    3    0    0 -0.83717063542E+02  0.37219072981E+03  0.40955522512E+03  0.55970525145E+03  0.00000000000E+00 0. -1.
        -13    1    3    3    0    0 -0.95210902681E+02  0.74548885830E+03  0.97222661697E+03  0.12288382109E+04  0.00000000000E+00 0.  1.
         22    1    1    2    0    0  0.17892796622E+03 -0.11176795881E+04  0.14736687496E+03  0.11414639173E+04  0.00000000000E+00 0.  1.
<mgrwt>
<rscale>  0 0.24993294E+04</rscale>
<asrwt>0</asrwt>
<pdfrwt beam="1">  1        2 0.34301200E+00 0.24993294E+04</pdfrwt>
<pdfrwt beam="2">  1       -2 0.10775836E+00 0.24993294E+04</pdfrwt>
<totfact> 0.30604322E+00</totfact>
</mgrwt>
</event>
<event>
 6    1  0.9512547E-007  0.2288618E+04  0.7818608E-02  0.8482422E-01
         -2   -1    0    0    0  501 -0.00000000000E+00  0.00000000000E+00  0.44669805208E+03  0.44669805208E+03  0.00000000000E+00 0.  1.
          2   -1    0    0  501    0  0.00000000000E+00 -0.00000000000E+00 -0.29313826395E+04  0.29313826395E+04  0.00000000000E+00 0. -1.
         23    2    1    2    0    0  0.50362297634E+03 -0.67928338694E+03 -0.23782989445E+04  0.25258014374E+04  0.91131825824E+02 0.  0.
         13    1    3    3    0    0  0.19354532105E+03 -0.20386826590E+03 -0.86682713977E+03  0.91126908835E+03  0.00000000000E+00 0.  1.
        -13    1    3    3    0    0  0.31007765529E+03 -0.47541512104E+03 -0.15114718047E+04  0.16145323490E+04  0.00000000000E+00 0. -1.
         22    1    1    2    0    0 -0.50362297634E+03  0.67928338694E+03 -0.10638564290E+03  0.85227925417E+03  0.00000000000E+00 0.  1.
<mgrwt>
<rscale>  0 0.22886178E+04</rscale>
<asrwt>0</asrwt>
<pdfrwt beam="1">  1        2 0.45098195E+00 0.22886178E+04</pdfrwt>
<pdfrwt beam="2">  1       -2 0.68722776E-01 0.22886178E+04</pdfrwt>
<totfact> 0.33763029E+00</totfact>
</mgrwt>
</event>
<event>
 6    1  0.9512547E-007  0.6960230E+03  0.7818608E-02  0.9724058E-01
         -1   -1    0    0    0  501 -0.00000000000E+00  0.00000000000E+00  0.62689671150E+02  0.62689671150E+02  0.00000000000E+00 0.  1.
          1   -1    0    0  501    0  0.00000000000E+00 -0.00000000000E+00 -0.19319293966E+04  0.19319293966E+04  0.00000000000E+00 0. -1.
         23    2    1    2    0    0 -0.16644340519E+03  0.26707847253E+03 -0.13352957705E+04  0.13748364731E+04  0.90145523447E+02 0.  0.
         13    1    3    3    0    0 -0.75168479516E+02  0.79970817920E+02 -0.62879671647E+03  0.63830317458E+03  0.00000000000E+00 0.  1.
        -13    1    3    3    0    0 -0.91274925670E+02  0.18710765460E+03 -0.70649905402E+03  0.73653329850E+03  0.00000000000E+00 0. -1.
         22    1    1    2    0    0  0.16644340519E+03 -0.26707847253E+03 -0.53394395493E+03  0.61978259465E+03  0.00000000000E+00 0.  1.
<mgrwt>
<rscale>  0 0.69602304E+03</rscale>
<asrwt>0</asrwt>
<pdfrwt beam="1">  1        1 0.29721987E+00 0.69602304E+03</pdfrwt>
<pdfrwt beam="2">  1       -1 0.96445660E-02 0.69602304E+03</pdfrwt>
<totfact> 0.22859670E+02</totfact>
</mgrwt>
</event>
<event>
 6    1  0.9512547E-007  0.1101920E+04  0.7818608E-02  0.9203323E-01
          2   -1    0    0  501    0  0.00000000000E+00  0.00000000000E+00  0.83273917554E+03  0.83273917554E+03  0.00000000000E+00 0. -1.
         -2   -1    0    0    0  501 -0.00000000000E+00 -0.00000000000E+00 -0.36452788338E+03  0.36452788338E+03  0.00000000000E+00 0.  1.
         23    2    1    2    0    0 -0.47295266342E+03  0.17339656640E+03  0.39174594274E+01  0.51219819071E+03  0.92633951714E+02 0.  0.
         13    1    3    3    0    0 -0.19589580776E+03  0.12070648286E+03 -0.22142468373E+01  0.23010894244E+03  0.00000000000E+00 0.  1.
        -13    1    3    3    0    0 -0.27705685566E+03  0.52690083543E+02  0.61317062647E+01  0.28208924827E+03  0.00000000000E+00 0. -1.
         22    1    1    2    0    0  0.47295266342E+03 -0.17339656640E+03  0.46429383274E+03  0.68506886821E+03  0.00000000000E+00 0.  1.
<mgrwt>
<rscale>  0 0.11019195E+04</rscale>
<asrwt>0</asrwt>
<pdfrwt beam="1">  1        2 0.12811372E+00 0.11019195E+04</pdfrwt>
<pdfrwt beam="2">  1       -2 0.56081213E-01 0.11019195E+04</pdfrwt>
<totfact> 0.96746291E+01</totfact>
</mgrwt>
</event>
<event>
 6    1  0.9512547E-007  0.2769270E+04  0.7818608E-02  0.8312873E-01
         -2   -1    0    0    0  501 -0.00000000000E+00  0.00000000000E+00  0.28756155316E+04  0.28756155316E+04  0.00000000000E+00 0.  1.
          2   -1    0    0  501    0  0.00000000000E+00 -0.00000000000E+00 -0.66671447032E+03  0.66671447032E+03  0.00000000000E+00 0. -1.
         23    2    1    2    0    0 -0.74268517317E+03 -0.10098274045E+04  0.35811323631E+03  0.13069892614E+04  0.92968737165E+02 0.  0.
         11    1    3    3    0    0 -0.35720899104E+03 -0.52569798120E+03  0.22300973313E+03  0.67356512068E+03  0.00000000000E+00 0. -1.
        -11    1    3    3    0    0 -0.38547618212E+03 -0.48412942326E+03  0.13510350319E+03  0.63342414070E+03  0.00000000000E+00 0.  1.
         22    1    1    2    0    0  0.74268517317E+03  0.10098274045E+04  0.18507878249E+04  0.22353407405E+04  0.00000000000E+00 0.  1.
<mgrwt>
<rscale>  0 0.27692703E+04</rscale>
<asrwt>0</asrwt>
<pdfrwt beam="1">  1        2 0.10257146E+00 0.27692703E+04</pdfrwt>
<pdfrwt beam="2">  1       -2 0.44240238E+00 0.27692703E+04</pdfrwt>
<totfact> 0.14791928E-01</totfact>
</mgrwt>
</event>
<event>
 6    1  0.9512547E-007  0.1098753E+04  0.7818608E-02  0.9206408E-01
          1   -1    0    0  501    0  0.00000000000E+00  0.00000000000E+00  0.21191392566E+03  0.21191392566E+03  0.00000000000E+00 0. -1.
         -1   -1    0    0    0  501 -0.00000000000E+00 -0.00000000000E+00 -0.14242311170E+04  0.14242311170E+04  0.00000000000E+00 0.  1.
         23    2    1    2    0    0 -0.25393204604E+03  0.23351620701E+03 -0.12397715467E+04  0.12900741763E+04  0.90810733718E+02 0.  0.
         11    1    3    3    0    0 -0.22038042866E+03  0.16382441147E+03 -0.87033701649E+03  0.91262943926E+03  0.00000000000E+00 0. -1.
        -11    1    3    3    0    0 -0.33551617380E+02  0.69691795540E+02 -0.36943453019E+03  0.37744473701E+03  0.00000000000E+00 0.  1.
         22    1    1    2    0    0  0.25393204604E+03 -0.23351620701E+03  0.27454355352E+02  0.34607086640E+03  0.00000000000E+00 0. -1.
<mgrwt>
<rscale>  0 0.10987528E+04</rscale>
<asrwt>0</asrwt>
<pdfrwt beam="1">  1        1 0.32602142E-01 0.10987528E+04</pdfrwt>
<pdfrwt beam="2">  1       -1 0.21911248E+00 0.10987528E+04</pdfrwt>
<totfact> 0.15365462E+01</totfact>
</mgrwt>
</event>
<event>
 6    1  0.9512547E-007  0.1013461E+04  0.7818608E-02  0.9293903E-01
          2   -1    0    0  501    0  0.00000000000E+00  0.00000000000E+00  0.13209451242E+04  0.13209451242E+04  0.00000000000E+00 0. -1.
         -2   -1    0    0    0  501 -0.00000000000E+00 -0.00000000000E+00 -0.19438810165E+03  0.19438810165E+03  0.00000000000E+00 0.  1.
         23    2    1    2    0    0  0.37415440295E+03  0.33536662161E+03  0.57757056764E+03  0.77112329860E+03  0.92634188634E+02 0.  0.
         11    1    3    3    0    0  0.11045495995E+03  0.49808599866E+02  0.11667255232E+03  0.16820725093E+03  0.00000000000E+00 0.  1.
        -11    1    3    3    0    0  0.26369944300E+03  0.28555802174E+03  0.46089801532E+03  0.60291604768E+03  0.00000000000E+00 0. -1.
         22    1    1    2    0    0 -0.37415440295E+03 -0.33536662161E+03  0.54898645489E+03  0.74420992723E+03  0.00000000000E+00 0. -1.
<mgrwt>
<rscale>  0 0.10134614E+04</rscale>
<asrwt>0</asrwt>
<pdfrwt beam="1">  1        2 0.20322232E+00 0.10134614E+04</pdfrwt>
<pdfrwt beam="2">  1       -2 0.29905863E-01 0.10134614E+04</pdfrwt>
<totfact> 0.16519244E+02</totfact>
</mgrwt>
</event>
<event>
 6    1  0.9512547E-007  0.2299056E+04  0.7818608E-02  0.8478293E-01
          2   -1    0    0  501    0  0.00000000000E+00  0.00000000000E+00  0.25406077967E+04  0.25406077967E+04  0.00000000000E+00 0. -1.
         -2   -1    0    0    0  501 -0.00000000000E+00 -0.00000000000E+00 -0.52011745306E+03  0.52011745306E+03  0.00000000000E+00 0.  1.
         23    2    1    2    0    0  0.71519699145E+03  0.88120117389E+03  0.12396112339E+04  0.16831206514E+04  0.90757206087E+02 0.  0.
         11    1    3    3    0    0  0.34995410462E+03  0.38956707775E+03  0.51707539500E+03  0.73593297760E+03  0.00000000000E+00 0. -1.
        -11    1    3    3    0    0  0.36524288682E+03  0.49163409614E+03  0.72253583892E+03  0.94718767379E+03  0.00000000000E+00 0.  1.
         22    1    1    2    0    0 -0.71519699145E+03 -0.88120117389E+03  0.78087910971E+03  0.13776045984E+04  0.00000000000E+00 0.  1.
<mgrwt>
<rscale>  0 0.22990559E+04</rscale>
<asrwt>0</asrwt>
<pdfrwt beam="1">  1        2 0.39086273E+00 0.22990559E+04</pdfrwt>
<pdfrwt beam="2">  1       -2 0.80018072E-01 0.22990559E+04</pdfrwt>
<totfact> 0.41299272E+00</totfact>
</mgrwt>
</event>
<event>
 6    1  0.9512547E-007  0.3858392E+04  0.7818608E-02  0.8033739E-01
          1   -1    0    0  501    0  0.00000000000E+00  0.00000000000E+00  0.22306572574E+04  0.22306572574E+04  0.00000000000E+00 0. -1.
         -1   -1    0    0    0  501 -0.00000000000E+00 -0.00000000000E+00 -0.16684752172E+04  0.16684752172E+04  0.00000000000E+00 0.  1.
         23    2    1    2    0    0  0.17333386922E+04 -0.74947612258E+03  0.67288724350E+03  0.20074577874E+04  0.10455642347E+03 0.  0.
         13    1    3    3    0    0  0.65259309836E+03 -0.22789054359E+03  0.23827885393E+03  0.73115570442E+03  0.00000000000E+00 0. -1.
        -13    1    3    3    0    0  0.10807455938E+04 -0.52158557900E+03  0.43460838957E+03  0.12763020830E+04  0.00000000000E+00 0.  1.
         22    1    1    2    0    0 -0.17333386922E+04  0.74947612258E+03 -0.11070520323E+03  0.18916746872E+04  0.00000000000E+00 0.  1.
<mgrwt>
<rscale>  0 0.38583916E+04</rscale>
<asrwt>0</asrwt>
<pdfrwt beam="1">  1        1 0.34317804E+00 0.38583916E+04</pdfrwt>
<pdfrwt beam="2">  1       -1 0.25668849E+00 0.38583916E+04</pdfrwt>
<totfact> 0.10365690E-01</totfact>
</mgrwt>
</event>
<event>
 6    1  0.9512547E-007  0.1571429E+04  0.7818608E-02  0.8838295E-01
         -2   -1    0    0    0  501 -0.00000000000E+00  0.00000000000E+00  0.15632846172E+04  0.15632846172E+04  0.00000000000E+00 0.  1.
          2   -1    0    0  501    0  0.00000000000E+00 -0.00000000000E+00 -0.39490370587E+03  0.39490370587E+03  0.00000000000E+00 0. -1.
         23    2    1    2    0    0  0.13778374575E+03 -0.28243789787E+03 -0.30746992302E+03  0.44925120974E+03  0.92376236929E+02 0.  0.
         13    1    3    3    0    0  0.96383646613E+02 -0.13311931924E+03 -0.20810865959E+03  0.26517875987E+03  0.00000000000E+00 0. -1.
        -13    1    3    3    0    0  0.41400099136E+02 -0.14931857863E+03 -0.99361263426E+02  0.18407244987E+03  0.00000000000E+00 0.  1.
         22    1    1    2    0    0 -0.13778374575E+03  0.28243789787E+03  0.14758508343E+04  0.15089371133E+04  0.00000000000E+00 0.  1.
<mgrwt>
<rscale>  0 0.15714285E+04</rscale>
<asrwt>0</asrwt>
<pdfrwt beam="1">  1        2 0.60754417E-01 0.15714285E+04</pdfrwt>
<pdfrwt beam="2">  1       -2 0.24050532E+00 0.15714285E+04</pdfrwt>
<totfact> 0.57020369E+00</totfact>
</mgrwt>
</event>
<event>
 6    1  0.9512547E-007  0.2610314E+04  0.7818608E-02  0.8364706E-01
         -1   -1    0    0    0  501 -0.00000000000E+00  0.00000000000E+00  0.17960683828E+04  0.17960683828E+04  0.00000000000E+00 0.  1.
          1   -1    0    0  501    0  0.00000000000E+00 -0.00000000000E+00 -0.94842430449E+03  0.94842430449E+03  0.00000000000E+00 0. -1.
         23    2    1    2    0    0 -0.62513557319E+03  0.94242877884E+03  0.11069835346E+04  0.15842239936E+04  0.73393649413E+02 0.  0.
         13    1    3    3    0    0 -0.41591623378E+03  0.68091056357E+03  0.80087871735E+03  0.11305008753E+04  0.00000000000E+00 0. -1.
        -13    1    3    3    0    0 -0.20921933940E+03  0.26151821527E+03  0.30610481730E+03  0.45372311830E+03  0.00000000000E+00 0.  1.
         22    1    1    2    0    0  0.62513557319E+03 -0.94242877884E+03 -0.25933945632E+03  0.11602686937E+04  0.00000000000E+00 0.  1.
<mgrwt>
<rscale>  0 0.26103141E+04</rscale>
<asrwt>0</asrwt>
<pdfrwt beam="1">  1        1 0.14591143E+00 0.26103141E+04</pdfrwt>
<pdfrwt beam="2">  1       -1 0.27631821E+00 0.26103141E+04</pdfrwt>
<totfact> 0.68774234E-01</totfact>
</mgrwt>
</event>
<event>
 6    1  0.9512547E-007  0.1711888E+04  0.7818608E-02  0.8754613E-01
          2   -1    0    0  501    0  0.00000000000E+00  0.00000000000E+00  0.25759209924E+04  0.25759209924E+04  0.00000000000E+00 0. -1.
         -2   -1    0    0    0  501 -0.00000000000E+00 -0.00000000000E+00 -0.28441866815E+03  0.28441866815E+03  0.00000000000E+00 0.  1.
         23    2    1    2    0    0  0.30957499452E+03 -0.57612275233E+03  0.20652161613E+04  0.21682706390E+04  0.92334545365E+02 0.  0.
         11    1    3    3    0    0  0.29945068081E+03 -0.49449152276E+03  0.17916074087E+04  0.18825646558E+04  0.00000000000E+00 0. -1.
        -11    1    3    3    0    0  0.10124313711E+02 -0.81631229568E+02  0.27360875255E+03  0.28570598321E+03  0.00000000000E+00 0.  1.
         22    1    1    2    0    0 -0.30957499452E+03  0.57612275233E+03  0.22628616295E+03  0.69206902151E+03  0.00000000000E+00 0.  1.
<mgrwt>
<rscale>  0 0.17118879E+04</rscale>
<asrwt>0</asrwt>
<pdfrwt beam="1">  1        2 0.39629552E+00 0.17118879E+04</pdfrwt>
<pdfrwt beam="2">  1       -2 0.43756720E-01 0.17118879E+04</pdfrwt>
<totfact> 0.14831480E+01</totfact>
</mgrwt>
</event>
<event>
 6    1  0.9512547E-007  0.8772654E+03  0.7818608E-02  0.9454456E-01
          2   -1    0    0  501    0  0.00000000000E+00  0.00000000000E+00  0.21595314072E+03  0.21595314072E+03  0.00000000000E+00 0. -1.
         -2   -1    0    0    0  501 -0.00000000000E+00 -0.00000000000E+00 -0.89092779403E+03  0.89092779403E+03  0.00000000000E+00 0.  1.
         23    2    1    2    0    0  0.17608312878E+03 -0.25179978511E+03  0.45186616859E+02  0.32391180697E+03  0.92025150524E+02 0.  0.
         13    1    3    3    0    0  0.12087211566E+03 -0.21427206716E+03  0.64665748006E+02  0.25437029323E+03  0.00000000000E+00 0.  1.
        -13    1    3    3    0    0  0.55211013112E+02 -0.37527717949E+02 -0.19479131147E+02  0.69541513742E+02  0.00000000000E+00 0. -1.
         22    1    1    2    0    0 -0.17608312878E+03  0.25179978511E+03 -0.72016127016E+03  0.78296912779E+03  0.00000000000E+00 0.  1.
<mgrwt>
<rscale>  0 0.87726542E+03</rscale>
<asrwt>0</asrwt>
<pdfrwt beam="1">  1        2 0.33223560E-01 0.87726542E+03</pdfrwt>
<pdfrwt beam="2">  1       -2 0.13706581E+00 0.87726542E+03</pdfrwt>
<totfact> 0.60417487E+01</totfact>
</mgrwt>
</event>
<event>
 6    1  0.9512547E-007  0.6575995E+04  0.7818608E-02  0.7622817E-01
          1   -1    0    0  501    0  0.00000000000E+00  0.00000000000E+00  0.32834482679E+04  0.32834482679E+04  0.00000000000E+00 0. -1.
         -1   -1    0    0    0  501 -0.00000000000E+00 -0.00000000000E+00 -0.32925532609E+04  0.32925532609E+04  0.00000000000E+00 0.  1.
         23    2    1    2    0    0 -0.95867028088E+03 -0.31356174999E+04 -0.24023293578E+03  0.32889715717E+04  0.92066948072E+02 0.  0.
         13    1    3    3    0    0 -0.78688353341E+03 -0.24440112370E+04 -0.18955880939E+03  0.25745502838E+04  0.00000000000E+00 0. -1.
        -13    1    3    3    0    0 -0.17178674747E+03 -0.69160626287E+03 -0.50674126389E+02  0.71442128785E+03  0.00000000000E+00 0.  1.
         22    1    1    2    0    0  0.95867028088E+03  0.31356174999E+04  0.23112794271E+03  0.32870299571E+04  0.00000000000E+00 0.  1.
<mgrwt>
<rscale>  0 0.65759952E+04</rscale>
<asrwt>0</asrwt>
<pdfrwt beam="1">  1        1 0.50514589E+00 0.65759952E+04</pdfrwt>
<pdfrwt beam="2">  1       -1 0.50654666E+00 0.65759952E+04</pdfrwt>
<totfact> 0.32221359E-04</totfact>
</mgrwt>
</event>
<event>
 6    1  0.9512547E-007  0.2299597E+04  0.7818608E-02  0.8478080E-01
         -2   -1    0    0    0  501 -0.00000000000E+00  0.00000000000E+00  0.87306449446E+03  0.87306449446E+03  0.00000000000E+00 0.  1.
          2   -1    0    0  501    0  0.00000000000E+00 -0.00000000000E+00 -0.15142484209E+04  0.15142484209E+04  0.00000000000E+00 0. -1.
         23    2    1    2    0    0  0.10382125245E+04 -0.15939417204E+03  0.15980852007E+03  0.10663736104E+04  0.91225904971E+02 0.  0.
         13    1    3    3    0    0  0.42045524227E+03 -0.10528059511E+03  0.85848790876E+02  0.44185589207E+03  0.00000000000E+00 0. -1.
        -13    1    3    3    0    0  0.61775728221E+03 -0.54113576932E+02  0.73959729198E+02  0.62451771831E+03  0.00000000000E+00 0.  1.
         22    1    1    2    0    0 -0.10382125245E+04  0.15939417204E+03 -0.80099244651E+03  0.13209393050E+04  0.00000000000E+00 0. -1.
<mgrwt>
<rscale>  0 0.22995969E+04</rscale>
<asrwt>0</asrwt>
<pdfrwt beam="1">  1        2 0.23296130E+00 0.22995969E+04</pdfrwt>
<pdfrwt beam="2">  1       -2 0.13431761E+00 0.22995969E+04</pdfrwt>
<totfact> 0.45159110E+00</totfact>
</mgrwt>
</event>
<event>
 6    1  0.9512547E-007  0.6702177E+03  0.7818608E-02  0.9769565E-01
          1   -1    0    0  501    0  0.00000000000E+00  0.00000000000E+00  0.11553458094E+04  0.11553458094E+04  0.00000000000E+00 0. -1.
         -1   -1    0    0    0  501 -0.00000000000E+00 -0.00000000000E+00 -0.97198556956E+02  0.97198556956E+02  0.00000000000E+00 0.  1.
         23    2    1    2    0    0  0.55430333659E+02  0.25314331662E+03  0.16040924199E+03  0.31815280173E+03  0.91301805517E+02 0.  0.
         11    1    3    3    0    0  0.70904529008E+02  0.11460686557E+03  0.68442778326E+02  0.15115091721E+03  0.00000000000E+00 0.  1.
        -11    1    3    3    0    0 -0.15474195349E+02  0.13853645105E+03  0.91966463666E+02  0.16700188452E+03  0.00000000000E+00 0. -1.
         22    1    1    2    0    0 -0.55430333659E+02 -0.25314331662E+03  0.89773801046E+03  0.93439156463E+03  0.00000000000E+00 0. -1.
<mgrwt>
<rscale>  0 0.67021771E+03</rscale>
<asrwt>0</asrwt>
<pdfrwt beam="1">  1        1 0.17774550E+00 0.67021771E+03</pdfrwt>
<pdfrwt beam="2">  1       -1 0.14953625E-01 0.67021771E+03</pdfrwt>
<totfact> 0.38712813E+02</totfact>
</mgrwt>
</event>
<event>
 6    1  0.9512547E-007  0.3177491E+04  0.7818608E-02  0.8194787E-01
          2   -1    0    0  501    0  0.00000000000E+00  0.00000000000E+00  0.22260035289E+04  0.22260035289E+04  0.00000000000E+00 0. -1.
         -2   -1    0    0    0  501 -0.00000000000E+00 -0.00000000000E+00 -0.11339212830E+04  0.11339212830E+04  0.00000000000E+00 0.  1.
         23    2    1    2    0    0 -0.14537575150E+04  0.38637274033E+03  0.10254304392E+02  0.15070765984E+04  0.92086458188E+02 0.  0.
         11    1    3    3    0    0 -0.22544420361E+03  0.45917572263E+02  0.31875344292E+02  0.23227042420E+03  0.00000000000E+00 0. -1.
        -11    1    3    3    0    0 -0.12283133114E+04  0.34045516807E+03 -0.21621039899E+02  0.12748061742E+04  0.00000000000E+00 0.  1.
         22    1    1    2    0    0  0.14537575150E+04 -0.38637274033E+03  0.10818279416E+04  0.18528482135E+04  0.00000000000E+00 0. -1.
<mgrwt>
<rscale>  0 0.31774913E+04</rscale>
<asrwt>0</asrwt>
<pdfrwt beam="1">  1        2 0.34246208E+00 0.31774913E+04</pdfrwt>
<pdfrwt beam="2">  1       -2 0.17444943E+00 0.31774913E+04</pdfrwt>
<totfact> 0.83492576E-01</totfact>
</mgrwt>
</event>
<event>
 6    1  0.9512547E-007  0.2680948E+04  0.7818608E-02  0.8341213E-01
          1   -1    0    0  501    0  0.00000000000E+00  0.00000000000E+00  0.27682535668E+04  0.27682535668E+04  0.00000000000E+00 0. -1.
         -1   -1    0    0    0  501 -0.00000000000E+00 -0.00000000000E+00 -0.64909903954E+03  0.64909903954E+03  0.00000000000E+00 0.  1.
         23    2    1    2    0    0 -0.29241648635E+03  0.10523505534E+04  0.20480470405E+04  0.23228182928E+04  0.89660765192E+02 0.  0.
         11    1    3    3    0    0 -0.19017020786E+03  0.53952943683E+03  0.11173843033E+04  0.12553104805E+04  0.00000000000E+00 0. -1.
        -11    1    3    3    0    0 -0.10224627849E+03  0.51282111653E+03  0.93066273724E+03  0.10675078124E+04  0.00000000000E+00 0.  1.
         22    1    1    2    0    0  0.29241648635E+03 -0.10523505534E+04  0.71107486710E+02  0.10945343134E+04  0.00000000000E+00 0.  1.
<mgrwt>
<rscale>  0 0.26809481E+04</rscale>
<asrwt>0</asrwt>
<pdfrwt beam="1">  1        1 0.42588516E+00 0.26809481E+04</pdfrwt>
<pdfrwt beam="2">  1       -1 0.99861392E-01 0.26809481E+04</pdfrwt>
<totfact> 0.73381120E-01</totfact>
</mgrwt>
</event>
<event>
 6    1  0.9512547E-007  0.3736072E+04  0.7818608E-02  0.8060015E-01
         -1   -1    0    0    0  501 -0.00000000000E+00  0.00000000000E+00  0.16748231090E+04  0.16748231090E+04  0.00000000000E+00 0.  1.
          1   -1    0    0  501    0  0.00000000000E+00 -0.00000000000E+00 -0.20835379883E+04  0.20835379883E+04  0.00000000000E+00 0. -1.
         23    2    1    2    0    0  0.17438133952E+03 -0.18393512210E+04 -0.47267353049E+03  0.19096554758E+04  0.98701590820E+02 0.  0.
         13    1    3    3    0    0 -0.94769342132E+01 -0.20520980060E+03 -0.64283994808E+02  0.21525172830E+03  0.00000000000E+00 0. -1.
        -13    1    3    3    0    0  0.18385827374E+03 -0.16341414204E+04 -0.40838953569E+03  0.16944037475E+04  0.00000000000E+00 0.  1.
         22    1    1    2    0    0 -0.17438133952E+03  0.18393512210E+04  0.63958651219E+02  0.18487056215E+04  0.00000000000E+00 0.  1.
<mgrwt>
<rscale>  0 0.37360715E+04</rscale>
<asrwt>0</asrwt>
<pdfrwt beam="1">  1        1 0.32054431E+00 0.37360715E+04</pdfrwt>
<pdfrwt beam="2">  1       -1 0.25766509E+00 0.37360715E+04</pdfrwt>
<totfact> 0.12998719E-01</totfact>
</mgrwt>
</event>
<event>
 6    1  0.9512547E-007  0.1926882E+04  0.7818608E-02  0.8641590E-01
         -2   -1    0    0    0  501 -0.00000000000E+00  0.00000000000E+00  0.10024343515E+04  0.10024343515E+04  0.00000000000E+00 0.  1.
          2   -1    0    0  501    0  0.00000000000E+00 -0.00000000000E+00 -0.92596475301E+03  0.92596475301E+03  0.00000000000E+00 0. -1.
         23    2    1    2    0    0  0.47698902628E+03 -0.83405148890E+03  0.68422990947E+02  0.96755303716E+03  0.91196253783E+02 0.  0.
         13    1    3    3    0    0  0.32789467064E+03 -0.58909148362E+03  0.89012471231E+02  0.68004919759E+03  0.00000000000E+00 0. -1.
        -13    1    3    3    0    0  0.14909435565E+03 -0.24496000527E+03 -0.20589480284E+02  0.28750383957E+03  0.00000000000E+00 0.  1.
         22    1    1    2    0    0 -0.47698902628E+03  0.83405148890E+03  0.80466075804E+01  0.96084606739E+03  0.00000000000E+00 0.  1.
<mgrwt>
<rscale>  0 0.19268823E+04</rscale>
<asrwt>0</asrwt>
<pdfrwt beam="1">  1        2 0.14245612E+00 0.19268823E+04</pdfrwt>
<pdfrwt beam="2">  1       -2 0.15422067E+00 0.19268823E+04</pdfrwt>
<totfact> 0.73226764E+00</totfact>
</mgrwt>
</event>
<event>
 6    1  0.9512547E-007  0.1429476E+04  0.7818608E-02  0.8932754E-01
         -2   -1    0    0    0  501 -0.00000000000E+00  0.00000000000E+00  0.12786397540E+03  0.12786397540E+03  0.00000000000E+00 0.  1.
          2   -1    0    0  501    0  0.00000000000E+00 -0.00000000000E+00 -0.39952666933E+04  0.39952666933E+04  0.00000000000E+00 0. -1.
         23    2    1    2    0    0  0.49605084159E+03  0.50253019220E+03 -0.16817202621E+04  0.18262173422E+04  0.91014887456E+02 0.  0.
         11    1    3    3    0    0  0.35763435258E+03  0.39270378139E+03 -0.13421052132E+04  0.14433866402E+04  0.00000000000E+00 0.  1.
        -11    1    3    3    0    0  0.13841648901E+03  0.10982641081E+03 -0.33961504890E+03  0.38283070198E+03  0.00000000000E+00 0. -1.
         22    1    1    2    0    0 -0.49605084159E+03 -0.50253019220E+03 -0.21856824559E+04  0.22969133265E+04  0.00000000000E+00 0. -1.
<mgrwt>
<rscale>  0 0.14294764E+04</rscale>
<asrwt>0</asrwt>
<pdfrwt beam="1">  1        2 0.61465642E+00 0.14294764E+04</pdfrwt>
<pdfrwt beam="2">  1       -2 0.19671381E-01 0.14294764E+04</pdfrwt>
<totfact> 0.75768545E+00</totfact>
</mgrwt>
</event>
<event>
 6    1  0.9512547E-007  0.2034757E+04  0.7818608E-02  0.8590541E-01
          1   -1    0    0  501    0  0.00000000000E+00  0.00000000000E+00  0.12703100844E+04  0.12703100844E+04  0.00000000000E+00 0. -1.
         -1   -1    0    0    0  501 -0.00000000000E+00 -0.00000000000E+00 -0.81480810178E+03  0.81480810178E+03  0.00000000000E+00 0.  1.
         23    2    1    2    0    0 -0.43388977651E+02  0.96361795932E+03  0.55329302773E+03  0.11155795003E+04  0.89119425847E+02 0.  0.
         13    1    3    3    0    0 -0.64938505579E+02  0.53804219237E+03  0.28966127021E+03  0.61449984681E+03  0.00000000000E+00 0.  1.
        -13    1    3    3    0    0  0.21549527928E+02  0.42557576695E+03  0.26363175752E+03  0.50107965349E+03  0.00000000000E+00 0. -1.
         22    1    1    2    0    0  0.43388977651E+02 -0.96361795932E+03 -0.97791045102E+02  0.96953868587E+03  0.00000000000E+00 0.  1.
<mgrwt>
<rscale>  0 0.20347569E+04</rscale>
<asrwt>0</asrwt>
<pdfrwt beam="1">  1        1 0.19543232E+00 0.20347569E+04</pdfrwt>
<pdfrwt beam="2">  1       -1 0.12535509E+00 0.20347569E+04</pdfrwt>
<totfact> 0.48831277E+00</totfact>
</mgrwt>
</event>
<event>
 6    1  0.9512547E-007  0.3137980E+04  0.7818608E-02  0.8205391E-01
         -1   -1    0    0    0  501 -0.00000000000E+00  0.00000000000E+00  0.10903738219E+04  0.10903738219E+04  0.00000000000E+00 0.  1.
          1   -1    0    0  501    0  0.00000000000E+00 -0.00000000000E+00 -0.22576931421E+04  0.22576931421E+04  0.00000000000E+00 0. -1.
         23    2    1    2    0    0 -0.89893948446E+03  0.97860737096E+03  0.30318070488E+03  0.13661146671E+04  0.92661538587E+02 0.  0.
         13    1    3    3    0    0 -0.51217883920E+03  0.56731698967E+03  0.12777819046E+03  0.77492128378E+03  0.00000000000E+00 0.  1.
        -13    1    3    3    0    0 -0.38676064526E+03  0.41129038129E+03  0.17540251441E+03  0.59119338335E+03  0.00000000000E+00 0. -1.
         22    1    1    2    0    0  0.89893948446E+03 -0.97860737096E+03 -0.14705000251E+04  0.19819522968E+04  0.00000000000E+00 0.  1.
<mgrwt>
<rscale>  0 0.31379799E+04</rscale>
<asrwt>0</asrwt>
<pdfrwt beam="1">  1        1 0.34733740E+00 0.31379799E+04</pdfrwt>
<pdfrwt beam="2">  1       -1 0.16774982E+00 0.31379799E+04</pdfrwt>
<totfact> 0.42775682E-01</totfact>
</mgrwt>
</event>
<event>
 6    1  0.9512547E-007  0.4027842E+04  0.7818608E-02  0.7998953E-01
          1   -1    0    0  501    0  0.00000000000E+00  0.00000000000E+00  0.25473142484E+04  0.25473142484E+04  0.00000000000E+00 0. -1.
         -1   -1    0    0    0  501 -0.00000000000E+00 -0.00000000000E+00 -0.15922169933E+04  0.15922169933E+04  0.00000000000E+00 0.  1.
         23    2    1    2    0    0 -0.61392722238E+03  0.17593200777E+04 -0.30551075180E+03  0.18898098552E+04  0.77011032619E+02 0.  0.
         11    1    3    3    0    0 -0.54209903459E+03  0.15197356948E+04 -0.24023606926E+03  0.16313127580E+04  0.00000000000E+00 0.  1.
        -11    1    3    3    0    0 -0.71828187793E+02  0.23958438288E+03 -0.65274682542E+02  0.25849709720E+03  0.00000000000E+00 0. -1.
         22    1    1    2    0    0  0.61392722238E+03 -0.17593200777E+04  0.12606080069E+04  0.22497213866E+04  0.00000000000E+00 0. -1.
<mgrwt>
<rscale>  0 0.40278416E+04</rscale>
<asrwt>0</asrwt>
<pdfrwt beam="1">  1        1 0.39189450E+00 0.40278416E+04</pdfrwt>
<pdfrwt beam="2">  1       -1 0.24495646E+00 0.40278416E+04</pdfrwt>
<totfact> 0.73769362E-02</totfact>
</mgrwt>
</event>
<event>
 6    1  0.9512547E-007  0.3157127E+04  0.7818608E-02  0.8200233E-01
         -2   -1    0    0    0  501 -0.00000000000E+00  0.00000000000E+00  0.86140530015E+03  0.86140530015E+03  0.00000000000E+00 0.  1.
          2   -1    0    0  501    0  0.00000000000E+00 -0.00000000000E+00 -0.28927868842E+04  0.28927868842E+04  0.00000000000E+00 0. -1.
         23    2    1    2    0    0  0.12879408825E+03 -0.14403218061E+04 -0.17653324348E+04  0.22838531173E+04  0.92041477316E+02 0.  0.
         13    1    3    3    0    0  0.78876093861E+02 -0.58245802527E+03 -0.65996377079E+03  0.88375956467E+03  0.00000000000E+00 0.  1.
        -13    1    3    3    0    0  0.49917994384E+02 -0.85786378082E+03 -0.11053686641E+04  0.14000935526E+04  0.00000000000E+00 0. -1.
         22    1    1    2    0    0 -0.12879408825E+03  0.14403218061E+04 -0.26604914918E+03  0.14703390670E+04  0.00000000000E+00 0.  1.
<mgrwt>
<rscale>  0 0.31571265E+04</rscale>
<asrwt>0</asrwt>
<pdfrwt beam="1">  1        2 0.44504413E+00 0.31571265E+04</pdfrwt>
<pdfrwt beam="2">  1       -2 0.13252389E+00 0.31571265E+04</pdfrwt>
<totfact> 0.70898512E-01</totfact>
</mgrwt>
</event>
<event>
 6    1  0.9512547E-007  0.1847246E+04  0.7818608E-02  0.8681570E-01
         -2   -1    0    0    0  501 -0.00000000000E+00  0.00000000000E+00  0.88703669663E+03  0.88703669663E+03  0.00000000000E+00 0.  1.
          2   -1    0    0  501    0  0.00000000000E+00 -0.00000000000E+00 -0.96171861929E+03  0.96171861929E+03  0.00000000000E+00 0. -1.
         23    2    1    2    0    0 -0.32117952445E+03 -0.68027461972E+03 -0.56998303970E+03  0.94805945066E+03  0.89477434440E+02 0.  0.
         11    1    3    3    0    0 -0.16777669788E+03 -0.38367605976E+03 -0.26316026358E+03  0.49458029026E+03  0.00000000000E+00 0. -1.
        -11    1    3    3    0    0 -0.15340282656E+03 -0.29659855996E+03 -0.30682277612E+03  0.45347916040E+03  0.00000000000E+00 0.  1.
         22    1    1    2    0    0  0.32117952445E+03  0.68027461972E+03  0.49530111703E+03  0.90069586526E+03  0.00000000000E+00 0.  1.
<mgrwt>
<rscale>  0 0.18472463E+04</rscale>
<asrwt>0</asrwt>
<pdfrwt beam="1">  1        2 0.14795671E+00 0.18472463E+04</pdfrwt>
<pdfrwt beam="2">  1       -2 0.13646719E+00 0.18472463E+04</pdfrwt>
<totfact> 0.96257618E+00</totfact>
</mgrwt>
</event>
<event>
 6    1  0.9512547E-007  0.1928909E+04  0.7818608E-02  0.8640599E-01
          2   -1    0    0  501    0  0.00000000000E+00  0.00000000000E+00  0.18461685772E+04  0.18461685772E+04  0.00000000000E+00 0. -1.
         -2   -1    0    0    0  501 -0.00000000000E+00 -0.00000000000E+00 -0.50383917440E+03  0.50383917440E+03  0.00000000000E+00 0.  1.
         23    2    1    2    0    0 -0.50556495343E+03  0.41534898461E+03 -0.18691189495E+03  0.68667085010E+03  0.92033139438E+02 0.  0.
         13    1    3    3    0    0 -0.36359905751E+03  0.34913446753E+03 -0.14084618968E+03  0.52338972113E+03  0.00000000000E+00 0. -1.
        -13    1    3    3    0    0 -0.14196589592E+03  0.66214517086E+02 -0.46065705268E+02  0.16328112898E+03  0.00000000000E+00 0.  1.
         22    1    1    2    0    0  0.50556495343E+03 -0.41534898461E+03  0.15292412978E+04  0.16633369015E+04  0.00000000000E+00 0. -1.
<mgrwt>
<rscale>  0 0.19289086E+04</rscale>
<asrwt>0</asrwt>
<pdfrwt beam="1">  1        2 0.28402593E+00 0.19289086E+04</pdfrwt>
<pdfrwt beam="2">  1       -2 0.77513720E-01 0.19289086E+04</pdfrwt>
<totfact> 0.11276494E+01</totfact>
</mgrwt>
</event>
<event>
 6    1  0.9512547E-007  0.1986973E+04  0.7818608E-02  0.8612736E-01
          2   -1    0    0  501    0  0.00000000000E+00  0.00000000000E+00  0.88107801756E+03  0.88107801756E+03  0.00000000000E+00 0. -1.
         -2   -1    0    0    0  501 -0.00000000000E+00 -0.00000000000E+00 -0.11202359342E+04  0.11202359342E+04  0.00000000000E+00 0.  1.
         23    2    1    2    0    0  0.81658614324E+03  0.49591361704E+03  0.14722936047E+03  0.97076149179E+03  0.89208432634E+02 0.  0.
         13    1    3    3    0    0  0.29029525936E+03  0.19896999208E+03  0.93191768147E+02  0.36406744019E+03  0.00000000000E+00 0.  1.
        -13    1    3    3    0    0  0.52629088388E+03  0.29694362496E+03  0.54037592325E+02  0.60669405160E+03  0.00000000000E+00 0. -1.
         22    1    1    2    0    0 -0.81658614324E+03 -0.49591361704E+03 -0.38638727715E+03  0.10305524600E+04  0.00000000000E+00 0.  1.
<mgrwt>
<rscale>  0 0.19869728E+04</rscale>
<asrwt>0</asrwt>
<pdfrwt beam="1">  1        2 0.13555046E+00 0.19869728E+04</pdfrwt>
<pdfrwt beam="2">  1       -2 0.17234399E+00 0.19869728E+04</pdfrwt>
<totfact> 0.57604132E+00</totfact>
</mgrwt>
</event>
<event>
 6    1  0.9512547E-007  0.4256707E+04  0.7818608E-02  0.7954672E-01
          2   -1    0    0  501    0  0.00000000000E+00  0.00000000000E+00  0.34831028245E+04  0.34831028245E+04  0.00000000000E+00 0. -1.
         -2   -1    0    0    0  501 -0.00000000000E+00 -0.00000000000E+00 -0.13005328187E+04  0.13005328187E+04  0.00000000000E+00 0.  1.
         23    2    1    2    0    0 -0.16011174751E+04 -0.12209650232E+04  0.18633605138E+04  0.27449528684E+04  0.91220001025E+02 0.  0.
         13    1    3    3    0    0 -0.32655115505E+03 -0.29621040674E+03  0.41240167031E+03  0.60369810303E+03  0.00000000000E+00 0. -1.
        -13    1    3    3    0    0 -0.12745663200E+04 -0.92475461642E+03  0.14509588435E+04  0.21412547654E+04  0.00000000000E+00 0.  1.
         22    1    1    2    0    0  0.16011174751E+04  0.12209650232E+04  0.31920949199E+03  0.20386827749E+04  0.00000000000E+00 0.  1.
<mgrwt>
<rscale>  0 0.42567074E+04</rscale>
<asrwt>0</asrwt>
<pdfrwt beam="1">  1        2 0.53586197E+00 0.42567074E+04</pdfrwt>
<pdfrwt beam="2">  1       -2 0.20008197E+00 0.42567074E+04</pdfrwt>
<totfact> 0.85594273E-02</totfact>
</mgrwt>
</event>
<event>
 6    1  0.9512547E-007  0.1104413E+04  0.7818608E-02  0.9200902E-01
          1   -1    0    0  501    0  0.00000000000E+00  0.00000000000E+00  0.11306813826E+04  0.11306813826E+04  0.00000000000E+00 0. -1.
         -1   -1    0    0    0  501 -0.00000000000E+00 -0.00000000000E+00 -0.26968853131E+03  0.26968853131E+03  0.00000000000E+00 0.  1.
         23    2    1    2    0    0  0.35345540327E+03 -0.89874242224E+02 -0.85048899651E+02  0.38646503866E+03  0.95466272882E+02 0.  0.
         13    1    3    3    0    0  0.18156982959E+03 -0.58218352857E+02  0.31376155093E+01  0.19070087639E+03  0.00000000000E+00 0. -1.
        -13    1    3    3    0    0  0.17188557368E+03 -0.31655889367E+02 -0.88186515160E+02  0.19576416226E+03  0.00000000000E+00 0.  1.
         22    1    1    2    0    0 -0.35345540327E+03  0.89874242224E+02  0.94604175091E+03  0.10139048752E+04  0.00000000000E+00 0. -1.
<mgrwt>
<rscale>  0 0.11044126E+04</rscale>
<asrwt>0</asrwt>
<pdfrwt beam="1">  1        1 0.17395098E+00 0.11044126E+04</pdfrwt>
<pdfrwt beam="2">  1       -1 0.41490544E-01 0.11044126E+04</pdfrwt>
<totfact> 0.68166054E+01</totfact>
</mgrwt>
</event>
<event>
 6    1  0.9512547E-007  0.2406812E+04  0.7818608E-02  0.8436958E-01
         -1   -1    0    0    0  501 -0.00000000000E+00  0.00000000000E+00  0.11142412430E+04  0.11142412430E+04  0.00000000000E+00 0.  1.
          1   -1    0    0  501    0  0.00000000000E+00 -0.00000000000E+00 -0.12997059661E+04  0.12997059661E+04  0.00000000000E+00 0. -1.
         23    2    1    2    0    0 -0.33049609478E+03  0.86881470872E+03 -0.85667316738E+03  0.12673926128E+04  0.91260355386E+02 0.  0.
         13    1    3    3    0    0 -0.20849611535E+03  0.63436810407E+03 -0.57579165014E+03  0.88171965270E+03  0.00000000000E+00 0. -1.
        -13    1    3    3    0    0 -0.12199997943E+03  0.23444660465E+03 -0.28088151724E+03  0.38567296008E+03  0.00000000000E+00 0.  1.
         22    1    1    2    0    0  0.33049609478E+03 -0.86881470872E+03  0.67120844423E+03  0.11465545963E+04  0.00000000000E+00 0.  1.
<mgrwt>
<rscale>  0 0.24068120E+04</rscale>
<asrwt>0</asrwt>
<pdfrwt beam="1">  1        1 0.19995476E+00 0.24068120E+04</pdfrwt>
<pdfrwt beam="2">  1       -1 0.17142173E+00 0.24068120E+04</pdfrwt>
<totfact> 0.19471197E+00</totfact>
</mgrwt>
</event>
<event>
 6    1  0.9512547E-007  0.3023659E+04  0.7818608E-02  0.8237007E-01
          1   -1    0    0  501    0  0.00000000000E+00  0.00000000000E+00  0.72133448385E+03  0.72133448385E+03  0.00000000000E+00 0. -1.
         -1   -1    0    0    0  501 -0.00000000000E+00 -0.00000000000E+00 -0.31686108021E+04  0.31686108021E+04  0.00000000000E+00 0.  1.
         23    2    1    2    0    0 -0.28332017360E+02 -0.14503034451E+04 -0.68340024432E+03  0.16062111529E+04  0.93250135503E+02 0.  0.
         13    1    3    3    0    0 -0.33188971836E+02 -0.17357897680E+03 -0.89802014093E+02  0.19823110445E+03  0.00000000000E+00 0. -1.
        -13    1    3    3    0    0  0.48569544757E+01 -0.12767244683E+04 -0.59359823023E+03  0.14079800485E+04  0.00000000000E+00 0.  1.
         22    1    1    2    0    0  0.28332017360E+02  0.14503034451E+04 -0.17638760739E+04  0.22837341330E+04  0.00000000000E+00 0.  1.
<mgrwt>
<rscale>  0 0.30236589E+04</rscale>
<asrwt>0</asrwt>
<pdfrwt beam="1">  1        1 0.11097454E+00 0.30236589E+04</pdfrwt>
<pdfrwt beam="2">  1       -1 0.48747859E+00 0.30236589E+04</pdfrwt>
<totfact> 0.39698914E-02</totfact>
</mgrwt>
</event>
<event>
 6    1  0.9512547E-007  0.9680711E+03  0.7818608E-02  0.9344274E-01
         -2   -1    0    0    0  501 -0.00000000000E+00  0.00000000000E+00  0.35406856670E+03  0.35406856670E+03  0.00000000000E+00 0.  1.
          2   -1    0    0  501    0  0.00000000000E+00 -0.00000000000E+00 -0.66170913411E+03  0.66170913411E+03  0.00000000000E+00 0. -1.
         23    2    1    2    0    0 -0.19437140129E+03 -0.43111646821E+03 -0.24714495058E+03  0.53901636592E+03  0.76265099062E+02 0.  0.
         11    1    3    3    0    0 -0.11524508649E+03 -0.33627127412E+03 -0.18599977240E+03  0.40119286520E+03  0.00000000000E+00 0. -1.
        -11    1    3    3    0    0 -0.79126314798E+02 -0.94845194091E+02 -0.61145178184E+02  0.13782350072E+03  0.00000000000E+00 0.  1.
         22    1    1    2    0    0  0.19437140129E+03  0.43111646821E+03 -0.60495616830E+02  0.47676133490E+03  0.00000000000E+00 0.  1.
<mgrwt>
<rscale>  0 0.96807108E+03</rscale>
<asrwt>0</asrwt>
<pdfrwt beam="1">  1        2 0.10180140E+00 0.96807108E+03</pdfrwt>
<pdfrwt beam="2">  1       -2 0.54472088E-01 0.96807108E+03</pdfrwt>
<totfact> 0.13954237E+02</totfact>
</mgrwt>
</event>
<event>
 6    1  0.9512547E-007  0.7915876E+03  0.7818608E-02  0.9572274E-01
         -1   -1    0    0    0  501 -0.00000000000E+00  0.00000000000E+00  0.60523113720E+03  0.60523113720E+03  0.00000000000E+00 0.  1.
          1   -1    0    0  501    0  0.00000000000E+00 -0.00000000000E+00 -0.25883123467E+03  0.25883123467E+03  0.00000000000E+00 0. -1.
         23    2    1    2    0    0 -0.21453848966E+03 -0.21646072569E+03 -0.90615653345E+02  0.33127291496E+03  0.92997517393E+02 0.  0.
         13    1    3    3    0    0 -0.60047819301E+02 -0.11164377936E+03 -0.66136020749E+02  0.14298268187E+03  0.00000000000E+00 0. -1.
        -13    1    3    3    0    0 -0.15449067036E+03 -0.10481694633E+03 -0.24479632596E+02  0.18829023309E+03  0.00000000000E+00 0.  1.
         22    1    1    2    0    0  0.21453848966E+03  0.21646072569E+03  0.43701555588E+03  0.53278945691E+03  0.00000000000E+00 0.  1.
<mgrwt>
<rscale>  0 0.79158758E+03</rscale>
<asrwt>0</asrwt>
<pdfrwt beam="1">  1        1 0.39820190E-01 0.79158758E+03</pdfrwt>
<pdfrwt beam="2">  1       -1 0.93112483E-01 0.79158758E+03</pdfrwt>
<totfact> 0.12058663E+02</totfact>
</mgrwt>
</event>
<event>
 6    1  0.9512547E-007  0.1512095E+04  0.7818608E-02  0.8876449E-01
         -1   -1    0    0    0  501 -0.00000000000E+00  0.00000000000E+00  0.12902690831E+04  0.12902690831E+04  0.00000000000E+00 0.  1.
          1   -1    0    0  501    0  0.00000000000E+00 -0.00000000000E+00 -0.44301445557E+03  0.44301445557E+03  0.00000000000E+00 0. -1.
         23    2    1    2    0    0  0.32692678362E+03 -0.10779494501E+03 -0.34451120246E+03  0.49279707541E+03  0.75233748406E+02 0.  0.
         13    1    3    3    0    0  0.53571898800E+02 -0.38639449932E+02 -0.37520642212E+02  0.75965479161E+02  0.00000000000E+00 0. -1.
        -13    1    3    3    0    0  0.27335488482E+03 -0.69155495074E+02 -0.30699056025E+03  0.41683159625E+03  0.00000000000E+00 0.  1.
         22    1    1    2    0    0 -0.32692678362E+03  0.10779494501E+03  0.11917658300E+04  0.12404864633E+04  0.00000000000E+00 0.  1.
<mgrwt>
<rscale>  0 0.15120950E+04</rscale>
<asrwt>0</asrwt>
<pdfrwt beam="1">  1        1 0.68156071E-01 0.15120950E+04</pdfrwt>
<pdfrwt beam="2">  1       -1 0.19850293E+00 0.15120950E+04</pdfrwt>
<totfact> 0.77893206E+00</totfact>
</mgrwt>
</event>
<event>
 6    1  0.9512547E-007  0.1317392E+04  0.7818608E-02  0.9015886E-01
          1   -1    0    0  501    0  0.00000000000E+00  0.00000000000E+00  0.63061289272E+03  0.63061289272E+03  0.00000000000E+00 0. -1.
         -1   -1    0    0    0  501 -0.00000000000E+00 -0.00000000000E+00 -0.68802961614E+03  0.68802961614E+03  0.00000000000E+00 0.  1.
         23    2    1    2    0    0 -0.39224939550E+03 -0.12907709169E+02  0.49758398715E+03  0.63889844970E+03  0.81087653369E+02 0.  0.
         11    1    3    3    0    0 -0.29555771070E+03 -0.12772216718E+01  0.42394584814E+03  0.51680370916E+03  0.00000000000E+00 0. -1.
        -11    1    3    3    0    0 -0.96691684803E+02 -0.11630487497E+02  0.73638139015E+02  0.12209474054E+03  0.00000000000E+00 0.  1.
         22    1    1    2    0    0  0.39224939550E+03  0.12907709169E+02 -0.55500071057E+03  0.67974405916E+03  0.00000000000E+00 0.  1.
<mgrwt>
<rscale>  0 0.13173919E+04</rscale>
<asrwt>0</asrwt>
<pdfrwt beam="1">  1        1 0.97017368E-01 0.13173919E+04</pdfrwt>
<pdfrwt beam="2">  1       -1 0.10585071E+00 0.13173919E+04</pdfrwt>
<totfact> 0.26123159E+01</totfact>
</mgrwt>
</event>
<event>
 6    1  0.9512547E-007  0.8482984E+03  0.7818608E-02  0.9492624E-01
         -2   -1    0    0    0  501 -0.00000000000E+00  0.00000000000E+00  0.10876916590E+03  0.10876916590E+03  0.00000000000E+00 0.  1.
          2   -1    0    0  501    0  0.00000000000E+00 -0.00000000000E+00 -0.16539849098E+04  0.16539849098E+04  0.00000000000E+00 0. -1.
         23    2    1    2    0    0 -0.20734267111E+03 -0.19013730673E+03 -0.13602122059E+03  0.32575289854E+03  0.92032601716E+02 0.  0.
         11    1    3    3    0    0 -0.19352010171E+03 -0.17189225756E+03 -0.14977602809E+03  0.29904821780E+03  0.00000000000E+00 0. -1.
        -11    1    3    3    0    0 -0.13822569394E+02 -0.18245049174E+02  0.13754807499E+02  0.26704680739E+02  0.00000000000E+00 0.  1.
         22    1    1    2    0    0  0.20734267111E+03  0.19013730673E+03 -0.14091945233E+04  0.14370011771E+04  0.00000000000E+00 0. -1.
<mgrwt>
<rscale>  0 0.84829844E+03</rscale>
<asrwt>0</asrwt>
<pdfrwt beam="1">  1        2 0.25445921E+00 0.84829844E+03</pdfrwt>
<pdfrwt beam="2">  1       -2 0.16733718E-01 0.84829844E+03</pdfrwt>
<totfact> 0.30532489E+02</totfact>
</mgrwt>
</event>
<event>
 6    1  0.9512547E-007  0.2419661E+04  0.7818608E-02  0.8432179E-01
          1   -1    0    0  501    0  0.00000000000E+00  0.00000000000E+00  0.18341269561E+04  0.18341269561E+04  0.00000000000E+00 0. -1.
         -1   -1    0    0    0  501 -0.00000000000E+00 -0.00000000000E+00 -0.79803065778E+03  0.79803065778E+03  0.00000000000E+00 0.  1.
         23    2    1    2    0    0 -0.10954835166E+04 -0.49269322653E+03  0.66263621450E+03  0.13742612808E+04  0.81710246117E+02 0.  0.
         13    1    3    3    0    0 -0.64236600793E+03 -0.26625894672E+03  0.42275666599E+03  0.81378812567E+03  0.00000000000E+00 0.  1.
        -13    1    3    3    0    0 -0.45311750871E+03 -0.22643427981E+03  0.23987954851E+03  0.56047315508E+03  0.00000000000E+00 0. -1.
         22    1    1    2    0    0  0.10954835166E+04  0.49269322653E+03  0.37346008383E+03  0.12578963331E+04  0.00000000000E+00 0.  1.
<mgrwt>
<rscale>  0 0.24196608E+04</rscale>
<asrwt>0</asrwt>
<pdfrwt beam="1">  1        1 0.28217338E+00 0.24196608E+04</pdfrwt>
<pdfrwt beam="2">  1       -1 0.12277395E+00 0.24196608E+04</pdfrwt>
<totfact> 0.20215819E+00</totfact>
</mgrwt>
</event>
<event>
 6    1  0.9512547E-007  0.3150310E+04  0.7818608E-02  0.8202065E-01
         -2   -1    0    0    0  501 -0.00000000000E+00  0.00000000000E+00  0.75142388913E+03  0.75142388913E+03  0.00000000000E+00 0.  1.
          2   -1    0    0  501    0  0.00000000000E+00 -0.00000000000E+00 -0.33018817966E+04  0.33018817966E+04  0.00000000000E+00 0. -1.
         23    2    1    2    0    0  0.13111834505E+04 -0.53126724341E+03 -0.21634385254E+04  0.25865981734E+04  0.92611731074E+02 0.  0.
         11    1    3    3    0    0  0.94232300221E+03 -0.37037389226E+03 -0.14724989682E+04  0.17870094213E+04  0.00000000000E+00 0. -1.
        -11    1    3    3    0    0  0.36886044828E+03 -0.16089335115E+03 -0.69093955720E+03  0.79958875208E+03  0.00000000000E+00 0.  1.
         22    1    1    2    0    0 -0.13111834505E+04  0.53126724341E+03 -0.38701938214E+03  0.14667075124E+04  0.00000000000E+00 0.  1.
<mgrwt>
<rscale>  0 0.31503097E+04</rscale>
<asrwt>0</asrwt>
<pdfrwt beam="1">  1        2 0.50798182E+00 0.31503097E+04</pdfrwt>
<pdfrwt beam="2">  1       -2 0.11560367E+00 0.31503097E+04</pdfrwt>
<totfact> 0.54612531E-01</totfact>
</mgrwt>
</event>
<event>
 6    1  0.9512547E-007  0.1792810E+04  0.7818608E-02  0.8710132E-01
         -2   -1    0    0    0  501 -0.00000000000E+00  0.00000000000E+00  0.58987367129E+03  0.58987367129E+03  0.00000000000E+00 0.  1.
          2   -1    0    0  501    0  0.00000000000E+00 -0.00000000000E+00 -0.13622269839E+04  0.13622269839E+04  0.00000000000E+00 0. -1.
         23    2    1    2    0    0 -0.61253126992E+03 -0.48759759968E+03 -0.85725995499E+03  0.11646013766E+04  0.91955207246E+02 0.  0.
         13    1    3    3    0    0 -0.23214351500E+03 -0.17408076793E+03 -0.38355840905E+03  0.48094883145E+03  0.00000000000E+00 0. -1.
        -13    1    3    3    0    0 -0.38038775492E+03 -0.31351683175E+03 -0.47370154594E+03  0.68365254516E+03  0.00000000000E+00 0.  1.
         22    1    1    2    0    0  0.61253126992E+03  0.48759759968E+03  0.84906642374E+02  0.78749927858E+03  0.00000000000E+00 0.  1.
<mgrwt>
<rscale>  0 0.17928099E+04</rscale>
<asrwt>0</asrwt>
<pdfrwt beam="1">  1        2 0.20957338E+00 0.17928099E+04</pdfrwt>
<pdfrwt beam="2">  1       -2 0.90749795E-01 0.17928099E+04</pdfrwt>
<totfact> 0.14899327E+01</totfact>
</mgrwt>
</event>
<event>
 6    1  0.9512547E-007  0.7141290E+03  0.7818608E-02  0.9693370E-01
          2   -1    0    0  501    0  0.00000000000E+00  0.00000000000E+00  0.13389150435E+04  0.13389150435E+04  0.00000000000E+00 0. -1.
         -2   -1    0    0    0  501 -0.00000000000E+00 -0.00000000000E+00 -0.95222676614E+02  0.95222676614E+02  0.00000000000E+00 0.  1.
         23    2    1    2    0    0  0.24385317410E+03 -0.11894260818E+03  0.10792290727E+04  0.11168682925E+04  0.95119277214E+02 0.  0.
         11    1    3    3    0    0  0.11077842690E+03 -0.10059696903E+02  0.52174409395E+03  0.53346973385E+03  0.00000000000E+00 0. -1.
        -11    1    3    3    0    0  0.13307474720E+03 -0.10888291128E+03  0.55748497878E+03  0.58339855869E+03  0.00000000000E+00 0.  1.
         22    1    1    2    0    0 -0.24385317410E+03  0.11894260818E+03  0.16446329420E+03  0.31726942762E+03  0.00000000000E+00 0.  1.
<mgrwt>
<rscale>  0 0.71412905E+03</rscale>
<asrwt>0</asrwt>
<pdfrwt beam="1">  1        2 0.20598692E+00 0.71412905E+03</pdfrwt>
<pdfrwt beam="2">  1       -2 0.14649643E-01 0.71412905E+03</pdfrwt>
<totfact> 0.57860657E+02</totfact>
</mgrwt>
</event>
<event>
 6    1  0.9512547E-007  0.1171125E+04  0.7818608E-02  0.9138513E-01
         -2   -1    0    0    0  501 -0.00000000000E+00  0.00000000000E+00  0.27780059350E+03  0.27780059350E+03  0.00000000000E+00 0.  1.
          2   -1    0    0  501    0  0.00000000000E+00 -0.00000000000E+00 -0.12342798924E+04  0.12342798924E+04  0.00000000000E+00 0. -1.
         23    2    1    2    0    0  0.13030689891E+03  0.59670444514E+02 -0.12094582143E+04  0.12213249503E+04  0.91131840504E+02 0.  0.
         11    1    3    3    0    0  0.42444656387E+02  0.96108729995E+01 -0.73115428965E+03  0.73244830057E+03  0.00000000000E+00 0. -1.
        -11    1    3    3    0    0  0.87862242524E+02  0.50059571514E+02 -0.47830392460E+03  0.48887664972E+03  0.00000000000E+00 0.  1.
         22    1    1    2    0    0 -0.13030689891E+03 -0.59670444514E+02  0.25297891537E+03  0.29075553559E+03  0.00000000000E+00 0.  1.
<mgrwt>
<rscale>  0 0.11711254E+04</rscale>
<asrwt>0</asrwt>
<pdfrwt beam="1">  1        2 0.18988922E+00 0.11711254E+04</pdfrwt>
<pdfrwt beam="2">  1       -2 0.42738552E-01 0.11711254E+04</pdfrwt>
<totfact> 0.92663097E+01</totfact>
</mgrwt>
</event>
<event>
 6    1  0.9512547E-007  0.2816451E+04  0.7818608E-02  0.8298179E-01
         -4   -1    0    0    0  501 -0.00000000000E+00  0.00000000000E+00  0.17907426352E+04  0.17907426352E+04  0.00000000000E+00 0.  1.
          4   -1    0    0  501    0  0.00000000000E+00 -0.00000000000E+00 -0.11074168048E+04  0.11074168048E+04  0.00000000000E+00 0. -1.
         23    2    1    2    0    0  0.75111477999E+03 -0.86138901937E+03 -0.50163069365E+03  0.12518646853E+04  0.96785237234E+02 0.  0.
         11    1    3    3    0    0  0.13354849347E+03 -0.17577136273E+03 -0.13624563762E+03  0.25941018838E+03  0.00000000000E+00 0.  1.
        -11    1    3    3    0    0  0.61756628652E+03 -0.68561765665E+03 -0.36538505603E+03  0.99245449695E+03  0.00000000000E+00 0. -1.
         22    1    1    2    0    0 -0.75111477999E+03  0.86138901937E+03  0.11849565241E+04  0.16462947547E+04  0.00000000000E+00 0.  1.
<mgrwt>
<rscale>  0 0.28164506E+04</rscale>
<asrwt>0</asrwt>
<pdfrwt beam="1">  1        4 0.17037182E+00 0.28164506E+04</pdfrwt>
<pdfrwt beam="2">  1       -4 0.27549887E+00 0.28164506E+04</pdfrwt>
<totfact> 0.15936739E-02</totfact>
</mgrwt>
</event>
<event>
 6    1  0.9512547E-007  0.4835958E+04  0.7818608E-02  0.7854323E-01
          1   -1    0    0  501    0  0.00000000000E+00  0.00000000000E+00  0.20353473808E+04  0.20353473808E+04  0.00000000000E+00 0. -1.
         -1   -1    0    0    0  501 -0.00000000000E+00 -0.00000000000E+00 -0.28725426946E+04  0.28725426946E+04  0.00000000000E+00 0.  1.
         23    2    1    2    0    0  0.19260440078E+03  0.23913370428E+04 -0.11996492094E+03  0.24038915244E+04  0.93346511299E+02 0.  0.
         11    1    3    3    0    0  0.19950814457E+02  0.62874313515E+03 -0.40532897516E+01  0.62907264616E+03  0.00000000000E+00 0. -1.
        -11    1    3    3    0    0  0.17265358632E+03  0.17625939077E+04 -0.11591163119E+03  0.17748188782E+04  0.00000000000E+00 0.  1.
         22    1    1    2    0    0 -0.19260440078E+03 -0.23913370428E+04 -0.71723039285E+03  0.25039985511E+04  0.00000000000E+00 0. -1.
<mgrwt>
<rscale>  0 0.48359579E+04</rscale>
<asrwt>0</asrwt>
<pdfrwt beam="1">  1        1 0.31313037E+00 0.48359579E+04</pdfrwt>
<pdfrwt beam="2">  1       -1 0.44192965E+00 0.48359579E+04</pdfrwt>
<totfact> 0.75975308E-03</totfact>
</mgrwt>
</event>
<event>
 6    1  0.9512547E-007  0.3007695E+04  0.7818608E-02  0.8241537E-01
         -2   -1    0    0    0  501 -0.00000000000E+00  0.00000000000E+00  0.11807719103E+04  0.11807719103E+04  0.00000000000E+00 0.  1.
          2   -1    0    0  501    0  0.00000000000E+00 -0.00000000000E+00 -0.19153214518E+04  0.19153214518E+04  0.00000000000E+00 0. -1.
         23    2    1    2    0    0 -0.94199421060E+03  0.11686769408E+04 -0.30089635848E+03  0.15336548935E+04  0.91650581398E+02 0.  0.
         11    1    3    3    0    0 -0.46328536575E+03  0.63680901755E+03 -0.13309221878E+03  0.79866926425E+03  0.00000000000E+00 0. -1.
        -11    1    3    3    0    0 -0.47870884485E+03  0.53186792325E+03 -0.16780413970E+03  0.73498562927E+03  0.00000000000E+00 0.  1.
         22    1    1    2    0    0  0.94199421060E+03 -0.11686769408E+04 -0.43365318307E+03  0.15624384685E+04  0.00000000000E+00 0. -1.
<mgrwt>
<rscale>  0 0.30076953E+04</rscale>
<asrwt>0</asrwt>
<pdfrwt beam="1">  1        2 0.29466484E+00 0.30076953E+04</pdfrwt>
<pdfrwt beam="2">  1       -2 0.18165722E+00 0.30076953E+04</pdfrwt>
<totfact> 0.11251708E+00</totfact>
</mgrwt>
</event>
<event>
 6    1  0.9512547E-007  0.1119722E+04  0.7818608E-02  0.9186179E-01
         -2   -1    0    0    0  501 -0.00000000000E+00  0.00000000000E+00  0.26557644159E+03  0.26557644159E+03  0.00000000000E+00 0.  1.
          2   -1    0    0  501    0  0.00000000000E+00 -0.00000000000E+00 -0.11802423741E+04  0.11802423741E+04  0.00000000000E+00 0. -1.
         23    2    1    2    0    0  0.52572992028E+03  0.12851629432E+03 -0.62537052773E+03  0.83214119818E+03  0.91990704843E+02 0.  0.
         13    1    3    3    0    0  0.12865796934E+03  0.11441400085E+02 -0.20391116426E+03  0.24137841995E+03  0.00000000000E+00 0. -1.
        -13    1    3    3    0    0  0.39707195093E+03  0.11707489424E+03 -0.42145936347E+03  0.59076277823E+03  0.00000000000E+00 0.  1.
         22    1    1    2    0    0 -0.52572992028E+03 -0.12851629432E+03 -0.28929540474E+03  0.61367761747E+03  0.00000000000E+00 0. -1.
<mgrwt>
<rscale>  0 0.11197224E+04</rscale>
<asrwt>0</asrwt>
<pdfrwt beam="1">  1        2 0.18157575E+00 0.11197224E+04</pdfrwt>
<pdfrwt beam="2">  1       -2 0.40857913E-01 0.11197224E+04</pdfrwt>
<totfact> 0.10942658E+02</totfact>
</mgrwt>
</event>
<event>
 6    1  0.9512547E-007  0.1694046E+04  0.7818608E-02  0.8764767E-01
         -2   -1    0    0    0  501 -0.00000000000E+00  0.00000000000E+00  0.39237439475E+03  0.39237439475E+03  0.00000000000E+00 0.  1.
          2   -1    0    0  501    0  0.00000000000E+00 -0.00000000000E+00 -0.18284787873E+04  0.18284787873E+04  0.00000000000E+00 0. -1.
         23    2    1    2    0    0 -0.18867277789E+03  0.59655566027E+03  0.23612205023E+02  0.63269430520E+03  0.90931153542E+02 0.  0.
         13    1    3    3    0    0 -0.13296565844E+03  0.46174284435E+03 -0.18518090876E+02  0.48086301617E+03  0.00000000000E+00 0. -1.
        -13    1    3    3    0    0 -0.55707119457E+02  0.13481281592E+03  0.42130295899E+02  0.15183128902E+03  0.00000000000E+00 0.  1.
         22    1    1    2    0    0  0.18867277789E+03 -0.59655566027E+03 -0.14597165976E+04  0.15881588769E+04  0.00000000000E+00 0. -1.
<mgrwt>
<rscale>  0 0.16940463E+04</rscale>
<asrwt>0</asrwt>
<pdfrwt beam="1">  1        2 0.28130443E+00 0.16940463E+04</pdfrwt>
<pdfrwt beam="2">  1       -2 0.60365292E-01 0.16940463E+04</pdfrwt>
<totfact> 0.20251133E+01</totfact>
</mgrwt>
</event>
<event>
 6    1  0.9512547E-007  0.2650533E+04  0.7818608E-02  0.8351236E-01
          1   -1    0    0  501    0  0.00000000000E+00  0.00000000000E+00  0.12549788060E+04  0.12549788060E+04  0.00000000000E+00 0. -1.
         -1   -1    0    0    0  501 -0.00000000000E+00 -0.00000000000E+00 -0.13994908992E+04  0.13994908992E+04  0.00000000000E+00 0.  1.
         23    2    1    2    0    0 -0.28104143674E+03  0.12768382702E+04 -0.27909135070E+03  0.13401593028E+04  0.93993176803E+02 0.  0.
         11    1    3    3    0    0 -0.19688197857E+03  0.73179041873E+03 -0.19267642963E+03  0.78192322958E+03  0.00000000000E+00 0. -1.
        -11    1    3    3    0    0 -0.84159458168E+02  0.54504785150E+03 -0.86414921070E+02  0.55823607319E+03  0.00000000000E+00 0.  1.
         22    1    1    2    0    0  0.28104143674E+03 -0.12768382702E+04  0.13457925755E+03  0.13143104025E+04  0.00000000000E+00 0. -1.
<mgrwt>
<rscale>  0 0.26505331E+04</rscale>
<asrwt>0</asrwt>
<pdfrwt beam="1">  1        1 0.19307366E+00 0.26505331E+04</pdfrwt>
<pdfrwt beam="2">  1       -1 0.21530629E+00 0.26505331E+04</pdfrwt>
<totfact> 0.10114129E+00</totfact>
</mgrwt>
</event>
<event>
 6    1  0.9512547E-007  0.1596416E+04  0.7818608E-02  0.8822753E-01
          2   -1    0    0  501    0  0.00000000000E+00  0.00000000000E+00  0.10064673405E+04  0.10064673405E+04  0.00000000000E+00 0. -1.
         -2   -1    0    0    0  501 -0.00000000000E+00 -0.00000000000E+00 -0.63304182458E+03  0.63304182458E+03  0.00000000000E+00 0.  1.
         23    2    1    2    0    0 -0.68847440934E+03  0.32775571053E+03  0.42074682118E+03  0.87553264445E+03  0.90048352934E+02 0.  0.
         13    1    3    3    0    0 -0.18496700127E+03  0.89553770043E+02  0.16034687159E+03  0.26066029333E+03  0.00000000000E+00 0.  1.
        -13    1    3    3    0    0 -0.50350740806E+03  0.23820194049E+03  0.26039994959E+03  0.61487235112E+03  0.00000000000E+00 0. -1.
         22    1    1    2    0    0  0.68847440934E+03 -0.32775571053E+03 -0.47321305301E+02  0.76397652060E+03  0.00000000000E+00 0.  1.
<mgrwt>
<rscale>  0 0.15964159E+04</rscale>
<asrwt>0</asrwt>
<pdfrwt beam="1">  1        2 0.15484113E+00 0.15964159E+04</pdfrwt>
<pdfrwt beam="2">  1       -2 0.97391050E-01 0.15964159E+04</pdfrwt>
<totfact> 0.21044173E+01</totfact>
</mgrwt>
</event>
<event>
 6    1  0.9512547E-007  0.1108411E+04  0.7818608E-02  0.9197032E-01
         -2   -1    0    0    0  501 -0.00000000000E+00  0.00000000000E+00  0.29026293409E+03  0.29026293409E+03  0.00000000000E+00 0.  1.
          2   -1    0    0  501    0  0.00000000000E+00 -0.00000000000E+00 -0.10581575423E+04  0.10581575423E+04  0.00000000000E+00 0. -1.
         23    2    1    2    0    0 -0.43748884100E+03  0.13104031859E+03 -0.76138729056E+03  0.89168160539E+03  0.82567718066E+02 0.  0.
         13    1    3    3    0    0 -0.35219323160E+03  0.99505023558E+02 -0.53990305258E+03  0.65225503316E+03  0.00000000000E+00 0.  1.
        -13    1    3    3    0    0 -0.85295609404E+02  0.31535295033E+02 -0.22148423798E+03  0.23942657223E+03  0.00000000000E+00 0. -1.
         22    1    1    2    0    0  0.43748884100E+03 -0.13104031859E+03 -0.65073176514E+01  0.45673887100E+03  0.00000000000E+00 0.  1.
<mgrwt>
<rscale>  0 0.11084113E+04</rscale>
<asrwt>0</asrwt>
<pdfrwt beam="1">  1        2 0.16279347E+00 0.11084113E+04</pdfrwt>
<pdfrwt beam="2">  1       -2 0.44655836E-01 0.11084113E+04</pdfrwt>
<totfact> 0.10912182E+02</totfact>
</mgrwt>
</event>
<event>
 6    1  0.9512547E-007  0.2195006E+04  0.7818608E-02  0.8520510E-01
         -1   -1    0    0    0  501 -0.00000000000E+00  0.00000000000E+00  0.80437177534E+03  0.80437177534E+03  0.00000000000E+00 0.  1.
          1   -1    0    0  501    0  0.00000000000E+00 -0.00000000000E+00 -0.14974572173E+04  0.14974572173E+04  0.00000000000E+00 0. -1.
         23    2    1    2    0    0  0.61481293957E+03  0.33884755786E+03 -0.12292791624E+04  0.14184738409E+04  0.90156309379E+02 0.  0.
         11    1    3    3    0    0  0.12827828934E+03  0.76923014977E+02 -0.34092576378E+03  0.37229403186E+03  0.00000000000E+00 0.  1.
        -11    1    3    3    0    0  0.48653465023E+03  0.26192454288E+03 -0.88835339863E+03  0.10461798091E+04  0.00000000000E+00 0. -1.
         22    1    1    2    0    0 -0.61481293957E+03 -0.33884755786E+03  0.53619372048E+03  0.88335515169E+03  0.00000000000E+00 0.  1.
<mgrwt>
<rscale>  0 0.21950055E+04</rscale>
<asrwt>0</asrwt>
<pdfrwt beam="1">  1        1 0.23037803E+00 0.21950055E+04</pdfrwt>
<pdfrwt beam="2">  1       -1 0.12374950E+00 0.21950055E+04</pdfrwt>
<totfact> 0.34377027E+00</totfact>
</mgrwt>
</event>
<event>
 6    1  0.9512547E-007  0.1728056E+04  0.7818608E-02  0.8745523E-01
         -1   -1    0    0    0  501 -0.00000000000E+00  0.00000000000E+00  0.99235355598E+03  0.99235355598E+03  0.00000000000E+00 0.  1.
          1   -1    0    0  501    0  0.00000000000E+00 -0.00000000000E+00 -0.75229701295E+03  0.75229701295E+03  0.00000000000E+00 0. -1.
         23    2    1    2    0    0  0.66493999068E+03  0.54507147496E+03  0.54454836065E+02  0.86505060437E+03  0.78096830498E+02 0.  0.
         13    1    3    3    0    0  0.54374932671E+03  0.41227149858E+03  0.61415447492E+02  0.68512989720E+03  0.00000000000E+00 0.  1.
        -13    1    3    3    0    0  0.12119066397E+03  0.13279997638E+03 -0.69606114270E+01  0.17992070718E+03  0.00000000000E+00 0. -1.
         22    1    1    2    0    0 -0.66493999068E+03 -0.54507147496E+03  0.18560170697E+03  0.87959996456E+03  0.00000000000E+00 0. -1.
<mgrwt>
<rscale>  0 0.17280563E+04</rscale>
<asrwt>0</asrwt>
<pdfrwt beam="1">  1        1 0.11573800E+00 0.17280563E+04</pdfrwt>
<pdfrwt beam="2">  1       -1 0.15266978E+00 0.17280563E+04</pdfrwt>
<totfact> 0.76975386E+00</totfact>
</mgrwt>
</event>
<event>
 6    1  0.9512547E-007  0.2744314E+04  0.7818608E-02  0.8320768E-01
         -2   -1    0    0    0  501 -0.00000000000E+00  0.00000000000E+00  0.61278400777E+03  0.61278400777E+03  0.00000000000E+00 0.  1.
          2   -1    0    0  501    0  0.00000000000E+00 -0.00000000000E+00 -0.30725577575E+04  0.30725577575E+04  0.00000000000E+00 0. -1.
         23    2    1    2    0    0 -0.25546235742E+03 -0.10281415574E+04 -0.63281409106E+02  0.10651296332E+04  0.90335600403E+02 0.  0.
         11    1    3    3    0    0 -0.13034121788E+03 -0.46773610878E+03  0.13937362753E+02  0.48575729600E+03  0.00000000000E+00 0. -1.
        -11    1    3    3    0    0 -0.12512113954E+03 -0.56040544865E+03 -0.77218771860E+02  0.57937233724E+03  0.00000000000E+00 0.  1.
         22    1    1    2    0    0  0.25546235742E+03  0.10281415574E+04 -0.23964923406E+04  0.26202121320E+04  0.00000000000E+00 0. -1.
<mgrwt>
<rscale>  0 0.27443136E+04</rscale>
<asrwt>0</asrwt>
<pdfrwt beam="1">  1        2 0.47270119E+00 0.27443136E+04</pdfrwt>
<pdfrwt beam="2">  1       -2 0.94274463E-01 0.27443136E+04</pdfrwt>
<totfact> 0.12990761E+00</totfact>
</mgrwt>
</event>
<event>
 6    1  0.9512547E-007  0.1559008E+04  0.7818608E-02  0.8846135E-01
          1   -1    0    0  501    0  0.00000000000E+00  0.00000000000E+00  0.36167937161E+03  0.36167937161E+03  0.00000000000E+00 0. -1.
         -1   -1    0    0    0  501 -0.00000000000E+00 -0.00000000000E+00 -0.16800136582E+04  0.16800136582E+04  0.00000000000E+00 0.  1.
         23    2    1    2    0    0 -0.24340784335E+03 -0.10985064294E+03 -0.16168017108E+04  0.16411966561E+04  0.90355685578E+02 0.  0.
         13    1    3    3    0    0  0.62892944088E+01 -0.26418623569E+01 -0.14609479703E+02  0.16123633525E+02  0.00000000000E+00 0. -1.
        -13    1    3    3    0    0 -0.24969713776E+03 -0.10720878058E+03 -0.16021922311E+04  0.16250730226E+04  0.00000000000E+00 0.  1.
         22    1    1    2    0    0  0.24340784335E+03  0.10985064294E+03  0.29846742428E+03  0.40049637367E+03  0.00000000000E+00 0. -1.
<mgrwt>
<rscale>  0 0.15590077E+04</rscale>
<asrwt>0</asrwt>
<pdfrwt beam="1">  1        1 0.55642979E-01 0.15590077E+04</pdfrwt>
<pdfrwt beam="2">  1       -1 0.25846365E+00 0.15590077E+04</pdfrwt>
<totfact> 0.40567798E+00</totfact>
</mgrwt>
</event>
<event>
 6    1  0.9512547E-007  0.2465890E+04  0.7818608E-02  0.8415239E-01
         -2   -1    0    0    0  501 -0.00000000000E+00  0.00000000000E+00  0.41991764702E+03  0.41991764702E+03  0.00000000000E+00 0.  1.
          2   -1    0    0  501    0  0.00000000000E+00 -0.00000000000E+00 -0.36201239754E+04  0.36201239754E+04  0.00000000000E+00 0. -1.
         23    2    1    2    0    0  0.72428806737E+03  0.11750499260E+03  0.17931610194E+02  0.73931254848E+03  0.88661569291E+02 0.  0.
         13    1    3    3    0    0  0.22920968410E+03  0.77481596240E+02 -0.62312402101E+01  0.24203162065E+03  0.00000000000E+00 0. -1.
        -13    1    3    3    0    0  0.49507838327E+03  0.40023396363E+02  0.24162850404E+02  0.49728092783E+03  0.00000000000E+00 0.  1.
         22    1    1    2    0    0 -0.72428806737E+03 -0.11750499260E+03 -0.32181379386E+04  0.33007290740E+04  0.00000000000E+00 0. -1.
<mgrwt>
<rscale>  0 0.24658905E+04</rscale>
<asrwt>0</asrwt>
<pdfrwt beam="1">  1        2 0.55694213E+00 0.24658905E+04</pdfrwt>
<pdfrwt beam="2">  1       -2 0.64602717E-01 0.24658905E+04</pdfrwt>
<totfact> 0.13236680E+00</totfact>
</mgrwt>
</event>
<event>
 6    1  0.9512547E-007  0.2826670E+04  0.7818608E-02  0.8295036E-01
         -2   -1    0    0    0  501 -0.00000000000E+00  0.00000000000E+00  0.56708628230E+03  0.56708628230E+03  0.00000000000E+00 0.  1.
          2   -1    0    0  501    0  0.00000000000E+00 -0.00000000000E+00 -0.35224186030E+04  0.35224186030E+04  0.00000000000E+00 0. -1.
         23    2    1    2    0    0  0.10073939206E+04  0.33060066536E+02 -0.29096283252E+04  0.30805329658E+04  0.88379199572E+02 0.  0.
         13    1    3    3    0    0  0.32185542419E+03 -0.28049689488E+02 -0.97382540739E+03  0.10260183348E+04  0.00000000000E+00 0. -1.
        -13    1    3    3    0    0  0.68553849638E+03  0.61109756024E+02 -0.19358029178E+04  0.20545146310E+04  0.00000000000E+00 0.  1.
         22    1    1    2    0    0 -0.10073939206E+04 -0.33060066536E+02 -0.45703995465E+02  0.10089719195E+04  0.00000000000E+00 0.  1.
<mgrwt>
<rscale>  0 0.28266696E+04</rscale>
<asrwt>0</asrwt>
<pdfrwt beam="1">  1        2 0.54191056E+00 0.28266696E+04</pdfrwt>
<pdfrwt beam="2">  1       -2 0.87244042E-01 0.28266696E+04</pdfrwt>
<totfact> 0.77259579E-01</totfact>
</mgrwt>
</event>
<event>
 6    1  0.9512547E-007  0.4138760E+04  0.7818608E-02  0.7977125E-01
         -2   -1    0    0    0  501 -0.00000000000E+00  0.00000000000E+00  0.18041200835E+04  0.18041200835E+04  0.00000000000E+00 0.  1.
          2   -1    0    0  501    0  0.00000000000E+00 -0.00000000000E+00 -0.23736413388E+04  0.23736413388E+04  0.00000000000E+00 0. -1.
         23    2    1    2    0    0  0.10508664265E+04  0.15220918632E+04  0.64946579157E+03  0.19625834821E+04  0.94043732256E+02 0.  0.
         11    1    3    3    0    0  0.47951415123E+03  0.76636012635E+03  0.29239687915E+03  0.95012504410E+03  0.00000000000E+00 0. -1.
        -11    1    3    3    0    0  0.57135227527E+03  0.75573173685E+03  0.35706891242E+03  0.10124584380E+04  0.00000000000E+00 0.  1.
         22    1    1    2    0    0 -0.10508664265E+04 -0.15220918632E+04 -0.12189870468E+04  0.22151779402E+04  0.00000000000E+00 0. -1.
<mgrwt>
<rscale>  0 0.41387602E+04</rscale>
<asrwt>0</asrwt>
<pdfrwt beam="1">  1        2 0.36517559E+00 0.41387602E+04</pdfrwt>
<pdfrwt beam="2">  1       -2 0.27755694E+00 0.41387602E+04</pdfrwt>
<totfact> 0.13995111E-01</totfact>
</mgrwt>
</event>
<event>
 6    1  0.9512547E-007  0.1740390E+04  0.7818608E-02  0.8738658E-01
         -2   -1    0    0    0  501 -0.00000000000E+00  0.00000000000E+00  0.62502352860E+03  0.62502352860E+03  0.00000000000E+00 0.  1.
          2   -1    0    0  501    0  0.00000000000E+00 -0.00000000000E+00 -0.12115373742E+04  0.12115373742E+04  0.00000000000E+00 0. -1.
         23    2    1    2    0    0  0.34287730976E+03  0.70692428159E+03  0.95160542033E+02  0.79637497700E+03  0.88604660023E+02 0.  0.
         11    1    3    3    0    0  0.21131216205E+03  0.33778293620E+03  0.36156049437E+02  0.40007174573E+03  0.00000000000E+00 0. -1.
        -11    1    3    3    0    0  0.13156514771E+03  0.36914134539E+03  0.59004492596E+02  0.39630323127E+03  0.00000000000E+00 0.  1.
         22    1    1    2    0    0 -0.34287730976E+03 -0.70692428159E+03 -0.68167438760E+03  0.10401859258E+04  0.00000000000E+00 0. -1.
<mgrwt>
<rscale>  0 0.17403900E+04</rscale>
<asrwt>0</asrwt>
<pdfrwt beam="1">  1        2 0.18639036E+00 0.17403900E+04</pdfrwt>
<pdfrwt beam="2">  1       -2 0.96157467E-01 0.17403900E+04</pdfrwt>
<totfact> 0.16022531E+01</totfact>
</mgrwt>
</event>
<event>
 6    1  0.9512547E-007  0.3529682E+04  0.7818608E-02  0.8106791E-01
          2   -1    0    0  501    0  0.00000000000E+00  0.00000000000E+00  0.36017689395E+04  0.36017689395E+04  0.00000000000E+00 0. -1.
         -2   -1    0    0    0  501 -0.00000000000E+00 -0.00000000000E+00 -0.86475968708E+03  0.86475968708E+03  0.00000000000E+00 0.  1.
         23    2    1    2    0    0 -0.60114272398E+03 -0.11852596655E+03 -0.72328961986E+03  0.95240152803E+03  0.92194452354E+02 0.  0.
         11    1    3    3    0    0 -0.21554752931E+03 -0.30161864388E+02 -0.19358934749E+03  0.29128561742E+03  0.00000000000E+00 0. -1.
        -11    1    3    3    0    0 -0.38559519467E+03 -0.88364102163E+02 -0.52970027238E+03  0.66111591061E+03  0.00000000000E+00 0.  1.
         22    1    1    2    0    0  0.60114272398E+03  0.11852596655E+03  0.34602988723E+04  0.35141270986E+04  0.00000000000E+00 0. -1.
<mgrwt>
<rscale>  0 0.35296825E+04</rscale>
<asrwt>0</asrwt>
<pdfrwt beam="1">  1        2 0.55411829E+00 0.35296825E+04</pdfrwt>
<pdfrwt beam="2">  1       -2 0.13303995E+00 0.35296825E+04</pdfrwt>
<totfact> 0.23065989E-01</totfact>
</mgrwt>
</event>
<event>
 6    1  0.9512547E-007  0.2124354E+04  0.7818608E-02  0.8550590E-01
          2   -1    0    0  501    0  0.00000000000E+00  0.00000000000E+00  0.16257833637E+04  0.16257833637E+04  0.00000000000E+00 0. -1.
         -2   -1    0    0    0  501 -0.00000000000E+00 -0.00000000000E+00 -0.69395473971E+03  0.69395473971E+03  0.00000000000E+00 0.  1.
         23    2    1    2    0    0  0.17163079141E+03 -0.21928695465E+03  0.15841337124E+04  0.16104808683E+04  0.81394786948E+02 0.  0.
         13    1    3    3    0    0  0.87396769900E+02 -0.14842095505E+03  0.77607010391E+03  0.79495394927E+03  0.00000000000E+00 0. -1.
        -13    1    3    3    0    0  0.84234021511E+02 -0.70865999607E+02  0.80806360851E+03  0.81552691904E+03  0.00000000000E+00 0.  1.
         22    1    1    2    0    0 -0.17163079141E+03  0.21928695465E+03 -0.65230508847E+03  0.70925723506E+03  0.00000000000E+00 0.  1.
<mgrwt>
<rscale>  0 0.21243541E+04</rscale>
<asrwt>0</asrwt>
<pdfrwt beam="1">  1        2 0.25012052E+00 0.21243541E+04</pdfrwt>
<pdfrwt beam="2">  1       -2 0.10676227E+00 0.21243541E+04</pdfrwt>
<totfact> 0.70074925E+00</totfact>
</mgrwt>
</event>
<event>
 6    1  0.9512547E-007  0.5410608E+04  0.7818608E-02  0.7768111E-01
         -2   -1    0    0    0  501 -0.00000000000E+00  0.00000000000E+00  0.21625208260E+04  0.21625208260E+04  0.00000000000E+00 0.  1.
          2   -1    0    0  501    0  0.00000000000E+00 -0.00000000000E+00 -0.33843238540E+04  0.33843238540E+04  0.00000000000E+00 0. -1.
         23    2    1    2    0    0 -0.68383308648E+03  0.67511540843E+03 -0.32027924209E+04  0.33450891351E+04  0.91288148589E+02 0.  0.
         11    1    3    3    0    0 -0.26826283589E+03  0.32837278051E+03 -0.13968586528E+04  0.14597971530E+04  0.00000000000E+00 0.  1.
        -11    1    3    3    0    0 -0.41557025059E+03  0.34674262792E+03 -0.18059337681E+04  0.18852919821E+04  0.00000000000E+00 0. -1.
         22    1    1    2    0    0  0.68383308648E+03 -0.67511540843E+03  0.19809893928E+04  0.22017555449E+04  0.00000000000E+00 0.  1.
<mgrwt>
<rscale>  0 0.54106084E+04</rscale>
<asrwt>0</asrwt>
<pdfrwt beam="1">  1        2 0.52066521E+00 0.54106084E+04</pdfrwt>
<pdfrwt beam="2">  1       -2 0.33269551E+00 0.54106084E+04</pdfrwt>
<totfact> 0.13733003E-02</totfact>
</mgrwt>
</event>
<event>
 6    1  0.9512547E-007  0.1638749E+04  0.7818608E-02  0.8797090E-01
         -2   -1    0    0    0  501 -0.00000000000E+00  0.00000000000E+00  0.19335538291E+03  0.19335538291E+03  0.00000000000E+00 0.  1.
          2   -1    0    0  501    0  0.00000000000E+00 -0.00000000000E+00 -0.34722322222E+04  0.34722322222E+04  0.00000000000E+00 0. -1.
         23    2    1    2    0    0  0.29499737870E+03 -0.76110666096E+03 -0.15808930918E+04  0.17815877087E+04  0.92330890894E+02 0.  0.
         13    1    3    3    0    0  0.12923227703E+03 -0.43275326199E+03 -0.93301162293E+03  0.10365746745E+04  0.00000000000E+00 0. -1.
        -13    1    3    3    0    0  0.16576510167E+03 -0.32835339897E+03 -0.64788146884E+03  0.74501303425E+03  0.00000000000E+00 0.  1.
         22    1    1    2    0    0 -0.29499737870E+03  0.76110666096E+03 -0.16979837476E+04  0.18839998964E+04  0.00000000000E+00 0.  1.
<mgrwt>
<rscale>  0 0.16387493E+04</rscale>
<asrwt>0</asrwt>
<pdfrwt beam="1">  1        2 0.53418953E+00 0.16387493E+04</pdfrwt>
<pdfrwt beam="2">  1       -2 0.29746984E-01 0.16387493E+04</pdfrwt>
<totfact> 0.85586773E+00</totfact>
</mgrwt>
</event>
<event>
 6    1  0.9512547E-007  0.1596137E+04  0.7818608E-02  0.8822925E-01
         -2   -1    0    0    0  501 -0.00000000000E+00  0.00000000000E+00  0.20905708110E+03  0.20905708110E+03  0.00000000000E+00 0.  1.
          2   -1    0    0  501    0  0.00000000000E+00 -0.00000000000E+00 -0.30466003072E+04  0.30466003072E+04  0.00000000000E+00 0. -1.
         23    2    1    2    0    0  0.81724422953E+02  0.58807323908E+03 -0.25033445662E+04  0.25743367882E+04  0.89257303685E+02 0.  0.
         11    1    3    3    0    0  0.28523682442E+02  0.46131033408E+03 -0.18743933439E+04  0.19305365141E+04  0.00000000000E+00 0.  1.
        -11    1    3    3    0    0  0.53200740511E+02  0.12676290501E+03 -0.62895122226E+03  0.64380027404E+03  0.00000000000E+00 0. -1.
         22    1    1    2    0    0 -0.81724422953E+02 -0.58807323908E+03 -0.33419865996E+03  0.68132060012E+03  0.00000000000E+00 0.  1.
<mgrwt>
<rscale>  0 0.15961370E+04</rscale>
<asrwt>0</asrwt>
<pdfrwt beam="1">  1        2 0.46870771E+00 0.15961370E+04</pdfrwt>
<pdfrwt beam="2">  1       -2 0.32162630E-01 0.15961370E+04</pdfrwt>
<totfact> 0.14135946E+01</totfact>
</mgrwt>
</event>
<event>
 6    1  0.9512547E-007  0.2069926E+04  0.7818608E-02  0.8574608E-01
         -2   -1    0    0    0  501 -0.00000000000E+00  0.00000000000E+00  0.93482626512E+03  0.93482626512E+03  0.00000000000E+00 0.  1.
          2   -1    0    0  501    0  0.00000000000E+00 -0.00000000000E+00 -0.11458263866E+04  0.11458263866E+04  0.00000000000E+00 0. -1.
         23    2    1    2    0    0 -0.95959462702E+03  0.38261019265E+03 -0.95002104359E+02  0.10411008504E+04  0.87482415732E+02 0.  0.
         11    1    3    3    0    0 -0.38960740264E+03  0.13545534453E+03 -0.76780902850E+02  0.41956809411E+03  0.00000000000E+00 0. -1.
        -11    1    3    3    0    0 -0.56998722438E+03  0.24715484812E+03 -0.18221201509E+02  0.62153275625E+03  0.00000000000E+00 0.  1.
         22    1    1    2    0    0  0.95959462702E+03 -0.38261019265E+03 -0.11599801711E+03  0.10395518014E+04  0.00000000000E+00 0.  1.
<mgrwt>
<rscale>  0 0.20699262E+04</rscale>
<asrwt>0</asrwt>
<pdfrwt beam="1">  1        2 0.17628098E+00 0.20699262E+04</pdfrwt>
<pdfrwt beam="2">  1       -2 0.14381943E+00 0.20699262E+04</pdfrwt>
<totfact> 0.63162339E+00</totfact>
</mgrwt>
</event>
<event>
 6    1  0.9512547E-007  0.1018308E+04  0.7818608E-02  0.9288690E-01
         -1   -1    0    0    0  501 -0.00000000000E+00  0.00000000000E+00  0.47640611741E+03  0.47640611741E+03  0.00000000000E+00 0.  1.
          1   -1    0    0  501    0  0.00000000000E+00 -0.00000000000E+00 -0.54415266654E+03  0.54415266654E+03  0.00000000000E+00 0. -1.
         23    2    1    2    0    0 -0.16624556402E+03 -0.35506444820E+03  0.28551008194E+03  0.49282912084E+03  0.87499631587E+02 0.  0.
         13    1    3    3    0    0 -0.11516423142E+03 -0.19383086326E+03  0.11672499000E+03  0.25388565741E+03  0.00000000000E+00 0. -1.
        -13    1    3    3    0    0 -0.51081332602E+02 -0.16123358494E+03  0.16878509194E+03  0.23894346343E+03  0.00000000000E+00 0.  1.
         22    1    1    2    0    0  0.16624556402E+03  0.35506444820E+03 -0.35325663107E+03  0.52772966311E+03  0.00000000000E+00 0. -1.
<mgrwt>
<rscale>  0 0.10183077E+04</rscale>
<asrwt>0</asrwt>
<pdfrwt beam="1">  1        1 0.83715794E-01 0.10183077E+04</pdfrwt>
<pdfrwt beam="2">  1       -1 0.73293249E-01 0.10183077E+04</pdfrwt>
<totfact> 0.74030086E+01</totfact>
</mgrwt>
</event>
<event>
 6    1  0.9512547E-007  0.5283447E+03  0.7818608E-02  0.1006634E+00
         -2   -1    0    0    0  501 -0.00000000000E+00  0.00000000000E+00  0.63675560628E+03  0.63675560628E+03  0.00000000000E+00 0.  1.
          2   -1    0    0  501    0  0.00000000000E+00 -0.00000000000E+00 -0.10959783274E+03  0.10959783274E+03  0.00000000000E+00 0. -1.
         23    2    1    2    0    0  0.21247600555E+03 -0.70481746344E+02  0.95121614091E+02  0.25976431812E+03  0.91190185875E+02 0.  0.
         11    1    3    3    0    0  0.93665435826E+02 -0.46817868232E+02  0.90709036810E+02  0.13853972720E+03  0.00000000000E+00 0.  1.
        -11    1    3    3    0    0  0.11881056972E+03 -0.23663878112E+02  0.44125772807E+01  0.12122459092E+03  0.00000000000E+00 0. -1.
         22    1    1    2    0    0 -0.21247600555E+03  0.70481746344E+02  0.43203615945E+03  0.48658912090E+03  0.00000000000E+00 0.  1.
<mgrwt>
<rscale>  0 0.52834471E+03</rscale>
<asrwt>0</asrwt>
<pdfrwt beam="1">  1        2 0.16861205E-01 0.52834471E+03</pdfrwt>
<pdfrwt beam="2">  1       -2 0.97962399E-01 0.52834471E+03</pdfrwt>
<totfact> 0.30546086E+02</totfact>
</mgrwt>
</event>
<event>
 6    1  0.9512547E-007  0.2650554E+04  0.7818608E-02  0.8351229E-01
         -1   -1    0    0    0  501 -0.00000000000E+00  0.00000000000E+00  0.71633915699E+03  0.71633915699E+03  0.00000000000E+00 0.  1.
          1   -1    0    0  501    0  0.00000000000E+00 -0.00000000000E+00 -0.24518549871E+04  0.24518549871E+04  0.00000000000E+00 0. -1.
         23    2    1    2    0    0  0.10422254274E+04 -0.32533181687E+03 -0.17636746128E+04  0.20760093842E+04  0.84806786638E+02 0.  0.
         11    1    3    3    0    0  0.49935343226E+03 -0.19619392286E+03 -0.83082999839E+03  0.98900171481E+03  0.00000000000E+00 0.  1.
        -11    1    3    3    0    0  0.54287199513E+03 -0.12913789401E+03 -0.93284461439E+03  0.10870076694E+04  0.00000000000E+00 0. -1.
         22    1    1    2    0    0 -0.10422254274E+04  0.32533181687E+03  0.28158782705E+02  0.10921847598E+04  0.00000000000E+00 0.  1.
<mgrwt>
<rscale>  0 0.26505545E+04</rscale>
<asrwt>0</asrwt>
<pdfrwt beam="1">  1        1 0.37720845E+00 0.26505545E+04</pdfrwt>
<pdfrwt beam="2">  1       -1 0.11020603E+00 0.26505545E+04</pdfrwt>
<totfact> 0.97430645E-01</totfact>
</mgrwt>
</event>
<event>
 6    1  0.9512547E-007  0.2085221E+04  0.7818608E-02  0.8567782E-01
         -2   -1    0    0    0  501 -0.00000000000E+00  0.00000000000E+00  0.14705837557E+04  0.14705837557E+04  0.00000000000E+00 0.  1.
          2   -1    0    0  501    0  0.00000000000E+00 -0.00000000000E+00 -0.73918685161E+03  0.73918685161E+03  0.00000000000E+00 0. -1.
         23    2    1    2    0    0 -0.50853575331E+03  0.89226429852E+03  0.54489355969E+03  0.11659661772E+04  0.88453062484E+02 0.  0.
         11    1    3    3    0    0 -0.23860739012E+03  0.36741486116E+03  0.27264752526E+03  0.51600759670E+03  0.00000000000E+00 0. -1.
        -11    1    3    3    0    0 -0.26992836319E+03  0.52484943736E+03  0.27224603443E+03  0.64995858054E+03  0.00000000000E+00 0.  1.
         22    1    1    2    0    0  0.50853575331E+03 -0.89226429852E+03  0.18650334443E+03  0.10438044301E+04  0.00000000000E+00 0. -1.
<mgrwt>
<rscale>  0 0.20852205E+04</rscale>
<asrwt>0</asrwt>
<pdfrwt beam="1">  1        2 0.11372105E+00 0.20852205E+04</pdfrwt>
<pdfrwt beam="2">  1       -2 0.22624365E+00 0.20852205E+04</pdfrwt>
<totfact> 0.31810747E+00</totfact>
</mgrwt>
</event>
<event>
 6    1  0.1523751E-006  0.2289355E+04  0.7818608E-02  0.8482130E-01
          1   -1    0    0  501    0  0.00000000000E+00  0.00000000000E+00  0.14101695721E+04  0.14101695721E+04  0.00000000000E+00 0. -1.
         -1   -1    0    0    0  501 -0.00000000000E+00 -0.00000000000E+00 -0.92916977839E+03  0.92916977839E+03  0.00000000000E+00 0.  1.
         23    2    1    2    0    0  0.10199876589E+04  0.28947569455E+02  0.76716822370E+03  0.12795727930E+04  0.86871532310E+02 0.  0.
         11    1    3    3    0    0  0.58462298382E+03  0.57225019070E+02  0.45764555669E+03  0.74464635336E+03  0.00000000000E+00 0.  1.
        -11    1    3    3    0    0  0.43536467507E+03 -0.28277449615E+02  0.30952266702E+03  0.53492643967E+03  0.00000000000E+00 0. -1.
         22    1    1    2    0    0 -0.10199876589E+04 -0.28947569455E+02 -0.28616842997E+03  0.10597665575E+04  0.00000000000E+00 0.  1.
<mgrwt>
<rscale>  0 0.22893553E+04</rscale>
<asrwt>0</asrwt>
<pdfrwt beam="1">  1        1 0.21694916E+00 0.22893553E+04</pdfrwt>
<pdfrwt beam="2">  1       -1 0.14294920E+00 0.22893553E+04</pdfrwt>
<totfact> 0.27131202E+00</totfact>
</mgrwt>
</event>
<event>
 6    1  0.9512547E-007  0.3509370E+04  0.7818608E-02  0.8111573E-01
         -1   -1    0    0    0  501 -0.00000000000E+00  0.00000000000E+00  0.12651513639E+04  0.12651513639E+04  0.00000000000E+00 0.  1.
          1   -1    0    0  501    0  0.00000000000E+00 -0.00000000000E+00 -0.24336376524E+04  0.24336376524E+04  0.00000000000E+00 0. -1.
         23    2    1    2    0    0 -0.10099441664E+04  0.83754368947E+03  0.64135760457E+03  0.14633916091E+04  0.93320810358E+02 0.  0.
         13    1    3    3    0    0 -0.48037917677E+03  0.35695208247E+03  0.32989618280E+03  0.68338161673E+03  0.00000000000E+00 0.  1.
        -13    1    3    3    0    0 -0.52956498962E+03  0.48059160700E+03  0.31146142177E+03  0.78000999237E+03  0.00000000000E+00 0. -1.
         22    1    1    2    0    0  0.10099441664E+04 -0.83754368947E+03 -0.18098438931E+04  0.22353974072E+04  0.00000000000E+00 0. -1.
<mgrwt>
<rscale>  0 0.35093703E+04</rscale>
<asrwt>0</asrwt>
<pdfrwt beam="1">  1        1 0.37440579E+00 0.35093703E+04</pdfrwt>
<pdfrwt beam="2">  1       -1 0.19463867E+00 0.35093703E+04</pdfrwt>
<totfact> 0.20127906E-01</totfact>
</mgrwt>
</event>
<event>
 6    1  0.9512547E-007  0.5197975E+04  0.7818608E-02  0.7798673E-01
         -2   -1    0    0    0  501 -0.00000000000E+00  0.00000000000E+00  0.18424255494E+04  0.18424255494E+04  0.00000000000E+00 0.  1.
          2   -1    0    0  501    0  0.00000000000E+00 -0.00000000000E+00 -0.36662195938E+04  0.36662195938E+04  0.00000000000E+00 0. -1.
         23    2    1    2    0    0  0.17191403508E+04  0.19220851356E+04 -0.12487191981E+04  0.28665690858E+04  0.89799075158E+02 0.  0.
         13    1    3    3    0    0  0.98363312686E+03  0.11658443750E+04 -0.74122088656E+03  0.16959173440E+04  0.00000000000E+00 0. -1.
        -13    1    3    3    0    0  0.73550722390E+03  0.75624076059E+03 -0.50749831157E+03  0.11706517418E+04  0.00000000000E+00 0.  1.
         22    1    1    2    0    0 -0.17191403508E+04 -0.19220851356E+04 -0.57507484631E+03  0.26420760574E+04  0.00000000000E+00 0. -1.
<mgrwt>
<rscale>  0 0.51979752E+04</rscale>
<asrwt>0</asrwt>
<pdfrwt beam="1">  1        2 0.56403378E+00 0.51979752E+04</pdfrwt>
<pdfrwt beam="2">  1       -2 0.28345009E+00 0.51979752E+04</pdfrwt>
<totfact> 0.17722928E-02</totfact>
</mgrwt>
</event>
<event>
 6    1  0.9512547E-007  0.3241468E+04  0.7818608E-02  0.8177951E-01
         -2   -1    0    0    0  501 -0.00000000000E+00  0.00000000000E+00  0.79623639795E+03  0.79623639795E+03  0.00000000000E+00 0.  1.
          2   -1    0    0  501    0  0.00000000000E+00 -0.00000000000E+00 -0.32989936268E+04  0.32989936268E+04  0.00000000000E+00 0. -1.
         23    2    1    2    0    0 -0.87590979155E+03 -0.11582919074E+04 -0.34687946780E+03  0.14958710603E+04  0.91906246441E+02 0.  0.
         11    1    3    3    0    0 -0.34267083901E+03 -0.51921734864E+03 -0.12589035599E+03  0.63471122628E+03  0.00000000000E+00 0. -1.
        -11    1    3    3    0    0 -0.53323895254E+03 -0.63907455874E+03 -0.22098911182E+03  0.86115983399E+03  0.00000000000E+00 0.  1.
         22    1    1    2    0    0  0.87590979155E+03  0.11582919074E+04 -0.21558777610E+04  0.25993589645E+04  0.00000000000E+00 0.  1.
<mgrwt>
<rscale>  0 0.32414681E+04</rscale>
<asrwt>0</asrwt>
<pdfrwt beam="1">  1        2 0.50753748E+00 0.32414681E+04</pdfrwt>
<pdfrwt beam="2">  1       -2 0.12249791E+00 0.32414681E+04</pdfrwt>
<totfact> 0.47169625E-01</totfact>
</mgrwt>
</event>
<event>
 6    1  0.9512547E-007  0.6327068E+04  0.7818608E-02  0.7651121E-01
          1   -1    0    0  501    0  0.00000000000E+00  0.00000000000E+00  0.31852763791E+04  0.31852763791E+04  0.00000000000E+00 0. -1.
         -1   -1    0    0    0  501 -0.00000000000E+00 -0.00000000000E+00 -0.31419396649E+04  0.31419396649E+04  0.00000000000E+00 0.  1.
         23    2    1    2    0    0 -0.79472590646E+03  0.22845090199E+04  0.20597322641E+04  0.31781809947E+04  0.88128919145E+02 0.  0.
         13    1    3    3    0    0 -0.37706425703E+03  0.10752881058E+04  0.91276239362E+03  0.14599853258E+04  0.00000000000E+00 0.  1.
        -13    1    3    3    0    0 -0.41766164943E+03  0.12092209142E+04  0.11469698705E+04  0.17181956689E+04  0.00000000000E+00 0. -1.
         22    1    1    2    0    0  0.79472590646E+03 -0.22845090199E+04 -0.20163955499E+04  0.31490350494E+04  0.00000000000E+00 0.  1.
<mgrwt>
<rscale>  0 0.63270676E+04</rscale>
<asrwt>0</asrwt>
<pdfrwt beam="1">  1        1 0.49004252E+00 0.63270676E+04</pdfrwt>
<pdfrwt beam="2">  1       -1 0.48337533E+00 0.63270676E+04</pdfrwt>
<totfact> 0.54934776E-04</totfact>
</mgrwt>
</event>
<event>
 6    1  0.9512547E-007  0.1843373E+04  0.7818608E-02  0.8683569E-01
          1   -1    0    0  501    0  0.00000000000E+00  0.00000000000E+00  0.97874453496E+03  0.97874453496E+03  0.00000000000E+00 0. -1.
         -1   -1    0    0    0  501 -0.00000000000E+00 -0.00000000000E+00 -0.86795437573E+03  0.86795437573E+03  0.00000000000E+00 0.  1.
         23    2    1    2    0    0  0.83891372153E+03  0.14617706091E+03  0.40271438134E+03  0.94649686850E+03  0.92376857737E+02 0.  0.
         13    1    3    3    0    0  0.64473376456E+03  0.73597460025E+02  0.31635483292E+03  0.72192700019E+03  0.00000000000E+00 0. -1.
        -13    1    3    3    0    0  0.19417995697E+03  0.72579600887E+02  0.86359548414E+02  0.22456986832E+03  0.00000000000E+00 0.  1.
         22    1    1    2    0    0 -0.83891372153E+03 -0.14617706091E+03 -0.29192422211E+03  0.90020204219E+03  0.00000000000E+00 0.  1.
<mgrwt>
<rscale>  0 0.18433726E+04</rscale>
<asrwt>0</asrwt>
<pdfrwt beam="1">  1        1 0.15057608E+00 0.18433726E+04</pdfrwt>
<pdfrwt beam="2">  1       -1 0.13353144E+00 0.18433726E+04</pdfrwt>
<totfact> 0.70042507E+00</totfact>
</mgrwt>
</event>
<event>
 6    1  0.9512547E-007  0.1340763E+04  0.7818608E-02  0.8997850E-01
         -1   -1    0    0    0  501 -0.00000000000E+00  0.00000000000E+00  0.10794861080E+04  0.10794861080E+04  0.00000000000E+00 0.  1.
          1   -1    0    0  501    0  0.00000000000E+00 -0.00000000000E+00 -0.41631988650E+03  0.41631988650E+03  0.00000000000E+00 0. -1.
         23    2    1    2    0    0  0.52446231231E+03  0.70880882593E+02 -0.11961377024E+03  0.55090952822E+03  0.95441278824E+02 0.  0.
         11    1    3    3    0    0  0.13174887437E+03 -0.82123414460E+01 -0.63213539158E+02  0.14635969385E+03  0.00000000000E+00 0.  1.
        -11    1    3    3    0    0  0.39271343793E+03  0.79093224039E+02 -0.56400231081E+02  0.40454983437E+03  0.00000000000E+00 0. -1.
         22    1    1    2    0    0 -0.52446231231E+03 -0.70880882593E+02  0.78277999178E+03  0.94489646633E+03  0.00000000000E+00 0.  1.
<mgrwt>
<rscale>  0 0.13407633E+04</rscale>
<asrwt>0</asrwt>
<pdfrwt beam="1">  1        1 0.64049214E-01 0.13407633E+04</pdfrwt>
<pdfrwt beam="2">  1       -1 0.16607478E+00 0.13407633E+04</pdfrwt>
<totfact> 0.14654537E+01</totfact>
</mgrwt>
</event>
<event>
 6    1  0.9512547E-007  0.1361831E+04  0.7818608E-02  0.8981920E-01
         -1   -1    0    0    0  501 -0.00000000000E+00  0.00000000000E+00  0.22433386627E+04  0.22433386627E+04  0.00000000000E+00 0.  1.
          1   -1    0    0  501    0  0.00000000000E+00 -0.00000000000E+00 -0.20667669948E+03  0.20667669948E+03  0.00000000000E+00 0. -1.
         23    2    1    2    0    0  0.13060858985E+03  0.35279218153E+03  0.10337569754E+02  0.38906619380E+03  0.98715301362E+02 0.  0.
         13    1    3    3    0    0  0.13301192928E+03  0.35631134909E+03  0.17500804225E+02  0.38073117678E+03  0.00000000000E+00 0.  1.
        -13    1    3    3    0    0 -0.24033394272E+01 -0.35191675645E+01 -0.71632344707E+01  0.83350170265E+01  0.00000000000E+00 0. -1.
         22    1    1    2    0    0 -0.13060858985E+03 -0.35279218153E+03  0.20263243934E+04  0.20609491683E+04  0.00000000000E+00 0.  1.
<mgrwt>
<rscale>  0 0.13618309E+04</rscale>
<asrwt>0</asrwt>
<pdfrwt beam="1">  1        1 0.31796417E-01 0.13618309E+04</pdfrwt>
<pdfrwt beam="2">  1       -1 0.34512901E+00 0.13618309E+04</pdfrwt>
<totfact> 0.23492234E+00</totfact>
</mgrwt>
</event>
<event>
 6    1  0.9512547E-007  0.2709593E+04  0.7818608E-02  0.8331899E-01
         -4   -1    0    0    0  501 -0.00000000000E+00  0.00000000000E+00  0.19866916873E+04  0.19866916873E+04  0.00000000000E+00 0.  1.
          4   -1    0    0  501    0  0.00000000000E+00 -0.00000000000E+00 -0.92388443852E+03  0.92388443852E+03  0.00000000000E+00 0. -1.
         23    2    1    2    0    0  0.12393546420E+04  0.24116313324E+03  0.90373556938E+01  0.12660121796E+04  0.92442303626E+02 0.  0.
         11    1    3    3    0    0  0.80605002554E+03  0.18717289342E+03  0.38257315944E+02  0.82838032203E+03  0.00000000000E+00 0. -1.
        -11    1    3    3    0    0  0.43330461650E+03  0.53990239815E+02 -0.29219960250E+02  0.43763185756E+03  0.00000000000E+00 0.  1.
         22    1    1    2    0    0 -0.12393546420E+04 -0.24116313324E+03  0.10537698931E+04  0.16445639462E+04  0.00000000000E+00 0.  1.
<mgrwt>
<rscale>  0 0.27095930E+04</rscale>
<asrwt>0</asrwt>
<pdfrwt beam="1">  1        4 0.14213607E+00 0.27095930E+04</pdfrwt>
<pdfrwt beam="2">  1       -4 0.30564487E+00 0.27095930E+04</pdfrwt>
<totfact> 0.17073290E-02</totfact>
</mgrwt>
</event>
<event>
 6    1  0.9512547E-007  0.2235518E+04  0.7818608E-02  0.8503789E-01
          2   -1    0    0  501    0  0.00000000000E+00  0.00000000000E+00  0.19864180163E+04  0.19864180163E+04  0.00000000000E+00 0. -1.
         -2   -1    0    0    0  501 -0.00000000000E+00 -0.00000000000E+00 -0.62896379214E+03  0.62896379214E+03  0.00000000000E+00 0.  1.
         23    2    1    2    0    0 -0.61510868112E+03  0.67654459377E+03 -0.68438080321E+02  0.92149865399E+03  0.91677268231E+02 0.  0.
         11    1    3    3    0    0 -0.55201681749E+03  0.59727018596E+03 -0.32331507692E+02  0.81394076457E+03  0.00000000000E+00 0. -1.
        -11    1    3    3    0    0 -0.63091863632E+02  0.79274407810E+02 -0.36106572629E+02  0.10755788942E+03  0.00000000000E+00 0.  1.
         22    1    1    2    0    0  0.61510868112E+03 -0.67654459377E+03  0.14258923045E+04  0.16938831544E+04  0.00000000000E+00 0. -1.
<mgrwt>
<rscale>  0 0.22355178E+04</rscale>
<asrwt>0</asrwt>
<pdfrwt beam="1">  1        2 0.30560277E+00 0.22355178E+04</pdfrwt>
<pdfrwt beam="2">  1       -2 0.96763661E-01 0.22355178E+04</pdfrwt>
<totfact> 0.55306588E+00</totfact>
</mgrwt>
</event>
<event>
 6    1  0.9512547E-007  0.4247560E+04  0.7818608E-02  0.7956387E-01
         -2   -1    0    0    0  501 -0.00000000000E+00  0.00000000000E+00  0.12639094252E+04  0.12639094252E+04  0.00000000000E+00 0.  1.
          2   -1    0    0  501    0  0.00000000000E+00 -0.00000000000E+00 -0.35686424681E+04  0.35686424681E+04  0.00000000000E+00 0. -1.
         23    2    1    2    0    0  0.16995360499E+04 -0.10802368495E+04 -0.38880294469E+03  0.20529615319E+04  0.90271178742E+02 0.  0.
         13    1    3    3    0    0  0.14244794543E+03 -0.79686512704E+02 -0.84545031118E+01  0.16344061945E+03  0.00000000000E+00 0.  1.
        -13    1    3    3    0    0  0.15570881045E+04 -0.10005503368E+04 -0.38034844158E+03  0.18895209124E+04  0.00000000000E+00 0. -1.
         22    1    1    2    0    0 -0.16995360499E+04  0.10802368495E+04 -0.19159300982E+04  0.27795903614E+04  0.00000000000E+00 0. -1.
<mgrwt>
<rscale>  0 0.42475597E+04</rscale>
<asrwt>0</asrwt>
<pdfrwt beam="1">  1        2 0.54902191E+00 0.42475597E+04</pdfrwt>
<pdfrwt beam="2">  1       -2 0.19444761E+00 0.42475597E+04</pdfrwt>
<totfact> 0.81203410E-02</totfact>
</mgrwt>
</event>
<event>
 6    1  0.9512547E-007  0.4371292E+04  0.7818608E-02  0.7933566E-01
         -2   -1    0    0    0  501 -0.00000000000E+00  0.00000000000E+00  0.14772445422E+04  0.14772445422E+04  0.00000000000E+00 0.  1.
          2   -1    0    0  501    0  0.00000000000E+00 -0.00000000000E+00 -0.32337556866E+04  0.32337556866E+04  0.00000000000E+00 0. -1.
         23    2    1    2    0    0  0.14657372932E+04 -0.16040471605E+04 -0.11231358281E+04  0.24477023259E+04  0.91975441550E+02 0.  0.
         13    1    3    3    0    0  0.78410971257E+03 -0.79242023870E+03 -0.56193375569E+03  0.12484099574E+04  0.00000000000E+00 0.  1.
        -13    1    3    3    0    0  0.68162758067E+03 -0.81162692181E+03 -0.56120207244E+03  0.11992923685E+04  0.00000000000E+00 0. -1.
         22    1    1    2    0    0 -0.14657372932E+04  0.16040471605E+04 -0.63337531625E+03  0.22632979029E+04  0.00000000000E+00 0.  1.
<mgrwt>
<rscale>  0 0.43712918E+04</rscale>
<asrwt>0</asrwt>
<pdfrwt beam="1">  1        2 0.49750087E+00 0.43712918E+04</pdfrwt>
<pdfrwt beam="2">  1       -2 0.22726839E+00 0.43712918E+04</pdfrwt>
<totfact> 0.83822939E-02</totfact>
</mgrwt>
</event>
<event>
 6    1  0.9512547E-007  0.2069400E+04  0.7818608E-02  0.8574844E-01
         -2   -1    0    0    0  501 -0.00000000000E+00  0.00000000000E+00  0.15882772965E+04  0.15882772965E+04  0.00000000000E+00 0.  1.
          2   -1    0    0  501    0  0.00000000000E+00 -0.00000000000E+00 -0.67406612477E+03  0.67406612477E+03  0.00000000000E+00 0. -1.
         23    2    1    2    0    0  0.21476494670E+03  0.72358550935E+03  0.12284473133E+04  0.14447589766E+04  0.92443101995E+02 0.  0.
         11    1    3    3    0    0  0.10729379541E+03  0.48835912102E+03  0.85589346447E+03  0.99124175262E+03  0.00000000000E+00 0. -1.
        -11    1    3    3    0    0  0.10747115129E+03  0.23522638832E+03  0.37255384884E+03  0.45351722394E+03  0.00000000000E+00 0.  1.
         22    1    1    2    0    0 -0.21476494670E+03 -0.72358550935E+03 -0.31423614154E+03  0.81758444476E+03  0.00000000000E+00 0. -1.
<mgrwt>
<rscale>  0 0.20693998E+04</rscale>
<asrwt>0</asrwt>
<pdfrwt beam="1">  1        2 0.10370248E+00 0.20693998E+04</pdfrwt>
<pdfrwt beam="2">  1       -2 0.24435035E+00 0.20693998E+04</pdfrwt>
<totfact> 0.27632845E+00</totfact>
</mgrwt>
</event>
<event>
 6    1  0.9512547E-007  0.4008066E+03  0.7818608E-02  0.1043501E+00
         -2   -1    0    0    0  501 -0.00000000000E+00  0.00000000000E+00  0.42968231794E+02  0.42968231794E+02  0.00000000000E+00 0.  1.
          2   -1    0    0  501    0  0.00000000000E+00 -0.00000000000E+00 -0.93467851748E+03  0.93467851748E+03  0.00000000000E+00 0. -1.
         23    2    1    2    0    0 -0.18602918088E+03 -0.18265607521E+02 -0.40510220396E+03  0.45637147290E+03  0.96055385429E+02 0.  0.
         11    1    3    3    0    0 -0.82109013568E+02  0.38046616144E+02 -0.20272357515E+03  0.22200514190E+03  0.00000000000E+00 0. -1.
        -11    1    3    3    0    0 -0.10392016731E+03 -0.56312223665E+02 -0.20237862881E+03  0.23436633100E+03  0.00000000000E+00 0.  1.
         22    1    1    2    0    0  0.18602918088E+03  0.18265607521E+02 -0.48660808173E+03  0.52127527637E+03  0.00000000000E+00 0. -1.
<mgrwt>
<rscale>  0 0.40080660E+03</rscale>
<asrwt>0</asrwt>
<pdfrwt beam="1">  1        2 0.14379669E+00 0.40080660E+03</pdfrwt>
<pdfrwt beam="2">  1       -2 0.66104976E-02 0.40080660E+03</pdfrwt>
<totfact> 0.36924386E+03</totfact>
</mgrwt>
</event>
<event>
 6    1  0.9512547E-007  0.1447834E+04  0.7818608E-02  0.8919903E-01
         -1   -1    0    0    0  501 -0.00000000000E+00  0.00000000000E+00  0.32125435813E+03  0.32125435813E+03  0.00000000000E+00 0.  1.
          1   -1    0    0  501    0  0.00000000000E+00 -0.00000000000E+00 -0.16312804019E+04  0.16312804019E+04  0.00000000000E+00 0. -1.
         23    2    1    2    0    0  0.21758252287E+03  0.65629675203E+03 -0.38221850767E+03  0.79542871258E+03  0.92456845060E+02 0.  0.
         11    1    3    3    0    0  0.91110735347E+02  0.41734951012E+03 -0.23854100935E+03  0.48926842615E+03  0.00000000000E+00 0. -1.
        -11    1    3    3    0    0  0.12647178752E+03  0.23894724191E+03 -0.14367749833E+03  0.30616028642E+03  0.00000000000E+00 0.  1.
         22    1    1    2    0    0 -0.21758252287E+03 -0.65629675203E+03 -0.92780753606E+03  0.11571060474E+04  0.00000000000E+00 0. -1.
<mgrwt>
<rscale>  0 0.14478342E+04</rscale>
<asrwt>0</asrwt>
<pdfrwt beam="1">  1        1 0.25096621E+00 0.14478342E+04</pdfrwt>
<pdfrwt beam="2">  1       -1 0.49423748E-01 0.14478342E+04</pdfrwt>
<totfact> 0.21170497E+01</totfact>
</mgrwt>
</event>
<event>
 6    1  0.9512547E-007  0.2295502E+04  0.7818608E-02  0.8479697E-01
         -2   -1    0    0    0  501 -0.00000000000E+00  0.00000000000E+00  0.59723372971E+03  0.59723372971E+03  0.00000000000E+00 0.  1.
          2   -1    0    0  501    0  0.00000000000E+00 -0.00000000000E+00 -0.22057229083E+04  0.22057229083E+04  0.00000000000E+00 0. -1.
         23    2    1    2    0    0  0.64326312205E+03  0.70102522205E+03 -0.15855713219E+04  0.18512481563E+04  0.88653894617E+02 0.  0.
         13    1    3    3    0    0  0.35406025536E+03  0.32469841414E+03 -0.82853728036E+03  0.95773782922E+03  0.00000000000E+00 0.  1.
        -13    1    3    3    0    0  0.28920286669E+03  0.37632680791E+03 -0.75703404157E+03  0.89351032705E+03  0.00000000000E+00 0. -1.
         22    1    1    2    0    0 -0.64326312205E+03 -0.70102522205E+03 -0.22917856708E+02  0.95170848178E+03  0.00000000000E+00 0.  1.
<mgrwt>
<rscale>  0 0.22955018E+04</rscale>
<asrwt>0</asrwt>
<pdfrwt beam="1">  1        2 0.33934199E+00 0.22955018E+04</pdfrwt>
<pdfrwt beam="2">  1       -2 0.91882112E-01 0.22955018E+04</pdfrwt>
<totfact> 0.46823022E+00</totfact>
</mgrwt>
</event>
<event>
 6    1  0.9512547E-007  0.5953022E+03  0.7818608E-02  0.9915201E-01
         -2   -1    0    0    0  501 -0.00000000000E+00  0.00000000000E+00  0.15471629156E+03  0.15471629156E+03  0.00000000000E+00 0.  1.
          2   -1    0    0  501    0  0.00000000000E+00 -0.00000000000E+00 -0.57263643911E+03  0.57263643911E+03  0.00000000000E+00 0. -1.
         23    2    1    2    0    0 -0.23777780718E+03 -0.16493169401E+03 -0.26711093614E+03  0.40103361152E+03  0.75755898055E+02 0.  0.
         13    1    3    3    0    0 -0.16624424458E+03 -0.15247101996E+03 -0.18795061912E+03  0.29361538790E+03  0.00000000000E+00 0. -1.
        -13    1    3    3    0    0 -0.71533562595E+02 -0.12460674049E+02 -0.79160317026E+02  0.10741822363E+03  0.00000000000E+00 0.  1.
         22    1    1    2    0    0  0.23777780718E+03  0.16493169401E+03 -0.15080921140E+03  0.32631911914E+03  0.00000000000E+00 0.  1.
<mgrwt>
<rscale>  0 0.59530223E+03</rscale>
<asrwt>0</asrwt>
<pdfrwt beam="1">  1        2 0.88097912E-01 0.59530223E+03</pdfrwt>
<pdfrwt beam="2">  1       -2 0.23802507E-01 0.59530223E+03</pdfrwt>
<totfact> 0.82550584E+02</totfact>
</mgrwt>
</event>
<event>
 6    1  0.9512547E-007  0.1679588E+04  0.7818608E-02  0.8773093E-01
         -1   -1    0    0    0  501 -0.00000000000E+00  0.00000000000E+00  0.11825714312E+04  0.11825714312E+04  0.00000000000E+00 0.  1.
          1   -1    0    0  501    0  0.00000000000E+00 -0.00000000000E+00 -0.59637294651E+03  0.59637294651E+03  0.00000000000E+00 0. -1.
         23    2    1    2    0    0 -0.72757663920E+03 -0.34957086495E+03  0.58319171884E+02  0.81446310554E+03  0.91550362849E+02 0.  0.
         11    1    3    3    0    0 -0.19694016894E+03 -0.83833910430E+02 -0.23764923794E+02  0.21535627756E+03  0.00000000000E+00 0. -1.
        -11    1    3    3    0    0 -0.53063647026E+03 -0.26573695452E+03  0.82084095678E+02  0.59910682798E+03  0.00000000000E+00 0.  1.
         22    1    1    2    0    0  0.72757663920E+03  0.34957086495E+03  0.52787931285E+03  0.96448127222E+03  0.00000000000E+00 0.  1.
<mgrwt>
<rscale>  0 0.16795876E+04</rscale>
<asrwt>0</asrwt>
<pdfrwt beam="1">  1        1 0.91749684E-01 0.16795876E+04</pdfrwt>
<pdfrwt beam="2">  1       -1 0.18193407E+00 0.16795876E+04</pdfrwt>
<totfact> 0.66376348E+00</totfact>
</mgrwt>
</event>
<event>
 6    1  0.9512547E-007  0.2171475E+04  0.7818608E-02  0.8530396E-01
         -1   -1    0    0    0  501 -0.00000000000E+00  0.00000000000E+00  0.12483971778E+04  0.12483971778E+04  0.00000000000E+00 0.  1.
          1   -1    0    0  501    0  0.00000000000E+00 -0.00000000000E+00 -0.94427150649E+03  0.94427150649E+03  0.00000000000E+00 0. -1.
         23    2    1    2    0    0 -0.88160915493E+03 -0.29788004884E+02  0.78791469899E+03  0.11866001724E+04  0.95332937588E+02 0.  0.
         11    1    3    3    0    0 -0.48415116796E+03 -0.30484400427E+02  0.37210944626E+03  0.61138947660E+03  0.00000000000E+00 0. -1.
        -11    1    3    3    0    0 -0.39745798698E+03  0.69639554357E+00  0.41580525273E+03  0.57521069581E+03  0.00000000000E+00 0.  1.
         22    1    1    2    0    0  0.88160915493E+03  0.29788004884E+02 -0.48378902768E+03  0.10060685119E+04  0.00000000000E+00 0. -1.
<mgrwt>
<rscale>  0 0.21714750E+04</rscale>
<asrwt>0</asrwt>
<pdfrwt beam="1">  1        1 0.14527254E+00 0.21714750E+04</pdfrwt>
<pdfrwt beam="2">  1       -1 0.19206110E+00 0.21714750E+04</pdfrwt>
<totfact> 0.26166667E+00</totfact>
</mgrwt>
</event>
<event>
 6    1  0.9512547E-007  0.9126475E+03  0.7818608E-02  0.9409908E-01
         -2   -1    0    0    0  501 -0.00000000000E+00  0.00000000000E+00  0.30373187162E+03  0.30373187162E+03  0.00000000000E+00 0.  1.
          2   -1    0    0  501    0  0.00000000000E+00 -0.00000000000E+00 -0.68557628242E+03  0.68557628242E+03  0.00000000000E+00 0. -1.
         23    2    1    2    0    0  0.60577718201E+02 -0.38612823008E+02 -0.67624439526E+03  0.68627026715E+03  0.92194291614E+02 0.  0.
         11    1    3    3    0    0  0.38848854055E+02 -0.64912996331E+02 -0.34078942468E+03  0.34908503625E+03  0.00000000000E+00 0. -1.
        -11    1    3    3    0    0  0.21728864146E+02  0.26300173323E+02 -0.33545497058E+03  0.33718523090E+03  0.00000000000E+00 0.  1.
         22    1    1    2    0    0 -0.60577718201E+02  0.38612823008E+02  0.29439998446E+03  0.30303788689E+03  0.00000000000E+00 0.  1.
<mgrwt>
<rscale>  0 0.91264751E+03</rscale>
<asrwt>0</asrwt>
<pdfrwt beam="1">  1        2 0.10547327E+00 0.91264751E+03</pdfrwt>
<pdfrwt beam="2">  1       -2 0.46727981E-01 0.91264751E+03</pdfrwt>
<totfact> 0.18308332E+02</totfact>
</mgrwt>
</event>
<event>
 6    1  0.9512547E-007  0.2260449E+04  0.7818608E-02  0.8493681E-01
          2   -1    0    0  501    0  0.00000000000E+00  0.00000000000E+00  0.25182973190E+04  0.25182973190E+04  0.00000000000E+00 0. -1.
         -2   -1    0    0    0  501 -0.00000000000E+00 -0.00000000000E+00 -0.50725033949E+03  0.50725033949E+03  0.00000000000E+00 0.  1.
         23    2    1    2    0    0  0.52966214095E+03 -0.10263958932E+03  0.23336697191E+04  0.23969282976E+04  0.90410381478E+02 0.  0.
         11    1    3    3    0    0  0.38123167477E+02  0.13798764082E+02  0.22276113051E+03  0.22642063301E+03  0.00000000000E+00 0. -1.
        -11    1    3    3    0    0  0.49153897347E+03 -0.11643835340E+03  0.21109085886E+04  0.21705076646E+04  0.00000000000E+00 0.  1.
         22    1    1    2    0    0 -0.52966214095E+03  0.10263958932E+03 -0.32262273956E+03  0.62861936093E+03  0.00000000000E+00 0.  1.
<mgrwt>
<rscale>  0 0.22604488E+04</rscale>
<asrwt>0</asrwt>
<pdfrwt beam="1">  1        2 0.38743035E+00 0.22604488E+04</pdfrwt>
<pdfrwt beam="2">  1       -2 0.78038515E-01 0.22604488E+04</pdfrwt>
<totfact> 0.45157907E+00</totfact>
</mgrwt>
</event>
<event>
 6    1  0.9512547E-007  0.2109184E+04  0.7818608E-02  0.8557208E-01
         -1   -1    0    0    0  501 -0.00000000000E+00  0.00000000000E+00  0.93336444188E+03  0.93336444188E+03  0.00000000000E+00 0.  1.
          1   -1    0    0  501    0  0.00000000000E+00 -0.00000000000E+00 -0.11915652710E+04  0.11915652710E+04  0.00000000000E+00 0. -1.
         23    2    1    2    0    0  0.17447289680E+03 -0.10072218097E+04 -0.38243473967E+03  0.10951867206E+04  0.90780268349E+02 0.  0.
         13    1    3    3    0    0 -0.27346490781E+01 -0.91400611671E+01 -0.13319542081E+02  0.16383809843E+02  0.00000000000E+00 0. -1.
        -13    1    3    3    0    0  0.17720754588E+03 -0.99808174855E+03 -0.36911519759E+03  0.10788029107E+04  0.00000000000E+00 0.  1.
         22    1    1    2    0    0 -0.17447289680E+03  0.10072218097E+04  0.12423391054E+03  0.10297429923E+04  0.00000000000E+00 0. -1.
<mgrwt>
<rscale>  0 0.21091843E+04</rscale>
<asrwt>0</asrwt>
<pdfrwt beam="1">  1        1 0.18331773E+00 0.21091843E+04</pdfrwt>
<pdfrwt beam="2">  1       -1 0.14359453E+00 0.21091843E+04</pdfrwt>
<totfact> 0.39056665E+00</totfact>
</mgrwt>
</event>
<event>
 6    1  0.9512547E-007  0.2361898E+04  0.7818608E-02  0.8453908E-01
         -2   -1    0    0    0  501 -0.00000000000E+00  0.00000000000E+00  0.57769039242E+03  0.57769039242E+03  0.00000000000E+00 0.  1.
          2   -1    0    0  501    0  0.00000000000E+00 -0.00000000000E+00 -0.24141656299E+04  0.24141656299E+04  0.00000000000E+00 0. -1.
         23    2    1    2    0    0 -0.35268154343E+03 -0.52772588911E+03  0.33910870944E+03  0.72557175171E+03  0.92632418512E+02 0.  0.
         11    1    3    3    0    0 -0.15118738408E+03 -0.27052954205E+03  0.12078666292E+03  0.33261580865E+03  0.00000000000E+00 0. -1.
        -11    1    3    3    0    0 -0.20149415935E+03 -0.25719634706E+03  0.21832204652E+03  0.39295594306E+03  0.00000000000E+00 0.  1.
         22    1    1    2    0    0  0.35268154343E+03  0.52772588911E+03 -0.21755839470E+04  0.22662842707E+04  0.00000000000E+00 0. -1.
<mgrwt>
<rscale>  0 0.23618978E+04</rscale>
<asrwt>0</asrwt>
<pdfrwt beam="1">  1        2 0.37141010E+00 0.23618978E+04</pdfrwt>
<pdfrwt beam="2">  1       -2 0.88875445E-01 0.23618978E+04</pdfrwt>
<totfact> 0.38284742E+00</totfact>
</mgrwt>
</event>
<event>
 6    1  0.9512547E-007  0.1829700E+04  0.7818608E-02  0.8690663E-01
         -2   -1    0    0    0  501 -0.00000000000E+00  0.00000000000E+00  0.37612692967E+03  0.37612692967E+03  0.00000000000E+00 0.  1.
          2   -1    0    0  501    0  0.00000000000E+00 -0.00000000000E+00 -0.22251822780E+04  0.22251822780E+04  0.00000000000E+00 0. -1.
         23    2    1    2    0    0  0.51089241944E+02 -0.84397929645E+03 -0.14148038012E+04  0.16507906283E+04  0.92351173769E+02 0.  0.
         11    1    3    3    0    0  0.74569356620E+02 -0.47940948263E+03 -0.81622324604E+03  0.94953379527E+03  0.00000000000E+00 0.  1.
        -11    1    3    3    0    0 -0.23480114676E+02 -0.36456981382E+03 -0.59858055514E+03  0.70125683307E+03  0.00000000000E+00 0. -1.
         22    1    1    2    0    0 -0.51089241944E+02  0.84397929645E+03 -0.43425154716E+03  0.95051857935E+03  0.00000000000E+00 0. -1.
<mgrwt>
<rscale>  0 0.18297005E+04</rscale>
<asrwt>0</asrwt>
<pdfrwt beam="1">  1        2 0.34233574E+00 0.18297005E+04</pdfrwt>
<pdfrwt beam="2">  1       -2 0.57865681E-01 0.18297005E+04</pdfrwt>
<totfact> 0.13162795E+01</totfact>
</mgrwt>
</event>
<event>
 6    1  0.9512547E-007  0.2792719E+04  0.7818608E-02  0.8305532E-01
         -2   -1    0    0    0  501 -0.00000000000E+00  0.00000000000E+00  0.11818123596E+04  0.11818123596E+04  0.00000000000E+00 0.  1.
          2   -1    0    0  501    0  0.00000000000E+00 -0.00000000000E+00 -0.16498553625E+04  0.16498553625E+04  0.00000000000E+00 0. -1.
         23    2    1    2    0    0 -0.19920974329E+03  0.10333286307E+04  0.69402044139E+03  0.12639164569E+04  0.91475986439E+02 0.  0.
         13    1    3    3    0    0 -0.11261792426E+03  0.71832607001E+03  0.43773520696E+03  0.84869738490E+03  0.00000000000E+00 0. -1.
        -13    1    3    3    0    0 -0.86591819027E+02  0.31500256072E+03  0.25628523443E+03  0.41521907202E+03  0.00000000000E+00 0.  1.
         22    1    1    2    0    0  0.19920974329E+03 -0.10333286307E+04 -0.11620634443E+04  0.15677512652E+04  0.00000000000E+00 0. -1.
<mgrwt>
<rscale>  0 0.27927187E+04</rscale>
<asrwt>0</asrwt>
<pdfrwt beam="1">  1        2 0.25382390E+00 0.27927187E+04</pdfrwt>
<pdfrwt beam="2">  1       -2 0.18181729E+00 0.27927187E+04</pdfrwt>
<totfact> 0.16044763E+00</totfact>
</mgrwt>
</event>
<event>
 6    1  0.9512547E-007  0.2853110E+04  0.7818608E-02  0.8286967E-01
         -2   -1    0    0    0  501 -0.00000000000E+00  0.00000000000E+00  0.13272939423E+04  0.13272939423E+04  0.00000000000E+00 0.  1.
          2   -1    0    0  501    0  0.00000000000E+00 -0.00000000000E+00 -0.15332392227E+04  0.15332392227E+04  0.00000000000E+00 0. -1.
         23    2    1    2    0    0  0.34898993921E+03  0.13292230542E+04  0.27534335759E+03  0.14044196190E+04  0.89177329250E+02 0.  0.
         11    1    3    3    0    0  0.22976101301E+03  0.92107381640E+03  0.23029094846E+03  0.97683213466E+03  0.00000000000E+00 0.  1.
        -11    1    3    3    0    0  0.11922892621E+03  0.40814923784E+03  0.45052409130E+02  0.42758748434E+03  0.00000000000E+00 0. -1.
         22    1    1    2    0    0 -0.34898993921E+03 -0.13292230542E+04 -0.48128863800E+03  0.14561135459E+04  0.00000000000E+00 0. -1.
<mgrwt>
<rscale>  0 0.28531100E+04</rscale>
<asrwt>0</asrwt>
<pdfrwt beam="1">  1        2 0.23588296E+00 0.28531100E+04</pdfrwt>
<pdfrwt beam="2">  1       -2 0.20419907E+00 0.28531100E+04</pdfrwt>
<totfact> 0.13151537E+00</totfact>
</mgrwt>
</event>
<event>
 6    1  0.9512547E-007  0.1435563E+04  0.7818608E-02  0.8928471E-01
          1   -1    0    0  501    0  0.00000000000E+00  0.00000000000E+00  0.23428837415E+04  0.23428837415E+04  0.00000000000E+00 0. -1.
         -1   -1    0    0    0  501 -0.00000000000E+00 -0.00000000000E+00 -0.21990425648E+03  0.21990425648E+03  0.00000000000E+00 0.  1.
         23    2    1    2    0    0  0.43683923676E+03  0.25896623569E+03  0.19640690225E+04  0.20306746970E+04  0.90446503462E+02 0.  0.
         11    1    3    3    0    0  0.22614654548E+03  0.18494173383E+03  0.10751625803E+04  0.11141455376E+04  0.00000000000E+00 0. -1.
        -11    1    3    3    0    0  0.21069269128E+03  0.74024501866E+02  0.88890644218E+03  0.91652915938E+03  0.00000000000E+00 0.  1.
         22    1    1    2    0    0 -0.43683923676E+03 -0.25896623569E+03  0.15891046260E+03  0.53211330103E+03  0.00000000000E+00 0.  1.
<mgrwt>
<rscale>  0 0.14355628E+04</rscale>
<asrwt>0</asrwt>
<pdfrwt beam="1">  1        1 0.36044363E+00 0.14355628E+04</pdfrwt>
<pdfrwt beam="2">  1       -1 0.33831426E-01 0.14355628E+04</pdfrwt>
<totfact> 0.13977204E+01</totfact>
</mgrwt>
</event>
<event>
 6    1  0.9512547E-007  0.1082632E+04  0.7818608E-02  0.9222287E-01
          1   -1    0    0  501    0  0.00000000000E+00  0.00000000000E+00  0.67929306646E+03  0.67929306646E+03  0.00000000000E+00 0. -1.
         -1   -1    0    0    0  501 -0.00000000000E+00 -0.00000000000E+00 -0.43136442294E+03  0.43136442294E+03  0.00000000000E+00 0.  1.
         23    2    1    2    0    0 -0.27470682034E+03  0.22113204340E+03  0.54081208405E+03  0.65224290902E+03  0.92627665167E+02 0.  0.
         11    1    3    3    0    0 -0.36538411222E+02  0.77803459543E+02  0.14529214910E+03  0.16881422453E+03  0.00000000000E+00 0.  1.
        -11    1    3    3    0    0 -0.23816840911E+03  0.14332858386E+03  0.39551993495E+03  0.48342868450E+03  0.00000000000E+00 0. -1.
         22    1    1    2    0    0  0.27470682034E+03 -0.22113204340E+03 -0.29288344054E+03  0.45841458038E+03  0.00000000000E+00 0.  1.
<mgrwt>
<rscale>  0 0.10826317E+04</rscale>
<asrwt>0</asrwt>
<pdfrwt beam="1">  1        1 0.10450663E+00 0.10826317E+04</pdfrwt>
<pdfrwt beam="2">  1       -1 0.66363757E-01 0.10826317E+04</pdfrwt>
<totfact> 0.65466517E+01</totfact>
</mgrwt>
</event>
<event>
 6    1  0.9512547E-007  0.3089944E+04  0.7818608E-02  0.8218503E-01
          1   -1    0    0  501    0  0.00000000000E+00  0.00000000000E+00  0.23173622200E+04  0.23173622200E+04  0.00000000000E+00 0. -1.
         -1   -1    0    0    0  501 -0.00000000000E+00 -0.00000000000E+00 -0.10300236690E+04  0.10300236690E+04  0.00000000000E+00 0.  1.
         23    2    1    2    0    0  0.24880480148E+03  0.14939443748E+04  0.96724862711E+03  0.17994094087E+04  0.92361731888E+02 0.  0.
         13    1    3    3    0    0  0.60024365569E+02  0.63658886975E+03  0.41309876416E+03  0.76124825288E+03  0.00000000000E+00 0. -1.
        -13    1    3    3    0    0  0.18878043592E+03  0.85735550501E+03  0.55414986295E+03  0.10381611559E+04  0.00000000000E+00 0.  1.
         22    1    1    2    0    0 -0.24880480148E+03 -0.14939443748E+04  0.32008992386E+03  0.15479764803E+04  0.00000000000E+00 0. -1.
<mgrwt>
<rscale>  0 0.30899436E+04</rscale>
<asrwt>0</asrwt>
<pdfrwt beam="1">  1        1 0.35651726E+00 0.30899436E+04</pdfrwt>
<pdfrwt beam="2">  1       -1 0.15846518E+00 0.30899436E+04</pdfrwt>
<totfact> 0.45900762E-01</totfact>
</mgrwt>
</event>
<event>
 6    1  0.9512547E-007  0.1357097E+04  0.7818608E-02  0.8985473E-01
         -2   -1    0    0    0  501 -0.00000000000E+00  0.00000000000E+00  0.11197136128E+03  0.11197136128E+03  0.00000000000E+00 0.  1.
          2   -1    0    0  501    0  0.00000000000E+00 -0.00000000000E+00 -0.41120158735E+04  0.41120158735E+04  0.00000000000E+00 0. -1.
         23    2    1    2    0    0 -0.25559611941E+03  0.22440648292E+03 -0.38255029170E+04  0.38416883801E+04  0.91702758195E+02 0.  0.
         13    1    3    3    0    0 -0.12958436917E+03  0.10081717062E+03 -0.23363742341E+04  0.23421359423E+04  0.00000000000E+00 0.  1.
        -13    1    3    3    0    0 -0.12601175024E+03  0.12358931230E+03 -0.14891286829E+04  0.14995524378E+04  0.00000000000E+00 0. -1.
         22    1    1    2    0    0  0.25559611941E+03 -0.22440648292E+03 -0.17454159522E+03  0.38229885469E+03  0.00000000000E+00 0.  1.
<mgrwt>
<rscale>  0 0.13570969E+04</rscale>
<asrwt>0</asrwt>
<pdfrwt beam="1">  1        2 0.63261775E+00 0.13570969E+04</pdfrwt>
<pdfrwt beam="2">  1       -2 0.17226365E-01 0.13570969E+04</pdfrwt>
<totfact> 0.77366442E+00</totfact>
</mgrwt>
</event>
<event>
 6    1  0.9512547E-007  0.4193021E+04  0.7818608E-02  0.7966701E-01
          2   -1    0    0  501    0  0.00000000000E+00  0.00000000000E+00  0.19044570209E+04  0.19044570209E+04  0.00000000000E+00 0. -1.
         -2   -1    0    0    0  501 -0.00000000000E+00 -0.00000000000E+00 -0.23079309147E+04  0.23079309147E+04  0.00000000000E+00 0.  1.
         23    2    1    2    0    0 -0.22588979613E+03 -0.13357859115E+04 -0.18079338709E+04  0.22610145658E+04  0.90618893401E+02 0.  0.
         11    1    3    3    0    0 -0.12335021860E+03 -0.81513952168E+03 -0.11688727072E+04  0.14303604867E+04  0.00000000000E+00 0.  1.
        -11    1    3    3    0    0 -0.10253957753E+03 -0.52064638983E+03 -0.63906116367E+03  0.83065407909E+03  0.00000000000E+00 0. -1.
         22    1    1    2    0    0  0.22588979613E+03  0.13357859115E+04  0.14044599771E+04  0.19513733699E+04  0.00000000000E+00 0. -1.
<mgrwt>
<rscale>  0 0.41930205E+04</rscale>
<asrwt>0</asrwt>
<pdfrwt beam="1">  1        2 0.29299339E+00 0.41930205E+04</pdfrwt>
<pdfrwt beam="2">  1       -2 0.35506629E+00 0.41930205E+04</pdfrwt>
<totfact> 0.84739394E-02</totfact>
</mgrwt>
</event>
<event>
 6    1  0.9512547E-007  0.1478096E+04  0.7818608E-02  0.8899151E-01
          2   -1    0    0  501    0  0.00000000000E+00  0.00000000000E+00  0.83674621815E+03  0.83674621815E+03  0.00000000000E+00 0. -1.
         -2   -1    0    0    0  501 -0.00000000000E+00 -0.00000000000E+00 -0.65275705807E+03  0.65275705807E+03  0.00000000000E+00 0.  1.
         23    2    1    2    0    0  0.38190770286E+03 -0.85011561538E+02  0.72070424402E+03  0.82531690144E+03  0.93021080131E+02 0.  0.
         13    1    3    3    0    0  0.10975142039E+03  0.16087465740E+02  0.17514315501E+03  0.20731450884E+03  0.00000000000E+00 0.  1.
        -13    1    3    3    0    0  0.27215628248E+03 -0.10109902728E+03  0.54556108902E+03  0.61800239260E+03  0.00000000000E+00 0. -1.
         22    1    1    2    0    0 -0.38190770286E+03  0.85011561538E+02 -0.53671508395E+03  0.66418637477E+03  0.00000000000E+00 0.  1.
<mgrwt>
<rscale>  0 0.14780961E+04</rscale>
<asrwt>0</asrwt>
<pdfrwt beam="1">  1        2 0.12873019E+00 0.14780961E+04</pdfrwt>
<pdfrwt beam="2">  1       -2 0.10042416E+00 0.14780961E+04</pdfrwt>
<totfact> 0.25666972E+01</totfact>
</mgrwt>
</event>
<event>
 6    1  0.9512547E-007  0.2942977E+04  0.7818608E-02  0.8260204E-01
          1   -1    0    0  501    0  0.00000000000E+00  0.00000000000E+00  0.24376853578E+04  0.24376853578E+04  0.00000000000E+00 0. -1.
         -1   -1    0    0    0  501 -0.00000000000E+00 -0.00000000000E+00 -0.88825204935E+03  0.88825204935E+03  0.00000000000E+00 0.  1.
         23    2    1    2    0    0 -0.33833924455E+03  0.81374180804E+03  0.21051928243E+04  0.22840555453E+04  0.91780891503E+02 0.  0.
         13    1    3    3    0    0 -0.26128130566E+03  0.68611609804E+03  0.18133413111E+04  0.19563307315E+04  0.00000000000E+00 0. -1.
        -13    1    3    3    0    0 -0.77057938887E+02  0.12762571000E+03  0.29185151323E+03  0.32772481379E+03  0.00000000000E+00 0.  1.
         22    1    1    2    0    0  0.33833924455E+03 -0.81374180804E+03 -0.55575951585E+03  0.10418818618E+04  0.00000000000E+00 0.  1.
<mgrwt>
<rscale>  0 0.29429774E+04</rscale>
<asrwt>0</asrwt>
<pdfrwt beam="1">  1        1 0.37502851E+00 0.29429774E+04</pdfrwt>
<pdfrwt beam="2">  1       -1 0.13665416E+00 0.29429774E+04</pdfrwt>
<totfact> 0.57107592E-01</totfact>
</mgrwt>
</event>
<event>
 6    1  0.9512547E-007  0.3900666E+04  0.7818608E-02  0.8024891E-01
          2   -1    0    0  501    0  0.00000000000E+00  0.00000000000E+00  0.22427920167E+04  0.22427920167E+04  0.00000000000E+00 0. -1.
         -2   -1    0    0    0  501 -0.00000000000E+00 -0.00000000000E+00 -0.16960101053E+04  0.16960101053E+04  0.00000000000E+00 0.  1.
         23    2    1    2    0    0  0.14971181469E+04 -0.20312282476E+03  0.15173107368E+04  0.21430995217E+04  0.89565955466E+02 0.  0.
         13    1    3    3    0    0  0.95454445676E+03 -0.11752548797E+03  0.10237247318E+04  0.14046279532E+04  0.00000000000E+00 0. -1.
        -13    1    3    3    0    0  0.54257369011E+03 -0.85597336786E+02  0.49358600494E+03  0.73847156854E+03  0.00000000000E+00 0.  1.
         22    1    1    2    0    0 -0.14971181469E+04  0.20312282476E+03 -0.97052882542E+03  0.17957026003E+04  0.00000000000E+00 0.  1.
<mgrwt>
<rscale>  0 0.39006655E+04</rscale>
<asrwt>0</asrwt>
<pdfrwt beam="1">  1        2 0.34504493E+00 0.39006655E+04</pdfrwt>
<pdfrwt beam="2">  1       -2 0.26092463E+00 0.39006655E+04</pdfrwt>
<totfact> 0.21393686E-01</totfact>
</mgrwt>
</event>
<event>
 6    1  0.9512547E-007  0.2768837E+04  0.7818608E-02  0.8313009E-01
         -1   -1    0    0    0  501 -0.00000000000E+00  0.00000000000E+00  0.81497356482E+03  0.81497356482E+03  0.00000000000E+00 0.  1.
          1   -1    0    0  501    0  0.00000000000E+00 -0.00000000000E+00 -0.23517499705E+04  0.23517499705E+04  0.00000000000E+00 0. -1.
         23    2    1    2    0    0 -0.44646168705E+03  0.31582063657E+03  0.68346226469E+03  0.88012552388E+03  0.91812624676E+02 0.  0.
         13    1    3    3    0    0 -0.36021081716E+03  0.20860253478E+03  0.49455355790E+03  0.64641323621E+03  0.00000000000E+00 0. -1.
        -13    1    3    3    0    0 -0.86250869884E+02  0.10721810179E+03  0.18890870679E+03  0.23371228767E+03  0.00000000000E+00 0.  1.
         22    1    1    2    0    0  0.44646168705E+03 -0.31582063657E+03 -0.22202386703E+04  0.22865980114E+04  0.00000000000E+00 0. -1.
<mgrwt>
<rscale>  0 0.27688366E+04</rscale>
<asrwt>0</asrwt>
<pdfrwt beam="1">  1        1 0.36180768E+00 0.27688366E+04</pdfrwt>
<pdfrwt beam="2">  1       -1 0.12538055E+00 0.27688366E+04</pdfrwt>
<totfact> 0.82652037E-01</totfact>
</mgrwt>
</event>
<event>
 6    1  0.9512547E-007  0.1461170E+04  0.7818608E-02  0.8910693E-01
         -1   -1    0    0    0  501 -0.00000000000E+00  0.00000000000E+00  0.21237104523E+03  0.21237104523E+03  0.00000000000E+00 0.  1.
          1   -1    0    0  501    0  0.00000000000E+00 -0.00000000000E+00 -0.25133095650E+04  0.25133095650E+04  0.00000000000E+00 0. -1.
         23    2    1    2    0    0 -0.53092454922E+03  0.23820614706E+03 -0.19702049411E+04  0.20563468030E+04  0.90728268436E+02 0.  0.
         11    1    3    3    0    0 -0.21636137472E+03  0.14592697434E+03 -0.89648428983E+03  0.93369749289E+03  0.00000000000E+00 0. -1.
        -11    1    3    3    0    0 -0.31456317450E+03  0.92279172721E+02 -0.10737206513E+04  0.11226493101E+04  0.00000000000E+00 0.  1.
         22    1    1    2    0    0  0.53092454922E+03 -0.23820614706E+03 -0.33073357864E+03  0.66933380723E+03  0.00000000000E+00 0.  1.
<mgrwt>
<rscale>  0 0.14611696E+04</rscale>
<asrwt>0</asrwt>
<pdfrwt beam="1">  1        1 0.38666303E+00 0.14611696E+04</pdfrwt>
<pdfrwt beam="2">  1       -1 0.32672466E-01 0.14611696E+04</pdfrwt>
<totfact> 0.11326959E+01</totfact>
</mgrwt>
</event>
<event>
 6    1  0.9512547E-007  0.2246086E+04  0.7818608E-02  0.8499487E-01
         -2   -1    0    0    0  501 -0.00000000000E+00  0.00000000000E+00  0.58644029975E+03  0.58644029975E+03  0.00000000000E+00 0.  1.
          2   -1    0    0  501    0  0.00000000000E+00 -0.00000000000E+00 -0.21506469808E+04  0.21506469808E+04  0.00000000000E+00 0. -1.
         23    2    1    2    0    0  0.63746638881E+03 -0.78484613129E+03 -0.19362361078E+03  0.10339006204E+04  0.95464881752E+02 0.  0.
         13    1    3    3    0    0  0.10166766835E+03 -0.18523028435E+03 -0.48312187421E+02  0.21675017989E+03  0.00000000000E+00 0.  1.
        -13    1    3    3    0    0  0.53579872046E+03 -0.59961584694E+03 -0.14531142336E+03  0.81715044056E+03  0.00000000000E+00 0. -1.
         22    1    1    2    0    0 -0.63746638881E+03  0.78484613129E+03 -0.13705830703E+04  0.17031866601E+04  0.00000000000E+00 0. -1.
<mgrwt>
<rscale>  0 0.22460864E+04</rscale>
<asrwt>0</asrwt>
<pdfrwt beam="1">  1        2 0.33086877E+00 0.22460864E+04</pdfrwt>
<pdfrwt beam="2">  1       -2 0.90221584E-01 0.22460864E+04</pdfrwt>
<totfact> 0.52663601E+00</totfact>
</mgrwt>
</event>
<event>
 6    1  0.9512547E-007  0.3751228E+04  0.7818608E-02  0.8056703E-01
          1   -1    0    0  501    0  0.00000000000E+00  0.00000000000E+00  0.86641347576E+03  0.86641347576E+03  0.00000000000E+00 0. -1.
         -1   -1    0    0    0  501 -0.00000000000E+00 -0.00000000000E+00 -0.40603327027E+04  0.40603327027E+04  0.00000000000E+00 0.  1.
         23    2    1    2    0    0  0.13331015886E+04  0.12822354754E+04 -0.19975359034E+04  0.27238797012E+04  0.89907069504E+02 0.  0.
         13    1    3    3    0    0  0.95098477871E+03  0.94522900427E+03 -0.14961902302E+04  0.20090831553E+04  0.00000000000E+00 0. -1.
        -13    1    3    3    0    0  0.38211680986E+03  0.33700647118E+03 -0.50134567316E+03  0.71479654587E+03  0.00000000000E+00 0.  1.
         22    1    1    2    0    0 -0.13331015886E+04 -0.12822354754E+04 -0.11963833236E+04  0.22028664773E+04  0.00000000000E+00 0.  1.
<mgrwt>
<rscale>  0 0.37512275E+04</rscale>
<asrwt>0</asrwt>
<pdfrwt beam="1">  1        1 0.13329438E+00 0.37512275E+04</pdfrwt>
<pdfrwt beam="2">  1       -1 0.62466657E+00 0.37512275E+04</pdfrwt>
<totfact> 0.55102715E-03</totfact>
</mgrwt>
</event>
<event>
 6    1  0.9512547E-007  0.1216726E+04  0.7818608E-02  0.9098341E-01
         -2   -1    0    0    0  501 -0.00000000000E+00  0.00000000000E+00  0.65345757407E+03  0.65345757407E+03  0.00000000000E+00 0.  1.
          2   -1    0    0  501    0  0.00000000000E+00 -0.00000000000E+00 -0.56638002180E+03  0.56638002180E+03  0.00000000000E+00 0. -1.
         23    2    1    2    0    0  0.48448462242E+03  0.47475038196E+02  0.40390196704E+03  0.63901323481E+03  0.90674619780E+02 0.  0.
         11    1    3    3    0    0  0.18800423875E+03  0.13324258432E+02  0.10118369867E+03  0.21391884098E+03  0.00000000000E+00 0. -1.
        -11    1    3    3    0    0  0.29648038367E+03  0.34150779764E+02  0.30271826837E+03  0.42509439383E+03  0.00000000000E+00 0.  1.
         22    1    1    2    0    0 -0.48448462242E+03 -0.47475038196E+02 -0.31682441477E+03  0.58082436106E+03  0.00000000000E+00 0.  1.
<mgrwt>
<rscale>  0 0.12167256E+04</rscale>
<asrwt>0</asrwt>
<pdfrwt beam="1">  1        2 0.87135388E-01 0.12167256E+04</pdfrwt>
<pdfrwt beam="2">  1       -2 0.10053193E+00 0.12167256E+04</pdfrwt>
<totfact> 0.42749128E+01</totfact>
</mgrwt>
</event>
<event>
 6    1  0.9512547E-007  0.2133493E+04  0.7818608E-02  0.8546631E-01
          2   -1    0    0  501    0  0.00000000000E+00  0.00000000000E+00  0.11648484396E+04  0.11648484396E+04  0.00000000000E+00 0. -1.
         -2   -1    0    0    0  501 -0.00000000000E+00 -0.00000000000E+00 -0.97690627833E+03  0.97690627833E+03  0.00000000000E+00 0.  1.
         23    2    1    2    0    0  0.36212688072E+03 -0.29757459299E+03 -0.86568420497E+03  0.98857865341E+03  0.90510193437E+02 0.  0.
         11    1    3    3    0    0  0.23831383058E+03 -0.21035346805E+03 -0.66589200489E+03  0.73787141532E+03  0.00000000000E+00 0. -1.
        -11    1    3    3    0    0  0.12381305014E+03 -0.87221124937E+02 -0.19979220008E+03  0.25070723810E+03  0.00000000000E+00 0.  1.
         22    1    1    2    0    0 -0.36212688072E+03  0.29757459299E+03  0.10536263663E+04  0.11531760645E+04  0.00000000000E+00 0. -1.
<mgrwt>
<rscale>  0 0.21334927E+04</rscale>
<asrwt>0</asrwt>
<pdfrwt beam="1">  1        2 0.17920745E+00 0.21334927E+04</pdfrwt>
<pdfrwt beam="2">  1       -2 0.15029327E+00 0.21334927E+04</pdfrwt>
<totfact> 0.54477679E+00</totfact>
</mgrwt>
</event>
<event>
 6    1  0.9512547E-007  0.1134670E+04  0.7818608E-02  0.9172044E-01
         -1   -1    0    0    0  501 -0.00000000000E+00  0.00000000000E+00  0.15257039937E+03  0.15257039937E+03  0.00000000000E+00 0.  1.
          1   -1    0    0  501    0  0.00000000000E+00 -0.00000000000E+00 -0.21096424462E+04  0.21096424462E+04  0.00000000000E+00 0. -1.
         23    2    1    2    0    0 -0.40942771487E+03 -0.11243704064E+03 -0.24775670956E+03  0.50095418654E+03  0.96429083077E+02 0.  0.
         13    1    3    3    0    0 -0.33050869768E+03 -0.52626282189E+02 -0.17205123873E+03  0.37630725952E+03  0.00000000000E+00 0. -1.
        -13    1    3    3    0    0 -0.78919017192E+02 -0.59810758453E+02 -0.75705470822E+02  0.12464692701E+03  0.00000000000E+00 0.  1.
         22    1    1    2    0    0  0.40942771487E+03  0.11243704064E+03 -0.17093153373E+04  0.17612586591E+04  0.00000000000E+00 0. -1.
<mgrwt>
<rscale>  0 0.11346700E+04</rscale>
<asrwt>0</asrwt>
<pdfrwt beam="1">  1        1 0.32456036E+00 0.11346700E+04</pdfrwt>
<pdfrwt beam="2">  1       -1 0.23472370E-01 0.11346700E+04</pdfrwt>
<totfact> 0.39077782E+01</totfact>
</mgrwt>
</event>
<event>
 6    1  0.9512547E-007  0.3014633E+04  0.7818608E-02  0.8239565E-01
          1   -1    0    0  501    0  0.00000000000E+00  0.00000000000E+00  0.16345341448E+04  0.16345341448E+04  0.00000000000E+00 0. -1.
         -1   -1    0    0    0  501 -0.00000000000E+00 -0.00000000000E+00 -0.13900002375E+04  0.13900002375E+04  0.00000000000E+00 0.  1.
         23    2    1    2    0    0  0.81928323936E+03 -0.61074069137E+03 -0.98740448870E+03  0.14239402958E+04  0.91701272113E+02 0.  0.
         13    1    3    3    0    0  0.55040780990E+03 -0.46182024343E+03 -0.70192080481E+03  0.10044498547E+04  0.00000000000E+00 0.  1.
        -13    1    3    3    0    0  0.26887542946E+03 -0.14892044793E+03 -0.28548368389E+03  0.41949044106E+03  0.00000000000E+00 0. -1.
         22    1    1    2    0    0 -0.81928323936E+03  0.61074069137E+03  0.12319383960E+04  0.16005940866E+04  0.00000000000E+00 0. -1.
<mgrwt>
<rscale>  0 0.30146329E+04</rscale>
<asrwt>0</asrwt>
<pdfrwt beam="1">  1        1 0.25146679E+00 0.30146329E+04</pdfrwt>
<pdfrwt beam="2">  1       -1 0.21384619E+00 0.30146329E+04</pdfrwt>
<totfact> 0.54375880E-01</totfact>
</mgrwt>
</event>
<event>
 6    1  0.9512547E-007  0.1533083E+04  0.7818608E-02  0.8862747E-01
          1   -1    0    0  501    0  0.00000000000E+00  0.00000000000E+00  0.14146708712E+04  0.14146708712E+04  0.00000000000E+00 0. -1.
         -1   -1    0    0    0  501 -0.00000000000E+00 -0.00000000000E+00 -0.41535137486E+03  0.41535137486E+03  0.00000000000E+00 0.  1.
         23    2    1    2    0    0  0.75699788021E+03 -0.84713998065E+02  0.57055965249E+03  0.95591855898E+03  0.89552901886E+02 0.  0.
         13    1    3    3    0    0  0.34827862082E+03 -0.16409115730E+02  0.21289334673E+03  0.40852274586E+03  0.00000000000E+00 0.  1.
        -13    1    3    3    0    0  0.40871925939E+03 -0.68304882334E+02  0.35766630576E+03  0.54739581312E+03  0.00000000000E+00 0. -1.
         22    1    1    2    0    0 -0.75699788021E+03  0.84713998065E+02  0.42875984388E+03  0.87410368712E+03  0.00000000000E+00 0.  1.
<mgrwt>
<rscale>  0 0.15330825E+04</rscale>
<asrwt>0</asrwt>
<pdfrwt beam="1">  1        1 0.21764167E+00 0.15330825E+04</pdfrwt>
<pdfrwt beam="2">  1       -1 0.63900212E-01 0.15330825E+04</pdfrwt>
<totfact> 0.17976727E+01</totfact>
</mgrwt>
</event>
<event>
 6    1  0.9512547E-007  0.2696508E+03  0.7818608E-02  0.1101480E+00
          1   -1    0    0  501    0  0.00000000000E+00  0.00000000000E+00  0.93972945277E+03  0.93972945277E+03  0.00000000000E+00 0. -1.
         -1   -1    0    0    0  501 -0.00000000000E+00 -0.00000000000E+00 -0.19343752562E+02  0.19343752562E+02  0.00000000000E+00 0.  1.
         23    2    1    2    0    0  0.50573536207E+02 -0.10847522963E+03  0.51678269347E+03  0.53809821195E+03  0.90337010273E+02 0.  0.
         13    1    3    3    0    0  0.75294469058E+02 -0.84451733876E+02  0.43212425004E+03  0.44669085495E+03  0.00000000000E+00 0. -1.
        -13    1    3    3    0    0 -0.24720932851E+02 -0.24023495750E+02  0.84658443436E+02  0.91407357002E+02  0.00000000000E+00 0.  1.
         22    1    1    2    0    0 -0.50573536207E+02  0.10847522963E+03  0.40360300673E+03  0.42097499338E+03  0.00000000000E+00 0.  1.
<mgrwt>
<rscale>  0 0.26965084E+03</rscale>
<asrwt>0</asrwt>
<pdfrwt beam="1">  1        1 0.14457373E+00 0.26965084E+03</pdfrwt>
<pdfrwt beam="2">  1       -1 0.29759627E-02 0.26965084E+03</pdfrwt>
<totfact> 0.67750001E+03</totfact>
</mgrwt>
</event>
<event>
 6    1  0.9512547E-007  0.2917204E+04  0.7818608E-02  0.8267777E-01
          1   -1    0    0  501    0  0.00000000000E+00  0.00000000000E+00  0.17882916916E+04  0.17882916916E+04  0.00000000000E+00 0. -1.
         -1   -1    0    0    0  501 -0.00000000000E+00 -0.00000000000E+00 -0.11896941132E+04  0.11896941132E+04  0.00000000000E+00 0.  1.
         23    2    1    2    0    0  0.26546827919E+03  0.43193027272E+03  0.16942455484E+04  0.17707237612E+04  0.89204778303E+02 0.  0.
         13    1    3    3    0    0  0.85879857475E+02  0.10550984318E+03  0.58397353321E+03  0.59961051059E+03  0.00000000000E+00 0. -1.
        -13    1    3    3    0    0  0.17958842172E+03  0.32642042954E+03  0.11102720152E+04  0.11711132506E+04  0.00000000000E+00 0.  1.
         22    1    1    2    0    0 -0.26546827919E+03 -0.43193027272E+03 -0.10956479700E+04  0.12072620436E+04  0.00000000000E+00 0.  1.
<mgrwt>
<rscale>  0 0.29172042E+04</rscale>
<asrwt>0</asrwt>
<pdfrwt beam="1">  1        1 0.27512180E+00 0.29172042E+04</pdfrwt>
<pdfrwt beam="2">  1       -1 0.18302986E+00 0.29172042E+04</pdfrwt>
<totfact> 0.70408072E-01</totfact>
</mgrwt>
</event>
<event>
 6    1  0.9512547E-007  0.1006997E+04  0.7818608E-02  0.9300904E-01
          1   -1    0    0  501    0  0.00000000000E+00  0.00000000000E+00  0.10628476973E+04  0.10628476973E+04  0.00000000000E+00 0. -1.
         -1   -1    0    0    0  501 -0.00000000000E+00 -0.00000000000E+00 -0.23852022755E+03  0.23852022755E+03  0.00000000000E+00 0.  1.
         23    2    1    2    0    0  0.39778592883E+03 -0.10559391068E+02  0.25944812918E+02  0.40931410774E+03  0.92302543648E+02 0.  0.
         13    1    3    3    0    0  0.21160129478E+03 -0.18826200431E+02 -0.30431584077E+02  0.21460572006E+03  0.00000000000E+00 0.  1.
        -13    1    3    3    0    0  0.18618463405E+03  0.82668093627E+01  0.56376396995E+02  0.19470838768E+03  0.00000000000E+00 0. -1.
         22    1    1    2    0    0 -0.39778592883E+03  0.10559391068E+02  0.79838265688E+03  0.89205381716E+03  0.00000000000E+00 0. -1.
<mgrwt>
<rscale>  0 0.10069969E+04</rscale>
<asrwt>0</asrwt>
<pdfrwt beam="1">  1        1 0.16351503E+00 0.10069969E+04</pdfrwt>
<pdfrwt beam="2">  1       -1 0.36695420E-01 0.10069969E+04</pdfrwt>
<totfact> 0.96518494E+01</totfact>
</mgrwt>
</event>
<event>
 6    1  0.9512547E-007  0.3216550E+04  0.7818608E-02  0.8184460E-01
         -1   -1    0    0    0  501 -0.00000000000E+00  0.00000000000E+00  0.15938028571E+04  0.15938028571E+04  0.00000000000E+00 0.  1.
          1   -1    0    0  501    0  0.00000000000E+00 -0.00000000000E+00 -0.16228788212E+04  0.16228788212E+04  0.00000000000E+00 0. -1.
         23    2    1    2    0    0  0.37622768080E+02 -0.65846088041E+03  0.14508688133E+04  0.15964277636E+04  0.92601766567E+02 0.  0.
         13    1    3    3    0    0 -0.45445817776E+00 -0.13055876190E+03  0.20833098808E+03  0.24586093109E+03  0.00000000000E+00 0.  1.
        -13    1    3    3    0    0  0.38077226258E+02 -0.52790211851E+03  0.12425378252E+04  0.13505668325E+04  0.00000000000E+00 0. -1.
         22    1    1    2    0    0 -0.37622768080E+02  0.65846088041E+03 -0.14799447774E+04  0.16202539146E+04  0.00000000000E+00 0. -1.
<mgrwt>
<rscale>  0 0.32165503E+04</rscale>
<asrwt>0</asrwt>
<pdfrwt beam="1">  1        1 0.24967366E+00 0.32165503E+04</pdfrwt>
<pdfrwt beam="2">  1       -1 0.24520044E+00 0.32165503E+04</pdfrwt>
<totfact> 0.33700329E-01</totfact>
</mgrwt>
</event>
<event>
 6    1  0.9512547E-007  0.1166310E+04  0.7818608E-02  0.9142867E-01
         -2   -1    0    0    0  501 -0.00000000000E+00  0.00000000000E+00  0.22647219038E+03  0.22647219038E+03  0.00000000000E+00 0.  1.
          2   -1    0    0  501    0  0.00000000000E+00 -0.00000000000E+00 -0.15015970186E+04  0.15015970186E+04  0.00000000000E+00 0. -1.
         23    2    1    2    0    0  0.41338954798E+02 -0.49239391557E+03 -0.19264599516E+03  0.53814437888E+03  0.91248100192E+02 0.  0.
         11    1    3    3    0    0 -0.97836020842E+01 -0.73717994096E+02  0.19745938918E+00  0.74364645588E+02  0.00000000000E+00 0. -1.
        -11    1    3    3    0    0  0.51122556882E+02 -0.41867592148E+03 -0.19284345455E+03  0.46377973329E+03  0.00000000000E+00 0.  1.
         22    1    1    2    0    0 -0.41338954798E+02  0.49239391557E+03 -0.10824788330E+04  0.11899248301E+04  0.00000000000E+00 0.  1.
<mgrwt>
<rscale>  0 0.11663104E+04</rscale>
<asrwt>0</asrwt>
<pdfrwt beam="1">  1        2 0.23101494E+00 0.11663104E+04</pdfrwt>
<pdfrwt beam="2">  1       -2 0.34841874E-01 0.11663104E+04</pdfrwt>
<totfact> 0.96736693E+01</totfact>
</mgrwt>
</event>
<event>
 6    1  0.9512547E-007  0.1804933E+04  0.7818608E-02  0.8703680E-01
         -2   -1    0    0    0  501 -0.00000000000E+00  0.00000000000E+00  0.75405803310E+03  0.75405803310E+03  0.00000000000E+00 0.  1.
          2   -1    0    0  501    0  0.00000000000E+00 -0.00000000000E+00 -0.10800840089E+04  0.10800840089E+04  0.00000000000E+00 0. -1.
         23    2    1    2    0    0  0.62521663115E+03 -0.64349482224E+03 -0.23878755846E+03  0.93270321235E+03  0.89075036500E+02 0.  0.
         13    1    3    3    0    0  0.28295022190E+03 -0.29618270504E+03 -0.63353952683E+02  0.41448612300E+03  0.00000000000E+00 0.  1.
        -13    1    3    3    0    0  0.34226640925E+03 -0.34731211720E+03 -0.17543360578E+03  0.51821708935E+03  0.00000000000E+00 0. -1.
         22    1    1    2    0    0 -0.62521663115E+03  0.64349482224E+03 -0.87238417320E+02  0.90143882964E+03  0.00000000000E+00 0.  1.
<mgrwt>
<rscale>  0 0.18049333E+04</rscale>
<asrwt>0</asrwt>
<pdfrwt beam="1">  1        2 0.16616677E+00 0.18049333E+04</pdfrwt>
<pdfrwt beam="2">  1       -2 0.11600893E+00 0.18049333E+04</pdfrwt>
<totfact> 0.12210595E+01</totfact>
</mgrwt>
</event>
<event>
 6    1  0.9512547E-007  0.1600889E+04  0.7818608E-02  0.8820002E-01
          2   -1    0    0  501    0  0.00000000000E+00  0.00000000000E+00  0.10073756586E+04  0.10073756586E+04  0.00000000000E+00 0. -1.
         -2   -1    0    0    0  501 -0.00000000000E+00 -0.00000000000E+00 -0.63601993805E+03  0.63601993805E+03  0.00000000000E+00 0.  1.
         23    2    1    2    0    0 -0.32325326522E+03  0.61343910891E+03 -0.21877053098E+03  0.73287420397E+03  0.91890368383E+02 0.  0.
         13    1    3    3    0    0 -0.11196284862E+03  0.24230101540E+03 -0.12907251117E+03  0.29648806835E+03  0.00000000000E+00 0. -1.
        -13    1    3    3    0    0 -0.21129041660E+03  0.37113809350E+03 -0.89698019810E+02  0.43638613561E+03  0.00000000000E+00 0.  1.
         22    1    1    2    0    0  0.32325326522E+03 -0.61343910891E+03  0.59012625153E+03  0.91052139270E+03  0.00000000000E+00 0. -1.
<mgrwt>
<rscale>  0 0.16008885E+04</rscale>
<asrwt>0</asrwt>
<pdfrwt beam="1">  1        2 0.15498087E+00 0.16008885E+04</pdfrwt>
<pdfrwt beam="2">  1       -2 0.97849221E-01 0.16008885E+04</pdfrwt>
<totfact> 0.20777852E+01</totfact>
</mgrwt>
</event>
<event>
 6    1  0.9512547E-007  0.1178674E+04  0.7818608E-02  0.9131731E-01
          1   -1    0    0  501    0  0.00000000000E+00  0.00000000000E+00  0.26692148275E+04  0.26692148275E+04  0.00000000000E+00 0. -1.
         -1   -1    0    0    0  501 -0.00000000000E+00 -0.00000000000E+00 -0.13011995373E+03  0.13011995373E+03  0.00000000000E+00 0.  1.
         23    2    1    2    0    0  0.29177025272E+03 -0.41201223448E+03  0.57246853262E+03  0.76893996065E+03  0.93083191302E+02 0.  0.
         13    1    3    3    0    0  0.17982691916E+03 -0.30592842223E+03  0.35157236435E+03  0.49953282950E+03  0.00000000000E+00 0.  1.
        -13    1    3    3    0    0  0.11194333357E+03 -0.10608381225E+03  0.22089616828E+03  0.26940713114E+03  0.00000000000E+00 0. -1.
         22    1    1    2    0    0 -0.29177025272E+03  0.41201223448E+03  0.19666263412E+04  0.20303948206E+04  0.00000000000E+00 0. -1.
<mgrwt>
<rscale>  0 0.11786740E+04</rscale>
<asrwt>0</asrwt>
<pdfrwt beam="1">  1        1 0.41064840E+00 0.11786740E+04</pdfrwt>
<pdfrwt beam="2">  1       -1 0.20018456E-01 0.11786740E+04</pdfrwt>
<totfact> 0.21073252E+01</totfact>
</mgrwt>
</event>
<event>
 6    1  0.9512547E-007  0.1991318E+04  0.7818608E-02  0.8610690E-01
          2   -1    0    0  501    0  0.00000000000E+00  0.00000000000E+00  0.11519173301E+04  0.11519173301E+04  0.00000000000E+00 0. -1.
         -2   -1    0    0    0  501 -0.00000000000E+00 -0.00000000000E+00 -0.86059745094E+03  0.86059745094E+03  0.00000000000E+00 0.  1.
         23    2    1    2    0    0 -0.29433471245E+03 -0.57219173838E+03 -0.61874758817E+03  0.89794800263E+03  0.97086194334E+02 0.  0.
         13    1    3    3    0    0 -0.22553684289E+03 -0.33633384229E+03 -0.39267918691E+03  0.56407824351E+03  0.00000000000E+00 0.  1.
        -13    1    3    3    0    0 -0.68797869565E+02 -0.23585789609E+03 -0.22606840127E+03  0.33386975912E+03  0.00000000000E+00 0. -1.
         22    1    1    2    0    0  0.29433471245E+03  0.57219173838E+03  0.91006746733E+03  0.11145667784E+04  0.00000000000E+00 0. -1.
<mgrwt>
<rscale>  0 0.19913183E+04</rscale>
<asrwt>0</asrwt>
<pdfrwt beam="1">  1        2 0.17721805E+00 0.19913183E+04</pdfrwt>
<pdfrwt beam="2">  1       -2 0.13239961E+00 0.19913183E+04</pdfrwt>
<totfact> 0.78053635E+00</totfact>
</mgrwt>
</event>
<event>
 6    1  0.9512547E-007  0.2115704E+04  0.7818608E-02  0.8554357E-01
         -1   -1    0    0    0  501 -0.00000000000E+00  0.00000000000E+00  0.74561792169E+03  0.74561792169E+03  0.00000000000E+00 0.  1.
          1   -1    0    0  501    0  0.00000000000E+00 -0.00000000000E+00 -0.15008369726E+04  0.15008369726E+04  0.00000000000E+00 0. -1.
         23    2    1    2    0    0 -0.70099536371E+03  0.73313667442E+03 -0.67255649759E+02  0.10208213746E+04  0.93107857069E+02 0.  0.
         13    1    3    3    0    0 -0.35529203693E+03  0.40547473270E+03  0.45225742746E+01  0.53913137920E+03  0.00000000000E+00 0.  1.
        -13    1    3    3    0    0 -0.34570332678E+03  0.32766194173E+03 -0.71778224033E+02  0.48168999538E+03  0.00000000000E+00 0. -1.
         22    1    1    2    0    0  0.70099536371E+03 -0.73313667442E+03 -0.68796340117E+03  0.12256335197E+04  0.00000000000E+00 0. -1.
<mgrwt>
<rscale>  0 0.21157041E+04</rscale>
<asrwt>0</asrwt>
<pdfrwt beam="1">  1        1 0.23089799E+00 0.21157041E+04</pdfrwt>
<pdfrwt beam="2">  1       -1 0.11471045E+00 0.21157041E+04</pdfrwt>
<totfact> 0.41433819E+00</totfact>
</mgrwt>
</event>
<event>
 6    1  0.9512547E-007  0.2041300E+04  0.7818608E-02  0.8587552E-01
          2   -1    0    0  501    0  0.00000000000E+00  0.00000000000E+00  0.15386445098E+04  0.15386445098E+04  0.00000000000E+00 0. -1.
         -2   -1    0    0    0  501 -0.00000000000E+00 -0.00000000000E+00 -0.67704136951E+03  0.67704136951E+03  0.00000000000E+00 0.  1.
         23    2    1    2    0    0 -0.20223958942E+03 -0.91948181427E+03  0.85473389069E+03  0.12742004334E+04  0.81664327259E+02 0.  0.
         13    1    3    3    0    0 -0.72306895134E+02 -0.51550598433E+03  0.46230732979E+03  0.69620598543E+03  0.00000000000E+00 0. -1.
        -13    1    3    3    0    0 -0.12993269429E+03 -0.40397582994E+03  0.39242656090E+03  0.57799444800E+03  0.00000000000E+00 0.  1.
         22    1    1    2    0    0  0.20223958942E+03  0.91948181427E+03  0.68692496475E+01  0.94148544593E+03  0.00000000000E+00 0.  1.
<mgrwt>
<rscale>  0 0.20412996E+04</rscale>
<asrwt>0</asrwt>
<pdfrwt beam="1">  1        2 0.23671454E+00 0.20412996E+04</pdfrwt>
<pdfrwt beam="2">  1       -2 0.10416021E+00 0.20412996E+04</pdfrwt>
<totfact> 0.83780686E+00</totfact>
</mgrwt>
</event>
<event>
 6    1  0.9512547E-007  0.4761965E+04  0.7818608E-02  0.7866314E-01
         -2   -1    0    0    0  501 -0.00000000000E+00  0.00000000000E+00  0.14450445569E+04  0.14450445569E+04  0.00000000000E+00 0.  1.
          2   -1    0    0  501    0  0.00000000000E+00 -0.00000000000E+00 -0.39231155921E+04  0.39231155921E+04  0.00000000000E+00 0. -1.
         23    2    1    2    0    0  0.19013318702E+04  0.72101809093E+03 -0.26338813047E+04  0.33287468000E+04  0.91074491955E+02 0.  0.
         11    1    3    3    0    0  0.73884684225E+03  0.32783787107E+03 -0.10467390044E+04  0.13225108202E+04  0.00000000000E+00 0. -1.
        -11    1    3    3    0    0  0.11624850279E+04  0.39318021986E+03 -0.15871423002E+04  0.20062359798E+04  0.00000000000E+00 0.  1.
         22    1    1    2    0    0 -0.19013318702E+04 -0.72101809093E+03  0.15581026947E+03  0.20394133490E+04  0.00000000000E+00 0.  1.
<mgrwt>
<rscale>  0 0.47619647E+04</rscale>
<asrwt>0</asrwt>
<pdfrwt beam="1">  1        2 0.60355624E+00 0.47619647E+04</pdfrwt>
<pdfrwt beam="2">  1       -2 0.22231455E+00 0.47619647E+04</pdfrwt>
<totfact> 0.27834799E-02</totfact>
</mgrwt>
</event>
<event>
 6    1  0.9512547E-007  0.5421393E+04  0.7818608E-02  0.7766599E-01
          2   -1    0    0  501    0  0.00000000000E+00  0.00000000000E+00  0.21146701489E+04  0.21146701489E+04  0.00000000000E+00 0. -1.
         -2   -1    0    0    0  501 -0.00000000000E+00 -0.00000000000E+00 -0.34747151539E+04  0.34747151539E+04  0.00000000000E+00 0.  1.
         23    2    1    2    0    0  0.23544759331E+03  0.54097090567E+03 -0.34070937146E+04  0.34590112725E+04  0.91576816200E+02 0.  0.
         13    1    3    3    0    0  0.22081901183E+03  0.41377425630E+03 -0.26693569111E+04  0.27102465736E+04  0.00000000000E+00 0.  1.
        -13    1    3    3    0    0  0.14628581486E+02  0.12719664936E+03 -0.73773680348E+03  0.74876469884E+03  0.00000000000E+00 0. -1.
         22    1    1    2    0    0 -0.23544759331E+03 -0.54097090567E+03  0.20470487096E+04  0.21303740304E+04  0.00000000000E+00 0. -1.
<mgrwt>
<rscale>  0 0.54213933E+04</rscale>
<asrwt>0</asrwt>
<pdfrwt beam="1">  1        2 0.32533387E+00 0.54213933E+04</pdfrwt>
<pdfrwt beam="2">  1       -2 0.53457156E+00 0.54213933E+04</pdfrwt>
<totfact> 0.42431439E-03</totfact>
</mgrwt>
</event>
<event>
 6    1  0.9512547E-007  0.2702002E+04  0.7818608E-02  0.8334356E-01
          2   -1    0    0  501    0  0.00000000000E+00  0.00000000000E+00  0.35447725335E+04  0.35447725335E+04  0.00000000000E+00 0. -1.
         -2   -1    0    0    0  501 -0.00000000000E+00 -0.00000000000E+00 -0.51490024132E+03  0.51490024132E+03  0.00000000000E+00 0.  1.
         23    2    1    2    0    0 -0.53704723000E+03  0.12123751827E+02  0.33766211274E+04  0.34202969328E+04  0.91072269027E+02 0.  0.
         11    1    3    3    0    0 -0.31926610495E+03 -0.36801478652E+02  0.20443439494E+04  0.20694509847E+04  0.00000000000E+00 0. -1.
        -11    1    3    3    0    0 -0.21778112504E+03  0.48925230480E+02  0.13322771780E+04  0.13508459481E+04  0.00000000000E+00 0.  1.
         22    1    1    2    0    0  0.53704723000E+03 -0.12123751827E+02 -0.34674883521E+03  0.63937584199E+03  0.00000000000E+00 0.  1.
<mgrwt>
<rscale>  0 0.27020024E+04</rscale>
<asrwt>0</asrwt>
<pdfrwt beam="1">  1        2 0.54534960E+00 0.27020024E+04</pdfrwt>
<pdfrwt beam="2">  1       -2 0.79215424E-01 0.27020024E+04</pdfrwt>
<totfact> 0.93745863E-01</totfact>
</mgrwt>
</event>
<event>
 6    1  0.9512547E-007  0.1983529E+04  0.7818608E-02  0.8614360E-01
          1   -1    0    0  501    0  0.00000000000E+00  0.00000000000E+00  0.16675380979E+04  0.16675380979E+04  0.00000000000E+00 0. -1.
         -1   -1    0    0    0  501 -0.00000000000E+00 -0.00000000000E+00 -0.58984948704E+03  0.58984948704E+03  0.00000000000E+00 0.  1.
         23    2    1    2    0    0 -0.89946607671E+03  0.18331118627E+03  0.96090357245E+03  0.13320330803E+04  0.91292043468E+02 0.  0.
         11    1    3    3    0    0 -0.84635991749E+03  0.15903086703E+03  0.87115339021E+03  0.12249588384E+04  0.00000000000E+00 0. -1.
        -11    1    3    3    0    0 -0.53106159224E+02  0.24280319234E+02  0.89750182240E+02  0.10707424182E+03  0.00000000000E+00 0.  1.
         22    1    1    2    0    0  0.89946607671E+03 -0.18331118627E+03  0.11678503844E+03  0.92535450470E+03  0.00000000000E+00 0.  1.
<mgrwt>
<rscale>  0 0.19835287E+04</rscale>
<asrwt>0</asrwt>
<pdfrwt beam="1">  1        1 0.25654432E+00 0.19835287E+04</pdfrwt>
<pdfrwt beam="2">  1       -1 0.90746076E-01 0.19835287E+04</pdfrwt>
<totfact> 0.55259551E+00</totfact>
</mgrwt>
</event>
<event>
 6    1  0.9512547E-007  0.1569496E+04  0.7818608E-02  0.8839510E-01
         -2   -1    0    0    0  501 -0.00000000000E+00  0.00000000000E+00  0.32060297494E+03  0.32060297494E+03  0.00000000000E+00 0.  1.
          2   -1    0    0  501    0  0.00000000000E+00 -0.00000000000E+00 -0.19208476761E+04  0.19208476761E+04  0.00000000000E+00 0. -1.
         23    2    1    2    0    0  0.49034218415E+02  0.19086804380E+03 -0.18829702986E+04  0.18968222595E+04  0.11628660245E+03 0.  0.
         11    1    3    3    0    0  0.12779226492E+02  0.18975945225E+03 -0.16687228030E+04  0.16795260497E+04  0.00000000000E+00 0.  1.
        -11    1    3    3    0    0  0.36254991923E+02  0.11085915535E+01 -0.21424749566E+03  0.21729620984E+03  0.00000000000E+00 0. -1.
         22    1    1    2    0    0 -0.49034218415E+02 -0.19086804380E+03  0.28272559753E+03  0.34462839149E+03  0.00000000000E+00 0.  1.
<mgrwt>
<rscale>  0 0.15694961E+04</rscale>
<asrwt>0</asrwt>
<pdfrwt beam="1">  1        2 0.29551502E+00 0.15694961E+04</pdfrwt>
<pdfrwt beam="2">  1       -2 0.49323535E-01 0.15694961E+04</pdfrwt>
<totfact> 0.27653842E+01</totfact>
</mgrwt>
</event>
<event>
 6    1  0.1433132E-006  0.2768874E+04  0.7818608E-02  0.8312997E-01
         -1   -1    0    0    0  501 -0.00000000000E+00  0.00000000000E+00  0.94320558135E+03  0.94320558135E+03  0.00000000000E+00 0.  1.
          1   -1    0    0  501    0  0.00000000000E+00 -0.00000000000E+00 -0.20320761096E+04  0.20320761096E+04  0.00000000000E+00 0. -1.
         23    2    1    2    0    0 -0.78086141830E+02  0.58359016348E+03  0.79956145108E+03  0.99718910843E+03  0.91720660010E+02 0.  0.
         13    1    3    3    0    0 -0.72584495221E+02  0.38124673890E+03  0.58674104458E+03  0.70347895367E+03  0.00000000000E+00 0.  1.
        -13    1    3    3    0    0 -0.55016466087E+01  0.20234342458E+03  0.21282040650E+03  0.29371015476E+03  0.00000000000E+00 0. -1.
         22    1    1    2    0    0  0.78086141830E+02 -0.58359016348E+03 -0.18884319793E+04  0.19780925825E+04  0.00000000000E+00 0. -1.
<mgrwt>
<rscale>  0 0.27688738E+04</rscale>
<asrwt>0</asrwt>
<pdfrwt beam="1">  1        1 0.31262709E+00 0.27688738E+04</pdfrwt>
<pdfrwt beam="2">  1       -1 0.14510855E+00 0.27688738E+04</pdfrwt>
<totfact> 0.93800787E-01</totfact>
</mgrwt>
</event>
<event>
 6    1  0.9512547E-007  0.1237791E+04  0.7818608E-02  0.9080406E-01
         -1   -1    0    0    0  501 -0.00000000000E+00  0.00000000000E+00  0.86435135199E+03  0.86435135199E+03  0.00000000000E+00 0.  1.
          1   -1    0    0  501    0  0.00000000000E+00 -0.00000000000E+00 -0.44314347388E+03  0.44314347388E+03  0.00000000000E+00 0. -1.
         23    2    1    2    0    0 -0.61133034424E+02  0.16266490270E+03  0.83546029262E+03  0.85827084901E+03  0.91857668363E+02 0.  0.
         11    1    3    3    0    0 -0.60371585698E+02  0.41109846062E+02  0.37424188282E+03  0.38130268116E+03  0.00000000000E+00 0. -1.
        -11    1    3    3    0    0 -0.76144872551E+00  0.12155505664E+03  0.46121840980E+03  0.47696816784E+03  0.00000000000E+00 0.  1.
         22    1    1    2    0    0  0.61133034424E+02 -0.16266490270E+03 -0.41425241451E+03  0.44922397687E+03  0.00000000000E+00 0. -1.
<mgrwt>
<rscale>  0 0.12377910E+04</rscale>
<asrwt>0</asrwt>
<pdfrwt beam="1">  1        1 0.68175919E-01 0.12377910E+04</pdfrwt>
<pdfrwt beam="2">  1       -1 0.13297713E+00 0.12377910E+04</pdfrwt>
<totfact> 0.24713233E+01</totfact>
</mgrwt>
</event>
<event>
 6    1  0.9512547E-007  0.1366208E+04  0.7818608E-02  0.8978649E-01
          2   -1    0    0  501    0  0.00000000000E+00  0.00000000000E+00  0.65863338819E+03  0.65863338819E+03  0.00000000000E+00 0. -1.
         -2   -1    0    0    0  501 -0.00000000000E+00 -0.00000000000E+00 -0.70848354081E+03  0.70848354081E+03  0.00000000000E+00 0.  1.
         23    2    1    2    0    0  0.25247057347E+03 -0.23730356198E+03 -0.61078192828E+03  0.70779998856E+03  0.88723665933E+02 0.  0.
         11    1    3    3    0    0  0.16039269154E+03 -0.14878578383E+03 -0.29585780372E+03  0.36796041227E+03  0.00000000000E+00 0. -1.
        -11    1    3    3    0    0  0.92077881923E+02 -0.88517778151E+02 -0.31492412456E+03  0.33983957630E+03  0.00000000000E+00 0.  1.
         22    1    1    2    0    0 -0.25247057347E+03  0.23730356198E+03  0.56093177567E+03  0.65931694044E+03  0.00000000000E+00 0. -1.
<mgrwt>
<rscale>  0 0.13662078E+04</rscale>
<asrwt>0</asrwt>
<pdfrwt beam="1">  1        2 0.10132821E+00 0.13662078E+04</pdfrwt>
<pdfrwt beam="2">  1       -2 0.10899747E+00 0.13662078E+04</pdfrwt>
<totfact> 0.28991388E+01</totfact>
</mgrwt>
</event>
<event>
 6    1  0.9512547E-007  0.1885493E+04  0.7818608E-02  0.8662111E-01
         -2   -1    0    0    0  501 -0.00000000000E+00  0.00000000000E+00  0.69089231811E+03  0.69089231811E+03  0.00000000000E+00 0.  1.
          2   -1    0    0  501    0  0.00000000000E+00 -0.00000000000E+00 -0.12864104719E+04  0.12864104719E+04  0.00000000000E+00 0. -1.
         23    2    1    2    0    0  0.83533757300E+03  0.20969064070E+03 -0.69483280901E+03  0.11103411840E+04  0.91136637519E+02 0.  0.
         11    1    3    3    0    0  0.37449615452E+03  0.10642131522E+03 -0.25824808169E+03  0.46718833224E+03  0.00000000000E+00 0.  1.
        -11    1    3    3    0    0  0.46084141848E+03  0.10326932549E+03 -0.43658472732E+03  0.64315285174E+03  0.00000000000E+00 0. -1.
         22    1    1    2    0    0 -0.83533757300E+03 -0.20969064070E+03  0.99314655173E+02  0.86696160607E+03  0.00000000000E+00 0.  1.
<mgrwt>
<rscale>  0 0.18854932E+04</rscale>
<asrwt>0</asrwt>
<pdfrwt beam="1">  1        2 0.19790930E+00 0.18854932E+04</pdfrwt>
<pdfrwt beam="2">  1       -2 0.10629113E+00 0.18854932E+04</pdfrwt>
<totfact> 0.11270474E+01</totfact>
</mgrwt>
</event>
<event>
 6    1  0.9512547E-007  0.2239227E+04  0.7818608E-02  0.8502276E-01
          1   -1    0    0  501    0  0.00000000000E+00  0.00000000000E+00  0.10961485846E+04  0.10961485846E+04  0.00000000000E+00 0. -1.
         -1   -1    0    0    0  501 -0.00000000000E+00 -0.00000000000E+00 -0.11435808137E+04  0.11435808137E+04  0.00000000000E+00 0.  1.
         23    2    1    2    0    0  0.43020136205E+03 -0.84553763878E+03  0.56745252473E+03  0.11092028082E+04  0.91221660485E+02 0.  0.
         11    1    3    3    0    0  0.33488578006E+03 -0.57223343031E+03  0.37689802042E+03  0.76266093531E+03  0.00000000000E+00 0.  1.
        -11    1    3    3    0    0  0.95315581990E+02 -0.27330420847E+03  0.19055450431E+03  0.34654187286E+03  0.00000000000E+00 0. -1.
         22    1    1    2    0    0 -0.43020136205E+03  0.84553763878E+03 -0.61488475379E+03  0.11305265901E+04  0.00000000000E+00 0.  1.
<mgrwt>
<rscale>  0 0.22392271E+04</rscale>
<asrwt>0</asrwt>
<pdfrwt beam="1">  1        1 0.16863824E+00 0.22392271E+04</pdfrwt>
<pdfrwt beam="2">  1       -1 0.17593551E+00 0.22392271E+04</pdfrwt>
<totfact> 0.25825763E+00</totfact>
</mgrwt>
</event>
<event>
 6    1  0.9512547E-007  0.1129764E+04  0.7818608E-02  0.9176657E-01
         -2   -1    0    0    0  501 -0.00000000000E+00  0.00000000000E+00  0.10092935664E+03  0.10092935664E+03  0.00000000000E+00 0.  1.
          2   -1    0    0  501    0  0.00000000000E+00 -0.00000000000E+00 -0.31615373201E+04  0.31615373201E+04  0.00000000000E+00 0. -1.
         23    2    1    2    0    0 -0.48166194426E+03  0.28948522771E+02 -0.71256110172E+03  0.86535167940E+03  0.90851306202E+02 0.  0.
         11    1    3    3    0    0 -0.15542106297E+03 -0.21235981207E+02 -0.17964168827E+03  0.23849069139E+03  0.00000000000E+00 0.  1.
        -11    1    3    3    0    0 -0.32624088129E+03  0.50184503979E+02 -0.53291941345E+03  0.62686098801E+03  0.00000000000E+00 0. -1.
         22    1    1    2    0    0  0.48166194426E+03 -0.28948522771E+02 -0.23480468618E+04  0.23971149974E+04  0.00000000000E+00 0. -1.
<mgrwt>
<rscale>  0 0.11297644E+04</rscale>
<asrwt>0</asrwt>
<pdfrwt beam="1">  1        2 0.48639032E+00 0.11297644E+04</pdfrwt>
<pdfrwt beam="2">  1       -2 0.15527595E-01 0.11297644E+04</pdfrwt>
<totfact> 0.46042426E+01</totfact>
</mgrwt>
</event>
<event>
 6    1  0.9512547E-007  0.1043933E+04  0.7818608E-02  0.9261630E-01
          1   -1    0    0  501    0  0.00000000000E+00  0.00000000000E+00  0.19304857376E+04  0.19304857376E+04  0.00000000000E+00 0. -1.
         -1   -1    0    0    0  501 -0.00000000000E+00 -0.00000000000E+00 -0.14112980794E+03  0.14112980794E+03  0.00000000000E+00 0.  1.
         23    2    1    2    0    0 -0.24658793021E+03  0.29693889820E+03  0.15869775015E+04  0.16357998221E+04  0.91461200323E+02 0.  0.
         13    1    3    3    0    0 -0.10027172586E+03  0.13054890923E+03  0.49772363802E+03  0.52423874003E+03  0.00000000000E+00 0. -1.
        -13    1    3    3    0    0 -0.14631620435E+03  0.16638998897E+03  0.10892538635E+04  0.11115610821E+04  0.00000000000E+00 0.  1.
         22    1    1    2    0    0  0.24658793021E+03 -0.29693889820E+03  0.20237842814E+03  0.43581572340E+03  0.00000000000E+00 0. -1.
<mgrwt>
<rscale>  0 0.10439331E+04</rscale>
<asrwt>0</asrwt>
<pdfrwt beam="1">  1        1 0.29699779E+00 0.10439331E+04</pdfrwt>
<pdfrwt beam="2">  1       -1 0.21712279E-01 0.10439331E+04</pdfrwt>
<totfact> 0.59354699E+01</totfact>
</mgrwt>
</event>
<event>
 6    1  0.9512547E-007  0.2985556E+04  0.7818608E-02  0.8247868E-01
          3   -1    0    0  501    0  0.00000000000E+00  0.00000000000E+00  0.17488414886E+04  0.17488414886E+04  0.00000000000E+00 0. -1.
         -3   -1    0    0    0  501 -0.00000000000E+00 -0.00000000000E+00 -0.12742068737E+04  0.12742068737E+04  0.00000000000E+00 0.  1.
         23    2    1    2    0    0  0.12921717146E+04 -0.66945540129E+03  0.56779052216E+03  0.15647766807E+04  0.90893943140E+02 0.  0.
         11    1    3    3    0    0  0.11060955181E+04 -0.54977763505E+03  0.50818789974E+03  0.13356487879E+04  0.00000000000E+00 0.  1.
        -11    1    3    3    0    0  0.18607619650E+03 -0.11967776624E+03  0.59602622426E+02  0.22912789275E+03  0.00000000000E+00 0. -1.
         22    1    1    2    0    0 -0.12921717146E+04  0.66945540129E+03 -0.93155907265E+02  0.14582716816E+04  0.00000000000E+00 0.  1.
<mgrwt>
<rscale>  0 0.29855558E+04</rscale>
<asrwt>0</asrwt>
<pdfrwt beam="1">  1        3 0.26905254E+00 0.29855558E+04</pdfrwt>
<pdfrwt beam="2">  1       -3 0.19603183E+00 0.29855558E+04</pdfrwt>
<totfact> 0.19857629E-02</totfact>
</mgrwt>
</event>
<event>
 6    1  0.9512547E-007  0.2123683E+04  0.7818608E-02  0.8550882E-01
          1   -1    0    0  501    0  0.00000000000E+00  0.00000000000E+00  0.24414780468E+04  0.24414780468E+04  0.00000000000E+00 0. -1.
         -1   -1    0    0    0  501 -0.00000000000E+00 -0.00000000000E+00 -0.46181340321E+03  0.46181340321E+03  0.00000000000E+00 0.  1.
         23    2    1    2    0    0  0.32059664821E+02 -0.78474499316E+03  0.18341618265E+02  0.79055849574E+03  0.88282466170E+02 0.  0.
         11    1    3    3    0    0 -0.49269310366E+01 -0.54018233172E+03  0.43418443228E+02  0.54194684920E+03  0.00000000000E+00 0.  1.
        -11    1    3    3    0    0  0.36986595858E+02 -0.24456266144E+03 -0.25076824963E+02  0.24861164654E+03  0.00000000000E+00 0. -1.
         22    1    1    2    0    0 -0.32059664821E+02  0.78474499316E+03  0.19613230253E+04  0.21127329543E+04  0.00000000000E+00 0. -1.
<mgrwt>
<rscale>  0 0.21236829E+04</rscale>
<asrwt>0</asrwt>
<pdfrwt beam="1">  1        1 0.37561200E+00 0.21236829E+04</pdfrwt>
<pdfrwt beam="2">  1       -1 0.71048217E-01 0.21236829E+04</pdfrwt>
<totfact> 0.27317459E+00</totfact>
</mgrwt>
</event>
<event>
 6    1  0.9512547E-007  0.4188444E+04  0.7818608E-02  0.7967574E-01
         -2   -1    0    0    0  501 -0.00000000000E+00  0.00000000000E+00  0.15622947626E+04  0.15622947626E+04  0.00000000000E+00 0.  1.
          2   -1    0    0  501    0  0.00000000000E+00 -0.00000000000E+00 -0.28072588250E+04  0.28072588250E+04  0.00000000000E+00 0. -1.
         23    2    1    2    0    0 -0.25680422318E+03 -0.12969777536E+03 -0.27857660222E+04  0.28021223766E+04  0.92884663710E+02 0.  0.
         13    1    3    3    0    0 -0.17828832027E+03 -0.11857204328E+03 -0.16936414172E+04  0.17071225218E+04  0.00000000000E+00 0.  1.
        -13    1    3    3    0    0 -0.78515902911E+02 -0.11125732072E+02 -0.10921246051E+04  0.10949998547E+04  0.00000000000E+00 0. -1.
         22    1    1    2    0    0  0.25680422318E+03  0.12969777536E+03  0.15408019598E+04  0.15674312110E+04  0.00000000000E+00 0.  1.
<mgrwt>
<rscale>  0 0.41884440E+04</rscale>
<asrwt>0</asrwt>
<pdfrwt beam="1">  1        2 0.43188597E+00 0.41884440E+04</pdfrwt>
<pdfrwt beam="2">  1       -2 0.24035304E+00 0.41884440E+04</pdfrwt>
<totfact> 0.13105540E-01</totfact>
</mgrwt>
</event>
<event>
 6    1  0.9512547E-007  0.1419338E+04  0.7818608E-02  0.8939938E-01
         -2   -1    0    0    0  501 -0.00000000000E+00  0.00000000000E+00  0.30559134653E+03  0.30559134653E+03  0.00000000000E+00 0.  1.
          2   -1    0    0  501    0  0.00000000000E+00 -0.00000000000E+00 -0.16480514755E+04  0.16480514755E+04  0.00000000000E+00 0. -1.
         23    2    1    2    0    0  0.29184853408E+03 -0.52697543927E+03 -0.11835040632E+04  0.13306294102E+04  0.83750100377E+02 0.  0.
         11    1    3    3    0    0  0.54474196470E+02 -0.10253910405E+03 -0.16242712108E+03  0.19966040068E+03  0.00000000000E+00 0. -1.
        -11    1    3    3    0    0  0.23737433761E+03 -0.42443633522E+03 -0.10210769421E+04  0.11309690095E+04  0.00000000000E+00 0.  1.
         22    1    1    2    0    0 -0.29184853408E+03  0.52697543927E+03 -0.15895606578E+03  0.62301341180E+03  0.00000000000E+00 0.  1.
<mgrwt>
<rscale>  0 0.14193383E+04</rscale>
<asrwt>0</asrwt>
<pdfrwt beam="1">  1        2 0.25354638E+00 0.14193383E+04</pdfrwt>
<pdfrwt beam="2">  1       -2 0.47014054E-01 0.14193383E+04</pdfrwt>
<totfact> 0.43687419E+01</totfact>
</mgrwt>
</event>
<event>
 6    1  0.9512547E-007  0.2451814E+04  0.7818608E-02  0.8420356E-01
         -3   -1    0    0    0  501 -0.00000000000E+00  0.00000000000E+00  0.68163789559E+03  0.68163789559E+03  0.00000000000E+00 0.  1.
          3   -1    0    0  501    0  0.00000000000E+00 -0.00000000000E+00 -0.22047594564E+04  0.22047594564E+04  0.00000000000E+00 0. -1.
         23    2    1    2    0    0  0.89658570440E+03  0.83361718230E+03 -0.75413317540E+03  0.14406703139E+04  0.89613475733E+02 0.  0.
         11    1    3    3    0    0  0.15163895722E+03  0.13878754206E+03 -0.88608121512E+02  0.22384761419E+03  0.00000000000E+00 0.  1.
        -11    1    3    3    0    0  0.74494674718E+03  0.69482964024E+03 -0.66552505389E+03  0.12168226997E+04  0.00000000000E+00 0. -1.
         22    1    1    2    0    0 -0.89658570440E+03 -0.83361718230E+03 -0.76898838545E+03  0.14457270382E+04  0.00000000000E+00 0. -1.
<mgrwt>
<rscale>  0 0.24518137E+04</rscale>
<asrwt>0</asrwt>
<pdfrwt beam="1">  1        3 0.33919376E+00 0.24518137E+04</pdfrwt>
<pdfrwt beam="2">  1       -3 0.10486737E+00 0.24518137E+04</pdfrwt>
<totfact> 0.43048378E-02</totfact>
</mgrwt>
</event>
<event>
 6    1  0.9512547E-007  0.1648906E+04  0.7818608E-02  0.8791054E-01
          2   -1    0    0  501    0  0.00000000000E+00  0.00000000000E+00  0.17235796096E+04  0.17235796096E+04  0.00000000000E+00 0. -1.
         -2   -1    0    0    0  501 -0.00000000000E+00 -0.00000000000E+00 -0.39436678155E+03  0.39436678155E+03  0.00000000000E+00 0.  1.
         23    2    1    2    0    0  0.75932876081E+03  0.28395812678E+03  0.49256260721E+03  0.95295884754E+03  0.91105753524E+02 0.  0.
         13    1    3    3    0    0  0.42569946725E+03  0.20540290800E+03  0.27124438092E+03  0.54496229705E+03  0.00000000000E+00 0. -1.
        -13    1    3    3    0    0  0.33362929357E+03  0.78555218786E+02  0.22131822629E+03  0.40799655049E+03  0.00000000000E+00 0.  1.
         22    1    1    2    0    0 -0.75932876081E+03 -0.28395812678E+03  0.83665022088E+03  0.11649875437E+04  0.00000000000E+00 0. -1.
<mgrwt>
<rscale>  0 0.16489058E+04</rscale>
<asrwt>0</asrwt>
<pdfrwt beam="1">  1        2 0.26516609E+00 0.16489058E+04</pdfrwt>
<pdfrwt beam="2">  1       -2 0.60671814E-01 0.16489058E+04</pdfrwt>
<totfact> 0.22991147E+01</totfact>
</mgrwt>
</event>
<event>
 6    1  0.9512547E-007  0.1040746E+04  0.7818608E-02  0.9264951E-01
         -2   -1    0    0    0  501 -0.00000000000E+00  0.00000000000E+00  0.39461358465E+03  0.39461358465E+03  0.00000000000E+00 0.  1.
          2   -1    0    0  501    0  0.00000000000E+00 -0.00000000000E+00 -0.68621075690E+03  0.68621075690E+03  0.00000000000E+00 0. -1.
         23    2    1    2    0    0  0.62834349916E+02 -0.18074850046E+03 -0.64478370496E+03  0.67912930445E+03  0.94087246924E+02 0.  0.
         13    1    3    3    0    0  0.53495556331E+02 -0.19019697235E+03 -0.57248326359E+03  0.60561848546E+03  0.00000000000E+00 0.  1.
        -13    1    3    3    0    0  0.93387935853E+01  0.94484718892E+01 -0.72300441369E+02  0.73510818991E+02  0.00000000000E+00 0. -1.
         22    1    1    2    0    0 -0.62834349916E+02  0.18074850046E+03  0.35318653271E+03  0.40169503710E+03  0.00000000000E+00 0.  1.
<mgrwt>
<rscale>  0 0.10407461E+04</rscale>
<asrwt>0</asrwt>
<pdfrwt beam="1">  1        2 0.10557089E+00 0.10407461E+04</pdfrwt>
<pdfrwt beam="2">  1       -2 0.60709782E-01 0.10407461E+04</pdfrwt>
<totfact> 0.10579633E+02</totfact>
</mgrwt>
</event>
<event>
 6    1  0.9512547E-007  0.7677295E+03  0.7818608E-02  0.9607939E-01
         -4   -1    0    0    0  501 -0.00000000000E+00  0.00000000000E+00  0.37489749754E+03  0.37489749754E+03  0.00000000000E+00 0.  1.
          4   -1    0    0  501    0  0.00000000000E+00 -0.00000000000E+00 -0.39304651113E+03  0.39304651113E+03  0.00000000000E+00 0. -1.
         23    2    1    2    0    0 -0.35609732601E+03 -0.90449963673E+02 -0.99946505765E+02  0.39154351552E+03  0.91271676927E+02 0.  0.
         11    1    3    3    0    0 -0.12058384266E+03 -0.33760327940E+01 -0.67857036845E+02  0.13840678508E+03  0.00000000000E+00 0. -1.
        -11    1    3    3    0    0 -0.23551348336E+03 -0.87073930879E+02 -0.32089468920E+02  0.25313673044E+03  0.00000000000E+00 0.  1.
         22    1    1    2    0    0  0.35609732601E+03  0.90449963673E+02  0.81797492174E+02  0.37640049315E+03  0.00000000000E+00 0. -1.
<mgrwt>
<rscale>  0 0.76772952E+03</rscale>
<asrwt>0</asrwt>
<pdfrwt beam="1">  1        4 0.60468694E-01 0.76772952E+03</pdfrwt>
<pdfrwt beam="2">  1       -4 0.57676538E-01 0.76772952E+03</pdfrwt>
<totfact> 0.14622668E+01</totfact>
</mgrwt>
</event>
<event>
 6    1  0.9512547E-007  0.3129718E+04  0.7818608E-02  0.8207629E-01
         -2   -1    0    0    0  501 -0.00000000000E+00  0.00000000000E+00  0.15682342071E+04  0.15682342071E+04  0.00000000000E+00 0.  1.
          2   -1    0    0  501    0  0.00000000000E+00 -0.00000000000E+00 -0.15614911323E+04  0.15614911323E+04  0.00000000000E+00 0. -1.
         23    2    1    2    0    0  0.12814272965E+04  0.69349805825E+03 -0.56411669323E+03  0.15648367339E+04  0.86549912224E+02 0.  0.
         13    1    3    3    0    0  0.50300992432E+03  0.30875863164E+03 -0.19856670062E+03  0.62271952850E+03  0.00000000000E+00 0.  1.
        -13    1    3    3    0    0  0.77841737214E+03  0.38473942660E+03 -0.36554999262E+03  0.94211720541E+03  0.00000000000E+00 0. -1.
         22    1    1    2    0    0 -0.12814272965E+04 -0.69349805825E+03  0.57085976801E+03  0.15648886055E+04  0.00000000000E+00 0.  1.
<mgrwt>
<rscale>  0 0.31297181E+04</rscale>
<asrwt>0</asrwt>
<pdfrwt beam="1">  1        2 0.24022940E+00 0.31297181E+04</pdfrwt>
<pdfrwt beam="2">  1       -2 0.24126680E+00 0.31297181E+04</pdfrwt>
<totfact> 0.72218970E-01</totfact>
</mgrwt>
</event>
<event>
 6    1  0.9512547E-007  0.2366050E+04  0.7818608E-02  0.8452324E-01
          2   -1    0    0  501    0  0.00000000000E+00  0.00000000000E+00  0.21884734208E+04  0.21884734208E+04  0.00000000000E+00 0. -1.
         -2   -1    0    0    0  501 -0.00000000000E+00 -0.00000000000E+00 -0.63950908301E+03  0.63950908301E+03  0.00000000000E+00 0.  1.
         23    2    1    2    0    0 -0.50767517430E+03 -0.65895416382E+03  0.17779748952E+04  0.19651960250E+04  0.94053262551E+02 0.  0.
         13    1    3    3    0    0 -0.15769185570E+03 -0.26720722440E+03  0.60315986198E+03  0.67828330455E+03  0.00000000000E+00 0.  1.
        -13    1    3    3    0    0 -0.34998331860E+03 -0.39174693941E+03  0.11748150332E+04  0.12869127205E+04  0.00000000000E+00 0. -1.
         22    1    1    2    0    0  0.50767517430E+03  0.65895416382E+03 -0.22901055739E+03  0.86278647880E+03  0.00000000000E+00 0.  1.
<mgrwt>
<rscale>  0 0.23660504E+04</rscale>
<asrwt>0</asrwt>
<pdfrwt beam="1">  1        2 0.33668822E+00 0.23660504E+04</pdfrwt>
<pdfrwt beam="2">  1       -2 0.98386013E-01 0.23660504E+04</pdfrwt>
<totfact> 0.40567065E+00</totfact>
</mgrwt>
</event>
<event>
 6    1  0.9512547E-007  0.1296680E+04  0.7818608E-02  0.9032202E-01
         -2   -1    0    0    0  501 -0.00000000000E+00  0.00000000000E+00  0.28276778417E+03  0.28276778417E+03  0.00000000000E+00 0.  1.
          2   -1    0    0  501    0  0.00000000000E+00 -0.00000000000E+00 -0.14865378224E+04  0.14865378224E+04  0.00000000000E+00 0. -1.
         23    2    1    2    0    0  0.35717775071E+02 -0.54888365950E+03 -0.10645696005E+04  0.12019205583E+04  0.93571165524E+02 0.  0.
         13    1    3    3    0    0 -0.75901424129E+01 -0.39735742041E+03 -0.70442119940E+03  0.80880143174E+03  0.00000000000E+00 0. -1.
        -13    1    3    3    0    0  0.43307917484E+02 -0.15152623909E+03 -0.36014840109E+03  0.39311912654E+03  0.00000000000E+00 0.  1.
         22    1    1    2    0    0 -0.35717775071E+02  0.54888365950E+03 -0.13920043770E+03  0.56738504825E+03  0.00000000000E+00 0.  1.
<mgrwt>
<rscale>  0 0.12966804E+04</rscale>
<asrwt>0</asrwt>
<pdfrwt beam="1">  1        2 0.22869813E+00 0.12966804E+04</pdfrwt>
<pdfrwt beam="2">  1       -2 0.43502736E-01 0.12966804E+04</pdfrwt>
<totfact> 0.63434853E+01</totfact>
</mgrwt>
</event>
<event>
 6    1  0.9512547E-007  0.2128354E+04  0.7818608E-02  0.8548855E-01
          1   -1    0    0  501    0  0.00000000000E+00  0.00000000000E+00  0.87007130514E+03  0.87007130514E+03  0.00000000000E+00 0. -1.
         -1   -1    0    0    0  501 -0.00000000000E+00 -0.00000000000E+00 -0.13015866721E+04  0.13015866721E+04  0.00000000000E+00 0.  1.
         23    2    1    2    0    0 -0.68313558081E+03  0.67251735553E+03 -0.68306041604E+03  0.11805834458E+04  0.90840108116E+02 0.  0.
         11    1    3    3    0    0 -0.13690612319E+03  0.88662424400E+02 -0.12642869164E+03  0.20636987701E+03  0.00000000000E+00 0.  1.
        -11    1    3    3    0    0 -0.54622945762E+03  0.58385493113E+03 -0.55663172440E+03  0.97421356878E+03  0.00000000000E+00 0. -1.
         22    1    1    2    0    0  0.68313558081E+03 -0.67251735553E+03  0.25154504906E+03  0.99107453149E+03  0.00000000000E+00 0. -1.
<mgrwt>
<rscale>  0 0.21283545E+04</rscale>
<asrwt>0</asrwt>
<pdfrwt beam="1">  1        1 0.13385712E+00 0.21283545E+04</pdfrwt>
<pdfrwt beam="2">  1       -1 0.20024410E+00 0.21283545E+04</pdfrwt>
<totfact> 0.26495540E+00</totfact>
</mgrwt>
</event>
<event>
 6    1  0.9512547E-007  0.2786966E+04  0.7818608E-02  0.8307326E-01
          3   -1    0    0  501    0  0.00000000000E+00  0.00000000000E+00  0.15223801191E+04  0.15223801191E+04  0.00000000000E+00 0. -1.
         -3   -1    0    0    0  501 -0.00000000000E+00 -0.00000000000E+00 -0.12754992989E+04  0.12754992989E+04  0.00000000000E+00 0.  1.
         23    2    1    2    0    0 -0.59038015497E+03 -0.11795838133E+04 -0.32339063350E+03  0.13608073144E+04  0.85137213395E+02 0.  0.
         11    1    3    3    0    0 -0.28434849764E+03 -0.47431583650E+03 -0.13453444155E+03  0.56914769334E+03  0.00000000000E+00 0.  1.
        -11    1    3    3    0    0 -0.30603165734E+03 -0.70526797679E+03 -0.18885619195E+03  0.79165962106E+03  0.00000000000E+00 0. -1.
         22    1    1    2    0    0  0.59038015497E+03  0.11795838133E+04  0.57027145376E+03  0.14370721036E+04  0.00000000000E+00 0. -1.
<mgrwt>
<rscale>  0 0.27869659E+04</rscale>
<asrwt>0</asrwt>
<pdfrwt beam="1">  1        3 0.23421233E+00 0.27869659E+04</pdfrwt>
<pdfrwt beam="2">  1       -3 0.19623066E+00 0.27869659E+04</pdfrwt>
<totfact> 0.31968204E-02</totfact>
</mgrwt>
</event>
<event>
 6    1  0.9512547E-007  0.2752403E+04  0.7818608E-02  0.8318200E-01
          2   -1    0    0  501    0  0.00000000000E+00  0.00000000000E+00  0.14461698469E+04  0.14461698469E+04  0.00000000000E+00 0. -1.
         -2   -1    0    0    0  501 -0.00000000000E+00 -0.00000000000E+00 -0.13096180631E+04  0.13096180631E+04  0.00000000000E+00 0.  1.
         23    2    1    2    0    0  0.12065216156E+04 -0.64467978637E+03  0.20460751820E+03  0.13861390429E+04  0.90613320725E+02 0.  0.
         11    1    3    3    0    0  0.86257334114E+03 -0.42119991646E+03  0.12079094329E+03  0.96748777276E+03  0.00000000000E+00 0. -1.
        -11    1    3    3    0    0  0.34394827449E+03 -0.22347986992E+03  0.83816574902E+02  0.41865127016E+03  0.00000000000E+00 0.  1.
         22    1    1    2    0    0 -0.12065216156E+04  0.64467978637E+03 -0.68055734359E+02  0.13696488670E+04  0.00000000000E+00 0.  1.
<mgrwt>
<rscale>  0 0.27524027E+04</rscale>
<asrwt>0</asrwt>
<pdfrwt beam="1">  1        2 0.22248767E+00 0.27524027E+04</pdfrwt>
<pdfrwt beam="2">  1       -2 0.20147970E+00 0.27524027E+04</pdfrwt>
<totfact> 0.15473650E+00</totfact>
</mgrwt>
</event>
<event>
 6    1  0.9512547E-007  0.2149503E+04  0.7818608E-02  0.8539745E-01
          2   -1    0    0  501    0  0.00000000000E+00  0.00000000000E+00  0.11663099182E+04  0.11663099182E+04  0.00000000000E+00 0. -1.
         -2   -1    0    0    0  501 -0.00000000000E+00 -0.00000000000E+00 -0.99038076547E+03  0.99038076547E+03  0.00000000000E+00 0.  1.
         23    2    1    2    0    0  0.46660807246E+03 -0.69232371962E+03 -0.58786535792E+03  0.10251354351E+04  0.91004149644E+02 0.  0.
         13    1    3    3    0    0  0.34945073500E+03 -0.47275572051E+03 -0.45223164310E+03  0.74170563331E+03  0.00000000000E+00 0. -1.
        -13    1    3    3    0    0  0.11715733746E+03 -0.21956799911E+03 -0.13563371482E+03  0.28342980180E+03  0.00000000000E+00 0.  1.
         22    1    1    2    0    0 -0.46660807246E+03  0.69232371962E+03  0.76379451062E+03  0.11315552485E+04  0.00000000000E+00 0. -1.
<mgrwt>
<rscale>  0 0.21495031E+04</rscale>
<asrwt>0</asrwt>
<pdfrwt beam="1">  1        2 0.17943229E+00 0.21495031E+04</pdfrwt>
<pdfrwt beam="2">  1       -2 0.15236627E+00 0.21495031E+04</pdfrwt>
<totfact> 0.52351923E+00</totfact>
</mgrwt>
</event>
<event>
 6    1  0.9512547E-007  0.3540562E+04  0.7818608E-02  0.8104244E-01
         -2   -1    0    0    0  501 -0.00000000000E+00  0.00000000000E+00  0.12489103324E+04  0.12489103324E+04  0.00000000000E+00 0.  1.
          2   -1    0    0  501    0  0.00000000000E+00 -0.00000000000E+00 -0.25093031863E+04  0.25093031863E+04  0.00000000000E+00 0. -1.
         23    2    1    2    0    0  0.25252335804E+03 -0.15199700337E+04 -0.15532912970E+04  0.21898173800E+04  0.92246164953E+02 0.  0.
         13    1    3    3    0    0  0.12701387366E+03 -0.10154096454E+04 -0.10093393184E+04  0.14373430808E+04  0.00000000000E+00 0.  1.
        -13    1    3    3    0    0  0.12550948437E+03 -0.50456038827E+03 -0.54395197856E+03  0.75247429927E+03  0.00000000000E+00 0. -1.
         22    1    1    2    0    0 -0.25252335804E+03  0.15199700337E+04  0.29289844316E+03  0.15683961386E+04  0.00000000000E+00 0.  1.
<mgrwt>
<rscale>  0 0.35405619E+04</rscale>
<asrwt>0</asrwt>
<pdfrwt beam="1">  1        2 0.38604664E+00 0.35405619E+04</pdfrwt>
<pdfrwt beam="2">  1       -2 0.19214005E+00 0.35405619E+04</pdfrwt>
<totfact> 0.42222904E-01</totfact>
</mgrwt>
</event>
<event>
 6    1  0.9512547E-007  0.1853767E+04  0.7818608E-02  0.8678218E-01
         -1   -1    0    0    0  501 -0.00000000000E+00  0.00000000000E+00  0.70183188495E+03  0.70183188495E+03  0.00000000000E+00 0.  1.
          1   -1    0    0  501    0  0.00000000000E+00 -0.00000000000E+00 -0.12241008381E+04  0.12241008381E+04  0.00000000000E+00 0. -1.
         23    2    1    2    0    0  0.58331185424E+03  0.34935390125E+02  0.48276469524E+03  0.76336408630E+03  0.90497383964E+02 0.  0.
         13    1    3    3    0    0  0.19167639391E+03 -0.29785318379E+02  0.14541653952E+03  0.24243138233E+03  0.00000000000E+00 0.  1.
        -13    1    3    3    0    0  0.39163546033E+03  0.64720708504E+02  0.33734815572E+03  0.52093270397E+03  0.00000000000E+00 0. -1.
         22    1    1    2    0    0 -0.58331185424E+03 -0.34935390125E+02 -0.10050336484E+04  0.11625686367E+04  0.00000000000E+00 0. -1.
<mgrwt>
<rscale>  0 0.18537670E+04</rscale>
<asrwt>0</asrwt>
<pdfrwt beam="1">  1        1 0.18832320E+00 0.18537670E+04</pdfrwt>
<pdfrwt beam="2">  1       -1 0.10797414E+00 0.18537670E+04</pdfrwt>
<totfact> 0.76866264E+00</totfact>
</mgrwt>
</event>
<event>
 6    1  0.9512547E-007  0.2146623E+04  0.7818608E-02  0.8540979E-01
         -2   -1    0    0    0  501 -0.00000000000E+00  0.00000000000E+00  0.53971403685E+03  0.53971403685E+03  0.00000000000E+00 0.  1.
          2   -1    0    0  501    0  0.00000000000E+00 -0.00000000000E+00 -0.21344600516E+04  0.21344600516E+04  0.00000000000E+00 0. -1.
         23    2    1    2    0    0  0.64667951010E+03  0.74429713455E+03 -0.27685785306E+03  0.10282695286E+04  0.92278597048E+02 0.  0.
         13    1    3    3    0    0  0.42083099698E+03  0.54536419507E+03 -0.17798978273E+03  0.71147817678E+03  0.00000000000E+00 0. -1.
        -13    1    3    3    0    0  0.22584851312E+03  0.19893293948E+03 -0.98868070329E+02  0.31679135187E+03  0.00000000000E+00 0.  1.
         22    1    1    2    0    0 -0.64667951010E+03 -0.74429713455E+03 -0.13178881617E+04  0.16459045598E+04  0.00000000000E+00 0. -1.
<mgrwt>
<rscale>  0 0.21466234E+04</rscale>
<asrwt>0</asrwt>
<pdfrwt beam="1">  1        2 0.32837847E+00 0.21466234E+04</pdfrwt>
<pdfrwt beam="2">  1       -2 0.83032929E-01 0.21466234E+04</pdfrwt>
<totfact> 0.65565487E+00</totfact>
</mgrwt>
</event>
<event>
 6    1  0.9512547E-007  0.6548894E+03  0.7818608E-02  0.9797648E-01
         -1   -1    0    0    0  501 -0.00000000000E+00  0.00000000000E+00  0.63850434461E+02  0.63850434461E+02  0.00000000000E+00 0.  1.
          1   -1    0    0  501    0  0.00000000000E+00 -0.00000000000E+00 -0.16792372651E+04  0.16792372651E+04  0.00000000000E+00 0. -1.
         23    2    1    2    0    0  0.47365478751E+02 -0.79697967385E+02 -0.16418450114E+04  0.16466756157E+04  0.85383179245E+02 0.  0.
         13    1    3    3    0    0  0.69787892903E+02 -0.41701948304E+02 -0.98389903721E+03  0.98725210453E+03  0.00000000000E+00 0.  1.
        -13    1    3    3    0    0 -0.22422414152E+02 -0.37996019082E+02 -0.65794597419E+03  0.65942351116E+03  0.00000000000E+00 0. -1.
         22    1    1    2    0    0 -0.47365478751E+02  0.79697967385E+02  0.26458180772E+02  0.96412083851E+02  0.00000000000E+00 0.  1.
<mgrwt>
<rscale>  0 0.65488939E+03</rscale>
<asrwt>0</asrwt>
<pdfrwt beam="1">  1        1 0.25834418E+00 0.65488939E+03</pdfrwt>
<pdfrwt beam="2">  1       -1 0.98231444E-02 0.65488939E+03</pdfrwt>
<totfact> 0.32871912E+02</totfact>
</mgrwt>
</event>
<event>
 6    1  0.9512547E-007  0.2819076E+04  0.7818608E-02  0.8297370E-01
         -2   -1    0    0    0  501 -0.00000000000E+00  0.00000000000E+00  0.16230255905E+04  0.16230255905E+04  0.00000000000E+00 0.  1.
          2   -1    0    0  501    0  0.00000000000E+00 -0.00000000000E+00 -0.12241318102E+04  0.12241318102E+04  0.00000000000E+00 0. -1.
         23    2    1    2    0    0 -0.23622943319E+03 -0.12130190307E+04  0.88117987656E+03  0.15205755552E+04  0.91937644166E+02 0.  0.
         13    1    3    3    0    0 -0.20357338186E+03 -0.86975527497E+03  0.60607526219E+03  0.10794644893E+04  0.00000000000E+00 0.  1.
        -13    1    3    3    0    0 -0.32656051337E+02 -0.34326375570E+03  0.27510461437E+03  0.44111106596E+03  0.00000000000E+00 0. -1.
         22    1    1    2    0    0  0.23622943319E+03  0.12130190307E+04 -0.48228609628E+03  0.13265818454E+04  0.00000000000E+00 0. -1.
<mgrwt>
<rscale>  0 0.28190759E+04</rscale>
<asrwt>0</asrwt>
<pdfrwt beam="1">  1        2 0.18832797E+00 0.28190759E+04</pdfrwt>
<pdfrwt beam="2">  1       -2 0.24969625E+00 0.28190759E+04</pdfrwt>
<totfact> 0.10273979E+00</totfact>
</mgrwt>
</event>
<event>
 6    1  0.9512547E-007  0.5068955E+04  0.7818608E-02  0.7817957E-01
          1   -1    0    0  501    0  0.00000000000E+00  0.00000000000E+00  0.26565147962E+04  0.26565147962E+04  0.00000000000E+00 0. -1.
         -1   -1    0    0    0  501 -0.00000000000E+00 -0.00000000000E+00 -0.24180460932E+04  0.24180460932E+04  0.00000000000E+00 0.  1.
         23    2    1    2    0    0 -0.12770998085E+04 -0.66987698899E+03  0.22047711017E+04  0.26361055947E+04  0.91203038025E+02 0.  0.
         13    1    3    3    0    0 -0.98951906700E+03 -0.49151574086E+03  0.16316981840E+04  0.19705772431E+04  0.00000000000E+00 0. -1.
        -13    1    3    3    0    0 -0.28758074155E+03 -0.17836124813E+03  0.57307291768E+03  0.66552835156E+03  0.00000000000E+00 0.  1.
         22    1    1    2    0    0  0.12770998085E+04  0.66987698899E+03 -0.19663023986E+04  0.24384552947E+04  0.00000000000E+00 0.  1.
<mgrwt>
<rscale>  0 0.50689546E+04</rscale>
<asrwt>0</asrwt>
<pdfrwt beam="1">  1        1 0.40869458E+00 0.50689546E+04</pdfrwt>
<pdfrwt beam="2">  1       -1 0.37200709E+00 0.50689546E+04</pdfrwt>
<totfact> 0.83782023E-03</totfact>
</mgrwt>
</event>
<event>
 6    1  0.9512547E-007  0.3608579E+04  0.7818608E-02  0.8088529E-01
         -1   -1    0    0    0  501 -0.00000000000E+00  0.00000000000E+00  0.19081038404E+04  0.19081038404E+04  0.00000000000E+00 0.  1.
          1   -1    0    0  501    0  0.00000000000E+00 -0.00000000000E+00 -0.17061237224E+04  0.17061237224E+04  0.00000000000E+00 0. -1.
         23    2    1    2    0    0  0.82474242886E+03 -0.21492945028E+03 -0.14904047278E+04  0.17193499390E+04  0.91995748760E+02 0.  0.
         11    1    3    3    0    0  0.52368859392E+03 -0.16405213082E+03 -0.10264766087E+04  0.11639660963E+04  0.00000000000E+00 0.  1.
        -11    1    3    3    0    0  0.30105383494E+03 -0.50877319456E+02 -0.46392811901E+03  0.55538384274E+03  0.00000000000E+00 0. -1.
         22    1    1    2    0    0 -0.82474242886E+03  0.21492945028E+03  0.16923848458E+04  0.18948776238E+04  0.00000000000E+00 0.  1.
<mgrwt>
<rscale>  0 0.36085793E+04</rscale>
<asrwt>0</asrwt>
<pdfrwt beam="1">  1        1 0.26248057E+00 0.36085793E+04</pdfrwt>
<pdfrwt beam="2">  1       -1 0.29355444E+00 0.36085793E+04</pdfrwt>
<totfact> 0.13874900E-01</totfact>
</mgrwt>
</event>
<event>
 6    1  0.9512547E-007  0.1233312E+04  0.7818608E-02  0.9084188E-01
          1   -1    0    0  501    0  0.00000000000E+00  0.00000000000E+00  0.58908680039E+03  0.58908680039E+03  0.00000000000E+00 0. -1.
         -1   -1    0    0    0  501 -0.00000000000E+00 -0.00000000000E+00 -0.64551531137E+03  0.64551531137E+03  0.00000000000E+00 0.  1.
         23    2    1    2    0    0 -0.19156194983E+03  0.33529665375E+03  0.44874861314E+03  0.59873754020E+03  0.89395176716E+02 0.  0.
         13    1    3    3    0    0 -0.20344230070E+02  0.22779507741E+02  0.81436325360E+02  0.86975104244E+02  0.00000000000E+00 0. -1.
        -13    1    3    3    0    0 -0.17121771976E+03  0.31251714601E+03  0.36731228777E+03  0.51176243596E+03  0.00000000000E+00 0.  1.
         22    1    1    2    0    0  0.19156194983E+03 -0.33529665375E+03 -0.50517712412E+03  0.63586457156E+03  0.00000000000E+00 0.  1.
<mgrwt>
<rscale>  0 0.12333119E+04</rscale>
<asrwt>0</asrwt>
<pdfrwt beam="1">  1        1 0.90628739E-01 0.12333119E+04</pdfrwt>
<pdfrwt beam="2">  1       -1 0.99310048E-01 0.12333119E+04</pdfrwt>
<totfact> 0.33642992E+01</totfact>
</mgrwt>
</event>
<event>
 6    1  0.9512547E-007  0.2612661E+04  0.7818608E-02  0.8363913E-01
          1   -1    0    0  501    0  0.00000000000E+00  0.00000000000E+00  0.12828722183E+04  0.12828722183E+04  0.00000000000E+00 0. -1.
         -1   -1    0    0    0  501 -0.00000000000E+00 -0.00000000000E+00 -0.13302173272E+04  0.13302173272E+04  0.00000000000E+00 0.  1.
         23    2    1    2    0    0  0.69187890664E+03  0.43284563635E+03  0.99483337065E+03  0.12893872566E+04  0.82306109658E+02 0.  0.
         13    1    3    3    0    0  0.42925482181E+03  0.30594959831E+03  0.60316157170E+03  0.80104228373E+03  0.00000000000E+00 0.  1.
        -13    1    3    3    0    0  0.26262408483E+03  0.12689603804E+03  0.39167179895E+03  0.48834497284E+03  0.00000000000E+00 0. -1.
         22    1    1    2    0    0 -0.69187890664E+03 -0.43284563635E+03 -0.10421784796E+04  0.13237022889E+04  0.00000000000E+00 0.  1.
<mgrwt>
<rscale>  0 0.26126606E+04</rscale>
<asrwt>0</asrwt>
<pdfrwt beam="1">  1        1 0.19736496E+00 0.26126606E+04</pdfrwt>
<pdfrwt beam="2">  1       -1 0.20464882E+00 0.26126606E+04</pdfrwt>
<totfact> 0.11446907E+00</totfact>
</mgrwt>
</event>
<event>
 6    1  0.9512547E-007  0.1636958E+04  0.7818608E-02  0.8798160E-01
         -1   -1    0    0    0  501 -0.00000000000E+00  0.00000000000E+00  0.12597335089E+04  0.12597335089E+04  0.00000000000E+00 0.  1.
          1   -1    0    0  501    0  0.00000000000E+00 -0.00000000000E+00 -0.53178509913E+03  0.53178509913E+03  0.00000000000E+00 0. -1.
         23    2    1    2    0    0  0.73837359253E+03 -0.32977977953E+03  0.48816144556E+03  0.94804480679E+03  0.80852295115E+02 0.  0.
         11    1    3    3    0    0  0.46950748889E+03 -0.24110717834E+03  0.34743633595E+03  0.63188761746E+03  0.00000000000E+00 0.  1.
        -11    1    3    3    0    0  0.26886610364E+03 -0.88672601192E+02  0.14072510962E+03  0.31615718933E+03  0.00000000000E+00 0. -1.
         22    1    1    2    0    0 -0.73837359253E+03  0.32977977953E+03  0.23978696418E+03  0.84347380121E+03  0.00000000000E+00 0. -1.
<mgrwt>
<rscale>  0 0.16369576E+04</rscale>
<asrwt>0</asrwt>
<pdfrwt beam="1">  1        1 0.81813093E-01 0.16369576E+04</pdfrwt>
<pdfrwt beam="2">  1       -1 0.19380515E+00 0.16369576E+04</pdfrwt>
<totfact> 0.64650305E+00</totfact>
</mgrwt>
</event>
<event>
 6    1  0.9512547E-007  0.4076036E+04  0.7818608E-02  0.7989381E-01
          2   -1    0    0  501    0  0.00000000000E+00  0.00000000000E+00  0.27218160414E+04  0.27218160414E+04  0.00000000000E+00 0. -1.
         -2   -1    0    0    0  501 -0.00000000000E+00 -0.00000000000E+00 -0.15260097515E+04  0.15260097515E+04  0.00000000000E+00 0.  1.
         23    2    1    2    0    0 -0.25284388397E+03 -0.25346909138E+03  0.26879829100E+04  0.27133005648E+04  0.92580885174E+02 0.  0.
         11    1    3    3    0    0 -0.20953511809E+03 -0.16152678272E+03  0.17610047697E+04  0.17807677182E+04  0.00000000000E+00 0.  1.
        -11    1    3    3    0    0 -0.43308765876E+02 -0.91942308661E+02  0.92697814028E+03  0.93253284655E+03  0.00000000000E+00 0. -1.
         22    1    1    2    0    0  0.25284388397E+03  0.25346909138E+03 -0.14921766201E+04  0.15345252281E+04  0.00000000000E+00 0.  1.
<mgrwt>
<rscale>  0 0.40760362E+04</rscale>
<asrwt>0</asrwt>
<pdfrwt beam="1">  1        2 0.41874093E+00 0.40760362E+04</pdfrwt>
<pdfrwt beam="2">  1       -2 0.23477073E+00 0.40760362E+04</pdfrwt>
<totfact> 0.16127064E-01</totfact>
</mgrwt>
</event>
<event>
 6    1  0.9512547E-007  0.2591819E+04  0.7818608E-02  0.8370985E-01
          1   -1    0    0  501    0  0.00000000000E+00  0.00000000000E+00  0.13213361422E+04  0.13213361422E+04  0.00000000000E+00 0. -1.
         -1   -1    0    0    0  501 -0.00000000000E+00 -0.00000000000E+00 -0.12709723456E+04  0.12709723456E+04  0.00000000000E+00 0.  1.
         23    2    1    2    0    0 -0.58463820628E+03  0.50965707386E+03  0.10615887952E+04  0.13178956179E+04  0.91246503008E+02 0.  0.
         11    1    3    3    0    0 -0.31249384028E+03  0.27384635055E+03  0.49142032086E+03  0.64353566775E+03  0.00000000000E+00 0. -1.
        -11    1    3    3    0    0 -0.27214436600E+03  0.23581072331E+03  0.57016847438E+03  0.67435995014E+03  0.00000000000E+00 0.  1.
         22    1    1    2    0    0  0.58463820628E+03 -0.50965707386E+03 -0.10112249986E+04  0.12744128699E+04  0.00000000000E+00 0.  1.
<mgrwt>
<rscale>  0 0.25918192E+04</rscale>
<asrwt>0</asrwt>
<pdfrwt beam="1">  1        1 0.20328248E+00 0.25918192E+04</pdfrwt>
<pdfrwt beam="2">  1       -1 0.19553421E+00 0.25918192E+04</pdfrwt>
<totfact> 0.12441974E+00</totfact>
</mgrwt>
</event>
<event>
 6    1  0.9512547E-007  0.1386612E+04  0.7818608E-02  0.8963567E-01
         -1   -1    0    0    0  501 -0.00000000000E+00  0.00000000000E+00  0.19689757869E+03  0.19689757869E+03  0.00000000000E+00 0.  1.
          1   -1    0    0  501    0  0.00000000000E+00 -0.00000000000E+00 -0.24412362584E+04  0.24412362584E+04  0.00000000000E+00 0. -1.
         23    2    1    2    0    0  0.28770227227E+03  0.33322064095E+03 -0.11555736615E+03  0.46430806808E+03  0.91759926959E+02 0.  0.
         11    1    3    3    0    0  0.22085244904E+03  0.25245928556E+03 -0.46178235082E+02  0.33859108746E+03  0.00000000000E+00 0. -1.
        -11    1    3    3    0    0  0.66849823230E+02  0.80761355390E+02 -0.69379131068E+02  0.12571698063E+03  0.00000000000E+00 0.  1.
         22    1    1    2    0    0 -0.28770227227E+03 -0.33322064095E+03 -0.21287813135E+04  0.21738257690E+04  0.00000000000E+00 0. -1.
<mgrwt>
<rscale>  0 0.13866124E+04</rscale>
<asrwt>0</asrwt>
<pdfrwt beam="1">  1        1 0.37557481E+00 0.13866124E+04</pdfrwt>
<pdfrwt beam="2">  1       -1 0.30291935E-01 0.13866124E+04</pdfrwt>
<totfact> 0.14616047E+01</totfact>
</mgrwt>
</event>
<event>
 6    1  0.9512547E-007  0.3140029E+04  0.7818608E-02  0.8204837E-01
         -1   -1    0    0    0  501 -0.00000000000E+00  0.00000000000E+00  0.28539445807E+04  0.28539445807E+04  0.00000000000E+00 0.  1.
          1   -1    0    0  501    0  0.00000000000E+00 -0.00000000000E+00 -0.86369801362E+03  0.86369801362E+03  0.00000000000E+00 0. -1.
         23    2    1    2    0    0 -0.10515000361E+03  0.57561052799E+03  0.27191812950E+04  0.27829074228E+04  0.90789899218E+02 0.  0.
         13    1    3    3    0    0 -0.44564316324E+01  0.27414190598E+03  0.12871729662E+04  0.13160501090E+04  0.00000000000E+00 0. -1.
        -13    1    3    3    0    0 -0.10069357197E+03  0.30146862201E+03  0.14320083288E+04  0.14668573139E+04  0.00000000000E+00 0.  1.
         22    1    1    2    0    0  0.10515000361E+03 -0.57561052799E+03 -0.72893472794E+03  0.93473517147E+03  0.00000000000E+00 0. -1.
<mgrwt>
<rscale>  0 0.31400295E+04</rscale>
<asrwt>0</asrwt>
<pdfrwt beam="1">  1        1 0.13287662E+00 0.31400295E+04</pdfrwt>
<pdfrwt beam="2">  1       -1 0.43906839E+00 0.31400295E+04</pdfrwt>
<totfact> 0.63076148E-02</totfact>
</mgrwt>
</event>
<event>
 6    1  0.9512547E-007  0.7605812E+03  0.7818608E-02  0.9618895E-01
         -2   -1    0    0    0  501 -0.00000000000E+00  0.00000000000E+00  0.27733015972E+03  0.27733015972E+03  0.00000000000E+00 0.  1.
          2   -1    0    0  501    0  0.00000000000E+00 -0.00000000000E+00 -0.52147571411E+03  0.52147571411E+03  0.00000000000E+00 0. -1.
         23    2    1    2    0    0 -0.72964344024E+02 -0.11841538190E+03 -0.48961461418E+03  0.51666928016E+03  0.88761908924E+02 0.  0.
         13    1    3    3    0    0 -0.46710200820E+02 -0.12752549547E+03 -0.37834960016E+03  0.40198633658E+03  0.00000000000E+00 0. -1.
        -13    1    3    3    0    0 -0.26254143204E+02  0.91101135620E+01 -0.11126501402E+03  0.11468294359E+03  0.00000000000E+00 0.  1.
         22    1    1    2    0    0  0.72964344024E+02  0.11841538190E+03  0.24546905979E+03  0.28213659367E+03  0.00000000000E+00 0.  1.
<mgrwt>
<rscale>  0 0.76058121E+03</rscale>
<asrwt>0</asrwt>
<pdfrwt beam="1">  1        2 0.80227032E-01 0.76058121E+03</pdfrwt>
<pdfrwt beam="2">  1       -2 0.42666179E-01 0.76058121E+03</pdfrwt>
<totfact> 0.30753375E+02</totfact>
</mgrwt>
</event>
<event>
 6    1  0.9512547E-007  0.6585121E+03  0.7818608E-02  0.9790937E-01
         -4   -1    0    0    0  501 -0.00000000000E+00  0.00000000000E+00  0.59320560001E+03  0.59320560001E+03  0.00000000000E+00 0.  1.
          4   -1    0    0  501    0  0.00000000000E+00 -0.00000000000E+00 -0.18275207736E+03  0.18275207736E+03  0.00000000000E+00 0. -1.
         23    2    1    2    0    0 -0.76882714583E+02  0.30402001480E+03  0.12274153900E+03  0.35037888709E+03  0.96751009919E+02 0.  0.
         11    1    3    3    0    0  0.12371683173E+02  0.99503930297E+02  0.66301157207E+02  0.12020787884E+03  0.00000000000E+00 0. -1.
        -11    1    3    3    0    0 -0.89254397756E+02  0.20451608450E+03  0.56440381790E+02  0.23017100824E+03  0.00000000000E+00 0.  1.
         22    1    1    2    0    0  0.76882714583E+02 -0.30402001480E+03  0.28771198366E+03  0.42557879028E+03  0.00000000000E+00 0.  1.
<mgrwt>
<rscale>  0 0.65851213E+03</rscale>
<asrwt>0</asrwt>
<pdfrwt beam="1">  1        4 0.28115705E-01 0.65851213E+03</pdfrwt>
<pdfrwt beam="2">  1       -4 0.91262399E-01 0.65851213E+03</pdfrwt>
<totfact> 0.24737496E+01</totfact>
</mgrwt>
</event>
<event>
 6    1  0.9512547E-007  0.1744754E+04  0.7818608E-02  0.8736243E-01
          1   -1    0    0  501    0  0.00000000000E+00  0.00000000000E+00  0.12805118459E+04  0.12805118459E+04  0.00000000000E+00 0. -1.
         -1   -1    0    0    0  501 -0.00000000000E+00 -0.00000000000E+00 -0.59432585577E+03  0.59432585577E+03  0.00000000000E+00 0.  1.
         23    2    1    2    0    0 -0.11034565287E+03  0.85728403381E+03  0.23840289848E+03  0.90137903545E+03  0.92391264813E+02 0.  0.
         13    1    3    3    0    0  0.35716914336E+01  0.20164069803E+03  0.29018529070E+02  0.20374936347E+03  0.00000000000E+00 0. -1.
        -13    1    3    3    0    0 -0.11391734430E+03  0.65564333577E+03  0.20938436941E+03  0.69762967198E+03  0.00000000000E+00 0.  1.
         22    1    1    2    0    0  0.11034565287E+03 -0.85728403381E+03  0.44778309169E+03  0.97345866627E+03  0.00000000000E+00 0.  1.
<mgrwt>
<rscale>  0 0.17447536E+04</rscale>
<asrwt>0</asrwt>
<pdfrwt beam="1">  1        1 0.19700182E+00 0.17447536E+04</pdfrwt>
<pdfrwt beam="2">  1       -1 0.91434747E-01 0.17447536E+04</pdfrwt>
<totfact> 0.10329827E+01</totfact>
</mgrwt>
</event>
<event>
 6    1  0.9512547E-007  0.1519707E+04  0.7818608E-02  0.8871453E-01
         -2   -1    0    0    0  501 -0.00000000000E+00  0.00000000000E+00  0.51717815619E+03  0.51717815619E+03  0.00000000000E+00 0.  1.
          2   -1    0    0  501    0  0.00000000000E+00 -0.00000000000E+00 -0.11163992766E+04  0.11163992766E+04  0.00000000000E+00 0. -1.
         23    2    1    2    0    0 -0.31347354673E+03  0.68901970394E+03 -0.29956058379E+03  0.81944583767E+03  0.93493960166E+02 0.  0.
         11    1    3    3    0    0 -0.21024390279E+03  0.34956815358E+03 -0.16178092783E+03  0.43883192827E+03  0.00000000000E+00 0. -1.
        -11    1    3    3    0    0 -0.10322964394E+03  0.33945155036E+03 -0.13777965596E+03  0.38061390940E+03  0.00000000000E+00 0.  1.
         22    1    1    2    0    0  0.31347354673E+03 -0.68901970394E+03 -0.29966053657E+03  0.81413159507E+03  0.00000000000E+00 0.  1.
<mgrwt>
<rscale>  0 0.15197070E+04</rscale>
<asrwt>0</asrwt>
<pdfrwt beam="1">  1        2 0.17175373E+00 0.15197070E+04</pdfrwt>
<pdfrwt beam="2">  1       -2 0.79565870E-01 0.15197070E+04</pdfrwt>
<totfact> 0.28740498E+01</totfact>
</mgrwt>
</event>
<event>
 6    1  0.1013082E-006  0.1534317E+04  0.7818608E-02  0.8861948E-01
         -2   -1    0    0    0  501 -0.00000000000E+00  0.00000000000E+00  0.50048489029E+03  0.50048489029E+03  0.00000000000E+00 0.  1.
          2   -1    0    0  501    0  0.00000000000E+00 -0.00000000000E+00 -0.11759232050E+04  0.11759232050E+04  0.00000000000E+00 0. -1.
         23    2    1    2    0    0  0.15321066760E+03  0.12045429885E+03  0.46735060200E+03  0.51711984170E+03  0.10494569416E+03 0.  0.
         11    1    3    3    0    0  0.92820571908E+02  0.74328541423E+01  0.18944382273E+03  0.21109208384E+03  0.00000000000E+00 0. -1.
        -11    1    3    3    0    0  0.60390095690E+02  0.11302144471E+03  0.27790677927E+03  0.30602775787E+03  0.00000000000E+00 0.  1.
         22    1    1    2    0    0 -0.15321066760E+03 -0.12045429885E+03 -0.11427889167E+04  0.11592882536E+04  0.00000000000E+00 0. -1.
<mgrwt>
<rscale>  0 0.15343165E+04</rscale>
<asrwt>0</asrwt>
<pdfrwt beam="1">  1        2 0.18091126E+00 0.15343165E+04</pdfrwt>
<pdfrwt beam="2">  1       -2 0.76997675E-01 0.15343165E+04</pdfrwt>
<totfact> 0.28425424E+01</totfact>
</mgrwt>
</event>
<event>
 6    1  0.9512547E-007  0.9977257E+03  0.7818608E-02  0.9311043E-01
         -1   -1    0    0    0  501 -0.00000000000E+00  0.00000000000E+00  0.15992136852E+03  0.15992136852E+03  0.00000000000E+00 0.  1.
          1   -1    0    0  501    0  0.00000000000E+00 -0.00000000000E+00 -0.15561657340E+04  0.15561657340E+04  0.00000000000E+00 0. -1.
         23    2    1    2    0    0  0.28848732172E+03 -0.76591081899E+02 -0.25438902728E+02  0.31316203492E+03  0.91280850778E+02 0.  0.
         13    1    3    3    0    0  0.23254229498E+03 -0.25004959140E+02 -0.34919714939E+02  0.23647527023E+03  0.00000000000E+00 0. -1.
        -13    1    3    3    0    0  0.55945026742E+02 -0.51586122759E+02  0.94808122104E+01  0.76686764690E+02  0.00000000000E+00 0.  1.
         22    1    1    2    0    0 -0.28848732172E+03  0.76591081899E+02 -0.13708054627E+04  0.14029250676E+04  0.00000000000E+00 0. -1.
<mgrwt>
<rscale>  0 0.99772572E+03</rscale>
<asrwt>0</asrwt>
<pdfrwt beam="1">  1        1 0.23941012E+00 0.99772572E+03</pdfrwt>
<pdfrwt beam="2">  1       -1 0.24603287E-01 0.99772572E+03</pdfrwt>
<totfact> 0.86388118E+01</totfact>
</mgrwt>
</event>
<event>
 6    1  0.9512547E-007  0.5749569E+03  0.7818608E-02  0.9958769E-01
          4   -1    0    0  501    0  0.00000000000E+00  0.00000000000E+00  0.13487420860E+04  0.13487420860E+04  0.00000000000E+00 0. -1.
         -4   -1    0    0    0  501 -0.00000000000E+00 -0.00000000000E+00 -0.61274774814E+02  0.61274774814E+02  0.00000000000E+00 0.  1.
         23    2    1    2    0    0  0.19081606454E+03 -0.18097564532E+03  0.42140197594E+03  0.50490243733E+03  0.90464861736E+02 0.  0.
         11    1    3    3    0    0  0.35063554045E+01 -0.47763115483E+02  0.63155086585E+02  0.79260170895E+02  0.00000000000E+00 0.  1.
        -11    1    3    3    0    0  0.18730970913E+03 -0.13321252984E+03  0.35824688936E+03  0.42564226644E+03  0.00000000000E+00 0. -1.
         22    1    1    2    0    0 -0.19081606454E+03  0.18097564532E+03  0.86606533522E+03  0.90511442346E+03  0.00000000000E+00 0. -1.
<mgrwt>
<rscale>  0 0.57495693E+03</rscale>
<asrwt>0</asrwt>
<pdfrwt beam="1">  1        4 0.20749876E+00 0.57495693E+03</pdfrwt>
<pdfrwt beam="2">  1       -4 0.94268894E-02 0.57495693E+03</pdfrwt>
<totfact> 0.20684217E+01</totfact>
</mgrwt>
</event>
<event>
 6    1  0.9512547E-007  0.3382729E+04  0.7818608E-02  0.8142158E-01
          1   -1    0    0  501    0  0.00000000000E+00  0.00000000000E+00  0.70117986391E+03  0.70117986391E+03  0.00000000000E+00 0. -1.
         -1   -1    0    0    0  501 -0.00000000000E+00 -0.00000000000E+00 -0.40798564763E+04  0.40798564763E+04  0.00000000000E+00 0.  1.
         23    2    1    2    0    0  0.57828901843E+02 -0.86339371735E+03 -0.37424564212E+04  0.38423518127E+04  0.94310626336E+02 0.  0.
         11    1    3    3    0    0  0.12237173347E+02 -0.50790273257E+03 -0.20102301908E+04  0.20734368459E+04  0.00000000000E+00 0.  1.
        -11    1    3    3    0    0  0.45591728496E+02 -0.35549098478E+03 -0.17322262305E+04  0.17689149667E+04  0.00000000000E+00 0. -1.
         22    1    1    2    0    0 -0.57828901843E+02  0.86339371735E+03  0.36377980882E+03  0.93868452760E+03  0.00000000000E+00 0. -1.
<mgrwt>
<rscale>  0 0.33827286E+04</rscale>
<asrwt>0</asrwt>
<pdfrwt beam="1">  1        1 0.10787382E+00 0.33827286E+04</pdfrwt>
<pdfrwt beam="2">  1       -1 0.62767023E+00 0.33827286E+04</pdfrwt>
<totfact> 0.77350649E-03</totfact>
</mgrwt>
</event>
<event>
 6    1  0.9512547E-007  0.8165143E+03  0.7818608E-02  0.9536416E-01
         -2   -1    0    0    0  501 -0.00000000000E+00  0.00000000000E+00  0.13852058232E+03  0.13852058232E+03  0.00000000000E+00 0.  1.
          2   -1    0    0  501    0  0.00000000000E+00 -0.00000000000E+00 -0.12032428735E+04  0.12032428735E+04  0.00000000000E+00 0. -1.
         23    2    1    2    0    0 -0.37003832089E+03 -0.13012686995E+03 -0.69315441792E+03  0.80146349687E+03  0.89550703686E+02 0.  0.
         11    1    3    3    0    0 -0.11997465365E+03 -0.83636389990E+02 -0.21794668643E+03  0.26246851501E+03  0.00000000000E+00 0. -1.
        -11    1    3    3    0    0 -0.25006366724E+03 -0.46490479956E+02 -0.47520773149E+03  0.53899498186E+03  0.00000000000E+00 0.  1.
         22    1    1    2    0    0  0.37003832089E+03  0.13012686995E+03 -0.37156787327E+03  0.54029995896E+03  0.00000000000E+00 0.  1.
<mgrwt>
<rscale>  0 0.81651431E+03</rscale>
<asrwt>0</asrwt>
<pdfrwt beam="1">  1        2 0.18511429E+00 0.81651431E+03</pdfrwt>
<pdfrwt beam="2">  1       -2 0.21310858E-01 0.81651431E+03</pdfrwt>
<totfact> 0.36170233E+02</totfact>
</mgrwt>
</event>
<event>
 6    1  0.9512547E-007  0.2252153E+04  0.7818608E-02  0.8497029E-01
         -1   -1    0    0    0  501 -0.00000000000E+00  0.00000000000E+00  0.82382460285E+03  0.82382460285E+03  0.00000000000E+00 0.  1.
          1   -1    0    0  501    0  0.00000000000E+00 -0.00000000000E+00 -0.15392217671E+04  0.15392217671E+04  0.00000000000E+00 0. -1.
         23    2    1    2    0    0  0.55545855150E+03  0.28589756847E+03 -0.13389696815E+04  0.14803718510E+04  0.91593598020E+02 0.  0.
         11    1    3    3    0    0  0.12711344567E+03  0.10048230591E+03 -0.28882708472E+03  0.33117307671E+03  0.00000000000E+00 0. -1.
        -11    1    3    3    0    0  0.42834510583E+03  0.18541526256E+03 -0.10501425968E+04  0.11491987743E+04  0.00000000000E+00 0.  1.
         22    1    1    2    0    0 -0.55545855150E+03 -0.28589756847E+03  0.62357251726E+03  0.88267451893E+03  0.00000000000E+00 0.  1.
<mgrwt>
<rscale>  0 0.22521534E+04</rscale>
<asrwt>0</asrwt>
<pdfrwt beam="1">  1        1 0.23680335E+00 0.22521534E+04</pdfrwt>
<pdfrwt beam="2">  1       -1 0.12674225E+00 0.22521534E+04</pdfrwt>
<totfact> 0.30151343E+00</totfact>
</mgrwt>
</event>
<event>
 6    1  0.9512547E-007  0.3367643E+04  0.7818608E-02  0.8145894E-01
         -1   -1    0    0    0  501 -0.00000000000E+00  0.00000000000E+00  0.10487122063E+04  0.10487122063E+04  0.00000000000E+00 0.  1.
          1   -1    0    0  501    0  0.00000000000E+00 -0.00000000000E+00 -0.27035589072E+04  0.27035589072E+04  0.00000000000E+00 0. -1.
         23    2    1    2    0    0 -0.92945332267E+03 -0.27935045660E+03  0.70344387713E+03  0.12020839426E+04  0.90842501320E+02 0.  0.
         11    1    3    3    0    0 -0.83957116791E+03 -0.22584994086E+03  0.64209131264E+03  0.10808187617E+04  0.00000000000E+00 0.  1.
        -11    1    3    3    0    0 -0.89882154759E+02 -0.53500515748E+02  0.61352564488E+02  0.12126518090E+03  0.00000000000E+00 0. -1.
         22    1    1    2    0    0  0.92945332267E+03  0.27935045660E+03 -0.23582905780E+04  0.25501871710E+04  0.00000000000E+00 0. -1.
<mgrwt>
<rscale>  0 0.33676432E+04</rscale>
<asrwt>0</asrwt>
<pdfrwt beam="1">  1        1 0.41593213E+00 0.33676432E+04</pdfrwt>
<pdfrwt beam="2">  1       -1 0.16134034E+00 0.33676432E+04</pdfrwt>
<totfact> 0.22968938E-01</totfact>
</mgrwt>
</event>
<event>
 6    1  0.9512547E-007  0.2358354E+04  0.7818608E-02  0.8455262E-01
          2   -1    0    0  501    0  0.00000000000E+00  0.00000000000E+00  0.16756787000E+04  0.16756787000E+04  0.00000000000E+00 0. -1.
         -2   -1    0    0    0  501 -0.00000000000E+00 -0.00000000000E+00 -0.82978833611E+03  0.82978833611E+03  0.00000000000E+00 0.  1.
         23    2    1    2    0    0 -0.31186800631E+03 -0.59190181934E+03  0.14529083324E+04  0.16020954452E+04  0.90320407625E+02 0.  0.
         11    1    3    3    0    0 -0.27949458834E+03 -0.57202442355E+03  0.13839070974E+04  0.15233279424E+04  0.00000000000E+00 0. -1.
        -11    1    3    3    0    0 -0.32373417965E+02 -0.19877395783E+02  0.69001235061E+02  0.78767502778E+02  0.00000000000E+00 0.  1.
         22    1    1    2    0    0  0.31186800631E+03  0.59190181934E+03 -0.60701796854E+03  0.90337159089E+03  0.00000000000E+00 0.  1.
<mgrwt>
<rscale>  0 0.23583542E+04</rscale>
<asrwt>0</asrwt>
<pdfrwt beam="1">  1        2 0.25779672E+00 0.23583542E+04</pdfrwt>
<pdfrwt beam="2">  1       -2 0.12765974E+00 0.23583542E+04</pdfrwt>
<totfact> 0.41518102E+00</totfact>
</mgrwt>
</event>
<event>
 6    1  0.9512547E-007  0.1708632E+04  0.7818608E-02  0.8756457E-01
          2   -1    0    0  501    0  0.00000000000E+00  0.00000000000E+00  0.85253214275E+03  0.85253214275E+03  0.00000000000E+00 0. -1.
         -2   -1    0    0    0  501 -0.00000000000E+00 -0.00000000000E+00 -0.85610329173E+03  0.85610329173E+03  0.00000000000E+00 0.  1.
         23    2    1    2    0    0 -0.15443459455E+02  0.18002675990E+03  0.83076962204E+03  0.85495361032E+03  0.90107581169E+02 0.  0.
         13    1    3    3    0    0 -0.34210822345E+02  0.19000848190E+02  0.19060336623E+03  0.19457917622E+03  0.00000000000E+00 0. -1.
        -13    1    3    3    0    0  0.18767362889E+02  0.16102591171E+03  0.64016625580E+03  0.66037443411E+03  0.00000000000E+00 0.  1.
         22    1    1    2    0    0  0.15443459455E+02 -0.18002675990E+03 -0.83434077102E+03  0.85368182416E+03  0.00000000000E+00 0.  1.
<mgrwt>
<rscale>  0 0.17086317E+04</rscale>
<asrwt>0</asrwt>
<pdfrwt beam="1">  1        2 0.13115879E+00 0.17086317E+04</pdfrwt>
<pdfrwt beam="2">  1       -2 0.13170820E+00 0.17086317E+04</pdfrwt>
<totfact> 0.12626808E+01</totfact>
</mgrwt>
</event>
<event>
 6    1  0.9512547E-007  0.1840261E+04  0.7818608E-02  0.8685177E-01
          1   -1    0    0  501    0  0.00000000000E+00  0.00000000000E+00  0.24588095270E+04  0.24588095270E+04  0.00000000000E+00 0. -1.
         -1   -1    0    0    0  501 -0.00000000000E+00 -0.00000000000E+00 -0.34432927666E+03  0.34432927666E+03  0.00000000000E+00 0.  1.
         23    2    1    2    0    0 -0.59703248189E+03  0.68632975622E+03  0.12463149631E+04  0.15456781543E+04  0.91234043930E+02 0.  0.
         13    1    3    3    0    0 -0.30203882156E+03  0.40170803677E+03  0.63898125839E+03  0.81295377797E+03  0.00000000000E+00 0.  1.
        -13    1    3    3    0    0 -0.29499366032E+03  0.28462171945E+03  0.60733370473E+03  0.73272437636E+03  0.00000000000E+00 0. -1.
         22    1    1    2    0    0  0.59703248189E+03 -0.68632975622E+03  0.86816528724E+03  0.12574606493E+04  0.00000000000E+00 0.  1.
<mgrwt>
<rscale>  0 0.18402610E+04</rscale>
<asrwt>0</asrwt>
<pdfrwt beam="1">  1        1 0.37827838E+00 0.18402610E+04</pdfrwt>
<pdfrwt beam="2">  1       -1 0.52973736E-01 0.18402610E+04</pdfrwt>
<totfact> 0.48923734E+00</totfact>
</mgrwt>
</event>
<event>
 6    1  0.9512547E-007  0.3822572E+04  0.7818608E-02  0.8041328E-01
          2   -1    0    0  501    0  0.00000000000E+00  0.00000000000E+00  0.23682477159E+04  0.23682477159E+04  0.00000000000E+00 0. -1.
         -2   -1    0    0    0  501 -0.00000000000E+00 -0.00000000000E+00 -0.15424962906E+04  0.15424962906E+04  0.00000000000E+00 0.  1.
         23    2    1    2    0    0  0.10585339366E+04  0.15600649120E+04  0.98439234300E+02  0.18900313480E+04  0.90728102941E+02 0.  0.
         11    1    3    3    0    0  0.25347685786E+03  0.43366744072E+03  0.47910853475E+02  0.50459232703E+03  0.00000000000E+00 0. -1.
        -11    1    3    3    0    0  0.80505707877E+03  0.11263974713E+04  0.50528380825E+02  0.13854390209E+04  0.00000000000E+00 0.  1.
         22    1    1    2    0    0 -0.10585339366E+04 -0.15600649120E+04  0.72731219100E+03  0.20207126584E+04  0.00000000000E+00 0. -1.
<mgrwt>
<rscale>  0 0.38225716E+04</rscale>
<asrwt>0</asrwt>
<pdfrwt beam="1">  1        2 0.36434580E+00 0.38225716E+04</pdfrwt>
<pdfrwt beam="2">  1       -2 0.23730712E+00 0.38225716E+04</pdfrwt>
<totfact> 0.25540936E-01</totfact>
</mgrwt>
</event>
<event>
 6    1  0.9512547E-007  0.1640186E+04  0.7818608E-02  0.8796234E-01
          2   -1    0    0  501    0  0.00000000000E+00  0.00000000000E+00  0.14021070186E+04  0.14021070186E+04  0.00000000000E+00 0. -1.
         -2   -1    0    0    0  501 -0.00000000000E+00 -0.00000000000E+00 -0.47967270200E+03  0.47967270200E+03  0.00000000000E+00 0.  1.
         23    2    1    2    0    0  0.38630065062E+03  0.10732725052E+03 -0.35511673653E+03  0.54279352772E+03  0.88145253965E+02 0.  0.
         13    1    3    3    0    0  0.23063051984E+03  0.87526539836E+02 -0.26409080663E+03  0.36137969783E+03  0.00000000000E+00 0.  1.
        -13    1    3    3    0    0  0.15567013078E+03  0.19800710681E+02 -0.91025929900E+02  0.18141382989E+03  0.00000000000E+00 0. -1.
         22    1    1    2    0    0 -0.38630065062E+03 -0.10732725052E+03  0.12775510531E+04  0.13389861929E+04  0.00000000000E+00 0. -1.
<mgrwt>
<rscale>  0 0.16401859E+04</rscale>
<asrwt>0</asrwt>
<pdfrwt beam="1">  1        2 0.21570877E+00 0.16401859E+04</pdfrwt>
<pdfrwt beam="2">  1       -2 0.73795801E-01 0.16401859E+04</pdfrwt>
<totfact> 0.22832527E+01</totfact>
</mgrwt>
</event>
<event>
 6    1  0.9512547E-007  0.1238531E+04  0.7818608E-02  0.9079784E-01
          1   -1    0    0  501    0  0.00000000000E+00  0.00000000000E+00  0.20282412291E+04  0.20282412291E+04  0.00000000000E+00 0. -1.
         -1   -1    0    0    0  501 -0.00000000000E+00 -0.00000000000E+00 -0.18907492372E+03  0.18907492372E+03  0.00000000000E+00 0.  1.
         23    2    1    2    0    0 -0.45697685544E+03  0.39065106224E+03  0.11646716711E+04  0.13137791527E+04  0.90108056442E+02 0.  0.
         11    1    3    3    0    0 -0.19756946933E+03  0.22647337955E+03  0.55306951011E+03  0.62945195994E+03  0.00000000000E+00 0.  1.
        -11    1    3    3    0    0 -0.25940738611E+03  0.16417768270E+03  0.61160216098E+03  0.68432719278E+03  0.00000000000E+00 0. -1.
         22    1    1    2    0    0  0.45697685544E+03 -0.39065106224E+03  0.67449463426E+03  0.90353700007E+03  0.00000000000E+00 0. -1.
<mgrwt>
<rscale>  0 0.12385307E+04</rscale>
<asrwt>0</asrwt>
<pdfrwt beam="1">  1        1 0.31203710E+00 0.12385307E+04</pdfrwt>
<pdfrwt beam="2">  1       -1 0.29088451E-01 0.12385307E+04</pdfrwt>
<totfact> 0.30367012E+01</totfact>
</mgrwt>
</event>
<event>
 6    1  0.9512547E-007  0.2187177E+04  0.7818608E-02  0.8523784E-01
         -1   -1    0    0    0  501 -0.00000000000E+00  0.00000000000E+00  0.14863948844E+04  0.14863948844E+04  0.00000000000E+00 0.  1.
          1   -1    0    0  501    0  0.00000000000E+00 -0.00000000000E+00 -0.80458794763E+03  0.80458794763E+03  0.00000000000E+00 0. -1.
         23    2    1    2    0    0  0.91079909004E+03  0.33776200804E+02  0.97088951175E+03  0.13348110121E+04  0.91641582902E+02 0.  0.
         13    1    3    3    0    0  0.19892263293E+03 -0.18132523559E+02  0.17294414759E+03  0.26421332383E+03  0.00000000000E+00 0.  1.
        -13    1    3    3    0    0  0.71187645711E+03  0.51908724363E+02  0.79794536416E+03  0.10705976882E+04  0.00000000000E+00 0. -1.
         22    1    1    2    0    0 -0.91079909004E+03 -0.33776200804E+02 -0.28908257497E+03  0.95617181997E+03  0.00000000000E+00 0. -1.
<mgrwt>
<rscale>  0 0.21871766E+04</rscale>
<asrwt>0</asrwt>
<pdfrwt beam="1">  1        1 0.12378276E+00 0.21871766E+04</pdfrwt>
<pdfrwt beam="2">  1       -1 0.22867614E+00 0.21871766E+04</pdfrwt>
<totfact> 0.19258130E+00</totfact>
</mgrwt>
</event>
<event>
 6    1  0.9512547E-007  0.1515677E+04  0.7818608E-02  0.8874095E-01
          2   -1    0    0  501    0  0.00000000000E+00  0.00000000000E+00  0.27971308234E+04  0.27971308234E+04  0.00000000000E+00 0. -1.
         -2   -1    0    0    0  501 -0.00000000000E+00 -0.00000000000E+00 -0.20532430067E+03  0.20532430067E+03  0.00000000000E+00 0.  1.
         23    2    1    2    0    0 -0.43436536289E+03 -0.55341866724E+03  0.18440151024E+04  0.19757431401E+04  0.90684993254E+02 0.  0.
         11    1    3    3    0    0 -0.83705191418E+02 -0.11544167444E+03  0.48328963558E+03  0.50388710157E+03  0.00000000000E+00 0.  1.
        -11    1    3    3    0    0 -0.35066017147E+03 -0.43797699280E+03  0.13607254668E+04  0.14718560385E+04  0.00000000000E+00 0. -1.
         22    1    1    2    0    0  0.43436536289E+03  0.55341866724E+03  0.74779142034E+03  0.10267119840E+04  0.00000000000E+00 0.  1.
<mgrwt>
<rscale>  0 0.15156767E+04</rscale>
<asrwt>0</asrwt>
<pdfrwt beam="1">  1        2 0.43032779E+00 0.15156767E+04</pdfrwt>
<pdfrwt beam="2">  1       -2 0.31588356E-01 0.15156767E+04</pdfrwt>
<totfact> 0.20961717E+01</totfact>
</mgrwt>
</event>
<event>
 6    1  0.9512547E-007  0.1691520E+04  0.7818608E-02  0.8766216E-01
         -1   -1    0    0    0  501 -0.00000000000E+00  0.00000000000E+00  0.13120669122E+04  0.13120669122E+04  0.00000000000E+00 0.  1.
          1   -1    0    0  501    0  0.00000000000E+00 -0.00000000000E+00 -0.54517776079E+03  0.54517776079E+03  0.00000000000E+00 0. -1.
         23    2    1    2    0    0 -0.84657207182E+02 -0.64093528292E+03  0.97906741800E+03  0.11768150319E+04  0.91409686438E+02 0.  0.
         13    1    3    3    0    0 -0.72820876489E+02 -0.56441141141E+03  0.90864802847E+03  0.10721494117E+04  0.00000000000E+00 0.  1.
        -13    1    3    3    0    0 -0.11836330694E+02 -0.76523871510E+02  0.70419389523E+02  0.10466562022E+03  0.00000000000E+00 0. -1.
         22    1    1    2    0    0  0.84657207182E+02  0.64093528292E+03 -0.21217826658E+03  0.68042964106E+03  0.00000000000E+00 0. -1.
<mgrwt>
<rscale>  0 0.16915197E+04</rscale>
<asrwt>0</asrwt>
<pdfrwt beam="1">  1        1 0.83873502E-01 0.16915197E+04</pdfrwt>
<pdfrwt beam="2">  1       -1 0.20185645E+00 0.16915197E+04</pdfrwt>
<totfact> 0.54648302E+00</totfact>
</mgrwt>
</event>
<event>
 6    1  0.9512547E-007  0.1489670E+04  0.7818608E-02  0.8891351E-01
          2   -1    0    0  501    0  0.00000000000E+00  0.00000000000E+00  0.96419932913E+03  0.96419932913E+03  0.00000000000E+00 0. -1.
         -2   -1    0    0    0  501 -0.00000000000E+00 -0.00000000000E+00 -0.57537816720E+03  0.57537816720E+03  0.00000000000E+00 0.  1.
         23    2    1    2    0    0 -0.69707207769E+03 -0.23381616650E+03  0.29869929275E+03  0.79883365902E+03  0.91293297052E+02 0.  0.
         13    1    3    3    0    0 -0.30410093659E+03 -0.54543347451E+02  0.12368072505E+03  0.33279014129E+03  0.00000000000E+00 0. -1.
        -13    1    3    3    0    0 -0.39297114109E+03 -0.17927281905E+03  0.17501856770E+03  0.46604351773E+03  0.00000000000E+00 0.  1.
         22    1    1    2    0    0  0.69707207769E+03  0.23381616650E+03  0.90121869183E+02  0.74074383731E+03  0.00000000000E+00 0. -1.
<mgrwt>
<rscale>  0 0.14896701E+04</rscale>
<asrwt>0</asrwt>
<pdfrwt beam="1">  1        2 0.14833836E+00 0.14896701E+04</pdfrwt>
<pdfrwt beam="2">  1       -2 0.88519718E-01 0.14896701E+04</pdfrwt>
<totfact> 0.28219522E+01</totfact>
</mgrwt>
</event>
<event>
 6    1  0.9512547E-007  0.2511767E+04  0.7818608E-02  0.8398805E-01
         -1   -1    0    0    0  501 -0.00000000000E+00  0.00000000000E+00  0.12489413950E+04  0.12489413950E+04  0.00000000000E+00 0.  1.
          1   -1    0    0  501    0  0.00000000000E+00 -0.00000000000E+00 -0.12628644069E+04  0.12628644069E+04  0.00000000000E+00 0. -1.
         23    2    1    2    0    0  0.71279998854E+03  0.57736441912E+03  0.84843126711E+03  0.12528028637E+04  0.90806960476E+02 0.  0.
         11    1    3    3    0    0  0.21351147654E+03  0.22771069809E+03  0.29524791522E+03  0.42966340789E+03  0.00000000000E+00 0. -1.
        -11    1    3    3    0    0  0.49928851200E+03  0.34965372103E+03  0.55318335189E+03  0.82313945578E+03  0.00000000000E+00 0.  1.
         22    1    1    2    0    0 -0.71279998854E+03 -0.57736441912E+03 -0.86235427899E+03  0.12590029383E+04  0.00000000000E+00 0. -1.
<mgrwt>
<rscale>  0 0.25117672E+04</rscale>
<asrwt>0</asrwt>
<pdfrwt beam="1">  1        1 0.19428683E+00 0.25117672E+04</pdfrwt>
<pdfrwt beam="2">  1       -1 0.19214483E+00 0.25117672E+04</pdfrwt>
<totfact> 0.14571368E+00</totfact>
</mgrwt>
</event>
<event>
 6    1  0.9512547E-007  0.1080589E+04  0.7818608E-02  0.9224321E-01
         -2   -1    0    0    0  501 -0.00000000000E+00  0.00000000000E+00  0.11880160019E+03  0.11880160019E+03  0.00000000000E+00 0.  1.
          2   -1    0    0  501    0  0.00000000000E+00 -0.00000000000E+00 -0.24571884105E+04  0.24571884105E+04  0.00000000000E+00 0. -1.
         23    2    1    2    0    0 -0.36607305849E+03  0.33439851499E+03 -0.69940541896E+03  0.86365480631E+03  0.10440226728E+03 0.  0.
         13    1    3    3    0    0 -0.13176997642E+03  0.15280161700E+03 -0.36273798994E+03  0.41507892043E+03  0.00000000000E+00 0.  1.
        -13    1    3    3    0    0 -0.23430308207E+03  0.18159689799E+03 -0.33666742903E+03  0.44857588588E+03  0.00000000000E+00 0. -1.
         22    1    1    2    0    0  0.36607305849E+03 -0.33439851499E+03 -0.16389813913E+04  0.17123352043E+04  0.00000000000E+00 0. -1.
<mgrwt>
<rscale>  0 0.10805886E+04</rscale>
<asrwt>0</asrwt>
<pdfrwt beam="1">  1        2 0.37802897E+00 0.10805886E+04</pdfrwt>
<pdfrwt beam="2">  1       -2 0.18277170E-01 0.10805886E+04</pdfrwt>
<totfact> 0.92452200E+01</totfact>
</mgrwt>
</event>
<event>
 6    1  0.9512547E-007  0.4839205E+04  0.7818608E-02  0.7853801E-01
         -2   -1    0    0    0  501 -0.00000000000E+00  0.00000000000E+00  0.13903419844E+04  0.13903419844E+04  0.00000000000E+00 0.  1.
          2   -1    0    0  501    0  0.00000000000E+00 -0.00000000000E+00 -0.42108182676E+04  0.42108182676E+04  0.00000000000E+00 0. -1.
         23    2    1    2    0    0 -0.55792133560E+03  0.21010554804E+04 -0.26381021915E+04  0.34196537410E+04  0.93478270891E+02 0.  0.
         13    1    3    3    0    0 -0.37921790176E+03  0.12534977064E+04 -0.15732699855E+04  0.20470078564E+04  0.00000000000E+00 0.  1.
        -13    1    3    3    0    0 -0.17870343384E+03  0.84755777404E+03 -0.10648322060E+04  0.13726458846E+04  0.00000000000E+00 0. -1.
         22    1    1    2    0    0  0.55792133560E+03 -0.21010554804E+04 -0.18237409174E+03  0.21815065111E+04  0.00000000000E+00 0.  1.
<mgrwt>
<rscale>  0 0.48392055E+04</rscale>
<asrwt>0</asrwt>
<pdfrwt beam="1">  1        2 0.64781819E+00 0.48392055E+04</pdfrwt>
<pdfrwt beam="2">  1       -2 0.21389877E+00 0.48392055E+04</pdfrwt>
<totfact> 0.18022978E-02</totfact>
</mgrwt>
</event>
<event>
 6    1  0.9512547E-007  0.1198429E+04  0.7818608E-02  0.9114232E-01
         -2   -1    0    0    0  501 -0.00000000000E+00  0.00000000000E+00  0.54775200940E+03  0.54775200940E+03  0.00000000000E+00 0.  1.
          2   -1    0    0  501    0  0.00000000000E+00 -0.00000000000E+00 -0.65551251938E+03  0.65551251938E+03  0.00000000000E+00 0. -1.
         23    2    1    2    0    0 -0.19991025307E+03  0.15185505921E+03  0.48822552901E+03  0.55656256732E+03  0.91507682046E+02 0.  0.
         11    1    3    3    0    0 -0.18856314616E+03  0.10082605176E+03  0.41119861868E+03  0.46347195903E+03  0.00000000000E+00 0. -1.
        -11    1    3    3    0    0 -0.11347106909E+02  0.51029007449E+02  0.77026910326E+02  0.93090608285E+02  0.00000000000E+00 0.  1.
         22    1    1    2    0    0  0.19991025307E+03 -0.15185505921E+03 -0.59598603899E+03  0.64670196146E+03  0.00000000000E+00 0. -1.
<mgrwt>
<rscale>  0 0.11984295E+04</rscale>
<asrwt>0</asrwt>
<pdfrwt beam="1">  1        2 0.10084808E+00 0.11984295E+04</pdfrwt>
<pdfrwt beam="2">  1       -2 0.84269540E-01 0.11984295E+04</pdfrwt>
<totfact> 0.53982397E+01</totfact>
</mgrwt>
</event>
<event>
 6    1  0.9512547E-007  0.4118733E+04  0.7818608E-02  0.7981013E-01
         -1   -1    0    0    0  501 -0.00000000000E+00  0.00000000000E+00  0.20938295038E+04  0.20938295038E+04  0.00000000000E+00 0.  1.
          1   -1    0    0  501    0  0.00000000000E+00 -0.00000000000E+00 -0.20254709494E+04  0.20254709494E+04  0.00000000000E+00 0. -1.
         23    2    1    2    0    0 -0.53014870116E+03 -0.19856032051E+04  0.14862091106E+03  0.20625749540E+04  0.91921336578E+02 0.  0.
         11    1    3    3    0    0 -0.30658218542E+03 -0.13023453665E+04  0.78153584832E+02  0.13402253814E+04  0.00000000000E+00 0. -1.
        -11    1    3    3    0    0 -0.22356651574E+03 -0.68325783855E+03  0.70467326231E+02  0.72234957255E+03  0.00000000000E+00 0.  1.
         22    1    1    2    0    0  0.53014870116E+03  0.19856032051E+04 -0.80262356582E+02  0.20567254992E+04  0.00000000000E+00 0.  1.
<mgrwt>
<rscale>  0 0.41187332E+04</rscale>
<asrwt>0</asrwt>
<pdfrwt beam="1">  1        1 0.31161091E+00 0.41187332E+04</pdfrwt>
<pdfrwt beam="2">  1       -1 0.32212762E+00 0.41187332E+04</pdfrwt>
<totfact> 0.52609886E-02</totfact>
</mgrwt>
</event>
<event>
 6    1  0.9512547E-007  0.1230227E+04  0.7818608E-02  0.9086803E-01
          2   -1    0    0  501    0  0.00000000000E+00  0.00000000000E+00  0.13642656695E+04  0.13642656695E+04  0.00000000000E+00 0. -1.
         -2   -1    0    0    0  501 -0.00000000000E+00 -0.00000000000E+00 -0.27733921978E+03  0.27733921978E+03  0.00000000000E+00 0.  1.
         23    2    1    2    0    0 -0.43279002159E+03  0.41040492006E+03  0.73154911318E+03  0.94731931943E+03  0.80686967764E+02 0.  0.
         13    1    3    3    0    0 -0.10392006014E+03  0.10331920639E+03  0.23759724081E+03  0.27915351717E+03  0.00000000000E+00 0. -1.
        -13    1    3    3    0    0 -0.32886996145E+03  0.30708571368E+03  0.49395187237E+03  0.66816580226E+03  0.00000000000E+00 0.  1.
         22    1    1    2    0    0  0.43279002159E+03 -0.41040492006E+03  0.35537733656E+03  0.69428556988E+03  0.00000000000E+00 0.  1.
<mgrwt>
<rscale>  0 0.12302266E+04</rscale>
<asrwt>0</asrwt>
<pdfrwt beam="1">  1        2 0.20988702E+00 0.12302266E+04</pdfrwt>
<pdfrwt beam="2">  1       -2 0.42667573E-01 0.12302266E+04</pdfrwt>
<totfact> 0.77760998E+01</totfact>
</mgrwt>
</event>
<event>
 6    1  0.9512547E-007  0.1410474E+04  0.7818608E-02  0.8946272E-01
         -2   -1    0    0    0  501 -0.00000000000E+00  0.00000000000E+00  0.23353367177E+03  0.23353367177E+03  0.00000000000E+00 0.  1.
          2   -1    0    0  501    0  0.00000000000E+00 -0.00000000000E+00 -0.21297114295E+04  0.21297114295E+04  0.00000000000E+00 0. -1.
         23    2    1    2    0    0  0.23216876268E+03 -0.60661806090E+03 -0.14034342662E+04  0.15479635827E+04  0.68379145291E+02 0.  0.
         13    1    3    3    0    0  0.15630717600E+02 -0.10394948838E+03 -0.20119980573E+03  0.22700479575E+03  0.00000000000E+00 0. -1.
        -13    1    3    3    0    0  0.21653804508E+03 -0.50266857252E+03 -0.12022344605E+04  0.13209587869E+04  0.00000000000E+00 0.  1.
         22    1    1    2    0    0 -0.23216876268E+03  0.60661806090E+03 -0.49274349156E+03  0.81528151865E+03  0.00000000000E+00 0.  1.
<mgrwt>
<rscale>  0 0.14104741E+04</rscale>
<asrwt>0</asrwt>
<pdfrwt beam="1">  1        2 0.32764791E+00 0.14104741E+04</pdfrwt>
<pdfrwt beam="2">  1       -2 0.35928257E-01 0.14104741E+04</pdfrwt>
<totfact> 0.40114699E+01</totfact>
</mgrwt>
</event>
<event>
 6    1  0.9512547E-007  0.3690063E+04  0.7818608E-02  0.8070168E-01
          2   -1    0    0  501    0  0.00000000000E+00  0.00000000000E+00  0.21009273098E+04  0.21009273098E+04  0.00000000000E+00 0. -1.
         -2   -1    0    0    0  501 -0.00000000000E+00 -0.00000000000E+00 -0.16203039986E+04  0.16203039986E+04  0.00000000000E+00 0.  1.
         23    2    1    2    0    0  0.39962780845E+03 -0.14483687887E+04 -0.83775388766E+03  0.17223333691E+04  0.84416375267E+02 0.  0.
         13    1    3    3    0    0  0.28135334512E+03 -0.10375409336E+04 -0.64209636954E+03  0.12521735669E+04  0.00000000000E+00 0. -1.
        -13    1    3    3    0    0  0.11827446333E+03 -0.41082785509E+03 -0.19565751812E+03  0.47015980218E+03  0.00000000000E+00 0.  1.
         22    1    1    2    0    0 -0.39962780845E+03  0.14483687887E+04  0.13183771989E+04  0.19988979393E+04  0.00000000000E+00 0. -1.
<mgrwt>
<rscale>  0 0.36900628E+04</rscale>
<asrwt>0</asrwt>
<pdfrwt beam="1">  1        2 0.32321959E+00 0.36900628E+04</pdfrwt>
<pdfrwt beam="2">  1       -2 0.24927754E+00 0.36900628E+04</pdfrwt>
<totfact> 0.30829227E-01</totfact>
</mgrwt>
</event>
<event>
 6    1  0.9512547E-007  0.2797644E+04  0.7818608E-02  0.8304000E-01
          2   -1    0    0  501    0  0.00000000000E+00  0.00000000000E+00  0.18472040429E+04  0.18472040429E+04  0.00000000000E+00 0. -1.
         -2   -1    0    0    0  501 -0.00000000000E+00 -0.00000000000E+00 -0.10592779953E+04  0.10592779953E+04  0.00000000000E+00 0.  1.
         23    2    1    2    0    0 -0.74773893204E+03  0.78438194874E+03  0.13103900459E+04  0.17034287636E+04  0.10089067504E+03 0.  0.
         13    1    3    3    0    0 -0.33876956778E+03  0.35381687140E+03  0.67143743574E+03  0.83113141480E+03  0.00000000000E+00 0.  1.
        -13    1    3    3    0    0 -0.40896936426E+03  0.43056507734E+03  0.63895261016E+03  0.87229734882E+03  0.00000000000E+00 0. -1.
         22    1    1    2    0    0  0.74773893204E+03 -0.78438194874E+03 -0.52246399836E+03  0.12030532746E+04  0.00000000000E+00 0.  1.
<mgrwt>
<rscale>  0 0.27976437E+04</rscale>
<asrwt>0</asrwt>
<pdfrwt beam="1">  1        2 0.28418524E+00 0.27976437E+04</pdfrwt>
<pdfrwt beam="2">  1       -2 0.16296585E+00 0.27976437E+04</pdfrwt>
<totfact> 0.16938876E+00</totfact>
</mgrwt>
</event>
<event>
 6    1  0.9512547E-007  0.1322871E+04  0.7818608E-02  0.9011622E-01
          1   -1    0    0  501    0  0.00000000000E+00  0.00000000000E+00  0.10208096799E+04  0.10208096799E+04  0.00000000000E+00 0. -1.
         -1   -1    0    0    0  501 -0.00000000000E+00 -0.00000000000E+00 -0.42857865709E+03  0.42857865709E+03  0.00000000000E+00 0.  1.
         23    2    1    2    0    0 -0.19526371504E+03 -0.36352055617E+03  0.85936068065E+03  0.95782616666E+03  0.93032644413E+02 0.  0.
         13    1    3    3    0    0 -0.12635069503E+03 -0.30498101599E+03  0.62922590134E+03  0.71056537571E+03  0.00000000000E+00 0.  1.
        -13    1    3    3    0    0 -0.68913020008E+02 -0.58539540177E+02  0.23013477931E+03  0.24726079094E+03  0.00000000000E+00 0. -1.
         22    1    1    2    0    0  0.19526371504E+03  0.36352055617E+03 -0.26712965786E+03  0.49156217030E+03  0.00000000000E+00 0.  1.
<mgrwt>
<rscale>  0 0.13228715E+04</rscale>
<asrwt>0</asrwt>
<pdfrwt beam="1">  1        1 0.15704764E+00 0.13228715E+04</pdfrwt>
<pdfrwt beam="2">  1       -1 0.65935178E-01 0.13228715E+04</pdfrwt>
<totfact> 0.33334334E+01</totfact>
</mgrwt>
</event>
<event>
 6    1  0.9512547E-007  0.3044120E+04  0.7818608E-02  0.8231243E-01
          1   -1    0    0  501    0  0.00000000000E+00  0.00000000000E+00  0.11564636531E+04  0.11564636531E+04  0.00000000000E+00 0. -1.
         -1   -1    0    0    0  501 -0.00000000000E+00 -0.00000000000E+00 -0.20032338808E+04  0.20032338808E+04  0.00000000000E+00 0.  1.
         23    2    1    2    0    0 -0.14918870866E+04  0.28197183430E+03 -0.34226829234E+03  0.15597733491E+04  0.10251888594E+03 0.  0.
         11    1    3    3    0    0 -0.99329863457E+03  0.22258902197E+03 -0.26386872501E+03  0.10515772697E+04  0.00000000000E+00 0.  1.
        -11    1    3    3    0    0 -0.49858845205E+03  0.59382812335E+02 -0.78399567321E+02  0.50819607935E+03  0.00000000000E+00 0. -1.
         22    1    1    2    0    0  0.14918870866E+04 -0.28197183430E+03 -0.50450193531E+03  0.15999241849E+04  0.00000000000E+00 0.  1.
<mgrwt>
<rscale>  0 0.30441203E+04</rscale>
<asrwt>0</asrwt>
<pdfrwt beam="1">  1        1 0.17791749E+00 0.30441203E+04</pdfrwt>
<pdfrwt beam="2">  1       -1 0.30818983E+00 0.30441203E+04</pdfrwt>
<totfact> 0.28495825E-01</totfact>
</mgrwt>
</event>
<event>
 6    1  0.1059249E-006  0.4577524E+04  0.7818608E-02  0.7897204E-01
          2   -1    0    0  501    0  0.00000000000E+00  0.00000000000E+00  0.30367637988E+04  0.30367637988E+04  0.00000000000E+00 0. -1.
         -2   -1    0    0    0  501 -0.00000000000E+00 -0.00000000000E+00 -0.17250042576E+04  0.17250042576E+04  0.00000000000E+00 0.  1.
         23    2    1    2    0    0 -0.19712993806E+03  0.14879921553E+04 -0.11399626957E+04  0.18870641075E+04  0.92277469494E+02 0.  0.
         11    1    3    3    0    0 -0.16451100782E+03  0.90917023063E+03 -0.68733887720E+03  0.11515594262E+04  0.00000000000E+00 0.  1.
        -11    1    3    3    0    0 -0.32618930245E+02  0.57882192465E+03 -0.45262381852E+03  0.73550468126E+03  0.00000000000E+00 0. -1.
         22    1    1    2    0    0  0.19712993806E+03 -0.14879921553E+04  0.24517222369E+04  0.28747039489E+04  0.00000000000E+00 0. -1.
<mgrwt>
<rscale>  0 0.45775236E+04</rscale>
<asrwt>0</asrwt>
<pdfrwt beam="1">  1        2 0.46719443E+00 0.45775236E+04</pdfrwt>
<pdfrwt beam="2">  1       -2 0.26538527E+00 0.45775236E+04</pdfrwt>
<totfact> 0.64249230E-02</totfact>
</mgrwt>
</event>
<event>
 6    1  0.9512547E-007  0.2357870E+04  0.7818608E-02  0.8455447E-01
          1   -1    0    0  501    0  0.00000000000E+00  0.00000000000E+00  0.15476224484E+04  0.15476224484E+04  0.00000000000E+00 0. -1.
         -1   -1    0    0    0  501 -0.00000000000E+00 -0.00000000000E+00 -0.89807928766E+03  0.89807928766E+03  0.00000000000E+00 0.  1.
         23    2    1    2    0    0 -0.50479832450E+03  0.14573998806E+03 -0.76736552210E+03  0.93451289674E+03  0.91667972241E+02 0.  0.
         11    1    3    3    0    0 -0.43954767723E+03  0.12066283566E+03 -0.60292301667E+03  0.75582924295E+03  0.00000000000E+00 0. -1.
        -11    1    3    3    0    0 -0.65250647275E+02  0.25077152405E+02 -0.16444250542E+03  0.17868365379E+03  0.00000000000E+00 0.  1.
         22    1    1    2    0    0  0.50479832450E+03 -0.14573998806E+03  0.14169086828E+04  0.15111888393E+04  0.00000000000E+00 0. -1.
<mgrwt>
<rscale>  0 0.23578699E+04</rscale>
<asrwt>0</asrwt>
<pdfrwt beam="1">  1        1 0.23809576E+00 0.23578699E+04</pdfrwt>
<pdfrwt beam="2">  1       -1 0.13816604E+00 0.23578699E+04</pdfrwt>
<totfact> 0.23659973E+00</totfact>
</mgrwt>
</event>
<event>
 6    1  0.9512547E-007  0.4080030E+04  0.7818608E-02  0.7988594E-01
         -2   -1    0    0    0  501 -0.00000000000E+00  0.00000000000E+00  0.20744953700E+04  0.20744953700E+04  0.00000000000E+00 0.  1.
          2   -1    0    0  501    0  0.00000000000E+00 -0.00000000000E+00 -0.20061080672E+04  0.20061080672E+04  0.00000000000E+00 0. -1.
         23    2    1    2    0    0  0.19190694437E+04 -0.64308726425E+03  0.28133225529E+03  0.20454783030E+04  0.91896087022E+02 0.  0.
         11    1    3    3    0    0  0.97517427416E+03 -0.34029535969E+03  0.99010373000E+02  0.10375783589E+04  0.00000000000E+00 0.  1.
        -11    1    3    3    0    0  0.94389516954E+03 -0.30279190455E+03  0.18232188229E+03  0.10078999441E+04  0.00000000000E+00 0. -1.
         22    1    1    2    0    0 -0.19190694437E+04  0.64308726425E+03 -0.21294495250E+03  0.20351251342E+04  0.00000000000E+00 0. -1.
<mgrwt>
<rscale>  0 0.40800303E+04</rscale>
<asrwt>0</asrwt>
<pdfrwt beam="1">  1        2 0.30863201E+00 0.40800303E+04</pdfrwt>
<pdfrwt beam="2">  1       -2 0.31915314E+00 0.40800303E+04</pdfrwt>
<totfact> 0.12591588E-01</totfact>
</mgrwt>
</event>
<event>
 6    1  0.9512547E-007  0.1758248E+04  0.7818608E-02  0.8728823E-01
          2   -1    0    0  501    0  0.00000000000E+00  0.00000000000E+00  0.31252576143E+04  0.31252576143E+04  0.00000000000E+00 0. -1.
         -2   -1    0    0    0  501 -0.00000000000E+00 -0.00000000000E+00 -0.24729461371E+03  0.24729461371E+03  0.00000000000E+00 0.  1.
         23    2    1    2    0    0 -0.31211963152E+03 -0.67740420267E+03  0.55935213015E+03  0.93693085213E+03  0.93110138993E+02 0.  0.
         11    1    3    3    0    0 -0.88655594705E+02 -0.11359699036E+03  0.12754216890E+03  0.19243465265E+03  0.00000000000E+00 0. -1.
        -11    1    3    3    0    0 -0.22346403682E+03 -0.56380721231E+03  0.43180996125E+03  0.74449619948E+03  0.00000000000E+00 0.  1.
         22    1    1    2    0    0  0.31211963152E+03  0.67740420267E+03  0.23186108705E+04  0.24356213759E+04  0.00000000000E+00 0. -1.
<mgrwt>
<rscale>  0 0.17582484E+04</rscale>
<asrwt>0</asrwt>
<pdfrwt beam="1">  1        2 0.48080884E+00 0.17582484E+04</pdfrwt>
<pdfrwt beam="2">  1       -2 0.38045327E-01 0.17582484E+04</pdfrwt>
<totfact> 0.90030226E+00</totfact>
</mgrwt>
</event>
<event>
 6    1  0.9512547E-007  0.2327176E+04  0.7818608E-02  0.8467282E-01
          2   -1    0    0  501    0  0.00000000000E+00  0.00000000000E+00  0.37605888511E+04  0.37605888511E+04  0.00000000000E+00 0. -1.
         -2   -1    0    0    0  501 -0.00000000000E+00 -0.00000000000E+00 -0.36003322085E+03  0.36003322085E+03  0.00000000000E+00 0.  1.
         23    2    1    2    0    0 -0.11456252074E+04 -0.56971241060E+02  0.13819214487E+04  0.17988583465E+04  0.10237979312E+03 0.  0.
         13    1    3    3    0    0 -0.60371491254E+03  0.19580195200E+02  0.70526063950E+03  0.92857291006E+03  0.00000000000E+00 0.  1.
        -13    1    3    3    0    0 -0.54191029487E+03 -0.76551436259E+02  0.67666080923E+03  0.87028543641E+03  0.00000000000E+00 0. -1.
         22    1    1    2    0    0  0.11456252074E+04  0.56971241060E+02  0.20186341815E+04  0.23217637254E+04  0.00000000000E+00 0. -1.
<mgrwt>
<rscale>  0 0.23271759E+04</rscale>
<asrwt>0</asrwt>
<pdfrwt beam="1">  1        2 0.57855210E+00 0.23271759E+04</pdfrwt>
<pdfrwt beam="2">  1       -2 0.55389729E-01 0.23271759E+04</pdfrwt>
<totfact> 0.14634760E+00</totfact>
</mgrwt>
</event>
<event>
 6    1  0.9512547E-007  0.1921332E+04  0.7818608E-02  0.8644310E-01
         -2   -1    0    0    0  501 -0.00000000000E+00  0.00000000000E+00  0.88255131325E+03  0.88255131325E+03  0.00000000000E+00 0.  1.
          2   -1    0    0  501    0  0.00000000000E+00 -0.00000000000E+00 -0.10456943736E+04  0.10456943736E+04  0.00000000000E+00 0. -1.
         23    2    1    2    0    0  0.67736203076E+03  0.10460256049E+03  0.59075051971E+03  0.90936564168E+03  0.90546548060E+02 0.  0.
         11    1    3    3    0    0  0.30143320082E+03  0.43382128802E+02  0.20399510456E+03  0.36654875029E+03  0.00000000000E+00 0. -1.
        -11    1    3    3    0    0  0.37592882994E+03  0.61220431686E+02  0.38675541514E+03  0.54281689139E+03  0.00000000000E+00 0.  1.
         22    1    1    2    0    0 -0.67736203076E+03 -0.10460256049E+03 -0.75389358000E+03  0.10188800451E+04  0.00000000000E+00 0. -1.
<mgrwt>
<rscale>  0 0.19213318E+04</rscale>
<asrwt>0</asrwt>
<pdfrwt beam="1">  1        2 0.16087606E+00 0.19213318E+04</pdfrwt>
<pdfrwt beam="2">  1       -2 0.13577713E+00 0.19213318E+04</pdfrwt>
<totfact> 0.85618550E+00</totfact>
</mgrwt>
</event>
<event>
 6    1  0.9512547E-007  0.1734729E+04  0.7818608E-02  0.8741801E-01
         -1   -1    0    0    0  501 -0.00000000000E+00  0.00000000000E+00  0.31579655857E+03  0.31579655857E+03  0.00000000000E+00 0.  1.
          1   -1    0    0  501    0  0.00000000000E+00 -0.00000000000E+00 -0.23822965910E+04  0.23822965910E+04  0.00000000000E+00 0. -1.
         23    2    1    2    0    0 -0.66149217748E+03  0.41965403081E+02 -0.17186478367E+03  0.69086229046E+03  0.91761672780E+02 0.  0.
         13    1    3    3    0    0 -0.21067486923E+03 -0.16917608292E+01 -0.13747201749E+02  0.21112969506E+03  0.00000000000E+00 0.  1.
        -13    1    3    3    0    0 -0.45081730825E+03  0.43657163910E+02 -0.15811758192E+03  0.47973259540E+03  0.00000000000E+00 0. -1.
         22    1    1    2    0    0  0.66149217748E+03 -0.41965403081E+02 -0.18946352488E+04  0.20072308591E+04  0.00000000000E+00 0. -1.
<mgrwt>
<rscale>  0 0.17347289E+04</rscale>
<asrwt>0</asrwt>
<pdfrwt beam="1">  1        1 0.36650717E+00 0.17347289E+04</pdfrwt>
<pdfrwt beam="2">  1       -1 0.48584086E-01 0.17347289E+04</pdfrwt>
<totfact> 0.65790310E+00</totfact>
</mgrwt>
</event>
<event>
 6    1  0.9512547E-007  0.1840588E+04  0.7818608E-02  0.8685008E-01
         -1   -1    0    0    0  501 -0.00000000000E+00  0.00000000000E+00  0.55245513757E+03  0.55245513757E+03  0.00000000000E+00 0.  1.
          1   -1    0    0  501    0  0.00000000000E+00 -0.00000000000E+00 -0.15330489916E+04  0.15330489916E+04  0.00000000000E+00 0. -1.
         23    2    1    2    0    0 -0.62027774222E+03 -0.35127245020E+03  0.16401021677E+03  0.73707716020E+03  0.90810666338E+02 0.  0.
         13    1    3    3    0    0 -0.30874072611E+03 -0.13952681985E+03  0.11189643265E+03  0.35680440168E+03  0.00000000000E+00 0. -1.
        -13    1    3    3    0    0 -0.31153701611E+03 -0.21174563035E+03  0.52113784120E+02  0.38027275852E+03  0.00000000000E+00 0.  1.
         22    1    1    2    0    0  0.62027774222E+03  0.35127245020E+03 -0.11446040708E+04  0.13484269690E+04  0.00000000000E+00 0. -1.
<mgrwt>
<rscale>  0 0.18405877E+04</rscale>
<asrwt>0</asrwt>
<pdfrwt beam="1">  1        1 0.23585369E+00 0.18405877E+04</pdfrwt>
<pdfrwt beam="2">  1       -1 0.84993098E-01 0.18405877E+04</pdfrwt>
<totfact> 0.79903344E+00</totfact>
</mgrwt>
</event>
<event>
 6    1  0.9512547E-007  0.2781102E+04  0.7818608E-02  0.8309160E-01
          1   -1    0    0  501    0  0.00000000000E+00  0.00000000000E+00  0.38368864018E+04  0.38368864018E+04  0.00000000000E+00 0. -1.
         -1   -1    0    0    0  501 -0.00000000000E+00 -0.00000000000E+00 -0.50395848645E+03  0.50395848645E+03  0.00000000000E+00 0.  1.
         23    2    1    2    0    0 -0.85360136907E+03  0.85930413736E+03  0.27296145634E+04  0.29876908325E+04  0.91988849700E+02 0.  0.
         13    1    3    3    0    0 -0.33444381552E+03  0.39886460866E+03  0.12002908515E+04  0.13082980433E+04  0.00000000000E+00 0. -1.
        -13    1    3    3    0    0 -0.51915755355E+03  0.46043952870E+03  0.15293237119E+04  0.16793927893E+04  0.00000000000E+00 0.  1.
         22    1    1    2    0    0  0.85360136907E+03 -0.85930413736E+03  0.60331335192E+03  0.13531540557E+04  0.00000000000E+00 0.  1.
<mgrwt>
<rscale>  0 0.27811016E+04</rscale>
<asrwt>0</asrwt>
<pdfrwt beam="1">  1        1 0.59029020E+00 0.27811016E+04</pdfrwt>
<pdfrwt beam="2">  1       -1 0.77532077E-01 0.27811016E+04</pdfrwt>
<totfact> 0.19185354E-01</totfact>
</mgrwt>
</event>
<event>
 6    1  0.9512547E-007  0.3617884E+04  0.7818608E-02  0.8086407E-01
         -2   -1    0    0    0  501 -0.00000000000E+00  0.00000000000E+00  0.12344218944E+04  0.12344218944E+04  0.00000000000E+00 0.  1.
          2   -1    0    0  501    0  0.00000000000E+00 -0.00000000000E+00 -0.26508525659E+04  0.26508525659E+04  0.00000000000E+00 0. -1.
         23    2    1    2    0    0 -0.78210085543E+03  0.54631309498E+03  0.94033104047E+03  0.13427431404E+04  0.92719628450E+02 0.  0.
         13    1    3    3    0    0 -0.25435622636E+03  0.12698065388E+03  0.29017871176E+03  0.40623252099E+03  0.00000000000E+00 0. -1.
        -13    1    3    3    0    0 -0.52774462906E+03  0.41933244110E+03  0.65015232871E+03  0.93651061937E+03  0.00000000000E+00 0.  1.
         22    1    1    2    0    0  0.78210085543E+03 -0.54631309498E+03 -0.23567617120E+04  0.25425313199E+04  0.00000000000E+00 0. -1.
<mgrwt>
<rscale>  0 0.36178836E+04</rscale>
<asrwt>0</asrwt>
<pdfrwt beam="1">  1        2 0.40782347E+00 0.36178836E+04</pdfrwt>
<pdfrwt beam="2">  1       -2 0.18991106E+00 0.36178836E+04</pdfrwt>
<totfact> 0.35869208E-01</totfact>
</mgrwt>
</event>
<event>
 6    1  0.9512547E-007  0.2448579E+04  0.7818608E-02  0.8421537E-01
         -1   -1    0    0    0  501 -0.00000000000E+00  0.00000000000E+00  0.59838214084E+03  0.59838214084E+03  0.00000000000E+00 0.  1.
          1   -1    0    0  501    0  0.00000000000E+00 -0.00000000000E+00 -0.25048958433E+04  0.25048958433E+04  0.00000000000E+00 0. -1.
         23    2    1    2    0    0 -0.73991250223E+03  0.62635236787E+03 -0.18987060738E+04  0.21338200125E+04  0.91188220833E+02 0.  0.
         13    1    3    3    0    0 -0.42594516885E+03  0.30228172956E+03 -0.10392423127E+04  0.11631113942E+04  0.00000000000E+00 0. -1.
        -13    1    3    3    0    0 -0.31396733338E+03  0.32407063831E+03 -0.85946376111E+03  0.97070861833E+03  0.00000000000E+00 0.  1.
         22    1    1    2    0    0  0.73991250223E+03 -0.62635236787E+03 -0.78076287157E+01  0.96945797163E+03  0.00000000000E+00 0.  1.
<mgrwt>
<rscale>  0 0.24485791E+04</rscale>
<asrwt>0</asrwt>
<pdfrwt beam="1">  1        1 0.38536859E+00 0.24485791E+04</pdfrwt>
<pdfrwt beam="2">  1       -1 0.92058790E-01 0.24485791E+04</pdfrwt>
<totfact> 0.13776454E+00</totfact>
</mgrwt>
</event>
<event>
 6    1  0.9512547E-007  0.4665940E+04  0.7818608E-02  0.7882213E-01
          1   -1    0    0  501    0  0.00000000000E+00  0.00000000000E+00  0.23447897016E+04  0.23447897016E+04  0.00000000000E+00 0. -1.
         -1   -1    0    0    0  501 -0.00000000000E+00 -0.00000000000E+00 -0.23212102204E+04  0.23212102204E+04  0.00000000000E+00 0.  1.
         23    2    1    2    0    0 -0.31067530388E+03  0.22083576679E+04  0.69412799131E+03  0.23372667819E+04  0.87404847753E+02 0.  0.
         11    1    3    3    0    0 -0.26603754381E+03  0.20245455734E+04  0.65154245340E+03  0.21433777833E+04  0.00000000000E+00 0. -1.
        -11    1    3    3    0    0 -0.44637760071E+02  0.18381209449E+03  0.42585537915E+02  0.19388899851E+03  0.00000000000E+00 0.  1.
         22    1    1    2    0    0  0.31067530388E+03 -0.22083576679E+04 -0.67054851010E+03  0.23287331402E+04  0.00000000000E+00 0. -1.
<mgrwt>
<rscale>  0 0.46659403E+04</rscale>
<asrwt>0</asrwt>
<pdfrwt beam="1">  1        1 0.36073688E+00 0.46659403E+04</pdfrwt>
<pdfrwt beam="2">  1       -1 0.35710926E+00 0.46659403E+04</pdfrwt>
<totfact> 0.17915779E-02</totfact>
</mgrwt>
</event>
<event>
 6    1  0.9512547E-007  0.2073008E+04  0.7818608E-02  0.8573228E-01
         -2   -1    0    0    0  501 -0.00000000000E+00  0.00000000000E+00  0.91093839486E+03  0.91093839486E+03  0.00000000000E+00 0.  1.
          2   -1    0    0  501    0  0.00000000000E+00 -0.00000000000E+00 -0.11793781917E+04  0.11793781917E+04  0.00000000000E+00 0. -1.
         23    2    1    2    0    0 -0.32041713672E+02 -0.38729519672E+03 -0.11011978222E+04  0.11713442421E+04  0.91577557667E+02 0.  0.
         11    1    3    3    0    0 -0.28794457169E+02 -0.19373093196E+03 -0.42460794778E+03  0.46760314807E+03  0.00000000000E+00 0. -1.
        -11    1    3    3    0    0 -0.32472565036E+01 -0.19356426476E+03 -0.67658987445E+03  0.70374109407E+03  0.00000000000E+00 0.  1.
         22    1    1    2    0    0  0.32041713672E+02  0.38729519672E+03  0.83275802543E+03  0.91897234438E+03  0.00000000000E+00 0.  1.
<mgrwt>
<rscale>  0 0.20730083E+04</rscale>
<asrwt>0</asrwt>
<pdfrwt beam="1">  1        2 0.18144280E+00 0.20730083E+04</pdfrwt>
<pdfrwt beam="2">  1       -2 0.14014437E+00 0.20730083E+04</pdfrwt>
<totfact> 0.64479053E+00</totfact>
</mgrwt>
</event>
<event>
 6    1  0.1266340E-006  0.3418944E+04  0.7818608E-02  0.8133272E-01
         -1   -1    0    0    0  501 -0.00000000000E+00  0.00000000000E+00  0.22371936063E+04  0.22371936063E+04  0.00000000000E+00 0.  1.
          1   -1    0    0  501    0  0.00000000000E+00 -0.00000000000E+00 -0.13062321661E+04  0.13062321661E+04  0.00000000000E+00 0. -1.
         23    2    1    2    0    0  0.15084923838E+04 -0.74178781142E+03  0.15016486051E+03  0.16899313084E+04  0.86717429770E+02 0.  0.
         13    1    3    3    0    0  0.10403477363E+04 -0.53838392544E+03  0.72613095232E+02  0.11736495752E+04  0.00000000000E+00 0. -1.
        -13    1    3    3    0    0  0.46814464746E+03 -0.20340388598E+03  0.77551765279E+02  0.51628173324E+03  0.00000000000E+00 0.  1.
         22    1    1    2    0    0 -0.15084923838E+04  0.74178781142E+03  0.78079657976E+03  0.18534944640E+04  0.00000000000E+00 0.  1.
<mgrwt>
<rscale>  0 0.34189438E+04</rscale>
<asrwt>0</asrwt>
<pdfrwt beam="1">  1        1 0.20095880E+00 0.34189438E+04</pdfrwt>
<pdfrwt beam="2">  1       -1 0.34418363E+00 0.34189438E+04</pdfrwt>
<totfact> 0.12481236E-01</totfact>
</mgrwt>
</event>
<event>
 6    1  0.9512547E-007  0.1429054E+04  0.7818608E-02  0.8933052E-01
         -2   -1    0    0    0  501 -0.00000000000E+00  0.00000000000E+00  0.21729547791E+03  0.21729547791E+03  0.00000000000E+00 0.  1.
          2   -1    0    0  501    0  0.00000000000E+00 -0.00000000000E+00 -0.23495590639E+04  0.23495590639E+04  0.00000000000E+00 0. -1.
         23    2    1    2    0    0 -0.40913457215E+03 -0.39827833967E+03 -0.30771110274E+03  0.65504688985E+03  0.91561843433E+02 0.  0.
         13    1    3    3    0    0 -0.22956685748E+03 -0.28157870456E+03 -0.17668247797E+03  0.40398540437E+03  0.00000000000E+00 0.  1.
        -13    1    3    3    0    0 -0.17956771467E+03 -0.11669963511E+03 -0.13102862476E+03  0.25106148548E+03  0.00000000000E+00 0. -1.
         22    1    1    2    0    0  0.40913457215E+03  0.39827833967E+03 -0.18245524833E+04  0.19118076520E+04  0.00000000000E+00 0. -1.
<mgrwt>
<rscale>  0 0.14290536E+04</rscale>
<asrwt>0</asrwt>
<pdfrwt beam="1">  1        2 0.36147062E+00 0.14290536E+04</pdfrwt>
<pdfrwt beam="2">  1       -2 0.33430074E-01 0.14290536E+04</pdfrwt>
<totfact> 0.34584695E+01</totfact>
</mgrwt>
</event>
<event>
 6    1  0.9512547E-007  0.1671672E+04  0.7818608E-02  0.8777688E-01
          1   -1    0    0  501    0  0.00000000000E+00  0.00000000000E+00  0.17935520027E+04  0.17935520027E+04  0.00000000000E+00 0. -1.
         -1   -1    0    0    0  501 -0.00000000000E+00 -0.00000000000E+00 -0.38951878846E+03  0.38951878846E+03  0.00000000000E+00 0.  1.
         23    2    1    2    0    0 -0.53445930815E+03  0.87451904341E+02  0.15310055917E+04  0.16268185351E+04  0.96259215978E+02 0.  0.
         13    1    3    3    0    0 -0.19653722637E+03  0.51527119200E+02  0.70350644435E+03  0.73225899968E+03  0.00000000000E+00 0. -1.
        -13    1    3    3    0    0 -0.33792208178E+03  0.35924785141E+02  0.82749914737E+03  0.89455953544E+03  0.00000000000E+00 0.  1.
         22    1    1    2    0    0  0.53445930815E+03 -0.87451904341E+02 -0.12697237753E+03  0.55625225599E+03  0.00000000000E+00 0.  1.
<mgrwt>
<rscale>  0 0.16716725E+04</rscale>
<asrwt>0</asrwt>
<pdfrwt beam="1">  1        1 0.27593107E+00 0.16716725E+04</pdfrwt>
<pdfrwt beam="2">  1       -1 0.59925968E-01 0.16716725E+04</pdfrwt>
<totfact> 0.11083991E+01</totfact>
</mgrwt>
</event>
<event>
 6    1  0.9512547E-007  0.2026167E+04  0.7818608E-02  0.8594483E-01
         -1   -1    0    0    0  501 -0.00000000000E+00  0.00000000000E+00  0.63779906942E+03  0.63779906942E+03  0.00000000000E+00 0.  1.
          1   -1    0    0  501    0  0.00000000000E+00 -0.00000000000E+00 -0.16091875515E+04  0.16091875515E+04  0.00000000000E+00 0. -1.
         23    2    1    2    0    0 -0.89151320016E+03 -0.33509676328E+03 -0.11052832838E+03  0.96317751088E+03  0.91699396173E+02 0.  0.
         13    1    3    3    0    0 -0.65184904872E+03 -0.20595225169E+03 -0.59534529540E+02  0.68619812919E+03  0.00000000000E+00 0.  1.
        -13    1    3    3    0    0 -0.23966415144E+03 -0.12914451159E+03 -0.50993798841E+02  0.27697938169E+03  0.00000000000E+00 0. -1.
         22    1    1    2    0    0  0.89151320016E+03  0.33509676328E+03 -0.86086015374E+03  0.12838091101E+04  0.00000000000E+00 0. -1.
<mgrwt>
<rscale>  0 0.20261671E+04</rscale>
<asrwt>0</asrwt>
<pdfrwt beam="1">  1        1 0.24756731E+00 0.20261671E+04</pdfrwt>
<pdfrwt beam="2">  1       -1 0.98122934E-01 0.20261671E+04</pdfrwt>
<totfact> 0.50655889E+00</totfact>
</mgrwt>
</event>
<event>
 6    1  0.9512547E-007  0.4509516E+04  0.7818608E-02  0.7908973E-01
          1   -1    0    0  501    0  0.00000000000E+00  0.00000000000E+00  0.31044735128E+04  0.31044735128E+04  0.00000000000E+00 0. -1.
         -1   -1    0    0    0  501 -0.00000000000E+00 -0.00000000000E+00 -0.16376155402E+04  0.16376155402E+04  0.00000000000E+00 0.  1.
         23    2    1    2    0    0 -0.18133419163E+04  0.10591774905E+04 -0.12687833414E+03  0.21057921659E+04  0.90535476200E+02 0.  0.
         11    1    3    3    0    0 -0.15518016920E+04  0.92727540031E+03 -0.83398544991E+02  0.18096639126E+04  0.00000000000E+00 0. -1.
        -11    1    3    3    0    0 -0.26154022426E+03  0.13190209020E+03 -0.43479789150E+02  0.29612825324E+03  0.00000000000E+00 0.  1.
         22    1    1    2    0    0  0.18133419163E+04 -0.10591774905E+04  0.15937363067E+04  0.26362968871E+04  0.00000000000E+00 0. -1.
<mgrwt>
<rscale>  0 0.45095162E+04</rscale>
<asrwt>0</asrwt>
<pdfrwt beam="1">  1        1 0.47761131E+00 0.45095162E+04</pdfrwt>
<pdfrwt beam="2">  1       -1 0.25194085E+00 0.45095162E+04</pdfrwt>
<totfact> 0.25452485E-02</totfact>
</mgrwt>
</event>
<event>
 6    1  0.9512547E-007  0.1536674E+04  0.7818608E-02  0.8860425E-01
          2   -1    0    0  501    0  0.00000000000E+00  0.00000000000E+00  0.24899913357E+04  0.24899913357E+04  0.00000000000E+00 0. -1.
         -2   -1    0    0    0  501 -0.00000000000E+00 -0.00000000000E+00 -0.23708573069E+03  0.23708573069E+03  0.00000000000E+00 0.  1.
         23    2    1    2    0    0 -0.59167758638E+02 -0.75121502513E+03  0.89122689135E+03  0.11708014620E+04  0.93090568102E+02 0.  0.
         13    1    3    3    0    0 -0.26987794081E+02 -0.52409409194E+03  0.68017109932E+03  0.85909003171E+03  0.00000000000E+00 0. -1.
        -13    1    3    3    0    0 -0.32179964557E+02 -0.22712093319E+03  0.21105579204E+03  0.31171143028E+03  0.00000000000E+00 0.  1.
         22    1    1    2    0    0  0.59167758638E+02  0.75121502513E+03  0.13616787137E+04  0.15562756044E+04  0.00000000000E+00 0.  1.
<mgrwt>
<rscale>  0 0.15366736E+04</rscale>
<asrwt>0</asrwt>
<pdfrwt beam="1">  1        2 0.38307557E+00 0.15366736E+04</pdfrwt>
<pdfrwt beam="2">  1       -2 0.36474729E-01 0.15366736E+04</pdfrwt>
<totfact> 0.24114446E+01</totfact>
</mgrwt>
</event>
<event>
 6    1  0.9512547E-007  0.3595942E+04  0.7818608E-02  0.8091422E-01
          2   -1    0    0  501    0  0.00000000000E+00  0.00000000000E+00  0.76474151042E+03  0.76474151042E+03  0.00000000000E+00 0. -1.
         -2   -1    0    0    0  501 -0.00000000000E+00 -0.00000000000E+00 -0.42271802402E+04  0.42271802402E+04  0.00000000000E+00 0.  1.
         23    2    1    2    0    0 -0.20995797067E+03 -0.10983442224E+04 -0.36848214532E+04  0.38517917335E+04  0.89151755547E+02 0.  0.
         13    1    3    3    0    0 -0.97779415976E+02 -0.35622461269E+03 -0.13208314524E+04  0.13715146789E+04  0.00000000000E+00 0. -1.
        -13    1    3    3    0    0 -0.11217855469E+03 -0.74211960968E+03 -0.23639900008E+04  0.24802770545E+04  0.00000000000E+00 0.  1.
         22    1    1    2    0    0  0.20995797067E+03  0.10983442224E+04  0.22238272347E+03  0.11401300171E+04  0.00000000000E+00 0. -1.
<mgrwt>
<rscale>  0 0.35959423E+04</rscale>
<asrwt>0</asrwt>
<pdfrwt beam="1">  1        2 0.11765254E+00 0.35959423E+04</pdfrwt>
<pdfrwt beam="2">  1       -2 0.65033542E+00 0.35959423E+04</pdfrwt>
<totfact> 0.99307802E-03</totfact>
</mgrwt>
</event>
<event>
 6    1  0.9512547E-007  0.4454365E+04  0.7818608E-02  0.7918675E-01
         -2   -1    0    0    0  501 -0.00000000000E+00  0.00000000000E+00  0.15632364388E+04  0.15632364388E+04  0.00000000000E+00 0.  1.
          2   -1    0    0  501    0  0.00000000000E+00 -0.00000000000E+00 -0.31731230062E+04  0.31731230062E+04  0.00000000000E+00 0. -1.
         23    2    1    2    0    0  0.10310191099E+04  0.39707230428E+03 -0.28603852034E+04  0.30677032018E+04  0.91283091375E+02 0.  0.
         13    1    3    3    0    0  0.83309773024E+03  0.31263086184E+03 -0.23956573202E+04  0.25555750585E+04  0.00000000000E+00 0.  1.
        -13    1    3    3    0    0  0.19792137962E+03  0.84441442438E+02 -0.46472788316E+03  0.51212814324E+03  0.00000000000E+00 0. -1.
         22    1    1    2    0    0 -0.10310191099E+04 -0.39707230428E+03  0.12504986359E+04  0.16686562432E+04  0.00000000000E+00 0.  1.
<mgrwt>
<rscale>  0 0.44543648E+04</rscale>
<asrwt>0</asrwt>
<pdfrwt beam="1">  1        2 0.48817277E+00 0.44543648E+04</pdfrwt>
<pdfrwt beam="2">  1       -2 0.24049792E+00 0.44543648E+04</pdfrwt>
<totfact> 0.75449888E-02</totfact>
</mgrwt>
</event>
<event>
 6    1  0.9512547E-007  0.2639582E+04  0.7818608E-02  0.8354879E-01
         -2   -1    0    0    0  501 -0.00000000000E+00  0.00000000000E+00  0.46034791780E+03  0.46034791780E+03  0.00000000000E+00 0.  1.
          2   -1    0    0  501    0  0.00000000000E+00 -0.00000000000E+00 -0.37837646534E+04  0.37837646534E+04  0.00000000000E+00 0. -1.
         23    2    1    2    0    0  0.88030071408E+03  0.77160004668E+03 -0.26376990881E+04  0.28874605630E+04  0.98366886335E+02 0.  0.
         13    1    3    3    0    0  0.49772206701E+03  0.37112392252E+03 -0.13857219630E+04  0.15184484122E+04  0.00000000000E+00 0. -1.
        -13    1    3    3    0    0  0.38257864706E+03  0.40047612416E+03 -0.12519771251E+04  0.13690121508E+04  0.00000000000E+00 0.  1.
         22    1    1    2    0    0 -0.88030071408E+03 -0.77160004668E+03 -0.68571764749E+03  0.13566520082E+04  0.00000000000E+00 0. -1.
<mgrwt>
<rscale>  0 0.26395819E+04</rscale>
<asrwt>0</asrwt>
<pdfrwt beam="1">  1        2 0.58211765E+00 0.26395819E+04</pdfrwt>
<pdfrwt beam="2">  1       -2 0.70822756E-01 0.26395819E+04</pdfrwt>
<totfact> 0.80820063E-01</totfact>
</mgrwt>
</event>
<event>
 6    1  0.9512547E-007  0.1726334E+04  0.7818608E-02  0.8746486E-01
          2   -1    0    0  501    0  0.00000000000E+00  0.00000000000E+00  0.12132682080E+04  0.12132682080E+04  0.00000000000E+00 0. -1.
         -2   -1    0    0    0  501 -0.00000000000E+00 -0.00000000000E+00 -0.61409085398E+03  0.61409085398E+03  0.00000000000E+00 0.  1.
         23    2    1    2    0    0  0.18025155814E+03 -0.16103036469E+03 -0.57397588241E+03  0.62956529062E+03  0.92101786084E+02 0.  0.
         13    1    3    3    0    0  0.42192035012E+02 -0.29756788936E+02 -0.49354366145E+02  0.71424699956E+02  0.00000000000E+00 0. -1.
        -13    1    3    3    0    0  0.13805952313E+03 -0.13127357575E+03 -0.52462151627E+03  0.55814059067E+03  0.00000000000E+00 0.  1.
         22    1    1    2    0    0 -0.18025155814E+03  0.16103036469E+03  0.11731532364E+04  0.11977937713E+04  0.00000000000E+00 0. -1.
<mgrwt>
<rscale>  0 0.17263336E+04</rscale>
<asrwt>0</asrwt>
<pdfrwt beam="1">  1        2 0.18665665E+00 0.17263336E+04</pdfrwt>
<pdfrwt beam="2">  1       -2 0.94475516E-01 0.17263336E+04</pdfrwt>
<totfact> 0.16677021E+01</totfact>
</mgrwt>
</event>
<event>
 6    1  0.9512547E-007  0.4239766E+04  0.7818608E-02  0.7957851E-01
         -2   -1    0    0    0  501 -0.00000000000E+00  0.00000000000E+00  0.15056045253E+04  0.15056045253E+04  0.00000000000E+00 0.  1.
          2   -1    0    0  501    0  0.00000000000E+00 -0.00000000000E+00 -0.29847838667E+04  0.29847838667E+04  0.00000000000E+00 0. -1.
         23    2    1    2    0    0  0.20130313255E+03 -0.17823903661E+04  0.45488233750E+03  0.18525800315E+04  0.87729491907E+02 0.  0.
         11    1    3    3    0    0  0.27900779719E+02 -0.38838845630E+03  0.13251367724E+03  0.41131973105E+03  0.00000000000E+00 0.  1.
        -11    1    3    3    0    0  0.17340235283E+03 -0.13940019098E+04  0.32236866026E+03  0.14412603005E+04  0.00000000000E+00 0. -1.
         22    1    1    2    0    0 -0.20130313255E+03  0.17823903661E+04 -0.19340616789E+04  0.26378083604E+04  0.00000000000E+00 0. -1.
<mgrwt>
<rscale>  0 0.42397661E+04</rscale>
<asrwt>0</asrwt>
<pdfrwt beam="1">  1        2 0.45919751E+00 0.42397661E+04</pdfrwt>
<pdfrwt beam="2">  1       -2 0.23163147E+00 0.42397661E+04</pdfrwt>
<totfact> 0.11494912E-01</totfact>
</mgrwt>
</event>
<event>
 6    1  0.9512547E-007  0.2268738E+04  0.7818608E-02  0.8490350E-01
          2   -1    0    0  501    0  0.00000000000E+00  0.00000000000E+00  0.29639154472E+04  0.29639154472E+04  0.00000000000E+00 0. -1.
         -2   -1    0    0    0  501 -0.00000000000E+00 -0.00000000000E+00 -0.43415321312E+03  0.43415321312E+03  0.00000000000E+00 0.  1.
         23    2    1    2    0    0  0.11107011247E+04  0.21646320084E+03  0.11953033751E+04  0.16484133365E+04  0.89459844054E+02 0.  0.
         11    1    3    3    0    0  0.68436690697E+03  0.10271253633E+03  0.68362232275E+03  0.97275249094E+03  0.00000000000E+00 0. -1.
        -11    1    3    3    0    0  0.42633421776E+03  0.11375066451E+03  0.51168105239E+03  0.67566084560E+03  0.00000000000E+00 0.  1.
         22    1    1    2    0    0 -0.11107011247E+04 -0.21646320084E+03  0.13344588590E+04  0.17496553238E+04  0.00000000000E+00 0. -1.
<mgrwt>
<rscale>  0 0.22687383E+04</rscale>
<asrwt>0</asrwt>
<pdfrwt beam="1">  1        2 0.45598698E+00 0.22687383E+04</pdfrwt>
<pdfrwt beam="2">  1       -2 0.66792804E-01 0.22687383E+04</pdfrwt>
<totfact> 0.34344952E+00</totfact>
</mgrwt>
</event>
<event>
 6    1  0.9512547E-007  0.1567873E+04  0.7818608E-02  0.8840531E-01
          4   -1    0    0  501    0  0.00000000000E+00  0.00000000000E+00  0.80914761298E+03  0.80914761298E+03  0.00000000000E+00 0. -1.
         -4   -1    0    0    0  501 -0.00000000000E+00 -0.00000000000E+00 -0.75951110296E+03  0.75951110296E+03  0.00000000000E+00 0.  1.
         23    2    1    2    0    0 -0.42468838816E+03 -0.12028905829E+03 -0.61914526270E+03  0.76734807449E+03  0.10321107746E+03 0.  0.
         11    1    3    3    0    0 -0.13875027274E+03 -0.26814609382E+02 -0.28249981018E+03  0.31587466535E+03  0.00000000000E+00 0. -1.
        -11    1    3    3    0    0 -0.28593811543E+03 -0.93474448911E+02 -0.33664545252E+03  0.45147340913E+03  0.00000000000E+00 0.  1.
         22    1    1    2    0    0  0.42468838816E+03  0.12028905829E+03  0.66878177272E+03  0.80131064145E+03  0.00000000000E+00 0. -1.
<mgrwt>
<rscale>  0 0.15678732E+04</rscale>
<asrwt>0</asrwt>
<pdfrwt beam="1">  1        4 0.12448425E+00 0.15678732E+04</pdfrwt>
<pdfrwt beam="2">  1       -4 0.11684786E+00 0.15678732E+04</pdfrwt>
<totfact> 0.52503530E-01</totfact>
</mgrwt>
</event>
<event>
 6    1  0.9512547E-007  0.1133236E+04  0.7818608E-02  0.9173390E-01
         -2   -1    0    0    0  501 -0.00000000000E+00  0.00000000000E+00  0.72688694168E+03  0.72688694168E+03  0.00000000000E+00 0.  1.
          2   -1    0    0  501    0  0.00000000000E+00 -0.00000000000E+00 -0.44168625417E+03  0.44168625417E+03  0.00000000000E+00 0. -1.
         23    2    1    2    0    0  0.20573751262E+02  0.56004740757E+03  0.88627485133E+02  0.57467303433E+03  0.91202452240E+02 0.  0.
         13    1    3    3    0    0  0.23598108382E+02  0.41618959338E+03  0.25772423444E+02  0.41765400294E+03  0.00000000000E+00 0. -1.
        -13    1    3    3    0    0 -0.30243571199E+01  0.14385781419E+03  0.62855061689E+02  0.15701903139E+03  0.00000000000E+00 0.  1.
         22    1    1    2    0    0 -0.20573751262E+02 -0.56004740757E+03  0.19657320238E+03  0.59390016153E+03  0.00000000000E+00 0.  1.
<mgrwt>
<rscale>  0 0.11332360E+04</rscale>
<asrwt>0</asrwt>
<pdfrwt beam="1">  1        2 0.67951732E-01 0.11332360E+04</pdfrwt>
<pdfrwt beam="2">  1       -2 0.11182876E+00 0.11332360E+04</pdfrwt>
<totfact> 0.44435346E+01</totfact>
</mgrwt>
</event>
<event>
 6    1  0.9512547E-007  0.1398351E+04  0.7818608E-02  0.8955013E-01
         -1   -1    0    0    0  501 -0.00000000000E+00  0.00000000000E+00  0.44439021321E+03  0.44439021321E+03  0.00000000000E+00 0.  1.
          1   -1    0    0  501    0  0.00000000000E+00 -0.00000000000E+00 -0.11000384335E+04  0.11000384335E+04  0.00000000000E+00 0. -1.
         23    2    1    2    0    0 -0.25988150431E+03 -0.59021164524E+03 -0.39353686801E+02  0.65240446853E+03  0.90524557127E+02 0.  0.
         13    1    3    3    0    0 -0.79072607412E+02 -0.26027098213E+03  0.14145358651E+02  0.27238493452E+03  0.00000000000E+00 0.  1.
        -13    1    3    3    0    0 -0.18080889690E+03 -0.32994066311E+03 -0.53499045452E+02  0.38001953402E+03  0.00000000000E+00 0. -1.
         22    1    1    2    0    0  0.25988150431E+03  0.59021164524E+03 -0.61629453350E+03  0.89202417819E+03  0.00000000000E+00 0. -1.
<mgrwt>
<rscale>  0 0.13983509E+04</rscale>
<asrwt>0</asrwt>
<pdfrwt beam="1">  1        1 0.16923668E+00 0.13983509E+04</pdfrwt>
<pdfrwt beam="2">  1       -1 0.68367726E-01 0.13983509E+04</pdfrwt>
<totfact> 0.26775714E+01</totfact>
</mgrwt>
</event>
<event>
 6    1  0.1440841E-006  0.4971796E+04  0.7818608E-02  0.7832873E-01
          2   -1    0    0  501    0  0.00000000000E+00  0.00000000000E+00  0.28924982434E+04  0.28924982434E+04  0.00000000000E+00 0. -1.
         -2   -1    0    0    0  501 -0.00000000000E+00 -0.00000000000E+00 -0.21364534202E+04  0.21364534202E+04  0.00000000000E+00 0.  1.
         23    2    1    2    0    0  0.22721999941E+04 -0.89041518999E+03 -0.96374074024E+02  0.24439274858E+04  0.88099772413E+02 0.  0.
         11    1    3    3    0    0  0.14812234134E+04 -0.62263136344E+03 -0.77713063253E+02  0.16086428862E+04  0.00000000000E+00 0.  1.
        -11    1    3    3    0    0  0.79097658067E+03 -0.26778382655E+03 -0.18661010771E+02  0.83528459955E+03  0.00000000000E+00 0. -1.
         22    1    1    2    0    0 -0.22721999941E+04  0.89041518999E+03  0.85241889721E+03  0.25850241778E+04  0.00000000000E+00 0. -1.
<mgrwt>
<rscale>  0 0.49717956E+04</rscale>
<asrwt>0</asrwt>
<pdfrwt beam="1">  1        2 0.44499973E+00 0.49717956E+04</pdfrwt>
<pdfrwt beam="2">  1       -2 0.32868514E+00 0.49717956E+04</pdfrwt>
<totfact> 0.31330982E-02</totfact>
</mgrwt>
</event>
<event>
 6    1  0.9512547E-007  0.1129812E+04  0.7818608E-02  0.9176613E-01
          3   -1    0    0  501    0  0.00000000000E+00  0.00000000000E+00  0.50583585152E+03  0.50583585152E+03  0.00000000000E+00 0. -1.
         -3   -1    0    0    0  501 -0.00000000000E+00 -0.00000000000E+00 -0.63087381323E+03  0.63087381323E+03  0.00000000000E+00 0.  1.
         23    2    1    2    0    0  0.23675798964E+03  0.76407964702E+01 -0.57412605065E+03  0.62897662560E+03  0.99388862982E+02 0.  0.
         13    1    3    3    0    0  0.16838589581E+03 -0.40597182223E+02 -0.38661716456E+03  0.42364463061E+03  0.00000000000E+00 0.  1.
        -13    1    3    3    0    0  0.68372093830E+02  0.48237978693E+02 -0.18750888609E+03  0.20533199499E+03  0.00000000000E+00 0. -1.
         22    1    1    2    0    0 -0.23675798964E+03 -0.76407964702E+01  0.44908808894E+03  0.50773303916E+03  0.00000000000E+00 0. -1.
<mgrwt>
<rscale>  0 0.11298117E+04</rscale>
<asrwt>0</asrwt>
<pdfrwt beam="1">  1        3 0.77820900E-01 0.11298117E+04</pdfrwt>
<pdfrwt beam="2">  1       -3 0.97057509E-01 0.11298117E+04</pdfrwt>
<totfact> 0.37655918E+00</totfact>
</mgrwt>
</event>
<event>
 6    1  0.9512547E-007  0.4574133E+03  0.7818608E-02  0.1025534E+00
         -1   -1    0    0    0  501 -0.00000000000E+00  0.00000000000E+00  0.68972910184E+02  0.68972910184E+02  0.00000000000E+00 0.  1.
          1   -1    0    0  501    0  0.00000000000E+00 -0.00000000000E+00 -0.75836640446E+03  0.75836640446E+03  0.00000000000E+00 0. -1.
         23    2    1    2    0    0 -0.88460247976E+02  0.11879317167E+03 -0.65237613316E+02  0.18585073576E+03  0.91364745300E+02 0.  0.
         13    1    3    3    0    0 -0.27429476632E+02 -0.11099483905E+02 -0.18584674188E+02  0.34942307392E+02  0.00000000000E+00 0. -1.
        -13    1    3    3    0    0 -0.61030771344E+02  0.12989265557E+03 -0.46652939129E+02  0.15090842837E+03  0.00000000000E+00 0.  1.
         22    1    1    2    0    0  0.88460247976E+02 -0.11879317167E+03 -0.62415588096E+03  0.64148857889E+03  0.00000000000E+00 0. -1.
<mgrwt>
<rscale>  0 0.45741333E+03</rscale>
<asrwt>0</asrwt>
<pdfrwt beam="1">  1        1 0.11667175E+00 0.45741333E+03</pdfrwt>
<pdfrwt beam="2">  1       -1 0.10611217E-01 0.45741333E+03</pdfrwt>
<totfact> 0.13904972E+03</totfact>
</mgrwt>
</event>
<event>
 6    1  0.9512547E-007  0.1897217E+04  0.7818608E-02  0.8656243E-01
          2   -1    0    0  501    0  0.00000000000E+00  0.00000000000E+00  0.33359695357E+04  0.33359695357E+04  0.00000000000E+00 0. -1.
         -2   -1    0    0    0  501 -0.00000000000E+00 -0.00000000000E+00 -0.26974409473E+03  0.26974409473E+03  0.00000000000E+00 0.  1.
         23    2    1    2    0    0 -0.84760947413E+03 -0.22232432250E+03  0.85753319995E+03  0.12295420582E+04  0.92415144309E+02 0.  0.
         13    1    3    3    0    0 -0.42579762062E+03 -0.86966928649E+02  0.47986299898E+03  0.64740664053E+03  0.00000000000E+00 0.  1.
        -13    1    3    3    0    0 -0.42181185351E+03 -0.13535739385E+03  0.37767020097E+03  0.58213541769E+03  0.00000000000E+00 0. -1.
         22    1    1    2    0    0  0.84760947413E+03  0.22232432250E+03  0.22086922410E+04  0.23761715722E+04  0.00000000000E+00 0. -1.
<mgrwt>
<rscale>  0 0.18972170E+04</rscale>
<asrwt>0</asrwt>
<pdfrwt beam="1">  1        2 0.51322605E+00 0.18972170E+04</pdfrwt>
<pdfrwt beam="2">  1       -2 0.41499094E-01 0.18972170E+04</pdfrwt>
<totfact> 0.54598625E+00</totfact>
</mgrwt>
</event>
<event>
 6    1  0.9512547E-007  0.1775599E+04  0.7818608E-02  0.8719384E-01
         -2   -1    0    0    0  501 -0.00000000000E+00  0.00000000000E+00  0.31465811880E+03  0.31465811880E+03  0.00000000000E+00 0.  1.
          2   -1    0    0  501    0  0.00000000000E+00 -0.00000000000E+00 -0.25049033377E+04  0.25049033377E+04  0.00000000000E+00 0. -1.
         23    2    1    2    0    0 -0.78007319734E+03 -0.29270146602E+03 -0.62943058819E+03  0.10502874096E+04  0.11283809685E+03 0.  0.
         11    1    3    3    0    0 -0.28683804908E+03 -0.50345522240E+02 -0.21693846707E+03  0.36314327270E+03  0.00000000000E+00 0. -1.
        -11    1    3    3    0    0 -0.49323514826E+03 -0.24235594378E+03 -0.41249212111E+03  0.68714413695E+03  0.00000000000E+00 0.  1.
         22    1    1    2    0    0  0.78007319734E+03  0.29270146602E+03 -0.15608146307E+04  0.17692740469E+04  0.00000000000E+00 0. -1.
<mgrwt>
<rscale>  0 0.17755992E+04</rscale>
<asrwt>0</asrwt>
<pdfrwt beam="1">  1        2 0.38536978E+00 0.17755992E+04</pdfrwt>
<pdfrwt beam="2">  1       -2 0.48408937E-01 0.17755992E+04</pdfrwt>
<totfact> 0.13239552E+01</totfact>
</mgrwt>
</event>
<event>
 6    1  0.9512547E-007  0.1506174E+04  0.7818608E-02  0.8880358E-01
         -2   -1    0    0    0  501 -0.00000000000E+00  0.00000000000E+00  0.91247647791E+03  0.91247647791E+03  0.00000000000E+00 0.  1.
          2   -1    0    0  501    0  0.00000000000E+00 -0.00000000000E+00 -0.62153925237E+03  0.62153925237E+03  0.00000000000E+00 0. -1.
         23    2    1    2    0    0  0.25328235644E+03  0.15764092080E+03 -0.55504697795E+03  0.63696953049E+03  0.93007650411E+02 0.  0.
         13    1    3    3    0    0  0.13162636270E+03  0.53177707878E+02 -0.34221455450E+03  0.37049179382E+03  0.00000000000E+00 0.  1.
        -13    1    3    3    0    0  0.12165599374E+03  0.10446321292E+03 -0.21283242345E+03  0.26647773667E+03  0.00000000000E+00 0. -1.
         22    1    1    2    0    0 -0.25328235644E+03 -0.15764092080E+03  0.84598420349E+03  0.89704619979E+03  0.00000000000E+00 0.  1.
<mgrwt>
<rscale>  0 0.15061739E+04</rscale>
<asrwt>0</asrwt>
<pdfrwt beam="1">  1        2 0.95621424E-01 0.15061739E+04</pdfrwt>
<pdfrwt beam="2">  1       -2 0.14038100E+00 0.15061739E+04</pdfrwt>
<totfact> 0.16354306E+01</totfact>
</mgrwt>
</event>
<event>
 6    1  0.9512547E-007  0.1269518E+04  0.7818608E-02  0.9054093E-01
          2   -1    0    0  501    0  0.00000000000E+00  0.00000000000E+00  0.44208992003E+03  0.44208992003E+03  0.00000000000E+00 0. -1.
         -2   -1    0    0    0  501 -0.00000000000E+00 -0.00000000000E+00 -0.91139588763E+03  0.91139588763E+03  0.00000000000E+00 0.  1.
         23    2    1    2    0    0 -0.12935567212E+03  0.22231702225E+03  0.37898964302E+03  0.46705296120E+03  0.91365041184E+02 0.  0.
         13    1    3    3    0    0 -0.66306564955E+02  0.11375640750E+03  0.11535746983E+03  0.17505549591E+03  0.00000000000E+00 0. -1.
        -13    1    3    3    0    0 -0.63049107168E+02  0.10856061475E+03  0.26363217319E+03  0.29199746528E+03  0.00000000000E+00 0.  1.
         22    1    1    2    0    0  0.12935567212E+03 -0.22231702225E+03 -0.84829561062E+03  0.88643284646E+03  0.00000000000E+00 0.  1.
<mgrwt>
<rscale>  0 0.12695179E+04</rscale>
<asrwt>0</asrwt>
<pdfrwt beam="1">  1        2 0.68013835E-01 0.12695179E+04</pdfrwt>
<pdfrwt beam="2">  1       -2 0.14021475E+00 0.12695179E+04</pdfrwt>
<totfact> 0.24917386E+01</totfact>
</mgrwt>
</event>
<event>
 6    1  0.9512547E-007  0.1346737E+04  0.7818608E-02  0.8993302E-01
          2   -1    0    0  501    0  0.00000000000E+00  0.00000000000E+00  0.22651047525E+04  0.22651047525E+04  0.00000000000E+00 0. -1.
         -2   -1    0    0    0  501 -0.00000000000E+00 -0.00000000000E+00 -0.20017832678E+03  0.20017832678E+03  0.00000000000E+00 0.  1.
         23    2    1    2    0    0  0.91100883751E+02 -0.46593498274E+03  0.17018778069E+03  0.51197068436E+03  0.88064304825E+02 0.  0.
         13    1    3    3    0    0  0.62327153346E+02 -0.38537635144E+03  0.17155625964E+03  0.42641664662E+03  0.00000000000E+00 0. -1.
        -13    1    3    3    0    0  0.28773730406E+02 -0.80558631305E+02 -0.13684789508E+01  0.85554037741E+02  0.00000000000E+00 0.  1.
         22    1    1    2    0    0 -0.91100883751E+02  0.46593498274E+03  0.18947386450E+04  0.19533123949E+04  0.00000000000E+00 0. -1.
<mgrwt>
<rscale>  0 0.13467366E+04</rscale>
<asrwt>0</asrwt>
<pdfrwt beam="1">  1        2 0.34847764E+00 0.13467366E+04</pdfrwt>
<pdfrwt beam="2">  1       -2 0.30796667E-01 0.13467366E+04</pdfrwt>
<totfact> 0.45363684E+01</totfact>
</mgrwt>
</event>
<event>
 6    1  0.9512547E-007  0.1047606E+04  0.7818608E-02  0.9257819E-01
         -1   -1    0    0    0  501 -0.00000000000E+00  0.00000000000E+00  0.12944838653E+04  0.12944838653E+04  0.00000000000E+00 0.  1.
          1   -1    0    0  501    0  0.00000000000E+00 -0.00000000000E+00 -0.21195293694E+03  0.21195293694E+03  0.00000000000E+00 0. -1.
         23    2    1    2    0    0 -0.33406390079E+03  0.82864278363E+02  0.11055806315E+04  0.11614781565E+04  0.90872421384E+02 0.  0.
         13    1    3    3    0    0 -0.81120288382E+02  0.62091165749E+02  0.31043608076E+03  0.32681244512E+03  0.00000000000E+00 0.  1.
        -13    1    3    3    0    0 -0.25294361241E+03  0.20773112613E+02  0.79514455070E+03  0.83466571140E+03  0.00000000000E+00 0. -1.
         22    1    1    2    0    0  0.33406390079E+03 -0.82864278363E+02 -0.23049703112E+02  0.34495864571E+03  0.00000000000E+00 0. -1.
<mgrwt>
<rscale>  0 0.10476061E+04</rscale>
<asrwt>0</asrwt>
<pdfrwt beam="1">  1        1 0.32608145E-01 0.10476061E+04</pdfrwt>
<pdfrwt beam="2">  1       -1 0.19915136E+00 0.10476061E+04</pdfrwt>
<totfact> 0.21061960E+01</totfact>
</mgrwt>
</event>
<event>
 6    1  0.9512547E-007  0.1740317E+04  0.7818608E-02  0.8738698E-01
          1   -1    0    0  501    0  0.00000000000E+00  0.00000000000E+00  0.93682950060E+03  0.93682950060E+03  0.00000000000E+00 0. -1.
         -1   -1    0    0    0  501 -0.00000000000E+00 -0.00000000000E+00 -0.80823235709E+03  0.80823235709E+03  0.00000000000E+00 0.  1.
         23    2    1    2    0    0  0.68716638578E+03 -0.39508725725E+03  0.41878302805E+03  0.90096504442E+03  0.89817615719E+02 0.  0.
         13    1    3    3    0    0  0.88084239164E+02 -0.50066071939E+02  0.21373641165E+02  0.10354842966E+03  0.00000000000E+00 0.  1.
        -13    1    3    3    0    0  0.59908214662E+03 -0.34502118531E+03  0.39740938689E+03  0.79741661476E+03  0.00000000000E+00 0. -1.
         22    1    1    2    0    0 -0.68716638578E+03  0.39508725725E+03 -0.29018588454E+03  0.84409681327E+03  0.00000000000E+00 0.  1.
<mgrwt>
<rscale>  0 0.17403171E+04</rscale>
<asrwt>0</asrwt>
<pdfrwt beam="1">  1        1 0.14412762E+00 0.17403171E+04</pdfrwt>
<pdfrwt beam="2">  1       -1 0.12434344E+00 0.17403171E+04</pdfrwt>
<totfact> 0.91346718E+00</totfact>
</mgrwt>
</event>
<event>
 6    1  0.9512547E-007  0.2817487E+04  0.7818608E-02  0.8297860E-01
         -2   -1    0    0    0  501 -0.00000000000E+00  0.00000000000E+00  0.15873501795E+04  0.15873501795E+04  0.00000000000E+00 0.  1.
          2   -1    0    0  501    0  0.00000000000E+00 -0.00000000000E+00 -0.12502331668E+04  0.12502331668E+04  0.00000000000E+00 0. -1.
         23    2    1    2    0    0  0.50218700027E+03 -0.13053077618E+04  0.11237216276E+02  0.14015409451E+04  0.90391422943E+02 0.  0.
         11    1    3    3    0    0  0.33463079418E+03 -0.79604288868E+03 -0.28140857060E+02  0.86397566914E+03  0.00000000000E+00 0.  1.
        -11    1    3    3    0    0  0.16755620609E+03 -0.50926487317E+03  0.39378073336E+02  0.53756527595E+03  0.00000000000E+00 0. -1.
         22    1    1    2    0    0 -0.50218700027E+03  0.13053077618E+04  0.32587979639E+03  0.14360424012E+04  0.00000000000E+00 0.  1.
<mgrwt>
<rscale>  0 0.28174867E+04</rscale>
<asrwt>0</asrwt>
<pdfrwt beam="1">  1        2 0.19234356E+00 0.28174867E+04</pdfrwt>
<pdfrwt beam="2">  1       -2 0.24420772E+00 0.28174867E+04</pdfrwt>
<totfact> 0.10719186E+00</totfact>
</mgrwt>
</event>
<event>
 6    1  0.9512547E-007  0.1628300E+04  0.7818608E-02  0.8803348E-01
         -2   -1    0    0    0  501 -0.00000000000E+00  0.00000000000E+00  0.19871262264E+03  0.19871262264E+03  0.00000000000E+00 0.  1.
          2   -1    0    0  501    0  0.00000000000E+00 -0.00000000000E+00 -0.33356724096E+04  0.33356724096E+04  0.00000000000E+00 0. -1.
         23    2    1    2    0    0  0.24399816044E+03 -0.74922225304E+03 -0.11519849554E+04  0.13987366135E+04  0.92334661009E+02 0.  0.
         13    1    3    3    0    0  0.60320274368E+01 -0.91134036829E+02 -0.16901321536E+03  0.19211263621E+03  0.00000000000E+00 0.  1.
        -13    1    3    3    0    0  0.23796613300E+03 -0.65808821621E+03 -0.98297174006E+03  0.12066239773E+04  0.00000000000E+00 0. -1.
         22    1    1    2    0    0 -0.24399816044E+03  0.74922225304E+03 -0.19849748315E+04  0.21356484188E+04  0.00000000000E+00 0. -1.
<mgrwt>
<rscale>  0 0.16283000E+04</rscale>
<asrwt>0</asrwt>
<pdfrwt beam="1">  1        2 0.51318036E+00 0.16283000E+04</pdfrwt>
<pdfrwt beam="2">  1       -2 0.30571173E-01 0.16283000E+04</pdfrwt>
<totfact> 0.10077291E+01</totfact>
</mgrwt>
</event>
<event>
 6    1  0.9512547E-007  0.4177129E+04  0.7818608E-02  0.7969737E-01
          2   -1    0    0  501    0  0.00000000000E+00  0.00000000000E+00  0.37009438921E+04  0.37009438921E+04  0.00000000000E+00 0. -1.
         -2   -1    0    0    0  501 -0.00000000000E+00 -0.00000000000E+00 -0.11786459822E+04  0.11786459822E+04  0.00000000000E+00 0.  1.
         23    2    1    2    0    0 -0.22437776319E+03 -0.17629329465E+04 -0.17795528150E+02  0.17795329993E+04  0.90238906504E+02 0.  0.
         13    1    3    3    0    0 -0.17033904951E+03 -0.98453356033E+03 -0.69420536548E+01  0.99918462524E+03  0.00000000000E+00 0.  1.
        -13    1    3    3    0    0 -0.54038713677E+02 -0.77839938614E+03 -0.10853474495E+02  0.78034837402E+03  0.00000000000E+00 0. -1.
         22    1    1    2    0    0  0.22437776319E+03  0.17629329465E+04  0.25400934381E+04  0.31000568751E+04  0.00000000000E+00 0. -1.
<mgrwt>
<rscale>  0 0.41771295E+04</rscale>
<asrwt>0</asrwt>
<pdfrwt beam="1">  1        2 0.56937598E+00 0.41771295E+04</pdfrwt>
<pdfrwt beam="2">  1       -2 0.18133015E+00 0.41771295E+04</pdfrwt>
<totfact> 0.80255384E-02</totfact>
</mgrwt>
</event>
<event>
 6    1  0.9512547E-007  0.2616148E+04  0.7818608E-02  0.8362737E-01
          2   -1    0    0  501    0  0.00000000000E+00  0.00000000000E+00  0.10980087456E+04  0.10980087456E+04  0.00000000000E+00 0. -1.
         -2   -1    0    0    0  501 -0.00000000000E+00 -0.00000000000E+00 -0.15583275369E+04  0.15583275369E+04  0.00000000000E+00 0.  1.
         23    2    1    2    0    0  0.12397198828E+04 -0.40076019330E+03 -0.13242731100E+03  0.13128233710E+04  0.91946128230E+02 0.  0.
         13    1    3    3    0    0  0.57584889258E+03 -0.13889289286E+03 -0.68655136447E+02  0.59632768721E+03  0.00000000000E+00 0. -1.
        -13    1    3    3    0    0  0.66387099022E+03 -0.26186730043E+03 -0.63772174550E+02  0.71649568383E+03  0.00000000000E+00 0.  1.
         22    1    1    2    0    0 -0.12397198828E+04  0.40076019330E+03 -0.32789148032E+03  0.13435129114E+04  0.00000000000E+00 0.  1.
<mgrwt>
<rscale>  0 0.26161478E+04</rscale>
<asrwt>0</asrwt>
<pdfrwt beam="1">  1        2 0.16892442E+00 0.26161478E+04</pdfrwt>
<pdfrwt beam="2">  1       -2 0.23974270E+00 0.26161478E+04</pdfrwt>
<totfact> 0.14348155E+00</totfact>
</mgrwt>
</event>
<event>
 6    1  0.9512547E-007  0.2174291E+04  0.7818608E-02  0.8529205E-01
         -1   -1    0    0    0  501 -0.00000000000E+00  0.00000000000E+00  0.40490023429E+03  0.40490023429E+03  0.00000000000E+00 0.  1.
          1   -1    0    0  501    0  0.00000000000E+00 -0.00000000000E+00 -0.29189548688E+04  0.29189548688E+04  0.00000000000E+00 0. -1.
         23    2    1    2    0    0  0.10192585164E+04 -0.29965503951E+03 -0.91713994908E+03  0.14058307084E+04  0.80828389237E+02 0.  0.
         11    1    3    3    0    0  0.67806829685E+03 -0.16957545226E+03 -0.56824295762E+03  0.90079548628E+03  0.00000000000E+00 0. -1.
        -11    1    3    3    0    0  0.34119021957E+03 -0.13007958725E+03 -0.34889699146E+03  0.50503522214E+03  0.00000000000E+00 0.  1.
         22    1    1    2    0    0 -0.10192585164E+04  0.29965503951E+03 -0.15969146854E+04  0.19180243946E+04  0.00000000000E+00 0.  1.
<mgrwt>
<rscale>  0 0.21742912E+04</rscale>
<asrwt>0</asrwt>
<pdfrwt beam="1">  1        1 0.44906998E+00 0.21742912E+04</pdfrwt>
<pdfrwt beam="2">  1       -1 0.62292344E-01 0.21742912E+04</pdfrwt>
<totfact> 0.16364207E+00</totfact>
</mgrwt>
</event>
<event>
 6    1  0.9512547E-007  0.1240694E+04  0.7818608E-02  0.9077964E-01
         -1   -1    0    0    0  501 -0.00000000000E+00  0.00000000000E+00  0.10186894908E+03  0.10186894908E+03  0.00000000000E+00 0.  1.
          1   -1    0    0  501    0  0.00000000000E+00 -0.00000000000E+00 -0.37777022243E+04  0.37777022243E+04  0.00000000000E+00 0. -1.
         23    2    1    2    0    0  0.12921467660E+03  0.54211997372E+03 -0.26750975701E+04  0.27341182280E+04  0.93085856568E+02 0.  0.
         11    1    3    3    0    0  0.46316077974E+02  0.36490251118E+03 -0.18403606398E+04  0.18767595227E+04  0.00000000000E+00 0. -1.
        -11    1    3    3    0    0  0.82898598621E+02  0.17721746254E+03 -0.83473693034E+03  0.85735870530E+03  0.00000000000E+00 0.  1.
         22    1    1    2    0    0 -0.12921467660E+03 -0.54211997372E+03 -0.10007357051E+04  0.11454529454E+04  0.00000000000E+00 0.  1.
<mgrwt>
<rscale>  0 0.12406943E+04</rscale>
<asrwt>0</asrwt>
<pdfrwt beam="1">  1        1 0.58118494E+00 0.12406943E+04</pdfrwt>
<pdfrwt beam="2">  1       -1 0.15672146E-01 0.12406943E+04</pdfrwt>
<totfact> 0.46175038E+00</totfact>
</mgrwt>
</event>
<event>
 6    1  0.9512547E-007  0.8377424E+03  0.7818608E-02  0.9506938E-01
          1   -1    0    0  501    0  0.00000000000E+00  0.00000000000E+00  0.73211390263E+03  0.73211390263E+03  0.00000000000E+00 0. -1.
         -1   -1    0    0    0  501 -0.00000000000E+00 -0.00000000000E+00 -0.23965273316E+03  0.23965273316E+03  0.00000000000E+00 0.  1.
         23    2    1    2    0    0 -0.27564086587E+03  0.87368306860E+02  0.59274774981E+03  0.66571352573E+03  0.90628336940E+02 0.  0.
         13    1    3    3    0    0 -0.13710241647E+03  0.53763532739E+02  0.39795039202E+03  0.42432547009E+03  0.00000000000E+00 0. -1.
        -13    1    3    3    0    0 -0.13853844941E+03  0.33604774121E+02  0.19479735779E+03  0.24138805565E+03  0.00000000000E+00 0.  1.
         22    1    1    2    0    0  0.27564086587E+03 -0.87368306860E+02 -0.10028658034E+03  0.30605311006E+03  0.00000000000E+00 0.  1.
<mgrwt>
<rscale>  0 0.83774244E+03</rscale>
<asrwt>0</asrwt>
<pdfrwt beam="1">  1        1 0.11263291E+00 0.83774244E+03</pdfrwt>
<pdfrwt beam="2">  1       -1 0.36869652E-01 0.83774244E+03</pdfrwt>
<totfact> 0.18129041E+02</totfact>
</mgrwt>
</event>
<event>
 6    1  0.9512547E-007  0.3267998E+04  0.7818608E-02  0.8171086E-01
          2   -1    0    0  501    0  0.00000000000E+00  0.00000000000E+00  0.14403379776E+04  0.14403379776E+04  0.00000000000E+00 0. -1.
         -2   -1    0    0    0  501 -0.00000000000E+00 -0.00000000000E+00 -0.18536990227E+04  0.18536990227E+04  0.00000000000E+00 0.  1.
         23    2    1    2    0    0  0.13992475338E+04 -0.83203133209E+03 -0.33229015042E+03  0.16640853788E+04  0.92701702632E+02 0.  0.
         13    1    3    3    0    0  0.86057965927E+03 -0.48669669272E+03 -0.24230156423E+03  0.10179297956E+04  0.00000000000E+00 0.  1.
        -13    1    3    3    0    0  0.53866787451E+03 -0.34533463937E+03 -0.89988586189E+02  0.64615558329E+03  0.00000000000E+00 0. -1.
         22    1    1    2    0    0 -0.13992475338E+04  0.83203133209E+03 -0.81070894705E+02  0.16299516215E+04  0.00000000000E+00 0. -1.
<mgrwt>
<rscale>  0 0.32679982E+04</rscale>
<asrwt>0</asrwt>
<pdfrwt beam="1">  1        2 0.22159046E+00 0.32679982E+04</pdfrwt>
<pdfrwt beam="2">  1       -2 0.28518446E+00 0.32679982E+04</pdfrwt>
<totfact> 0.44990178E-01</totfact>
</mgrwt>
</event>
<event>
 6    1  0.9512547E-007  0.4260844E+04  0.7818608E-02  0.7953898E-01
          2   -1    0    0  501    0  0.00000000000E+00  0.00000000000E+00  0.40936634621E+04  0.40936634621E+04  0.00000000000E+00 0. -1.
         -2   -1    0    0    0  501 -0.00000000000E+00 -0.00000000000E+00 -0.11087127474E+04  0.11087127474E+04  0.00000000000E+00 0.  1.
         23    2    1    2    0    0  0.16254291347E+04 -0.26801736206E+03  0.31406860574E+04  0.35476536723E+04  0.89913788018E+02 0.  0.
         13    1    3    3    0    0  0.30573799644E+03 -0.50462259573E+02  0.66930614111E+03  0.73755872487E+03  0.00000000000E+00 0. -1.
        -13    1    3    3    0    0  0.13196911383E+04 -0.21755510249E+03  0.24713799162E+04  0.28100949474E+04  0.00000000000E+00 0.  1.
         22    1    1    2    0    0 -0.16254291347E+04  0.26801736206E+03 -0.15573534265E+03  0.16547225373E+04  0.00000000000E+00 0.  1.
<mgrwt>
<rscale>  0 0.42608435E+04</rscale>
<asrwt>0</asrwt>
<pdfrwt beam="1">  1        2 0.62979437E+00 0.42608435E+04</pdfrwt>
<pdfrwt beam="2">  1       -2 0.17057119E+00 0.42608435E+04</pdfrwt>
<totfact> 0.46513916E-02</totfact>
</mgrwt>
</event>
<event>
 6    1  0.9512547E-007  0.2562572E+04  0.7818608E-02  0.8381027E-01
         -2   -1    0    0    0  501 -0.00000000000E+00  0.00000000000E+00  0.86987164950E+03  0.86987164950E+03  0.00000000000E+00 0.  1.
          2   -1    0    0  501    0  0.00000000000E+00 -0.00000000000E+00 -0.18872833532E+04  0.18872833532E+04  0.00000000000E+00 0. -1.
         23    2    1    2    0    0 -0.55848869291E+03 -0.42766756758E+03  0.64067768974E+03  0.95602491159E+03  0.93308954409E+02 0.  0.
         11    1    3    3    0    0 -0.15485197797E+03 -0.72184592361E+02  0.13448383713E+03  0.21742965047E+03  0.00000000000E+00 0. -1.
        -11    1    3    3    0    0 -0.40363671494E+03 -0.35548297522E+03  0.50619385262E+03  0.73859526112E+03  0.00000000000E+00 0.  1.
         22    1    1    2    0    0  0.55848869291E+03  0.42766756758E+03 -0.16580893934E+04  0.18011300911E+04  0.00000000000E+00 0. -1.
<mgrwt>
<rscale>  0 0.25625724E+04</rscale>
<asrwt>0</asrwt>
<pdfrwt beam="1">  1        2 0.29035128E+00 0.25625724E+04</pdfrwt>
<pdfrwt beam="2">  1       -2 0.13382641E+00 0.25625724E+04</pdfrwt>
<totfact> 0.27628410E+00</totfact>
</mgrwt>
</event>
<event>
 6    1  0.9512547E-007  0.2496014E+04  0.7818608E-02  0.8404407E-01
         -2   -1    0    0    0  501 -0.00000000000E+00  0.00000000000E+00  0.24144092354E+04  0.24144092354E+04  0.00000000000E+00 0.  1.
          2   -1    0    0  501    0  0.00000000000E+00 -0.00000000000E+00 -0.64509420175E+03  0.64509420175E+03  0.00000000000E+00 0. -1.
         23    2    1    2    0    0 -0.50899899975E+03  0.94992814273E+03  0.11759843225E+03  0.10872937147E+04  0.83275282144E+02 0.  0.
         13    1    3    3    0    0 -0.11238293849E+03  0.27267709325E+03  0.98541598821E+01  0.29509291166E+03  0.00000000000E+00 0.  1.
        -13    1    3    3    0    0 -0.39661606126E+03  0.67725104948E+03  0.10774427237E+03  0.79220080302E+03  0.00000000000E+00 0. -1.
         22    1    1    2    0    0  0.50899899975E+03 -0.94992814273E+03  0.16517166014E+04  0.19722097224E+04  0.00000000000E+00 0.  1.
<mgrwt>
<rscale>  0 0.24960139E+04</rscale>
<asrwt>0</asrwt>
<pdfrwt beam="1">  1        2 0.99245263E-01 0.24960139E+04</pdfrwt>
<pdfrwt beam="2">  1       -2 0.37144757E+00 0.24960139E+04</pdfrwt>
<totfact> 0.46041909E-01</totfact>
</mgrwt>
</event>
<event>
 6    1  0.9512547E-007  0.2311457E+04  0.7818608E-02  0.8473417E-01
          2   -1    0    0  501    0  0.00000000000E+00  0.00000000000E+00  0.23760910463E+04  0.23760910463E+04  0.00000000000E+00 0. -1.
         -2   -1    0    0    0  501 -0.00000000000E+00 -0.00000000000E+00 -0.56214522162E+03  0.56214522162E+03  0.00000000000E+00 0.  1.
         23    2    1    2    0    0 -0.71304955038E+03 -0.49961438981E+03 -0.55465418492E+02  0.87601596061E+03  0.79204487228E+02 0.  0.
         13    1    3    3    0    0 -0.34735461215E+03 -0.28968815565E+03 -0.17358776995E+02  0.45263205945E+03  0.00000000000E+00 0. -1.
        -13    1    3    3    0    0 -0.36569493823E+03 -0.20992623416E+03 -0.38106641497E+02  0.42338390116E+03  0.00000000000E+00 0.  1.
         22    1    1    2    0    0  0.71304955038E+03  0.49961438981E+03  0.18694112431E+04  0.20622203073E+04  0.00000000000E+00 0. -1.
<mgrwt>
<rscale>  0 0.23114569E+04</rscale>
<asrwt>0</asrwt>
<pdfrwt beam="1">  1        2 0.36555246E+00 0.23114569E+04</pdfrwt>
<pdfrwt beam="2">  1       -2 0.86483881E-01 0.23114569E+04</pdfrwt>
<totfact> 0.43036890E+00</totfact>
</mgrwt>
</event>
<event>
 6    1  0.9512547E-007  0.1488168E+04  0.7818608E-02  0.8892359E-01
         -1   -1    0    0    0  501 -0.00000000000E+00  0.00000000000E+00  0.15860396535E+03  0.15860396535E+03  0.00000000000E+00 0.  1.
          1   -1    0    0  501    0  0.00000000000E+00 -0.00000000000E+00 -0.34908393899E+04  0.34908393899E+04  0.00000000000E+00 0. -1.
         23    2    1    2    0    0  0.69623067614E+01  0.64285589979E+03 -0.25775975683E+04  0.26580854604E+04  0.89982826837E+02 0.  0.
         11    1    3    3    0    0 -0.29434134235E+01  0.53367594897E+03 -0.22578717267E+04  0.23200869416E+04  0.00000000000E+00 0.  1.
        -11    1    3    3    0    0  0.99057201849E+01  0.10917995082E+03 -0.31972584157E+03  0.33799851881E+03  0.00000000000E+00 0. -1.
         22    1    1    2    0    0 -0.69623067614E+01 -0.64285589979E+03 -0.75463785629E+03  0.99135789488E+03  0.00000000000E+00 0.  1.
<mgrwt>
<rscale>  0 0.14881680E+04</rscale>
<asrwt>0</asrwt>
<pdfrwt beam="1">  1        1 0.53705221E+00 0.14881680E+04</pdfrwt>
<pdfrwt beam="2">  1       -1 0.24400610E-01 0.14881680E+04</pdfrwt>
<totfact> 0.36356561E+00</totfact>
</mgrwt>
</event>
<event>
 6    1  0.9512547E-007  0.2726748E+04  0.7818608E-02  0.8326378E-01
          1   -1    0    0  501    0  0.00000000000E+00  0.00000000000E+00  0.23759732164E+04  0.23759732164E+04  0.00000000000E+00 0. -1.
         -1   -1    0    0    0  501 -0.00000000000E+00 -0.00000000000E+00 -0.78232713506E+03  0.78232713506E+03  0.00000000000E+00 0.  1.
         23    2    1    2    0    0  0.36448767881E+03 -0.20545277429E+03 -0.70328715841E+03  0.82357029891E+03  0.92698973005E+02 0.  0.
         11    1    3    3    0    0  0.30407747170E+03 -0.14130013634E+03 -0.50016538821E+03  0.60215799661E+03  0.00000000000E+00 0.  1.
        -11    1    3    3    0    0  0.60410207115E+02 -0.64152637948E+02 -0.20312177020E+03  0.22141230230E+03  0.00000000000E+00 0. -1.
         22    1    1    2    0    0 -0.36448767881E+03  0.20545277429E+03  0.22969332397E+04  0.23347300525E+04  0.00000000000E+00 0. -1.
<mgrwt>
<rscale>  0 0.27267477E+04</rscale>
<asrwt>0</asrwt>
<pdfrwt beam="1">  1        1 0.36553434E+00 0.27267477E+04</pdfrwt>
<pdfrwt beam="2">  1       -1 0.12035802E+00 0.27267477E+04</pdfrwt>
<totfact> 0.88329664E-01</totfact>
</mgrwt>
</event>
<event>
 6    1  0.9512547E-007  0.3736477E+04  0.7818608E-02  0.8059926E-01
         -2   -1    0    0    0  501 -0.00000000000E+00  0.00000000000E+00  0.12112008271E+04  0.12112008271E+04  0.00000000000E+00 0.  1.
          2   -1    0    0  501    0  0.00000000000E+00 -0.00000000000E+00 -0.28816976690E+04  0.28816976690E+04  0.00000000000E+00 0. -1.
         23    2    1    2    0    0  0.88504537633E+03  0.11293484415E+04  0.47307602350E+03  0.15134338521E+04  0.89150884048E+02 0.  0.
         11    1    3    3    0    0  0.24180543112E+03  0.25022085607E+03  0.12798909312E+03  0.37075807650E+03  0.00000000000E+00 0.  1.
        -11    1    3    3    0    0  0.64323994521E+03  0.87912758543E+03  0.34508693038E+03  0.11426757756E+04  0.00000000000E+00 0. -1.
         22    1    1    2    0    0 -0.88504537633E+03 -0.11293484415E+04 -0.21435728654E+04  0.25794646440E+04  0.00000000000E+00 0. -1.
<mgrwt>
<rscale>  0 0.37364767E+04</rscale>
<asrwt>0</asrwt>
<pdfrwt beam="1">  1        2 0.44333810E+00 0.37364767E+04</pdfrwt>
<pdfrwt beam="2">  1       -2 0.18633859E+00 0.37364767E+04</pdfrwt>
<totfact> 0.27253719E-01</totfact>
</mgrwt>
</event>
<event>
 6    1  0.9512547E-007  0.1435591E+04  0.7818608E-02  0.8928452E-01
          2   -1    0    0  501    0  0.00000000000E+00  0.00000000000E+00  0.97186512844E+03  0.97186512844E+03  0.00000000000E+00 0. -1.
         -2   -1    0    0    0  501 -0.00000000000E+00 -0.00000000000E+00 -0.53014563118E+03  0.53014563118E+03  0.00000000000E+00 0.  1.
         23    2    1    2    0    0  0.24630888660E+03 -0.51117378906E+03  0.67750788117E+03  0.88754931069E+03  0.82220068249E+02 0.  0.
         11    1    3    3    0    0  0.10104352686E+03 -0.27283492746E+03  0.29828485468E+03  0.41668038891E+03  0.00000000000E+00 0. -1.
        -11    1    3    3    0    0  0.14526535974E+03 -0.23833886159E+03  0.37922302649E+03  0.47086892179E+03  0.00000000000E+00 0.  1.
         22    1    1    2    0    0 -0.24630888660E+03  0.51117378906E+03 -0.23578838392E+03  0.61446144893E+03  0.00000000000E+00 0.  1.
<mgrwt>
<rscale>  0 0.14355905E+04</rscale>
<asrwt>0</asrwt>
<pdfrwt beam="1">  1        2 0.14951771E+00 0.14355905E+04</pdfrwt>
<pdfrwt beam="2">  1       -2 0.81560866E-01 0.14355905E+04</pdfrwt>
<totfact> 0.33755790E+01</totfact>
</mgrwt>
</event>
<event>
 6    1  0.9512547E-007  0.2644952E+04  0.7818608E-02  0.8353090E-01
         -1   -1    0    0    0  501 -0.00000000000E+00  0.00000000000E+00  0.15504905135E+04  0.15504905135E+04  0.00000000000E+00 0.  1.
          1   -1    0    0  501    0  0.00000000000E+00 -0.00000000000E+00 -0.11279934393E+04  0.11279934393E+04  0.00000000000E+00 0. -1.
         23    2    1    2    0    0 -0.10335391115E+04 -0.82103545042E+03  0.16260935605E+03  0.13331795516E+04  0.92863386171E+02 0.  0.
         11    1    3    3    0    0 -0.45896899397E+03 -0.30666042206E+03  0.61611131194E+02  0.55541793576E+03  0.00000000000E+00 0. -1.
        -11    1    3    3    0    0 -0.57457011748E+03 -0.51437502836E+03  0.10099822485E+03  0.77776161587E+03  0.00000000000E+00 0.  1.
         22    1    1    2    0    0  0.10335391115E+04  0.82103545042E+03  0.25988771819E+03  0.13453044012E+04  0.00000000000E+00 0.  1.
<mgrwt>
<rscale>  0 0.26449523E+04</rscale>
<asrwt>0</asrwt>
<pdfrwt beam="1">  1        1 0.17353745E+00 0.26449523E+04</pdfrwt>
<pdfrwt beam="2">  1       -1 0.23853700E+00 0.26449523E+04</pdfrwt>
<totfact> 0.87843418E-01</totfact>
</mgrwt>
</event>
<event>
 6    1  0.9512547E-007  0.2508272E+04  0.7818608E-02  0.8400044E-01
         -2   -1    0    0    0  501 -0.00000000000E+00  0.00000000000E+00  0.12213455222E+04  0.12213455222E+04  0.00000000000E+00 0.  1.
          2   -1    0    0  501    0  0.00000000000E+00 -0.00000000000E+00 -0.12878069257E+04  0.12878069257E+04  0.00000000000E+00 0. -1.
         23    2    1    2    0    0 -0.44468693696E+03  0.10568830267E+04  0.47082816017E+03  0.12428869626E+04  0.91327112523E+02 0.  0.
         13    1    3    3    0    0 -0.35033470133E+03  0.74135551841E+03  0.35868592645E+03  0.89498491689E+03  0.00000000000E+00 0.  1.
        -13    1    3    3    0    0 -0.94352235631E+02  0.31552750830E+03  0.11214223371E+03  0.34790204576E+03  0.00000000000E+00 0. -1.
         22    1    1    2    0    0  0.44468693696E+03 -0.10568830267E+04 -0.53728956367E+03  0.12662654853E+04  0.00000000000E+00 0. -1.
<mgrwt>
<rscale>  0 0.25082721E+04</rscale>
<asrwt>0</asrwt>
<pdfrwt beam="1">  1        2 0.19812414E+00 0.25082721E+04</pdfrwt>
<pdfrwt beam="2">  1       -2 0.18789931E+00 0.25082721E+04</pdfrwt>
<totfact> 0.23985737E+00</totfact>
</mgrwt>
</event>
<event>
 6    1  0.9512547E-007  0.1418061E+04  0.7818608E-02  0.8940848E-01
          2   -1    0    0  501    0  0.00000000000E+00  0.00000000000E+00  0.67287298094E+03  0.67287298094E+03  0.00000000000E+00 0. -1.
         -2   -1    0    0    0  501 -0.00000000000E+00 -0.00000000000E+00 -0.74713125260E+03  0.74713125260E+03  0.00000000000E+00 0.  1.
         23    2    1    2    0    0  0.28531933281E+02 -0.11427906705E+03 -0.73439087062E+03  0.74944564208E+03  0.92005669326E+02 0.  0.
         11    1    3    3    0    0 -0.22039427677E+02 -0.49233481612E+02 -0.45420498092E+03  0.45739680451E+03  0.00000000000E+00 0. -1.
        -11    1    3    3    0    0  0.50571360958E+02 -0.65045585438E+02 -0.28018588971E+03  0.29204883757E+03  0.00000000000E+00 0.  1.
         22    1    1    2    0    0 -0.28531933281E+02  0.11427906705E+03  0.66013259896E+03  0.67055859146E+03  0.00000000000E+00 0. -1.
<mgrwt>
<rscale>  0 0.14180613E+04</rscale>
<asrwt>0</asrwt>
<pdfrwt beam="1">  1        2 0.10351892E+00 0.14180613E+04</pdfrwt>
<pdfrwt beam="2">  1       -2 0.11494327E+00 0.14180613E+04</pdfrwt>
<totfact> 0.24712380E+01</totfact>
</mgrwt>
</event>
<event>
 6    1  0.9512547E-007  0.9605620E+04  0.7818608E-02  0.7355775E-01
         -2   -1    0    0    0  501 -0.00000000000E+00  0.00000000000E+00  0.53168985359E+04  0.53168985359E+04  0.00000000000E+00 0.  1.
          2   -1    0    0  501    0  0.00000000000E+00 -0.00000000000E+00 -0.43384286511E+04  0.43384286511E+04  0.00000000000E+00 0. -1.
         23    2    1    2    0    0 -0.21014308146E+04 -0.97887779542E+03  0.47168450960E+04  0.52565020682E+04  0.89292362976E+02 0.  0.
         11    1    3    3    0    0 -0.10306463378E+04 -0.50428992157E+03  0.22461028061E+04  0.25222049906E+04  0.00000000000E+00 0. -1.
        -11    1    3    3    0    0 -0.10707844768E+04 -0.47458787385E+03  0.24707422898E+04  0.27342970776E+04  0.00000000000E+00 0.  1.
         22    1    1    2    0    0  0.21014308146E+04  0.97887779542E+03 -0.37383752111E+04  0.43988251188E+04  0.00000000000E+00 0. -1.
<mgrwt>
<rscale>  0 0.96056202E+04</rscale>
<asrwt>0</asrwt>
<pdfrwt beam="1">  1        2 0.66745056E+00 0.96056202E+04</pdfrwt>
<pdfrwt beam="2">  1       -2 0.81798439E+00 0.96056202E+04</pdfrwt>
<totfact> 0.53214048E-06</totfact>
</mgrwt>
</event>
<event>
 6    1  0.1006709E-006  0.3423559E+04  0.7818608E-02  0.8132148E-01
          2   -1    0    0  501    0  0.00000000000E+00  0.00000000000E+00  0.14588131810E+04  0.14588131810E+04  0.00000000000E+00 0. -1.
         -2   -1    0    0    0  501 -0.00000000000E+00 -0.00000000000E+00 -0.20086113730E+04  0.20086113730E+04  0.00000000000E+00 0.  1.
         23    2    1    2    0    0  0.91943975839E+03 -0.20781926547E+03 -0.17206334198E+04  0.19642900135E+04  0.96423937536E+02 0.  0.
         11    1    3    3    0    0  0.37051939749E+03 -0.12719132366E+03 -0.66798688324E+03  0.77438280773E+03  0.00000000000E+00 0.  1.
        -11    1    3    3    0    0  0.54892036090E+03 -0.80627941813E+02 -0.10526465365E+04  0.11899072058E+04  0.00000000000E+00 0. -1.
         22    1    1    2    0    0 -0.91943975839E+03  0.20781926547E+03  0.11708352277E+04  0.15031345405E+04  0.00000000000E+00 0. -1.
<mgrwt>
<rscale>  0 0.34235588E+04</rscale>
<asrwt>0</asrwt>
<pdfrwt beam="1">  1        2 0.22443280E+00 0.34235588E+04</pdfrwt>
<pdfrwt beam="2">  1       -2 0.30901714E+00 0.34235588E+04</pdfrwt>
<totfact> 0.30986240E-01</totfact>
</mgrwt>
</event>
<event>
 6    1  0.9512547E-007  0.4862213E+04  0.7818608E-02  0.7850121E-01
          1   -1    0    0  501    0  0.00000000000E+00  0.00000000000E+00  0.21700164622E+04  0.21700164622E+04  0.00000000000E+00 0. -1.
         -1   -1    0    0    0  501 -0.00000000000E+00 -0.00000000000E+00 -0.27236103522E+04  0.27236103522E+04  0.00000000000E+00 0.  1.
         23    2    1    2    0    0 -0.42099858061E+03 -0.54073936958E+03  0.20698327229E+04  0.21821685233E+04  0.89515878990E+02 0.  0.
         11    1    3    3    0    0 -0.30187665111E+03 -0.43460959182E+03  0.16635126503E+04  0.17456486896E+04  0.00000000000E+00 0. -1.
        -11    1    3    3    0    0 -0.11912192950E+03 -0.10612977776E+03  0.40632007261E+03  0.43651983371E+03  0.00000000000E+00 0.  1.
         22    1    1    2    0    0  0.42099858061E+03  0.54073936958E+03 -0.26234266129E+04  0.27114582911E+04  0.00000000000E+00 0.  1.
<mgrwt>
<rscale>  0 0.48622132E+04</rscale>
<asrwt>0</asrwt>
<pdfrwt beam="1">  1        1 0.33384869E+00 0.48622132E+04</pdfrwt>
<pdfrwt beam="2">  1       -1 0.41901698E+00 0.48622132E+04</pdfrwt>
<totfact> 0.88324545E-03</totfact>
</mgrwt>
</event>
<event>
 6    1  0.9512547E-007  0.3893521E+03  0.7818608E-02  0.1047530E+00
         -2   -1    0    0    0  501 -0.00000000000E+00  0.00000000000E+00  0.16026369721E+02  0.16026369721E+02  0.00000000000E+00 0.  1.
          2   -1    0    0  501    0  0.00000000000E+00 -0.00000000000E+00 -0.23647758302E+04  0.23647758302E+04  0.00000000000E+00 0. -1.
         23    2    1    2    0    0 -0.30628497374E+01  0.89749986183E+02 -0.22204435322E+04  0.22241916884E+04  0.92707854467E+02 0.  0.
         11    1    3    3    0    0  0.38344207662E+02  0.74719819143E+02 -0.15846707923E+04  0.15868947191E+04  0.00000000000E+00 0.  1.
        -11    1    3    3    0    0 -0.41407057399E+02  0.15030167040E+02 -0.63577273990E+03  0.63729696934E+03  0.00000000000E+00 0. -1.
         22    1    1    2    0    0  0.30628497374E+01 -0.89749986183E+02 -0.12830592830E+03  0.15661051148E+03  0.00000000000E+00 0.  1.
<mgrwt>
<rscale>  0 0.38935214E+03</rscale>
<asrwt>0</asrwt>
<pdfrwt beam="1">  1        2 0.36381162E+00 0.38935214E+03</pdfrwt>
<pdfrwt beam="2">  1       -2 0.24655956E-02 0.38935214E+03</pdfrwt>
<totfact> 0.26743771E+03</totfact>
</mgrwt>
</event>
<event>
 6    1  0.9512547E-007  0.2182188E+04  0.7818608E-02  0.8525879E-01
          2   -1    0    0  501    0  0.00000000000E+00  0.00000000000E+00  0.98638674760E+03  0.98638674760E+03  0.00000000000E+00 0. -1.
         -2   -1    0    0    0  501 -0.00000000000E+00 -0.00000000000E+00 -0.12069161636E+04  0.12069161636E+04  0.00000000000E+00 0.  1.
         23    2    1    2    0    0  0.30214490121E+02 -0.10868691945E+04 -0.43127341179E+02  0.10916364202E+04  0.87249900027E+02 0.  0.
         13    1    3    3    0    0  0.20334060067E+02 -0.87097965359E+03 -0.69164512344E+02  0.87395810010E+03  0.00000000000E+00 0.  1.
        -13    1    3    3    0    0  0.98804300538E+01 -0.21588954086E+03  0.26037171165E+02  0.21767832008E+03  0.00000000000E+00 0. -1.
         22    1    1    2    0    0 -0.30214490121E+02  0.10868691945E+04 -0.17740207482E+03  0.11016664910E+04  0.00000000000E+00 0. -1.
<mgrwt>
<rscale>  0 0.21821880E+04</rscale>
<asrwt>0</asrwt>
<pdfrwt beam="1">  1        2 0.15175181E+00 0.21821880E+04</pdfrwt>
<pdfrwt beam="2">  1       -2 0.18567941E+00 0.21821880E+04</pdfrwt>
<totfact> 0.38995591E+00</totfact>
</mgrwt>
</event>
<event>
 6    1  0.9512547E-007  0.3835489E+04  0.7818608E-02  0.8038582E-01
          1   -1    0    0  501    0  0.00000000000E+00  0.00000000000E+00  0.20863198078E+04  0.20863198078E+04  0.00000000000E+00 0. -1.
         -1   -1    0    0    0  501 -0.00000000000E+00 -0.00000000000E+00 -0.17627901808E+04  0.17627901808E+04  0.00000000000E+00 0.  1.
         23    2    1    2    0    0 -0.17832346675E+04 -0.64406002620E+03  0.44369769228E+03  0.19493259060E+04  0.90910114773E+02 0.  0.
         13    1    3    3    0    0 -0.14208380966E+04 -0.48267965743E+03  0.37475851301E+03  0.15466753025E+04  0.00000000000E+00 0.  1.
        -13    1    3    3    0    0 -0.36239657091E+03 -0.16138036877E+03  0.68939179269E+02  0.40265060347E+03  0.00000000000E+00 0. -1.
         22    1    1    2    0    0  0.17832346675E+04  0.64406002620E+03 -0.12016806521E+03  0.18997840826E+04  0.00000000000E+00 0. -1.
<mgrwt>
<rscale>  0 0.38354891E+04</rscale>
<asrwt>0</asrwt>
<pdfrwt beam="1">  1        1 0.32097228E+00 0.38354891E+04</pdfrwt>
<pdfrwt beam="2">  1       -1 0.27119849E+00 0.38354891E+04</pdfrwt>
<totfact> 0.10483558E-01</totfact>
</mgrwt>
</event>
<event>
 6    1  0.9512547E-007  0.4139276E+04  0.7818608E-02  0.7977025E-01
         -2   -1    0    0    0  501 -0.00000000000E+00  0.00000000000E+00  0.15756419310E+04  0.15756419310E+04  0.00000000000E+00 0.  1.
          2   -1    0    0  501    0  0.00000000000E+00 -0.00000000000E+00 -0.27185121726E+04  0.27185121726E+04  0.00000000000E+00 0. -1.
         23    2    1    2    0    0 -0.89793414529E+01 -0.52569862567E+03 -0.26471440589E+04  0.27006424497E+04  0.98276642966E+02 0.  0.
         11    1    3    3    0    0 -0.23231342045E+02 -0.21524181647E+03 -0.13169130931E+04  0.13345893861E+04  0.00000000000E+00 0. -1.
        -11    1    3    3    0    0  0.14252000592E+02 -0.31045680920E+03 -0.13302309659E+04  0.13660530636E+04  0.00000000000E+00 0.  1.
         22    1    1    2    0    0  0.89793414529E+01  0.52569862567E+03  0.15042738173E+04  0.15935116539E+04  0.00000000000E+00 0.  1.
<mgrwt>
<rscale>  0 0.41392762E+04</rscale>
<asrwt>0</asrwt>
<pdfrwt beam="1">  1        2 0.41823264E+00 0.41392762E+04</pdfrwt>
<pdfrwt beam="2">  1       -2 0.24240645E+00 0.41392762E+04</pdfrwt>
<totfact> 0.14452508E-01</totfact>
</mgrwt>
</event>
<event>
 6    1  0.9512547E-007  0.1945197E+04  0.7818608E-02  0.8632680E-01
         -1   -1    0    0    0  501 -0.00000000000E+00  0.00000000000E+00  0.67341402034E+03  0.67341402034E+03  0.00000000000E+00 0.  1.
          1   -1    0    0  501    0  0.00000000000E+00 -0.00000000000E+00 -0.14047051948E+04  0.14047051948E+04  0.00000000000E+00 0. -1.
         23    2    1    2    0    0 -0.33208832153E+03 -0.12353890153E+01  0.60777419105E+03  0.69848874555E+03  0.90624946158E+02 0.  0.
         11    1    3    3    0    0 -0.74468728612E+02 -0.38456224072E+02  0.13999161171E+03  0.16316287586E+03  0.00000000000E+00 0. -1.
        -11    1    3    3    0    0 -0.25761959292E+03  0.37220835057E+02  0.46778257935E+03  0.53532586969E+03  0.00000000000E+00 0.  1.
         22    1    1    2    0    0  0.33208832153E+03  0.12353890153E+01 -0.13390653655E+04  0.13796304696E+04  0.00000000000E+00 0. -1.
<mgrwt>
<rscale>  0 0.19451973E+04</rscale>
<asrwt>0</asrwt>
<pdfrwt beam="1">  1        1 0.21610849E+00 0.19451973E+04</pdfrwt>
<pdfrwt beam="2">  1       -1 0.10360216E+00 0.19451973E+04</pdfrwt>
<totfact> 0.62417171E+00</totfact>
</mgrwt>
</event>
<event>
 6    1  0.9512547E-007  0.1340484E+04  0.7818608E-02  0.8998063E-01
         -2   -1    0    0    0  501 -0.00000000000E+00  0.00000000000E+00  0.49338233804E+03  0.49338233804E+03  0.00000000000E+00 0.  1.
          2   -1    0    0  501    0  0.00000000000E+00 -0.00000000000E+00 -0.91049909345E+03  0.91049909345E+03  0.00000000000E+00 0. -1.
         23    2    1    2    0    0  0.21054110705E+03 -0.76718019497E+02 -0.86761335681E+03  0.90073095683E+03  0.91378922042E+02 0.  0.
         13    1    3    3    0    0  0.66400123460E+02  0.18774668067E+02 -0.23640362496E+03  0.24626842764E+03  0.00000000000E+00 0.  1.
        -13    1    3    3    0    0  0.14414098359E+03 -0.95492687564E+02 -0.63120973185E+03  0.65446252919E+03  0.00000000000E+00 0. -1.
         22    1    1    2    0    0 -0.21054110705E+03  0.76718019497E+02  0.45049660141E+03  0.50315047466E+03  0.00000000000E+00 0.  1.
<mgrwt>
<rscale>  0 0.13404838E+04</rscale>
<asrwt>0</asrwt>
<pdfrwt beam="1">  1        2 0.14007678E+00 0.13404838E+04</pdfrwt>
<pdfrwt beam="2">  1       -2 0.75904975E-01 0.13404838E+04</pdfrwt>
<totfact> 0.43852947E+01</totfact>
</mgrwt>
</event>
<event>
 6    1  0.9512547E-007  0.1807086E+04  0.7818608E-02  0.8702540E-01
          2   -1    0    0  501    0  0.00000000000E+00  0.00000000000E+00  0.68036155677E+03  0.68036155677E+03  0.00000000000E+00 0. -1.
         -2   -1    0    0    0  501 -0.00000000000E+00 -0.00000000000E+00 -0.11999350162E+04  0.11999350162E+04  0.00000000000E+00 0.  1.
         23    2    1    2    0    0 -0.30582516780E+03  0.73876739468E+03 -0.69300395519E+03  0.10621373993E+04  0.92601707850E+02 0.  0.
         13    1    3    3    0    0 -0.10052863778E+03  0.35965337246E+03 -0.30626489696E+03  0.48296453539E+03  0.00000000000E+00 0. -1.
        -13    1    3    3    0    0 -0.20529653002E+03  0.37911402222E+03 -0.38673905823E+03  0.57917286387E+03  0.00000000000E+00 0.  1.
         22    1    1    2    0    0  0.30582516780E+03 -0.73876739468E+03  0.17343049573E+03  0.81815917373E+03  0.00000000000E+00 0. -1.
<mgrwt>
<rscale>  0 0.18070857E+04</rscale>
<asrwt>0</asrwt>
<pdfrwt beam="1">  1        2 0.10467101E+00 0.18070857E+04</pdfrwt>
<pdfrwt beam="2">  1       -2 0.18460539E+00 0.18070857E+04</pdfrwt>
<totfact> 0.67510588E+00</totfact>
</mgrwt>
</event>
<event>
 6    1  0.1025937E-006  0.2089945E+04  0.7818608E-02  0.8565686E-01
          1   -1    0    0  501    0  0.00000000000E+00  0.00000000000E+00  0.17395352999E+04  0.17395352999E+04  0.00000000000E+00 0. -1.
         -1   -1    0    0    0  501 -0.00000000000E+00 -0.00000000000E+00 -0.62773536046E+03  0.62773536046E+03  0.00000000000E+00 0.  1.
         23    2    1    2    0    0  0.99603368937E+03  0.27241031224E+03  0.38721789034E+03  0.11057994421E+04  0.81019892790E+02 0.  0.
         13    1    3    3    0    0  0.55817039974E+03  0.12451672654E+03  0.18230975263E+03  0.60024616304E+03  0.00000000000E+00 0. -1.
        -13    1    3    3    0    0  0.43786328963E+03  0.14789358571E+03  0.20490813771E+03  0.50555327909E+03  0.00000000000E+00 0.  1.
         22    1    1    2    0    0 -0.99603368937E+03 -0.27241031224E+03  0.72458204914E+03  0.12614712183E+04  0.00000000000E+00 0.  1.
<mgrwt>
<rscale>  0 0.20899453E+04</rscale>
<asrwt>0</asrwt>
<pdfrwt beam="1">  1        1 0.26762081E+00 0.20899453E+04</pdfrwt>
<pdfrwt beam="2">  1       -1 0.96574671E-01 0.20899453E+04</pdfrwt>
<totfact> 0.42534273E+00</totfact>
</mgrwt>
</event>
<event>
 6    1  0.9512547E-007  0.3172411E+04  0.7818608E-02  0.8196142E-01
          2   -1    0    0  501    0  0.00000000000E+00  0.00000000000E+00  0.35130237269E+04  0.35130237269E+04  0.00000000000E+00 0. -1.
         -2   -1    0    0    0  501 -0.00000000000E+00 -0.00000000000E+00 -0.71620573677E+03  0.71620573677E+03  0.00000000000E+00 0.  1.
         23    2    1    2    0    0 -0.11607069955E+04 -0.65605783469E+03  0.25713257970E+03  0.13608406135E+04  0.90096614220E+02 0.  0.
         13    1    3    3    0    0 -0.63228201983E+03 -0.30580268232E+03  0.13800534656E+03  0.71578020984E+03  0.00000000000E+00 0. -1.
        -13    1    3    3    0    0 -0.52842497568E+03 -0.35025515237E+03  0.11912723314E+03  0.64506040365E+03  0.00000000000E+00 0.  1.
         22    1    1    2    0    0  0.11607069955E+04  0.65605783469E+03  0.25396854105E+04  0.28683888502E+04  0.00000000000E+00 0. -1.
<mgrwt>
<rscale>  0 0.31724109E+04</rscale>
<asrwt>0</asrwt>
<pdfrwt beam="1">  1        2 0.54046518E+00 0.31724109E+04</pdfrwt>
<pdfrwt beam="2">  1       -2 0.11018550E+00 0.31724109E+04</pdfrwt>
<totfact> 0.43907116E-01</totfact>
</mgrwt>
</event>
<event>
 6    1  0.9512547E-007  0.2304846E+03  0.7818608E-02  0.1126299E+00
          2   -1    0    0  501    0  0.00000000000E+00  0.00000000000E+00  0.23832053434E+04  0.23832053434E+04  0.00000000000E+00 0. -1.
         -2   -1    0    0    0  501 -0.00000000000E+00 -0.00000000000E+00 -0.55726554592E+01  0.55726554592E+01  0.00000000000E+00 0.  1.
         23    2    1    2    0    0 -0.18154744723E+02  0.67754893063E+02  0.20779865998E+04  0.20810311899E+04  0.87989681602E+02 0.  0.
         13    1    3    3    0    0 -0.52001285161E+02  0.28888923199E+02  0.94234140931E+03  0.94421715471E+03  0.00000000000E+00 0.  1.
        -13    1    3    3    0    0  0.33846540438E+02  0.38865969864E+02  0.11356451905E+04  0.11368140352E+04  0.00000000000E+00 0. -1.
         22    1    1    2    0    0  0.18154744723E+02 -0.67754893063E+02  0.29964608808E+03  0.30774680890E+03  0.00000000000E+00 0.  1.
<mgrwt>
<rscale>  0 0.23048455E+03</rscale>
<asrwt>0</asrwt>
<pdfrwt beam="1">  1        2 0.36664616E+00 0.23048455E+03</pdfrwt>
<pdfrwt beam="2">  1       -2 0.85733351E-03 0.23048455E+03</pdfrwt>
<totfact> 0.12344741E+04</totfact>
</mgrwt>
</event>
<event>
 6    1  0.9512547E-007  0.5528579E+04  0.7818608E-02  0.7751769E-01
         -2   -1    0    0    0  501 -0.00000000000E+00  0.00000000000E+00  0.20714877160E+04  0.20714877160E+04  0.00000000000E+00 0.  1.
          2   -1    0    0  501    0  0.00000000000E+00 -0.00000000000E+00 -0.36887970312E+04  0.36887970312E+04  0.00000000000E+00 0. -1.
         23    2    1    2    0    0  0.14179748657E+04  0.16194233432E+04  0.99699406846E+03  0.23738756069E+04  0.90019664961E+02 0.  0.
         11    1    3    3    0    0  0.49542705423E+03  0.51599948009E+03  0.36085680433E+03  0.80119976457E+03  0.00000000000E+00 0. -1.
        -11    1    3    3    0    0  0.92254781145E+03  0.11034238631E+04  0.63613726413E+03  0.15726758423E+04  0.00000000000E+00 0.  1.
         22    1    1    2    0    0 -0.14179748657E+04 -0.16194233432E+04 -0.26143033836E+04  0.33864091404E+04  0.00000000000E+00 0. -1.
<mgrwt>
<rscale>  0 0.55285795E+04</rscale>
<asrwt>0</asrwt>
<pdfrwt beam="1">  1        2 0.56750723E+00 0.55285795E+04</pdfrwt>
<pdfrwt beam="2">  1       -2 0.31869042E+00 0.55285795E+04</pdfrwt>
<totfact> 0.10102574E-02</totfact>
</mgrwt>
</event>
<event>
 6    1  0.9512547E-007  0.8276567E+03  0.7818608E-02  0.9520826E-01
          1   -1    0    0  501    0  0.00000000000E+00  0.00000000000E+00  0.18548034093E+04  0.18548034093E+04  0.00000000000E+00 0. -1.
         -1   -1    0    0    0  501 -0.00000000000E+00 -0.00000000000E+00 -0.92329938978E+02  0.92329938978E+02  0.00000000000E+00 0.  1.
         23    2    1    2    0    0 -0.25925501148E+03 -0.10912465178E+03  0.19375059197E+03  0.35339158134E+03  0.90691605313E+02 0.  0.
         13    1    3    3    0    0 -0.22314861734E+03 -0.88342080103E+02  0.11915409755E+03  0.26795023326E+03  0.00000000000E+00 0.  1.
        -13    1    3    3    0    0 -0.36106394131E+02 -0.20782571681E+02  0.74596494425E+02  0.85441348089E+02  0.00000000000E+00 0. -1.
         22    1    1    2    0    0  0.25925501148E+03  0.10912465178E+03  0.15687228783E+04  0.15937417669E+04  0.00000000000E+00 0. -1.
<mgrwt>
<rscale>  0 0.82765666E+03</rscale>
<asrwt>0</asrwt>
<pdfrwt beam="1">  1        1 0.28535434E+00 0.82765666E+03</pdfrwt>
<pdfrwt beam="2">  1       -1 0.14204607E-01 0.82765666E+03</pdfrwt>
<totfact> 0.13704612E+02</totfact>
</mgrwt>
</event>
<event>
 6    1  0.9512547E-007  0.1298857E+04  0.7818608E-02  0.9030472E-01
         -1   -1    0    0    0  501 -0.00000000000E+00  0.00000000000E+00  0.29364410277E+03  0.29364410277E+03  0.00000000000E+00 0.  1.
          1   -1    0    0  501    0  0.00000000000E+00 -0.00000000000E+00 -0.14362870533E+04  0.14362870533E+04  0.00000000000E+00 0. -1.
         23    2    1    2    0    0  0.63355866935E+03  0.12005301680E+03 -0.62084741065E+03  0.90042533944E+03  0.97493436985E+02 0.  0.
         13    1    3    3    0    0  0.31497347808E+03  0.58195497587E+02 -0.24116087326E+03  0.40094086175E+03  0.00000000000E+00 0. -1.
        -13    1    3    3    0    0  0.31858519127E+03  0.61857519210E+02 -0.37968653739E+03  0.49948447769E+03  0.00000000000E+00 0.  1.
         22    1    1    2    0    0 -0.63355866935E+03 -0.12005301680E+03 -0.52179553983E+03  0.82950581658E+03  0.00000000000E+00 0. -1.
<mgrwt>
<rscale>  0 0.12988568E+04</rscale>
<asrwt>0</asrwt>
<pdfrwt beam="1">  1        1 0.22096724E+00 0.12988568E+04</pdfrwt>
<pdfrwt beam="2">  1       -1 0.45176015E-01 0.12988568E+04</pdfrwt>
<totfact> 0.34607079E+01</totfact>
</mgrwt>
</event>
<event>
 6    1  0.9512547E-007  0.1695160E+04  0.7818608E-02  0.8764130E-01
          1   -1    0    0  501    0  0.00000000000E+00  0.00000000000E+00  0.76924872849E+03  0.76924872849E+03  0.00000000000E+00 0. -1.
         -1   -1    0    0    0  501 -0.00000000000E+00 -0.00000000000E+00 -0.93388739736E+03  0.93388739736E+03  0.00000000000E+00 0.  1.
         23    2    1    2    0    0  0.72376143300E+01  0.54464016867E+03  0.56619863444E+03  0.79164917571E+03  0.97171124192E+02 0.  0.
         13    1    3    3    0    0  0.35095088073E+02  0.43202552442E+03  0.48247941988E+03  0.64858623911E+03  0.00000000000E+00 0. -1.
        -13    1    3    3    0    0 -0.27857473743E+02  0.11261464425E+03  0.83719214560E+02  0.14306293660E+03  0.00000000000E+00 0.  1.
         22    1    1    2    0    0 -0.72376143300E+01 -0.54464016867E+03 -0.73083730331E+03  0.91148695015E+03  0.00000000000E+00 0.  1.
<mgrwt>
<rscale>  0 0.16951598E+04</rscale>
<asrwt>0</asrwt>
<pdfrwt beam="1">  1        1 0.11834596E+00 0.16951598E+04</pdfrwt>
<pdfrwt beam="2">  1       -1 0.14367498E+00 0.16951598E+04</pdfrwt>
<totfact> 0.87732492E+00</totfact>
</mgrwt>
</event>
<event>
 6    1  0.9512547E-007  0.1407175E+04  0.7818608E-02  0.8948641E-01
          1   -1    0    0  501    0  0.00000000000E+00  0.00000000000E+00  0.63145412475E+03  0.63145412475E+03  0.00000000000E+00 0. -1.
         -1   -1    0    0    0  501 -0.00000000000E+00 -0.00000000000E+00 -0.78396099073E+03  0.78396099073E+03  0.00000000000E+00 0.  1.
         23    2    1    2    0    0 -0.31722355926E+03 -0.13937848141E+03 -0.68959365998E+03  0.77625991374E+03  0.83563689232E+02 0.  0.
         11    1    3    3    0    0 -0.68613404347E+02 -0.70116471928E+02 -0.17725882036E+03  0.20259518327E+03  0.00000000000E+00 0.  1.
        -11    1    3    3    0    0 -0.24861015491E+03 -0.69262009484E+02 -0.51233483963E+03  0.57366473046E+03  0.00000000000E+00 0. -1.
         22    1    1    2    0    0  0.31722355926E+03  0.13937848141E+03  0.53708679400E+03  0.63915520175E+03  0.00000000000E+00 0. -1.
<mgrwt>
<rscale>  0 0.14071750E+04</rscale>
<asrwt>0</asrwt>
<pdfrwt beam="1">  1        1 0.97146788E-01 0.14071750E+04</pdfrwt>
<pdfrwt beam="2">  1       -1 0.12060938E+00 0.14071750E+04</pdfrwt>
<totfact> 0.18946969E+01</totfact>
</mgrwt>
</event>
<event>
 6    1  0.9512547E-007  0.1708570E+04  0.7818608E-02  0.8756492E-01
          2   -1    0    0  501    0  0.00000000000E+00  0.00000000000E+00  0.30501782751E+04  0.30501782751E+04  0.00000000000E+00 0. -1.
         -2   -1    0    0    0  501 -0.00000000000E+00 -0.00000000000E+00 -0.23926555073E+03  0.23926555073E+03  0.00000000000E+00 0.  1.
         23    2    1    2    0    0 -0.58442856490E+03 -0.38929078751E+03  0.48100175014E+03  0.85601225446E+03  0.91050708040E+02 0.  0.
         13    1    3    3    0    0 -0.46318058122E+03 -0.34555023318E+03  0.41290325138E+03  0.71023257421E+03  0.00000000000E+00 0. -1.
        -13    1    3    3    0    0 -0.12124798369E+03 -0.43740554332E+02  0.68098498761E+02  0.14577968025E+03  0.00000000000E+00 0.  1.
         22    1    1    2    0    0  0.58442856490E+03  0.38929078751E+03  0.23299109742E+04  0.24334315714E+04  0.00000000000E+00 0. -1.
<mgrwt>
<rscale>  0 0.17085697E+04</rscale>
<asrwt>0</asrwt>
<pdfrwt beam="1">  1        2 0.46925817E+00 0.17085697E+04</pdfrwt>
<pdfrwt beam="2">  1       -2 0.36810087E-01 0.17085697E+04</pdfrwt>
<totfact> 0.10758176E+01</totfact>
</mgrwt>
</event>
<event>
 6    1  0.9512547E-007  0.2449093E+04  0.7818608E-02  0.8421349E-01
         -2   -1    0    0    0  501 -0.00000000000E+00  0.00000000000E+00  0.68405519420E+03  0.68405519420E+03  0.00000000000E+00 0.  1.
          2   -1    0    0  501    0  0.00000000000E+00 -0.00000000000E+00 -0.21920959430E+04  0.21920959430E+04  0.00000000000E+00 0. -1.
         23    2    1    2    0    0 -0.99007303014E+02 -0.52610704096E+03  0.53568891842E+03  0.76346989828E+03  0.96605401841E+02 0.  0.
         13    1    3    3    0    0 -0.82223863785E+02 -0.19343754549E+03  0.18843656530E+03  0.28228919023E+03  0.00000000000E+00 0. -1.
        -13    1    3    3    0    0 -0.16783439229E+02 -0.33266949548E+03  0.34725235312E+03  0.48118070805E+03  0.00000000000E+00 0.  1.
         22    1    1    2    0    0  0.99007303014E+02  0.52610704096E+03 -0.20437296672E+04  0.21126812389E+04  0.00000000000E+00 0. -1.
<mgrwt>
<rscale>  0 0.24490934E+04</rscale>
<asrwt>0</asrwt>
<pdfrwt beam="1">  1        2 0.33724553E+00 0.24490934E+04</pdfrwt>
<pdfrwt beam="2">  1       -2 0.10523926E+00 0.24490934E+04</pdfrwt>
<totfact> 0.34154654E+00</totfact>
</mgrwt>
</event>
<event>
 6    1  0.9512547E-007  0.4630109E+03  0.7818608E-02  0.1023912E+00
         -2   -1    0    0    0  501 -0.00000000000E+00  0.00000000000E+00  0.21708199592E+03  0.21708199592E+03  0.00000000000E+00 0.  1.
          2   -1    0    0  501    0  0.00000000000E+00 -0.00000000000E+00 -0.24688718896E+03  0.24688718896E+03  0.00000000000E+00 0. -1.
         23    2    1    2    0    0 -0.45250691347E+02 -0.44879815724E+02  0.19808772424E+03  0.22733232242E+03  0.91539146792E+02 0.  0.
         13    1    3    3    0    0 -0.52898270374E+02 -0.46239743454E+02  0.70581090548E+02  0.99589312811E+02  0.00000000000E+00 0.  1.
        -13    1    3    3    0    0  0.76475790266E+01  0.13599277293E+01  0.12750663369E+03  0.12774300961E+03  0.00000000000E+00 0. -1.
         22    1    1    2    0    0  0.45250691347E+02  0.44879815724E+02 -0.22789291728E+03  0.23663686245E+03  0.00000000000E+00 0. -1.
<mgrwt>
<rscale>  0 0.46301086E+03</rscale>
<asrwt>0</asrwt>
<pdfrwt beam="1">  1        2 0.37982644E-01 0.46301086E+03</pdfrwt>
<pdfrwt beam="2">  1       -2 0.33397230E-01 0.46301086E+03</pdfrwt>
<totfact> 0.11420414E+03</totfact>
</mgrwt>
</event>
<event>
 6    1  0.9512547E-007  0.2792789E+04  0.7818608E-02  0.8305511E-01
         -2   -1    0    0    0  501 -0.00000000000E+00  0.00000000000E+00  0.46682323069E+03  0.46682323069E+03  0.00000000000E+00 0.  1.
          2   -1    0    0  501    0  0.00000000000E+00 -0.00000000000E+00 -0.41769938179E+04  0.41769938179E+04  0.00000000000E+00 0. -1.
         23    2    1    2    0    0  0.11791146765E+04  0.71265042517E+03 -0.14926711056E+04  0.20331684702E+04  0.86746470439E+02 0.  0.
         13    1    3    3    0    0  0.97082176188E+03  0.56793865051E+03 -0.12600681462E+04  0.16890295844E+04  0.00000000000E+00 0.  1.
        -13    1    3    3    0    0  0.20829291457E+03  0.14471177465E+03 -0.23260295941E+03  0.34413888578E+03  0.00000000000E+00 0. -1.
         22    1    1    2    0    0 -0.11791146765E+04 -0.71265042517E+03 -0.22174994816E+04  0.26106485783E+04  0.00000000000E+00 0. -1.
<mgrwt>
<rscale>  0 0.27927891E+04</rscale>
<asrwt>0</asrwt>
<pdfrwt beam="1">  1        2 0.64261443E+00 0.27927891E+04</pdfrwt>
<pdfrwt beam="2">  1       -2 0.71818959E-01 0.27927891E+04</pdfrwt>
<totfact> 0.37284997E-01</totfact>
</mgrwt>
</event>
<event>
 6    1  0.9512547E-007  0.1521091E+04  0.7818608E-02  0.8870547E-01
          1   -1    0    0  501    0  0.00000000000E+00  0.00000000000E+00  0.10707202603E+04  0.10707202603E+04  0.00000000000E+00 0. -1.
         -1   -1    0    0    0  501 -0.00000000000E+00 -0.00000000000E+00 -0.54022484172E+03  0.54022484172E+03  0.00000000000E+00 0.  1.
         23    2    1    2    0    0  0.24874381404E+03  0.69329021235E+03  0.77427480788E+02  0.74619348462E+03  0.91021415891E+02 0.  0.
         13    1    3    3    0    0  0.12626798210E+03  0.43892919761E+03  0.81011297456E+02  0.46385911022E+03  0.00000000000E+00 0.  1.
        -13    1    3    3    0    0  0.12247583193E+03  0.25436101474E+03 -0.35838166673E+01  0.28233437440E+03  0.00000000000E+00 0. -1.
         22    1    1    2    0    0 -0.24874381404E+03 -0.69329021235E+03  0.45306793780E+03  0.86475161741E+03  0.00000000000E+00 0. -1.
<mgrwt>
<rscale>  0 0.15210913E+04</rscale>
<asrwt>0</asrwt>
<pdfrwt beam="1">  1        1 0.16472619E+00 0.15210913E+04</pdfrwt>
<pdfrwt beam="2">  1       -1 0.83111515E-01 0.15210913E+04</pdfrwt>
<totfact> 0.18524356E+01</totfact>
</mgrwt>
</event>
<event>
 6    1  0.9512547E-007  0.2392035E+04  0.7818608E-02  0.8442491E-01
          1   -1    0    0  501    0  0.00000000000E+00  0.00000000000E+00  0.12556752454E+04  0.12556752454E+04  0.00000000000E+00 0. -1.
         -1   -1    0    0    0  501 -0.00000000000E+00 -0.00000000000E+00 -0.11391943379E+04  0.11391943379E+04  0.00000000000E+00 0.  1.
         23    2    1    2    0    0 -0.74212651358E+03 -0.44653857805E+03 -0.76488813933E+03  0.11591674102E+04  0.92014973274E+02 0.  0.
         13    1    3    3    0    0 -0.35502463926E+03 -0.20189321903E+03 -0.42046937168E+03  0.58617220925E+03  0.00000000000E+00 0.  1.
        -13    1    3    3    0    0 -0.38710187431E+03 -0.24464535902E+03 -0.34441876766E+03  0.57299520094E+03  0.00000000000E+00 0. -1.
         22    1    1    2    0    0  0.74212651358E+03  0.44653857805E+03  0.88136904683E+03  0.12357021731E+04  0.00000000000E+00 0. -1.
<mgrwt>
<rscale>  0 0.23920352E+04</rscale>
<asrwt>0</asrwt>
<pdfrwt beam="1">  1        1 0.19318081E+00 0.23920352E+04</pdfrwt>
<pdfrwt beam="2">  1       -1 0.17526067E+00 0.23920352E+04</pdfrwt>
<totfact> 0.19659577E+00</totfact>
</mgrwt>
</event>
<event>
 6    1  0.9512547E-007  0.1288591E+04  0.7818608E-02  0.9038662E-01
         -2   -1    0    0    0  501 -0.00000000000E+00  0.00000000000E+00  0.39845740744E+03  0.39845740744E+03  0.00000000000E+00 0.  1.
          2   -1    0    0  501    0  0.00000000000E+00 -0.00000000000E+00 -0.10418101113E+04  0.10418101113E+04  0.00000000000E+00 0. -1.
         23    2    1    2    0    0 -0.46522505595E+03 -0.25249657306E+01 -0.81607258864E+03  0.94400862783E+03  0.93472409628E+02 0.  0.
         13    1    3    3    0    0 -0.74594232623E+02 -0.16248802563E+02 -0.20356123384E+03  0.21740629947E+03  0.00000000000E+00 0. -1.
        -13    1    3    3    0    0 -0.39063082333E+03  0.13723836832E+02 -0.61251135479E+03  0.72660232836E+03  0.00000000000E+00 0.  1.
         22    1    1    2    0    0  0.46522505595E+03  0.25249657306E+01  0.17271988482E+03  0.49625889086E+03  0.00000000000E+00 0.  1.
<mgrwt>
<rscale>  0 0.12885914E+04</rscale>
<asrwt>0</asrwt>
<pdfrwt beam="1">  1        2 0.16027848E+00 0.12885914E+04</pdfrwt>
<pdfrwt beam="2">  1       -2 0.61301140E-01 0.12885914E+04</pdfrwt>
<totfact> 0.57510844E+01</totfact>
</mgrwt>
</event>
<event>
 6    1  0.9512547E-007  0.9907219E+03  0.7818608E-02  0.9318780E-01
         -1   -1    0    0    0  501 -0.00000000000E+00  0.00000000000E+00  0.25423014673E+03  0.25423014673E+03  0.00000000000E+00 0.  1.
          1   -1    0    0  501    0  0.00000000000E+00 -0.00000000000E+00 -0.96519815662E+03  0.96519815662E+03  0.00000000000E+00 0. -1.
         23    2    1    2    0    0 -0.19641954944E+03  0.32227498043E+03 -0.74528956661E+03  0.84045631010E+03  0.92024283129E+02 0.  0.
         13    1    3    3    0    0 -0.85841524385E+02  0.21215622059E+03 -0.38616720664E+03  0.44889212593E+03  0.00000000000E+00 0.  1.
        -13    1    3    3    0    0 -0.11057802506E+03  0.11011875984E+03 -0.35912235997E+03  0.39156418417E+03  0.00000000000E+00 0. -1.
         22    1    1    2    0    0  0.19641954944E+03 -0.32227498043E+03  0.34321556716E+02  0.37897199325E+03  0.00000000000E+00 0.  1.
<mgrwt>
<rscale>  0 0.99072190E+03</rscale>
<asrwt>0</asrwt>
<pdfrwt beam="1">  1        1 0.14849203E+00 0.99072190E+03</pdfrwt>
<pdfrwt beam="2">  1       -1 0.39112329E-01 0.99072190E+03</pdfrwt>
<totfact> 0.10250869E+02</totfact>
</mgrwt>
</event>
<event>
 6    1  0.9512547E-007  0.5429799E+04  0.7818608E-02  0.7765423E-01
          2   -1    0    0  501    0  0.00000000000E+00  0.00000000000E+00  0.37136675427E+04  0.37136675427E+04  0.00000000000E+00 0. -1.
         -2   -1    0    0    0  501 -0.00000000000E+00 -0.00000000000E+00 -0.19847437520E+04  0.19847437520E+04  0.00000000000E+00 0.  1.
         23    2    1    2    0    0 -0.12402068376E+04  0.22431950140E+04  0.18013793619E+04  0.31341791133E+04  0.89856764470E+02 0.  0.
         13    1    3    3    0    0 -0.15981027810E+03  0.29830185509E+03  0.27541650720E+03  0.43632278668E+03  0.00000000000E+00 0. -1.
        -13    1    3    3    0    0 -0.10803965595E+04  0.19448931589E+04  0.15259628547E+04  0.26978563266E+04  0.00000000000E+00 0.  1.
         22    1    1    2    0    0  0.12402068376E+04 -0.22431950140E+04 -0.72455571179E+02  0.25642321815E+04  0.00000000000E+00 0. -1.
<mgrwt>
<rscale>  0 0.54297987E+04</rscale>
<asrwt>0</asrwt>
<pdfrwt beam="1">  1        2 0.57133347E+00 0.54297987E+04</pdfrwt>
<pdfrwt beam="2">  1       -2 0.30534519E+00 0.54297987E+04</pdfrwt>
<totfact> 0.11790184E-02</totfact>
</mgrwt>
</event>
<event>
 6    1  0.9512547E-007  0.3758783E+04  0.7818608E-02  0.8055058E-01
          1   -1    0    0  501    0  0.00000000000E+00  0.00000000000E+00  0.37897315882E+04  0.37897315882E+04  0.00000000000E+00 0. -1.
         -1   -1    0    0    0  501 -0.00000000000E+00 -0.00000000000E+00 -0.93202168955E+03  0.93202168955E+03  0.00000000000E+00 0.  1.
         23    2    1    2    0    0 -0.18182975791E+03 -0.11749745167E+04  0.32562958357E+04  0.34677604847E+04  0.90956219475E+02 0.  0.
         11    1    3    3    0    0 -0.25298896497E+02 -0.44135270677E+03  0.11752737962E+04  0.12556674488E+04  0.00000000000E+00 0. -1.
        -11    1    3    3    0    0 -0.15653086142E+03 -0.73362180994E+03  0.20810220395E+04  0.22120930359E+04  0.00000000000E+00 0.  1.
         22    1    1    2    0    0  0.18182975791E+03  0.11749745167E+04 -0.39858593705E+03  0.12539927930E+04  0.00000000000E+00 0.  1.
<mgrwt>
<rscale>  0 0.37587828E+04</rscale>
<asrwt>0</asrwt>
<pdfrwt beam="1">  1        1 0.58303562E+00 0.37587828E+04</pdfrwt>
<pdfrwt beam="2">  1       -1 0.14338795E+00 0.37587828E+04</pdfrwt>
<totfact> 0.45576025E-02</totfact>
</mgrwt>
</event>
<event>
 6    1  0.9512547E-007  0.1325373E+04  0.7818608E-02  0.9009683E-01
         -1   -1    0    0    0  501 -0.00000000000E+00  0.00000000000E+00  0.13635267621E+04  0.13635267621E+04  0.00000000000E+00 0.  1.
          1   -1    0    0  501    0  0.00000000000E+00 -0.00000000000E+00 -0.32207150561E+03  0.32207150561E+03  0.00000000000E+00 0. -1.
         23    2    1    2    0    0 -0.19953195714E+03 -0.92462782405E+02  0.13138003243E+04  0.13355494082E+04  0.96221419275E+02 0.  0.
         11    1    3    3    0    0 -0.10094615391E+03 -0.71513294357E+02  0.48024186616E+03  0.49591987989E+03  0.00000000000E+00 0.  1.
        -11    1    3    3    0    0 -0.98585803230E+02 -0.20949488048E+02  0.83355845816E+03  0.83962952832E+03  0.00000000000E+00 0. -1.
         22    1    1    2    0    0  0.19953195714E+03  0.92462782405E+02 -0.27234506784E+03  0.35004885949E+03  0.00000000000E+00 0. -1.
<mgrwt>
<rscale>  0 0.13253726E+04</rscale>
<asrwt>0</asrwt>
<pdfrwt beam="1">  1        1 0.49549463E-01 0.13253726E+04</pdfrwt>
<pdfrwt beam="2">  1       -1 0.20977335E+00 0.13253726E+04</pdfrwt>
<totfact> 0.10109806E+01</totfact>
</mgrwt>
</event>
<event>
 6    1  0.9512547E-007  0.1184783E+04  0.7818608E-02  0.9126281E-01
         -2   -1    0    0    0  501 -0.00000000000E+00  0.00000000000E+00  0.29204589412E+03  0.29204589412E+03  0.00000000000E+00 0.  1.
          2   -1    0    0  501    0  0.00000000000E+00 -0.00000000000E+00 -0.12016176367E+04  0.12016176367E+04  0.00000000000E+00 0. -1.
         23    2    1    2    0    0  0.52914832684E+03  0.21642461970E+03 -0.63525678366E+03  0.85956080688E+03  0.91956683952E+02 0.  0.
         13    1    3    3    0    0  0.13040528345E+03  0.51445764995E+02 -0.10091563302E+03  0.17273149590E+03  0.00000000000E+00 0.  1.
        -13    1    3    3    0    0  0.39874304339E+03  0.16497885471E+03 -0.53434115064E+03  0.68682931098E+03  0.00000000000E+00 0. -1.
         22    1    1    2    0    0 -0.52914832684E+03 -0.21642461970E+03 -0.27431495891E+03  0.63410272393E+03  0.00000000000E+00 0.  1.
<mgrwt>
<rscale>  0 0.11847827E+04</rscale>
<asrwt>0</asrwt>
<pdfrwt beam="1">  1        2 0.18486425E+00 0.11847827E+04</pdfrwt>
<pdfrwt beam="2">  1       -2 0.44930138E-01 0.11847827E+04</pdfrwt>
<totfact> 0.87648365E+01</totfact>
</mgrwt>
</event>
<event>
 6    1  0.9512547E-007  0.2683435E+04  0.7818608E-02  0.8340400E-01
          2   -1    0    0  501    0  0.00000000000E+00  0.00000000000E+00  0.14238139704E+04  0.14238139704E+04  0.00000000000E+00 0. -1.
         -2   -1    0    0    0  501 -0.00000000000E+00 -0.00000000000E+00 -0.12643548911E+04  0.12643548911E+04  0.00000000000E+00 0.  1.
         23    2    1    2    0    0 -0.57636996470E+03  0.11545090364E+04  0.44232435940E+03  0.13671441766E+04  0.91317628187E+02 0.  0.
         13    1    3    3    0    0 -0.37282749520E+03  0.64625980635E+03  0.25054927858E+03  0.78703686030E+03  0.00000000000E+00 0. -1.
        -13    1    3    3    0    0 -0.20354246950E+03  0.50824923009E+03  0.19177508082E+03  0.58010731628E+03  0.00000000000E+00 0.  1.
         22    1    1    2    0    0  0.57636996470E+03 -0.11545090364E+04 -0.28286528011E+03  0.13210246849E+04  0.00000000000E+00 0.  1.
<mgrwt>
<rscale>  0 0.26834352E+04</rscale>
<asrwt>0</asrwt>
<pdfrwt beam="1">  1        2 0.21904830E+00 0.26834352E+04</pdfrwt>
<pdfrwt beam="2">  1       -2 0.19451614E+00 0.26834352E+04</pdfrwt>
<totfact> 0.17814408E+00</totfact>
</mgrwt>
</event>
<event>
 6    1  0.9512547E-007  0.1716066E+04  0.7818608E-02  0.8752254E-01
         -1   -1    0    0    0  501 -0.00000000000E+00  0.00000000000E+00  0.62452040138E+03  0.62452040138E+03  0.00000000000E+00 0.  1.
          1   -1    0    0  501    0  0.00000000000E+00 -0.00000000000E+00 -0.11788576996E+04  0.11788576996E+04  0.00000000000E+00 0. -1.
         23    2    1    2    0    0 -0.14350294553E+03  0.16906810502E+03 -0.11465743182E+04  0.11709843888E+04  0.85992163828E+02 0.  0.
         13    1    3    3    0    0 -0.12259095612E+03  0.82045856266E+02 -0.66507045383E+03  0.68123327400E+03  0.00000000000E+00 0. -1.
        -13    1    3    3    0    0 -0.20911989406E+02  0.87022248752E+02 -0.48150386433E+03  0.48975111479E+03  0.00000000000E+00 0.  1.
         22    1    1    2    0    0  0.14350294553E+03 -0.16906810502E+03  0.59223701990E+03  0.63239371222E+03  0.00000000000E+00 0.  1.
<mgrwt>
<rscale>  0 0.17160661E+04</rscale>
<asrwt>0</asrwt>
<pdfrwt beam="1">  1        1 0.18136272E+00 0.17160661E+04</pdfrwt>
<pdfrwt beam="2">  1       -1 0.96080061E-01 0.17160661E+04</pdfrwt>
<totfact> 0.10987104E+01</totfact>
</mgrwt>
</event>
<event>
 6    1  0.9512548E-007  0.2559392E+04  0.7818608E-02  0.8382127E-01
         -2   -1    0    0    0  501 -0.00000000000E+00  0.00000000000E+00  0.65219304293E+03  0.65219304293E+03  0.00000000000E+00 0.  1.
          2   -1    0    0  501    0  0.00000000000E+00 -0.00000000000E+00 -0.25109464272E+04  0.25109464272E+04  0.00000000000E+00 0. -1.
         23    2    1    2    0    0 -0.11443846704E+02  0.95056258264E+03 -0.19860587870E+04  0.22040217242E+04  0.97888048772E+02 0.  0.
         13    1    3    3    0    0  0.42862666057E+02  0.49819536707E+03 -0.10433694294E+04  0.11570028514E+04  0.00000000000E+00 0.  1.
        -13    1    3    3    0    0 -0.54306512762E+02  0.45236721557E+03 -0.94268935758E+03  0.10470188728E+04  0.00000000000E+00 0. -1.
         22    1    1    2    0    0  0.11443846704E+02 -0.95056258264E+03  0.12730540268E+03  0.95911774600E+03  0.00000000000E+00 0.  1.
<mgrwt>
<rscale>  0 0.25593920E+04</rscale>
<asrwt>0</asrwt>
<pdfrwt beam="1">  1        2 0.38629945E+00 0.25593920E+04</pdfrwt>
<pdfrwt beam="2">  1       -2 0.10033739E+00 0.25593920E+04</pdfrwt>
<totfact> 0.24944240E+00</totfact>
</mgrwt>
</event>
<event>
 6    1  0.9512547E-007  0.2759202E+04  0.7818608E-02  0.8316048E-01
          2   -1    0    0  501    0  0.00000000000E+00  0.00000000000E+00  0.21748101802E+04  0.21748101802E+04  0.00000000000E+00 0. -1.
         -2   -1    0    0    0  501 -0.00000000000E+00 -0.00000000000E+00 -0.87515634395E+03  0.87515634395E+03  0.00000000000E+00 0.  1.
         23    2    1    2    0    0  0.12132874264E+04 -0.18141809037E+03 -0.43209685526E+02  0.12311038739E+04  0.93652383168E+02 0.  0.
         13    1    3    3    0    0  0.55031518312E+03 -0.65618172583E+02  0.24097282422E+02  0.55473707679E+03  0.00000000000E+00 0. -1.
        -13    1    3    3    0    0  0.66297224323E+03 -0.11579991779E+03 -0.67306967947E+02  0.67636679708E+03  0.00000000000E+00 0.  1.
         22    1    1    2    0    0 -0.12132874264E+04  0.18141809037E+03  0.13428635218E+04  0.18188626503E+04  0.00000000000E+00 0. -1.
<mgrwt>
<rscale>  0 0.27592020E+04</rscale>
<asrwt>0</asrwt>
<pdfrwt beam="1">  1        2 0.33458618E+00 0.27592020E+04</pdfrwt>
<pdfrwt beam="2">  1       -2 0.13463944E+00 0.27592020E+04</pdfrwt>
<totfact> 0.18501176E+00</totfact>
</mgrwt>
</event>
<event>
 6    1  0.9512547E-007  0.2327333E+04  0.7818608E-02  0.8467222E-01
         -1   -1    0    0    0  501 -0.00000000000E+00  0.00000000000E+00  0.14116102100E+04  0.14116102100E+04  0.00000000000E+00 0.  1.
          1   -1    0    0  501    0  0.00000000000E+00 -0.00000000000E+00 -0.95927286712E+03  0.95927286712E+03  0.00000000000E+00 0. -1.
         23    2    1    2    0    0 -0.31253862192E+03 -0.39728008733E+03  0.12922311095E+04  0.13906109734E+04  0.91792052318E+02 0.  0.
         11    1    3    3    0    0 -0.15483650413E+03 -0.12559376833E+03  0.52256071560E+03  0.55930120610E+03  0.00000000000E+00 0. -1.
        -11    1    3    3    0    0 -0.15770211779E+03 -0.27168631900E+03  0.76967039392E+03  0.83130976728E+03  0.00000000000E+00 0.  1.
         22    1    1    2    0    0  0.31253862192E+03  0.39728008733E+03 -0.83989376669E+03  0.98027210371E+03  0.00000000000E+00 0. -1.
<mgrwt>
<rscale>  0 0.23273327E+04</rscale>
<asrwt>0</asrwt>
<pdfrwt beam="1">  1        1 0.14758044E+00 0.23273327E+04</pdfrwt>
<pdfrwt beam="2">  1       -1 0.21717080E+00 0.23273327E+04</pdfrwt>
<totfact> 0.16892863E+00</totfact>
</mgrwt>
</event>
<event>
 6    1  0.9512547E-007  0.1614321E+04  0.7818608E-02  0.8811798E-01
         -1   -1    0    0    0  501 -0.00000000000E+00  0.00000000000E+00  0.14217126102E+04  0.14217126102E+04  0.00000000000E+00 0.  1.
          1   -1    0    0  501    0  0.00000000000E+00 -0.00000000000E+00 -0.45825567144E+03  0.45825567144E+03  0.00000000000E+00 0. -1.
         23    2    1    2    0    0  0.30686170220E+03 -0.74306801373E+03  0.51894498815E+03  0.96132523259E+03  0.92347846691E+02 0.  0.
         11    1    3    3    0    0  0.51002926113E+02 -0.19967035048E+03  0.16646409809E+03  0.26491478495E+03  0.00000000000E+00 0.  1.
        -11    1    3    3    0    0  0.25585877609E+03 -0.54339766324E+03  0.35248089006E+03  0.69641044764E+03  0.00000000000E+00 0. -1.
         22    1    1    2    0    0 -0.30686170220E+03  0.74306801373E+03  0.44451195057E+03  0.91864304902E+03  0.00000000000E+00 0. -1.
<mgrwt>
<rscale>  0 0.16143207E+04</rscale>
<asrwt>0</asrwt>
<pdfrwt beam="1">  1        1 0.70500873E-01 0.16143207E+04</pdfrwt>
<pdfrwt beam="2">  1       -1 0.21872502E+00 0.16143207E+04</pdfrwt>
<totfact> 0.53731061E+00</totfact>
</mgrwt>
</event>
<event>
 6    1  0.9512547E-007  0.1200530E+04  0.7818608E-02  0.9112393E-01
         -1   -1    0    0    0  501 -0.00000000000E+00  0.00000000000E+00  0.28554471313E+03  0.28554471313E+03  0.00000000000E+00 0.  1.
          1   -1    0    0  501    0  0.00000000000E+00 -0.00000000000E+00 -0.12618612137E+04  0.12618612137E+04  0.00000000000E+00 0. -1.
         23    2    1    2    0    0 -0.59729901913E+02  0.17579020936E+03 -0.12223604266E+04  0.12391731050E+04  0.83157157954E+02 0.  0.
         13    1    3    3    0    0 -0.34817594902E+02  0.17023690964E+03 -0.11327063178E+04  0.11459565754E+04  0.00000000000E+00 0.  1.
        -13    1    3    3    0    0 -0.24912307011E+02  0.55532997120E+01 -0.89654108745E+02  0.93216529614E+02  0.00000000000E+00 0. -1.
         22    1    1    2    0    0  0.59729901913E+02 -0.17579020936E+03  0.24604392602E+03  0.30823282177E+03  0.00000000000E+00 0.  1.
<mgrwt>
<rscale>  0 0.12005295E+04</rscale>
<asrwt>0</asrwt>
<pdfrwt beam="1">  1        1 0.19413250E+00 0.12005295E+04</pdfrwt>
<pdfrwt beam="2">  1       -1 0.43929955E-01 0.12005295E+04</pdfrwt>
<totfact> 0.48824366E+01</totfact>
</mgrwt>
</event>
<event>
 6    1  0.9512547E-007  0.1105041E+04  0.7818608E-02  0.9200293E-01
          1   -1    0    0  501    0  0.00000000000E+00  0.00000000000E+00  0.16042451293E+04  0.16042451293E+04  0.00000000000E+00 0. -1.
         -1   -1    0    0    0  501 -0.00000000000E+00 -0.00000000000E+00 -0.19029438710E+03  0.19029438710E+03  0.00000000000E+00 0.  1.
         23    2    1    2    0    0  0.50076007764E+03  0.96902106142E+02  0.10410904639E+04  0.11627361762E+04  0.89080794429E+02 0.  0.
         11    1    3    3    0    0  0.38109247562E+03  0.10796952291E+03  0.75971547120E+03  0.85677096708E+03  0.00000000000E+00 0.  1.
        -11    1    3    3    0    0  0.11966760202E+03 -0.11067416766E+02  0.28137499272E+03  0.30596520916E+03  0.00000000000E+00 0. -1.
         22    1    1    2    0    0 -0.50076007764E+03 -0.96902106142E+02  0.37286027831E+03  0.63180334019E+03  0.00000000000E+00 0.  1.
<mgrwt>
<rscale>  0 0.11050409E+04</rscale>
<asrwt>0</asrwt>
<pdfrwt beam="1">  1        1 0.24680693E+00 0.11050409E+04</pdfrwt>
<pdfrwt beam="2">  1       -1 0.29276061E-01 0.11050409E+04</pdfrwt>
<totfact> 0.58817378E+01</totfact>
</mgrwt>
</event>
<event>
 6    1  0.9512547E-007  0.1425178E+04  0.7818608E-02  0.8935792E-01
          2   -1    0    0  501    0  0.00000000000E+00  0.00000000000E+00  0.28556941208E+04  0.28556941208E+04  0.00000000000E+00 0. -1.
         -2   -1    0    0    0  501 -0.00000000000E+00 -0.00000000000E+00 -0.17781423125E+03  0.17781423125E+03  0.00000000000E+00 0.  1.
         23    2    1    2    0    0  0.15217292516E+03  0.21324837183E+03  0.27480957033E+04  0.27622856986E+04  0.97779439812E+02 0.  0.
         13    1    3    3    0    0  0.10274236892E+03  0.14286296290E+03  0.22454369346E+04  0.22523216572E+04  0.00000000000E+00 0. -1.
        -13    1    3    3    0    0  0.49430556235E+02  0.70385408928E+02  0.50265876873E+03  0.50996404134E+03  0.00000000000E+00 0.  1.
         22    1    1    2    0    0 -0.15217292516E+03 -0.21324837183E+03 -0.70215813772E+02  0.27122265344E+03  0.00000000000E+00 0.  1.
<mgrwt>
<rscale>  0 0.14251780E+04</rscale>
<asrwt>0</asrwt>
<pdfrwt beam="1">  1        2 0.43933752E+00 0.14251780E+04</pdfrwt>
<pdfrwt beam="2">  1       -2 0.27356038E-01 0.14251780E+04</pdfrwt>
<totfact> 0.25460733E+01</totfact>
</mgrwt>
</event>
<event>
 6    1  0.9512547E-007  0.2533181E+04  0.7818608E-02  0.8391259E-01
          1   -1    0    0  501    0  0.00000000000E+00  0.00000000000E+00  0.38637642779E+04  0.38637642779E+04  0.00000000000E+00 0. -1.
         -1   -1    0    0    0  501 -0.00000000000E+00 -0.00000000000E+00 -0.41520428466E+03  0.41520428466E+03  0.00000000000E+00 0.  1.
         23    2    1    2    0    0  0.10256051838E+04  0.58837391473E+02  0.47694473275E+03  0.11347953663E+04  0.70401800350E+02 0.  0.
         11    1    3    3    0    0  0.25999764581E+03  0.12893630506E+02  0.15510356312E+03  0.30302167716E+03  0.00000000000E+00 0. -1.
        -11    1    3    3    0    0  0.76560753802E+03  0.45943760967E+02  0.32184116963E+03  0.83177368912E+03  0.00000000000E+00 0.  1.
         22    1    1    2    0    0 -0.10256051838E+04 -0.58837391473E+02  0.29716152605E+04  0.31441731963E+04  0.00000000000E+00 0.  1.
<mgrwt>
<rscale>  0 0.25331810E+04</rscale>
<asrwt>0</asrwt>
<pdfrwt beam="1">  1        1 0.59442525E+00 0.25331810E+04</pdfrwt>
<pdfrwt beam="2">  1       -1 0.63877585E-01 0.25331810E+04</pdfrwt>
<totfact> 0.27768832E-01</totfact>
</mgrwt>
</event>
<event>
 6    1  0.9512547E-007  0.2897159E+04  0.7818608E-02  0.8273723E-01
          2   -1    0    0  501    0  0.00000000000E+00  0.00000000000E+00  0.12724306013E+04  0.12724306013E+04  0.00000000000E+00 0. -1.
         -2   -1    0    0    0  501 -0.00000000000E+00 -0.00000000000E+00 -0.16491134078E+04  0.16491134078E+04  0.00000000000E+00 0.  1.
         23    2    1    2    0    0 -0.54203296855E+03  0.79801217969E+03 -0.12762885196E+04  0.16024861570E+04  0.91794990578E+02 0.  0.
         13    1    3    3    0    0 -0.33135110164E+03  0.43497055196E+03 -0.77859661661E+03  0.95142294750E+03  0.00000000000E+00 0. -1.
        -13    1    3    3    0    0 -0.21068186691E+03  0.36304162773E+03 -0.49769190300E+03  0.65106320955E+03  0.00000000000E+00 0.  1.
         22    1    1    2    0    0  0.54203296855E+03 -0.79801217969E+03  0.89960571316E+03  0.13190578521E+04  0.00000000000E+00 0. -1.
<mgrwt>
<rscale>  0 0.28971589E+04</rscale>
<asrwt>0</asrwt>
<pdfrwt beam="1">  1        2 0.19575856E+00 0.28971589E+04</pdfrwt>
<pdfrwt beam="2">  1       -2 0.25370975E+00 0.28971589E+04</pdfrwt>
<totfact> 0.90311326E-01</totfact>
</mgrwt>
</event>
<event>
 6    1  0.9512547E-007  0.3720407E+04  0.7818608E-02  0.8063454E-01
         -2   -1    0    0    0  501 -0.00000000000E+00  0.00000000000E+00  0.30707547005E+04  0.30707547005E+04  0.00000000000E+00 0.  1.
          2   -1    0    0  501    0  0.00000000000E+00 -0.00000000000E+00 -0.11268753608E+04  0.11268753608E+04  0.00000000000E+00 0. -1.
         23    2    1    2    0    0  0.15901935973E+04  0.92017057022E+03  0.12927134035E+04  0.22484131335E+04  0.93936789211E+02 0.  0.
         11    1    3    3    0    0  0.14349825520E+04  0.85698157493E+03  0.11573406901E+04  0.20329854445E+04  0.00000000000E+00 0. -1.
        -11    1    3    3    0    0  0.15521104524E+03  0.63188995293E+02  0.13537271338E+03  0.21542768907E+03  0.00000000000E+00 0.  1.
         22    1    1    2    0    0 -0.15901935973E+04 -0.92017057022E+03  0.65116593620E+03  0.19492169278E+04  0.00000000000E+00 0. -1.
<mgrwt>
<rscale>  0 0.37204074E+04</rscale>
<asrwt>0</asrwt>
<pdfrwt beam="1">  1        2 0.17336544E+00 0.37204074E+04</pdfrwt>
<pdfrwt beam="2">  1       -2 0.47242380E+00 0.37204074E+04</pdfrwt>
<totfact> 0.41828590E-02</totfact>
</mgrwt>
</event>
<event>
 6    1  0.9512547E-007  0.5279236E+03  0.7818608E-02  0.1006737E+00
         -1   -1    0    0    0  501 -0.00000000000E+00  0.00000000000E+00  0.22900561236E+02  0.22900561236E+02  0.00000000000E+00 0.  1.
          1   -1    0    0  501    0  0.00000000000E+00 -0.00000000000E+00 -0.30425378625E+04  0.30425378625E+04  0.00000000000E+00 0. -1.
         23    2    1    2    0    0 -0.23599614150E+03  0.57630891770E+02 -0.19962986839E+04  0.20136602036E+04  0.10297320958E+03 0.  0.
         11    1    3    3    0    0 -0.53250480455E+02  0.19848770079E+02 -0.20708044093E+03  0.21473680718E+03  0.00000000000E+00 0. -1.
        -11    1    3    3    0    0 -0.18274566104E+03  0.37782121691E+02 -0.17892182429E+04  0.17989233964E+04  0.00000000000E+00 0.  1.
         22    1    1    2    0    0  0.23599614150E+03 -0.57630891770E+02 -0.10233386174E+04  0.10517782202E+04  0.00000000000E+00 0. -1.
<mgrwt>
<rscale>  0 0.52792357E+03</rscale>
<asrwt>0</asrwt>
<pdfrwt beam="1">  1        1 0.46808254E+00 0.52792357E+03</pdfrwt>
<pdfrwt beam="2">  1       -1 0.35231648E-02 0.52792357E+03</pdfrwt>
<totfact> 0.19155019E+02</totfact>
</mgrwt>
</event>
<event>
 6    1  0.9512547E-007  0.3037005E+04  0.7818608E-02  0.8233242E-01
          2   -1    0    0  501    0  0.00000000000E+00  0.00000000000E+00  0.15038834640E+04  0.15038834640E+04  0.00000000000E+00 0. -1.
         -2   -1    0    0    0  501 -0.00000000000E+00 -0.00000000000E+00 -0.15332636543E+04  0.15332636543E+04  0.00000000000E+00 0.  1.
         23    2    1    2    0    0 -0.76591352577E+03  0.43915171551E+03  0.12187831637E+04  0.15082947656E+04  0.10021447754E+03 0.  0.
         11    1    3    3    0    0 -0.39170537945E+03  0.22841763607E+03  0.71056762522E+03  0.84291996700E+03  0.00000000000E+00 0. -1.
        -11    1    3    3    0    0 -0.37420814632E+03  0.21073407944E+03  0.50821553852E+03  0.66537479859E+03  0.00000000000E+00 0.  1.
         22    1    1    2    0    0  0.76591352577E+03 -0.43915171551E+03 -0.12481633540E+04  0.15288523527E+04  0.00000000000E+00 0.  1.
<mgrwt>
<rscale>  0 0.30370050E+04</rscale>
<asrwt>0</asrwt>
<pdfrwt beam="1">  1        2 0.23136669E+00 0.30370050E+04</pdfrwt>
<pdfrwt beam="2">  1       -2 0.23588672E+00 0.30370050E+04</pdfrwt>
<totfact> 0.84682622E-01</totfact>
</mgrwt>
</event>
<event>
 6    1  0.9512547E-007  0.3071866E+04  0.7818608E-02  0.8223502E-01
         -2   -1    0    0    0  501 -0.00000000000E+00  0.00000000000E+00  0.14455576584E+04  0.14455576584E+04  0.00000000000E+00 0.  1.
          2   -1    0    0  501    0  0.00000000000E+00 -0.00000000000E+00 -0.16319585820E+04  0.16319585820E+04  0.00000000000E+00 0. -1.
         23    2    1    2    0    0 -0.14756002264E+03 -0.92649078111E+03  0.11227326949E+04  0.14669294036E+04  0.10580190485E+03 0.  0.
         11    1    3    3    0    0 -0.87826448972E+02 -0.32184850838E+03  0.34387410726E+03  0.47911308595E+03  0.00000000000E+00 0.  1.
        -11    1    3    3    0    0 -0.59733573667E+02 -0.60464227273E+03  0.77885858765E+03  0.98781631762E+03  0.00000000000E+00 0. -1.
         22    1    1    2    0    0  0.14756002264E+03  0.92649078111E+03 -0.13091336185E+04  0.16105868368E+04  0.00000000000E+00 0. -1.
<mgrwt>
<rscale>  0 0.30718660E+04</rscale>
<asrwt>0</asrwt>
<pdfrwt beam="1">  1        2 0.25107055E+00 0.30718660E+04</pdfrwt>
<pdfrwt beam="2">  1       -2 0.22239349E+00 0.30718660E+04</pdfrwt>
<totfact> 0.86935071E-01</totfact>
</mgrwt>
</event>
<event>
 6    1  0.9512547E-007  0.2315392E+04  0.7818608E-02  0.8471877E-01
         -2   -1    0    0    0  501 -0.00000000000E+00  0.00000000000E+00  0.73726383894E+03  0.73726383894E+03  0.00000000000E+00 0.  1.
          2   -1    0    0  501    0  0.00000000000E+00 -0.00000000000E+00 -0.18178845512E+04  0.18178845512E+04  0.00000000000E+00 0. -1.
         23    2    1    2    0    0  0.44959256591E+03  0.10649303381E+04 -0.52018686183E+03  0.12705098413E+04  0.85969676586E+02 0.  0.
         13    1    3    3    0    0  0.18224790830E+03  0.48980889868E+03 -0.19528609280E+03  0.55791013196E+03  0.00000000000E+00 0.  1.
        -13    1    3    3    0    0  0.26734465760E+03  0.57512143946E+03 -0.32490076903E+03  0.71259970937E+03  0.00000000000E+00 0. -1.
         22    1    1    2    0    0 -0.44959256591E+03 -0.10649303381E+04 -0.56043385044E+03  0.12846385488E+04  0.00000000000E+00 0.  1.
<mgrwt>
<rscale>  0 0.23153924E+04</rscale>
<asrwt>0</asrwt>
<pdfrwt beam="1">  1        2 0.27967454E+00 0.23153924E+04</pdfrwt>
<pdfrwt beam="2">  1       -2 0.11342521E+00 0.23153924E+04</pdfrwt>
<totfact> 0.46572352E+00</totfact>
</mgrwt>
</event>
<event>
 6    1  0.9512547E-007  0.1716391E+04  0.7818608E-02  0.8752071E-01
          2   -1    0    0  501    0  0.00000000000E+00  0.00000000000E+00  0.93642815900E+03  0.93642815900E+03  0.00000000000E+00 0. -1.
         -2   -1    0    0    0  501 -0.00000000000E+00 -0.00000000000E+00 -0.78649858633E+03  0.78649858633E+03  0.00000000000E+00 0.  1.
         23    2    1    2    0    0 -0.63777860434E+03 -0.53020178024E+03  0.28671646931E+03  0.88233996752E+03  0.91880403709E+02 0.  0.
         11    1    3    3    0    0 -0.98236488351E+02 -0.12764247638E+03  0.63340284029E+02  0.17307513108E+03  0.00000000000E+00 0.  1.
        -11    1    3    3    0    0 -0.53954211599E+03 -0.40255930386E+03  0.22337618528E+03  0.70926483644E+03  0.00000000000E+00 0. -1.
         22    1    1    2    0    0  0.63777860434E+03  0.53020178024E+03 -0.13678689665E+03  0.84058677780E+03  0.00000000000E+00 0.  1.
<mgrwt>
<rscale>  0 0.17163909E+04</rscale>
<asrwt>0</asrwt>
<pdfrwt beam="1">  1        2 0.14406587E+00 0.17163909E+04</pdfrwt>
<pdfrwt beam="2">  1       -2 0.12099978E+00 0.17163909E+04</pdfrwt>
<totfact> 0.13701060E+01</totfact>
</mgrwt>
</event>
<event>
 6    1  0.9512547E-007  0.3592720E+04  0.7818608E-02  0.8092161E-01
         -2   -1    0    0    0  501 -0.00000000000E+00  0.00000000000E+00  0.88332385655E+03  0.88332385655E+03  0.00000000000E+00 0.  1.
          2   -1    0    0  501    0  0.00000000000E+00 -0.00000000000E+00 -0.36531441373E+04  0.36531441373E+04  0.00000000000E+00 0. -1.
         23    2    1    2    0    0  0.89760366066E+03 -0.11138375594E+04 -0.27553676375E+04  0.31058963182E+04  0.90634879175E+02 0.  0.
         13    1    3    3    0    0  0.21080835700E+03 -0.20618986663E+03 -0.59214411731E+03  0.66150516260E+03  0.00000000000E+00 0. -1.
        -13    1    3    3    0    0  0.68679530366E+03 -0.90764769272E+03 -0.21632235202E+04  0.24443911556E+04  0.00000000000E+00 0.  1.
         22    1    1    2    0    0 -0.89760366066E+03  0.11138375594E+04 -0.14452643242E+02  0.14305716756E+04  0.00000000000E+00 0.  1.
<mgrwt>
<rscale>  0 0.35927201E+04</rscale>
<asrwt>0</asrwt>
<pdfrwt beam="1">  1        2 0.56202219E+00 0.35927201E+04</pdfrwt>
<pdfrwt beam="2">  1       -2 0.13589597E+00 0.35927201E+04</pdfrwt>
<totfact> 0.19946505E-01</totfact>
</mgrwt>
</event>
<event>
 6    1  0.9512547E-007  0.2038726E+04  0.7818608E-02  0.8588726E-01
          1   -1    0    0  501    0  0.00000000000E+00  0.00000000000E+00  0.16427958699E+04  0.16427958699E+04  0.00000000000E+00 0. -1.
         -1   -1    0    0    0  501 -0.00000000000E+00 -0.00000000000E+00 -0.63251961447E+03  0.63251961447E+03  0.00000000000E+00 0.  1.
         23    2    1    2    0    0 -0.35228460456E+03  0.13733832818E+03  0.15602052701E+04  0.16079413913E+04  0.90932799491E+02 0.  0.
         11    1    3    3    0    0 -0.81150258444E+02  0.75360349400E+02  0.43772408502E+03  0.45151624701E+03  0.00000000000E+00 0.  1.
        -11    1    3    3    0    0 -0.27113434611E+03  0.61977978782E+02  0.11224811851E+04  0.11564251443E+04  0.00000000000E+00 0. -1.
         22    1    1    2    0    0  0.35228460456E+03 -0.13733832818E+03 -0.54992901464E+03  0.66737409309E+03  0.00000000000E+00 0.  1.
<mgrwt>
<rscale>  0 0.20387257E+04</rscale>
<asrwt>0</asrwt>
<pdfrwt beam="1">  1        1 0.25273782E+00 0.20387257E+04</pdfrwt>
<pdfrwt beam="2">  1       -1 0.97310711E-01 0.20387257E+04</pdfrwt>
<totfact> 0.48898777E+00</totfact>
</mgrwt>
</event>
<event>
 6    1  0.9512547E-007  0.2646532E+04  0.7818608E-02  0.8352565E-01
         -2   -1    0    0    0  501 -0.00000000000E+00  0.00000000000E+00  0.91099429893E+03  0.91099429893E+03  0.00000000000E+00 0.  1.
          2   -1    0    0  501    0  0.00000000000E+00 -0.00000000000E+00 -0.19221123802E+04  0.19221123802E+04  0.00000000000E+00 0. -1.
         23    2    1    2    0    0 -0.51522097635E+03 -0.49278923706E+03 -0.16974775367E+04  0.18434687713E+04  0.93022775460E+02 0.  0.
         11    1    3    3    0    0 -0.10672073581E+03 -0.14755364641E+03 -0.49401009623E+03  0.52650486151E+03  0.00000000000E+00 0.  1.
        -11    1    3    3    0    0 -0.40850024054E+03 -0.34523559066E+03 -0.12034674405E+04  0.13169639098E+04  0.00000000000E+00 0. -1.
         22    1    1    2    0    0  0.51522097635E+03  0.49278923706E+03  0.68635945537E+03  0.98963790782E+03  0.00000000000E+00 0.  1.
<mgrwt>
<rscale>  0 0.26465324E+04</rscale>
<asrwt>0</asrwt>
<pdfrwt beam="1">  1        2 0.29570959E+00 0.26465324E+04</pdfrwt>
<pdfrwt beam="2">  1       -2 0.14015297E+00 0.26465324E+04</pdfrwt>
<totfact> 0.23297603E+00</totfact>
</mgrwt>
</event>
<event>
 6    1  0.9512547E-007  0.5475674E+04  0.7818608E-02  0.7759045E-01
          2   -1    0    0  501    0  0.00000000000E+00  0.00000000000E+00  0.41830052902E+04  0.41830052902E+04  0.00000000000E+00 0. -1.
         -2   -1    0    0    0  501 -0.00000000000E+00 -0.00000000000E+00 -0.17919533789E+04  0.17919533789E+04  0.00000000000E+00 0.  1.
         23    2    1    2    0    0  0.23272335471E+04 -0.13949835436E+04  0.80303084059E+03  0.28311065748E+04  0.91163794077E+02 0.  0.
         11    1    3    3    0    0  0.86268022176E+03 -0.50320850579E+03  0.33981392274E+03  0.10549452438E+04  0.00000000000E+00 0. -1.
        -11    1    3    3    0    0  0.14645533254E+04 -0.89177503784E+03  0.46321691785E+03  0.17761613310E+04  0.00000000000E+00 0.  1.
         22    1    1    2    0    0 -0.23272335471E+04  0.13949835436E+04  0.15880210706E+04  0.31438520943E+04  0.00000000000E+00 0. -1.
<mgrwt>
<rscale>  0 0.54756736E+04</rscale>
<asrwt>0</asrwt>
<pdfrwt beam="1">  1        2 0.64353928E+00 0.54756736E+04</pdfrwt>
<pdfrwt beam="2">  1       -2 0.27568514E+00 0.54756736E+04</pdfrwt>
<totfact> 0.74954657E-03</totfact>
</mgrwt>
</event>
<event>
 6    1  0.9512547E-007  0.3338756E+04  0.7818608E-02  0.8153103E-01
         -1   -1    0    0    0  501 -0.00000000000E+00  0.00000000000E+00  0.84199233937E+03  0.84199233937E+03  0.00000000000E+00 0.  1.
          1   -1    0    0  501    0  0.00000000000E+00 -0.00000000000E+00 -0.33097964434E+04  0.33097964434E+04  0.00000000000E+00 0. -1.
         23    2    1    2    0    0 -0.13787440639E+04  0.76522679704E+03 -0.19113542330E+04  0.24796214157E+04  0.93488590578E+02 0.  0.
         11    1    3    3    0    0 -0.10021748540E+04  0.51603715123E+03 -0.13274405828E+04  0.17414784754E+04  0.00000000000E+00 0.  1.
        -11    1    3    3    0    0 -0.37656920991E+03  0.24918964581E+03 -0.58391365020E+03  0.73814294031E+03  0.00000000000E+00 0. -1.
         22    1    1    2    0    0  0.13787440639E+04 -0.76522679704E+03 -0.55644987107E+03  0.16721673671E+04  0.00000000000E+00 0.  1.
<mgrwt>
<rscale>  0 0.33387562E+04</rscale>
<asrwt>0</asrwt>
<pdfrwt beam="1">  1        1 0.50919944E+00 0.33387562E+04</pdfrwt>
<pdfrwt beam="2">  1       -1 0.12953729E+00 0.33387562E+04</pdfrwt>
<totfact> 0.14836826E-01</totfact>
</mgrwt>
</event>
<event>
 6    1  0.9512547E-007  0.3858555E+04  0.7818608E-02  0.8033705E-01
          2   -1    0    0  501    0  0.00000000000E+00  0.00000000000E+00  0.17145809797E+04  0.17145809797E+04  0.00000000000E+00 0. -1.
         -2   -1    0    0    0  501 -0.00000000000E+00 -0.00000000000E+00 -0.21708581806E+04  0.21708581806E+04  0.00000000000E+00 0.  1.
         23    2    1    2    0    0 -0.97066865051E+03 -0.26351487942E+03  0.14282488788E+04  0.17493033347E+04  0.92355704233E+02 0.  0.
         13    1    3    3    0    0 -0.69092853920E+03 -0.14961990722E+03  0.10366852314E+04  0.12547846954E+04  0.00000000000E+00 0. -1.
        -13    1    3    3    0    0 -0.27974011131E+03 -0.11389497220E+03  0.39156364740E+03  0.49451863922E+03  0.00000000000E+00 0.  1.
         22    1    1    2    0    0  0.97066865051E+03  0.26351487942E+03 -0.18845260797E+04  0.21361358257E+04  0.00000000000E+00 0.  1.
<mgrwt>
<rscale>  0 0.38585552E+04</rscale>
<asrwt>0</asrwt>
<pdfrwt beam="1">  1        2 0.26378169E+00 0.38585552E+04</pdfrwt>
<pdfrwt beam="2">  1       -2 0.33397818E+00 0.38585552E+04</pdfrwt>
<totfact> 0.15057375E-01</totfact>
</mgrwt>
</event>
<event>
 6    1  0.9512547E-007  0.2135408E+04  0.7818608E-02  0.8545804E-01
          2   -1    0    0  501    0  0.00000000000E+00  0.00000000000E+00  0.42172751399E+04  0.42172751399E+04  0.00000000000E+00 0. -1.
         -2   -1    0    0    0  501 -0.00000000000E+00 -0.00000000000E+00 -0.27031467840E+03  0.27031467840E+03  0.00000000000E+00 0.  1.
         23    2    1    2    0    0 -0.44056743662E+03  0.92909391814E+03  0.25657385985E+04  0.27656464366E+04  0.92035219321E+02 0.  0.
         13    1    3    3    0    0 -0.36682798846E+03  0.68084832213E+03  0.19300213531E+04  0.20792064915E+04  0.00000000000E+00 0.  1.
        -13    1    3    3    0    0 -0.73739448155E+02  0.24824559601E+03  0.63571724536E+03  0.68643994508E+03  0.00000000000E+00 0. -1.
         22    1    1    2    0    0  0.44056743662E+03 -0.92909391814E+03  0.13812218630E+04  0.17219433817E+04  0.00000000000E+00 0.  1.
<mgrwt>
<rscale>  0 0.21354076E+04</rscale>
<asrwt>0</asrwt>
<pdfrwt beam="1">  1        2 0.64881151E+00 0.21354076E+04</pdfrwt>
<pdfrwt beam="2">  1       -2 0.41586877E-01 0.21354076E+04</pdfrwt>
<totfact> 0.11423779E+00</totfact>
</mgrwt>
</event>
<event>
 6    1  0.9512547E-007  0.1072453E+04  0.7818608E-02  0.9232465E-01
          1   -1    0    0  501    0  0.00000000000E+00  0.00000000000E+00  0.26255755557E+04  0.26255755557E+04  0.00000000000E+00 0. -1.
         -1   -1    0    0    0  501 -0.00000000000E+00 -0.00000000000E+00 -0.10951463937E+03  0.10951463937E+03  0.00000000000E+00 0.  1.
         23    2    1    2    0    0 -0.94820863481E+02 -0.50353134893E+03  0.89967066677E+03  0.10394333152E+04  0.92084159856E+02 0.  0.
         11    1    3    3    0    0 -0.43844767930E+02 -0.25483804308E+03  0.36228308446E+03  0.44509979236E+03  0.00000000000E+00 0. -1.
        -11    1    3    3    0    0 -0.50976095551E+02 -0.24869330586E+03  0.53738758231E+03  0.59433352279E+03  0.00000000000E+00 0.  1.
         22    1    1    2    0    0  0.94820863481E+02  0.50353134893E+03  0.16163902495E+04  0.16956568799E+04  0.00000000000E+00 0. -1.
<mgrwt>
<rscale>  0 0.10724532E+04</rscale>
<asrwt>0</asrwt>
<pdfrwt beam="1">  1        1 0.40393466E+00 0.10724532E+04</pdfrwt>
<pdfrwt beam="2">  1       -1 0.16848408E-01 0.10724532E+04</pdfrwt>
<totfact> 0.30416859E+01</totfact>
</mgrwt>
</event>
<event>
 6    1  0.9512547E-007  0.7850332E+03  0.7818608E-02  0.9581937E-01
          2   -1    0    0  501    0  0.00000000000E+00  0.00000000000E+00  0.61466221866E+03  0.61466221866E+03  0.00000000000E+00 0. -1.
         -2   -1    0    0    0  501 -0.00000000000E+00 -0.00000000000E+00 -0.25065682982E+03  0.25065682982E+03  0.00000000000E+00 0.  1.
         23    2    1    2    0    0 -0.14085885497E+02 -0.23872508442E+03 -0.15143148191E+03  0.29710848377E+03  0.90298833378E+02 0.  0.
         11    1    3    3    0    0 -0.48132116541E+02 -0.18959216620E+03 -0.12134210579E+03  0.23018643915E+03  0.00000000000E+00 0.  1.
        -11    1    3    3    0    0  0.34046231044E+02 -0.49132918221E+02 -0.30089376120E+02  0.66922044623E+02  0.00000000000E+00 0. -1.
         22    1    1    2    0    0  0.14085885497E+02  0.23872508442E+03  0.51543687076E+03  0.56821056470E+03  0.00000000000E+00 0. -1.
<mgrwt>
<rscale>  0 0.78503320E+03</rscale>
<asrwt>0</asrwt>
<pdfrwt beam="1">  1        2 0.94563417E-01 0.78503320E+03</pdfrwt>
<pdfrwt beam="2">  1       -2 0.38562590E-01 0.78503320E+03</pdfrwt>
<totfact> 0.30782952E+02</totfact>
</mgrwt>
</event>
<event>
 6    1  0.9512547E-007  0.1918580E+04  0.7818608E-02  0.8645663E-01
          1   -1    0    0  501    0  0.00000000000E+00  0.00000000000E+00  0.11546663815E+04  0.11546663815E+04  0.00000000000E+00 0. -1.
         -1   -1    0    0    0  501 -0.00000000000E+00 -0.00000000000E+00 -0.79697269447E+03  0.79697269447E+03  0.00000000000E+00 0.  1.
         23    2    1    2    0    0  0.76969175152E+03 -0.25149440793E+03 -0.33983427222E+03  0.88289210708E+03  0.91303398603E+02 0.  0.
         13    1    3    3    0    0  0.38834819072E+03 -0.17466240377E+03 -0.18217115124E+03  0.46314965278E+03  0.00000000000E+00 0. -1.
        -13    1    3    3    0    0  0.38134356080E+03 -0.76832004156E+02 -0.15766312098E+03  0.41974245430E+03  0.00000000000E+00 0.  1.
         22    1    1    2    0    0 -0.76969175152E+03  0.25149440793E+03  0.69752795925E+03  0.10687469689E+04  0.00000000000E+00 0. -1.
<mgrwt>
<rscale>  0 0.19185803E+04</rscale>
<asrwt>0</asrwt>
<pdfrwt beam="1">  1        1 0.17764098E+00 0.19185803E+04</pdfrwt>
<pdfrwt beam="2">  1       -1 0.12261118E+00 0.19185803E+04</pdfrwt>
<totfact> 0.63295666E+00</totfact>
</mgrwt>
</event>
<event>
 6    1  0.9512547E-007  0.3204678E+04  0.7818608E-02  0.8187583E-01
          2   -1    0    0  501    0  0.00000000000E+00  0.00000000000E+00  0.25695596275E+04  0.25695596275E+04  0.00000000000E+00 0. -1.
         -2   -1    0    0    0  501 -0.00000000000E+00 -0.00000000000E+00 -0.99919495198E+03  0.99919495198E+03  0.00000000000E+00 0.  1.
         23    2    1    2    0    0 -0.15839902518E+04 -0.69239791070E+02  0.10343243856E+04  0.18950884064E+04  0.87828622855E+02 0.  0.
         11    1    3    3    0    0 -0.24029352264E+03 -0.16887979256E+02  0.19508810610E+03  0.30997669268E+03  0.00000000000E+00 0. -1.
        -11    1    3    3    0    0 -0.13436967292E+04 -0.52351811813E+02  0.83923627950E+03  0.15851117137E+04  0.00000000000E+00 0.  1.
         22    1    1    2    0    0  0.15839902518E+04  0.69239791070E+02  0.53604028991E+03  0.16736661731E+04  0.00000000000E+00 0.  1.
<mgrwt>
<rscale>  0 0.32046785E+04</rscale>
<asrwt>0</asrwt>
<pdfrwt beam="1">  1        2 0.39531686E+00 0.32046785E+04</pdfrwt>
<pdfrwt beam="2">  1       -2 0.15372230E+00 0.32046785E+04</pdfrwt>
<totfact> 0.74896849E-01</totfact>
</mgrwt>
</event>
<event>
 6    1  0.9512547E-007  0.2621694E+04  0.7818608E-02  0.8360869E-01
         -2   -1    0    0    0  501 -0.00000000000E+00  0.00000000000E+00  0.68920346548E+03  0.68920346548E+03  0.00000000000E+00 0.  1.
          2   -1    0    0  501    0  0.00000000000E+00 -0.00000000000E+00 -0.24931966844E+04  0.24931966844E+04  0.00000000000E+00 0. -1.
         23    2    1    2    0    0 -0.10264377053E+03  0.80598724454E+03  0.34259119542E+03  0.88719300675E+03  0.97936316304E+02 0.  0.
         11    1    3    3    0    0 -0.76338293199E+02  0.33852388254E+03  0.18448846860E+03  0.39301647434E+03  0.00000000000E+00 0.  1.
        -11    1    3    3    0    0 -0.26305477331E+02  0.46746336201E+03  0.15810272682E+03  0.49417653241E+03  0.00000000000E+00 0. -1.
         22    1    1    2    0    0  0.10264377053E+03 -0.80598724454E+03 -0.21465844144E+04  0.22952071432E+04  0.00000000000E+00 0. -1.
<mgrwt>
<rscale>  0 0.26216940E+04</rscale>
<asrwt>0</asrwt>
<pdfrwt beam="1">  1        2 0.38356873E+00 0.26216940E+04</pdfrwt>
<pdfrwt beam="2">  1       -2 0.10603130E+00 0.26216940E+04</pdfrwt>
<totfact> 0.22266106E+00</totfact>
</mgrwt>
</event>
<event>
 6    1  0.9512547E-007  0.4910237E+03  0.7818608E-02  0.1016149E+00
         -1   -1    0    0    0  501 -0.00000000000E+00  0.00000000000E+00  0.89717894657E+02  0.89717894657E+02  0.00000000000E+00 0.  1.
          1   -1    0    0  501    0  0.00000000000E+00 -0.00000000000E+00 -0.67184009912E+03  0.67184009912E+03  0.00000000000E+00 0. -1.
         23    2    1    2    0    0  0.23190015736E+03 -0.17691230119E+02 -0.23480776898E+03  0.34356519515E+03  0.93870614897E+02 0.  0.
         11    1    3    3    0    0  0.17862087783E+03 -0.48426017727E+02 -0.14694294457E+03  0.23631065602E+03  0.00000000000E+00 0.  1.
        -11    1    3    3    0    0  0.53279279532E+02  0.30734787608E+02 -0.87864824406E+02  0.10725453913E+03  0.00000000000E+00 0. -1.
         22    1    1    2    0    0 -0.23190015736E+03  0.17691230119E+02 -0.34731443549E+03  0.41799279863E+03  0.00000000000E+00 0. -1.
<mgrwt>
<rscale>  0 0.49102374E+03</rscale>
<asrwt>0</asrwt>
<pdfrwt beam="1">  1        1 0.10336002E+00 0.49102374E+03</pdfrwt>
<pdfrwt beam="2">  1       -1 0.13802752E-01 0.49102374E+03</pdfrwt>
<totfact> 0.10982853E+03</totfact>
</mgrwt>
</event>
<event>
 6    1  0.9512547E-007  0.4880090E+04  0.7818608E-02  0.7847275E-01
         -1   -1    0    0    0  501 -0.00000000000E+00  0.00000000000E+00  0.16455187052E+04  0.16455187052E+04  0.00000000000E+00 0.  1.
          1   -1    0    0  501    0  0.00000000000E+00 -0.00000000000E+00 -0.36182019785E+04  0.36182019785E+04  0.00000000000E+00 0. -1.
         23    2    1    2    0    0 -0.12197238296E+04  0.43616816348E+03  0.12428838581E+04  0.17970449181E+04  0.81493960268E+02 0.  0.
         11    1    3    3    0    0 -0.36474419831E+03  0.17040188477E+03  0.38812234417E+03  0.55920844645E+03  0.00000000000E+00 0.  1.
        -11    1    3    3    0    0 -0.85497963128E+03  0.26576627871E+03  0.85476151390E+03  0.12378364716E+04  0.00000000000E+00 0. -1.
         22    1    1    2    0    0  0.12197238296E+04 -0.43616816348E+03 -0.32155671314E+04  0.34666757656E+04  0.00000000000E+00 0. -1.
<mgrwt>
<rscale>  0 0.48800898E+04</rscale>
<asrwt>0</asrwt>
<pdfrwt beam="1">  1        1 0.55664644E+00 0.48800898E+04</pdfrwt>
<pdfrwt beam="2">  1       -1 0.25315673E+00 0.48800898E+04</pdfrwt>
<totfact> 0.97299238E-03</totfact>
</mgrwt>
</event>
<event>
 6    1  0.9512547E-007  0.5323814E+03  0.7818608E-02  0.1005656E+00
          1   -1    0    0  501    0  0.00000000000E+00  0.00000000000E+00  0.14753361894E+04  0.14753361894E+04  0.00000000000E+00 0. -1.
         -1   -1    0    0    0  501 -0.00000000000E+00 -0.00000000000E+00 -0.48028023269E+02  0.48028023269E+02  0.00000000000E+00 0.  1.
         23    2    1    2    0    0 -0.10945927413E+03  0.23442004374E+03  0.73602899487E+03  0.78525786382E+03  0.89202812731E+02 0.  0.
         13    1    3    3    0    0 -0.85104253423E+02  0.16610345364E+03  0.62795053506E+03  0.65509920297E+03  0.00000000000E+00 0.  1.
        -13    1    3    3    0    0 -0.24355020707E+02  0.68316590103E+02  0.10807845982E+03  0.13015866085E+03  0.00000000000E+00 0. -1.
         22    1    1    2    0    0  0.10945927413E+03 -0.23442004374E+03  0.69127917131E+03  0.73810634890E+03  0.00000000000E+00 0. -1.
<mgrwt>
<rscale>  0 0.53238137E+03</rscale>
<asrwt>0</asrwt>
<pdfrwt beam="1">  1        1 0.22697476E+00 0.53238137E+03</pdfrwt>
<pdfrwt beam="2">  1       -1 0.73889278E-02 0.53238137E+03</pdfrwt>
<totfact> 0.71028181E+02</totfact>
</mgrwt>
</event>
<event>
 6    1  0.9512547E-007  0.2243693E+04  0.7818608E-02  0.8500459E-01
          2   -1    0    0  501    0  0.00000000000E+00  0.00000000000E+00  0.13590228469E+04  0.13590228469E+04  0.00000000000E+00 0. -1.
         -2   -1    0    0    0  501 -0.00000000000E+00 -0.00000000000E+00 -0.92606239883E+03  0.92606239883E+03  0.00000000000E+00 0.  1.
         23    2    1    2    0    0  0.72828050996E+03 -0.43911011983E+03 -0.52516245057E+03  0.10039881817E+04  0.94796999027E+02 0.  0.
         11    1    3    3    0    0  0.43739038689E+03 -0.29854378031E+03 -0.36679980269E+03  0.64419006090E+03  0.00000000000E+00 0. -1.
        -11    1    3    3    0    0  0.29089012307E+03 -0.14056633952E+03 -0.15836264788E+03  0.35979812082E+03  0.00000000000E+00 0.  1.
         22    1    1    2    0    0 -0.72828050996E+03  0.43911011983E+03  0.95812289866E+03  0.12810970640E+04  0.00000000000E+00 0. -1.
<mgrwt>
<rscale>  0 0.22436933E+04</rscale>
<asrwt>0</asrwt>
<pdfrwt beam="1">  1        2 0.20908044E+00 0.22436933E+04</pdfrwt>
<pdfrwt beam="2">  1       -2 0.14247114E+00 0.22436933E+04</pdfrwt>
<totfact> 0.47754122E+00</totfact>
</mgrwt>
</event>
<event>
 6    1  0.9512547E-007  0.4349867E+04  0.7818608E-02  0.7937461E-01
          2   -1    0    0  501    0  0.00000000000E+00  0.00000000000E+00  0.22316268445E+04  0.22316268445E+04  0.00000000000E+00 0. -1.
         -2   -1    0    0    0  501 -0.00000000000E+00 -0.00000000000E+00 -0.21196801941E+04  0.21196801941E+04  0.00000000000E+00 0.  1.
         23    2    1    2    0    0  0.95263120517E+03 -0.79474792586E+03 -0.17297704858E+04  0.21307097117E+04  0.93206563414E+02 0.  0.
         13    1    3    3    0    0  0.75133195585E+03 -0.59418823982E+03 -0.12809285828E+04  0.15994803552E+04  0.00000000000E+00 0. -1.
        -13    1    3    3    0    0  0.20129924932E+03 -0.20055968604E+03 -0.44884190295E+03  0.53122935657E+03  0.00000000000E+00 0.  1.
         22    1    1    2    0    0 -0.95263120517E+03  0.79474792586E+03  0.18417171361E+04  0.22205973269E+04  0.00000000000E+00 0. -1.
<mgrwt>
<rscale>  0 0.43498668E+04</rscale>
<asrwt>0</asrwt>
<pdfrwt beam="1">  1        2 0.34332721E+00 0.43498668E+04</pdfrwt>
<pdfrwt beam="2">  1       -2 0.32610464E+00 0.43498668E+04</pdfrwt>
<totfact> 0.83424846E-02</totfact>
</mgrwt>
</event>
<event>
 6    1  0.9512547E-007  0.3280100E+04  0.7818608E-02  0.8167978E-01
         -1   -1    0    0    0  501 -0.00000000000E+00  0.00000000000E+00  0.12934294649E+04  0.12934294649E+04  0.00000000000E+00 0.  1.
          1   -1    0    0  501    0  0.00000000000E+00 -0.00000000000E+00 -0.20795595381E+04  0.20795595381E+04  0.00000000000E+00 0. -1.
         23    2    1    2    0    0 -0.13925398276E+04  0.44914666575E+03 -0.11524165758E+04  0.18646569107E+04  0.89339417976E+02 0.  0.
         11    1    3    3    0    0 -0.10512827841E+04  0.29944905949E+03 -0.84735269295E+03  0.13830660930E+04  0.00000000000E+00 0.  1.
        -11    1    3    3    0    0 -0.34125704348E+03  0.14969760626E+03 -0.30506388284E+03  0.48159081767E+03  0.00000000000E+00 0. -1.
         22    1    1    2    0    0  0.13925398276E+04 -0.44914666575E+03  0.36628650265E+03  0.15083320923E+04  0.00000000000E+00 0.  1.
<mgrwt>
<rscale>  0 0.32800997E+04</rscale>
<asrwt>0</asrwt>
<pdfrwt beam="1">  1        1 0.31993223E+00 0.32800997E+04</pdfrwt>
<pdfrwt beam="2">  1       -1 0.19898915E+00 0.32800997E+04</pdfrwt>
<totfact> 0.33444499E-01</totfact>
</mgrwt>
</event>
<event>
 6    1  0.9512547E-007  0.6755973E+03  0.7818608E-02  0.9759899E-01
         -2   -1    0    0    0  501 -0.00000000000E+00  0.00000000000E+00  0.90375650560E+02  0.90375650560E+02  0.00000000000E+00 0.  1.
          2   -1    0    0  501    0  0.00000000000E+00 -0.00000000000E+00 -0.12625960481E+04  0.12625960481E+04  0.00000000000E+00 0. -1.
         23    2    1    2    0    0 -0.97662808083E+02  0.37685020475E+02 -0.12268816960E+04  0.12348783356E+04  0.93421747894E+02 0.  0.
         13    1    3    3    0    0 -0.19139595359E+02  0.47467331078E+02 -0.72423024263E+03  0.72603644259E+03  0.00000000000E+00 0.  1.
        -13    1    3    3    0    0 -0.78523212724E+02 -0.97823106030E+01 -0.50265145334E+03  0.50884189301E+03  0.00000000000E+00 0. -1.
         22    1    1    2    0    0  0.97662808083E+02 -0.37685020475E+02  0.54661298435E+02  0.11809336305E+03  0.00000000000E+00 0.  1.
<mgrwt>
<rscale>  0 0.67559733E+03</rscale>
<asrwt>0</asrwt>
<pdfrwt beam="1">  1        2 0.19424552E+00 0.67559733E+03</pdfrwt>
<pdfrwt beam="2">  1       -2 0.13903948E-01 0.67559733E+03</pdfrwt>
<totfact> 0.70013158E+02</totfact>
</mgrwt>
</event>
<event>
 6    1  0.9512547E-007  0.2672142E+04  0.7818608E-02  0.8344101E-01
         -2   -1    0    0    0  501 -0.00000000000E+00  0.00000000000E+00  0.94601741733E+03  0.94601741733E+03  0.00000000000E+00 0.  1.
          2   -1    0    0  501    0  0.00000000000E+00 -0.00000000000E+00 -0.18869480633E+04  0.18869480633E+04  0.00000000000E+00 0. -1.
         23    2    1    2    0    0 -0.44099343201E+03 -0.39529133764E+03 -0.17389247555E+04  0.18392225322E+04  0.90276070651E+02 0.  0.
         13    1    3    3    0    0 -0.19159911570E+03 -0.23122215977E+03 -0.89874917040E+03  0.94758850753E+03  0.00000000000E+00 0.  1.
        -13    1    3    3    0    0 -0.24939431631E+03 -0.16406917787E+03 -0.84017558511E+03  0.89163402467E+03  0.00000000000E+00 0. -1.
         22    1    1    2    0    0  0.44099343201E+03  0.39529133764E+03  0.79799410954E+03  0.99374294843E+03  0.00000000000E+00 0.  1.
<mgrwt>
<rscale>  0 0.26721420E+04</rscale>
<asrwt>0</asrwt>
<pdfrwt beam="1">  1        2 0.29029970E+00 0.26721420E+04</pdfrwt>
<pdfrwt beam="2">  1       -2 0.14554114E+00 0.26721420E+04</pdfrwt>
<totfact> 0.22032579E+00</totfact>
</mgrwt>
</event>
<event>
 6    1  0.9512547E-007  0.2711404E+04  0.7818608E-02  0.8331314E-01
          2   -1    0    0  501    0  0.00000000000E+00  0.00000000000E+00  0.19751117788E+04  0.19751117788E+04  0.00000000000E+00 0. -1.
         -2   -1    0    0    0  501 -0.00000000000E+00 -0.00000000000E+00 -0.93054350590E+03  0.93054350590E+03  0.00000000000E+00 0.  1.
         23    2    1    2    0    0  0.12898282591E+04 -0.10993391358E+03  0.94888971082E+03  0.16076195415E+04  0.91140021594E+02 0.  0.
         11    1    3    3    0    0  0.49655402463E+03 -0.43322533405E+02  0.42083499697E+03  0.65233797679E+03  0.00000000000E+00 0. -1.
        -11    1    3    3    0    0  0.79327423446E+03 -0.66611380179E+02  0.52805471385E+03  0.95528156470E+03  0.00000000000E+00 0.  1.
         22    1    1    2    0    0 -0.12898282591E+04  0.10993391358E+03  0.95678562027E+02  0.12980357432E+04  0.00000000000E+00 0.  1.
<mgrwt>
<rscale>  0 0.27114037E+04</rscale>
<asrwt>0</asrwt>
<pdfrwt beam="1">  1        2 0.30386335E+00 0.27114037E+04</pdfrwt>
<pdfrwt beam="2">  1       -2 0.14316054E+00 0.27114037E+04</pdfrwt>
<totfact> 0.20486356E+00</totfact>
</mgrwt>
</event>
<event>
 6    1  0.9512547E-007  0.2360864E+04  0.7818608E-02  0.8454303E-01
         -2   -1    0    0    0  501 -0.00000000000E+00  0.00000000000E+00  0.86001967652E+03  0.86001967652E+03  0.00000000000E+00 0.  1.
          2   -1    0    0  501    0  0.00000000000E+00 -0.00000000000E+00 -0.16202183787E+04  0.16202183787E+04  0.00000000000E+00 0. -1.
         23    2    1    2    0    0  0.11291771739E+04  0.21136720653E+03 -0.10342784306E+03  0.11569598731E+04  0.90231054315E+02 0.  0.
         13    1    3    3    0    0  0.61249506306E+03  0.15623448220E+03 -0.38103474713E+02  0.63325452267E+03  0.00000000000E+00 0.  1.
        -13    1    3    3    0    0  0.51668211080E+03  0.55132724335E+02 -0.65324368343E+02  0.52370535038E+03  0.00000000000E+00 0. -1.
         22    1    1    2    0    0 -0.11291771739E+04 -0.21136720653E+03 -0.65677085911E+03  0.13232781821E+04  0.00000000000E+00 0. -1.
<mgrwt>
<rscale>  0 0.23608640E+04</rscale>
<asrwt>0</asrwt>
<pdfrwt beam="1">  1        2 0.24926436E+00 0.23608640E+04</pdfrwt>
<pdfrwt beam="2">  1       -2 0.13231072E+00 0.23608640E+04</pdfrwt>
<totfact> 0.40712270E+00</totfact>
</mgrwt>
</event>
<event>
 6    1  0.9512547E-007  0.2719954E+04  0.7818608E-02  0.8328560E-01
         -1   -1    0    0    0  501 -0.00000000000E+00  0.00000000000E+00  0.15622022790E+04  0.15622022790E+04  0.00000000000E+00 0.  1.
          1   -1    0    0  501    0  0.00000000000E+00 -0.00000000000E+00 -0.11839292374E+04  0.11839292374E+04  0.00000000000E+00 0. -1.
         23    2    1    2    0    0  0.83448264825E+03  0.27380378165E+03  0.12352359864E+04  0.15190556059E+04  0.10194209487E+03 0.  0.
         11    1    3    3    0    0  0.56526241146E+03  0.14066172433E+03  0.77531936331E+03  0.96975637643E+03  0.00000000000E+00 0. -1.
        -11    1    3    3    0    0  0.26922023678E+03  0.13314205733E+03  0.45991662312E+03  0.54929922951E+03  0.00000000000E+00 0.  1.
         22    1    1    2    0    0 -0.83448264825E+03 -0.27380378165E+03 -0.85696294482E+03  0.12270759104E+04  0.00000000000E+00 0. -1.
<mgrwt>
<rscale>  0 0.27199536E+04</rscale>
<asrwt>0</asrwt>
<pdfrwt beam="1">  1        1 0.18214296E+00 0.27199536E+04</pdfrwt>
<pdfrwt beam="2">  1       -1 0.24033881E+00 0.27199536E+04</pdfrwt>
<totfact> 0.77194831E-01</totfact>
</mgrwt>
</event>
<event>
 6    1  0.9512547E-007  0.3521676E+04  0.7818608E-02  0.8108672E-01
          2   -1    0    0  501    0  0.00000000000E+00  0.00000000000E+00  0.33034878236E+04  0.33034878236E+04  0.00000000000E+00 0. -1.
         -2   -1    0    0    0  501 -0.00000000000E+00 -0.00000000000E+00 -0.93856895407E+03  0.93856895407E+03  0.00000000000E+00 0.  1.
         23    2    1    2    0    0  0.75917761153E+03  0.44669896180E+03 -0.65074178563E+03  0.11003852806E+04  0.10720207963E+03 0.  0.
         11    1    3    3    0    0  0.23341746045E+03  0.15571756630E+03 -0.26747739682E+03  0.38765426491E+03  0.00000000000E+00 0. -1.
        -11    1    3    3    0    0  0.52576015108E+03  0.29098139551E+03 -0.38326438882E+03  0.71273101569E+03  0.00000000000E+00 0.  1.
         22    1    1    2    0    0 -0.75917761153E+03 -0.44669896180E+03  0.30156606552E+04  0.31416714971E+04  0.00000000000E+00 0. -1.
<mgrwt>
<rscale>  0 0.35216764E+04</rscale>
<asrwt>0</asrwt>
<pdfrwt beam="1">  1        2 0.50822889E+00 0.35216764E+04</pdfrwt>
<pdfrwt beam="2">  1       -2 0.14439523E+00 0.35216764E+04</pdfrwt>
<totfact> 0.30069448E-01</totfact>
</mgrwt>
</event>
<event>
 6    1  0.9512547E-007  0.2130274E+04  0.7818608E-02  0.8548023E-01
          2   -1    0    0  501    0  0.00000000000E+00  0.00000000000E+00  0.25712718061E+04  0.25712718061E+04  0.00000000000E+00 0. -1.
         -2   -1    0    0    0  501 -0.00000000000E+00 -0.00000000000E+00 -0.44122786876E+03  0.44122786876E+03  0.00000000000E+00 0.  1.
         23    2    1    2    0    0 -0.11785340499E+03 -0.92861707595E+03  0.17798047398E+04  0.20130565328E+04  0.92046691729E+02 0.  0.
         13    1    3    3    0    0 -0.10129265466E+03 -0.45117940266E+03  0.84444319867E+03  0.96276028743E+03  0.00000000000E+00 0.  1.
        -13    1    3    3    0    0 -0.16560750327E+02 -0.47743767330E+03  0.93536154114E+03  0.10502962453E+04  0.00000000000E+00 0. -1.
         22    1    1    2    0    0  0.11785340499E+03  0.92861707595E+03  0.35023919755E+03  0.99944314211E+03  0.00000000000E+00 0.  1.
<mgrwt>
<rscale>  0 0.21302740E+04</rscale>
<asrwt>0</asrwt>
<pdfrwt beam="1">  1        2 0.39558027E+00 0.21302740E+04</pdfrwt>
<pdfrwt beam="2">  1       -2 0.67881212E-01 0.21302740E+04</pdfrwt>
<totfact> 0.57828765E+00</totfact>
</mgrwt>
</event>
<event>
 6    1  0.9512547E-007  0.9695426E+03  0.7818608E-02  0.9342595E-01
         -2   -1    0    0    0  501 -0.00000000000E+00  0.00000000000E+00  0.13276190522E+03  0.13276190522E+03  0.00000000000E+00 0.  1.
          2   -1    0    0  501    0  0.00000000000E+00 -0.00000000000E+00 -0.17701103401E+04  0.17701103401E+04  0.00000000000E+00 0. -1.
         23    2    1    2    0    0 -0.44344226240E+03  0.18763269295E+02 -0.46482078711E+03  0.64915210704E+03  0.91361882543E+02 0.  0.
         13    1    3    3    0    0 -0.20803800834E+03 -0.31218767069E+02 -0.18562175023E+03  0.28055277309E+03  0.00000000000E+00 0.  1.
        -13    1    3    3    0    0 -0.23540425406E+03  0.49982036364E+02 -0.27919903688E+03  0.36859933395E+03  0.00000000000E+00 0. -1.
         22    1    1    2    0    0  0.44344226240E+03 -0.18763269295E+02 -0.11725276478E+04  0.12537201383E+04  0.00000000000E+00 0. -1.
<mgrwt>
<rscale>  0 0.96954262E+03</rscale>
<asrwt>0</asrwt>
<pdfrwt beam="1">  1        2 0.27232468E+00 0.96954262E+03</pdfrwt>
<pdfrwt beam="2">  1       -2 0.20424908E-01 0.96954262E+03</pdfrwt>
<totfact> 0.18490779E+02</totfact>
</mgrwt>
</event>
<event>
 6    1  0.9512547E-007  0.2932407E+04  0.7818608E-02  0.8263300E-01
          1   -1    0    0  501    0  0.00000000000E+00  0.00000000000E+00  0.18278272780E+04  0.18278272780E+04  0.00000000000E+00 0. -1.
         -1   -1    0    0    0  501 -0.00000000000E+00 -0.00000000000E+00 -0.11761242578E+04  0.11761242578E+04  0.00000000000E+00 0.  1.
         23    2    1    2    0    0  0.66978209322E+03 -0.22984347938E+03 -0.98701941220E+03  0.12187772339E+04  0.98866315786E+02 0.  0.
         11    1    3    3    0    0  0.33690824371E+03 -0.63405324425E+02 -0.47167083575E+03  0.58309585588E+03  0.00000000000E+00 0. -1.
        -11    1    3    3    0    0  0.33287384951E+03 -0.16643815495E+03 -0.51534857645E+03  0.63568137802E+03  0.00000000000E+00 0.  1.
         22    1    1    2    0    0 -0.66978209322E+03  0.22984347938E+03  0.16387224324E+04  0.17851743019E+04  0.00000000000E+00 0. -1.
<mgrwt>
<rscale>  0 0.29324065E+04</rscale>
<asrwt>0</asrwt>
<pdfrwt beam="1">  1        1 0.28120420E+00 0.29324065E+04</pdfrwt>
<pdfrwt beam="2">  1       -1 0.18094219E+00 0.29324065E+04</pdfrwt>
<totfact> 0.68408900E-01</totfact>
</mgrwt>
</event>
<event>
 6    1  0.9512547E-007  0.1600400E+04  0.7818608E-02  0.8820302E-01
         -1   -1    0    0    0  501 -0.00000000000E+00  0.00000000000E+00  0.16889951296E+04  0.16889951296E+04  0.00000000000E+00 0.  1.
          1   -1    0    0  501    0  0.00000000000E+00 -0.00000000000E+00 -0.37911300781E+03  0.37911300781E+03  0.00000000000E+00 0. -1.
         23    2    1    2    0    0  0.20186740513E+02 -0.79738982486E+03  0.66110665540E+03  0.10399312834E+04  0.90316261975E+02 0.  0.
         13    1    3    3    0    0  0.26509947673E+02 -0.23519121175E+03  0.24349358098E+03  0.33956856066E+03  0.00000000000E+00 0. -1.
        -13    1    3    3    0    0 -0.63232071605E+01 -0.56219861311E+03  0.41761307442E+03  0.70036272278E+03  0.00000000000E+00 0.  1.
         22    1    1    2    0    0 -0.20186740513E+02  0.79738982486E+03  0.64877546643E+03  0.10281768540E+04  0.00000000000E+00 0.  1.
<mgrwt>
<rscale>  0 0.16004000E+04</rscale>
<asrwt>0</asrwt>
<pdfrwt beam="1">  1        1 0.58325079E-01 0.16004000E+04</pdfrwt>
<pdfrwt beam="2">  1       -1 0.25984540E+00 0.16004000E+04</pdfrwt>
<totfact> 0.37206339E+00</totfact>
</mgrwt>
</event>
<event>
 6    1  0.9512547E-007  0.1666634E+04  0.7818608E-02  0.8780626E-01
         -1   -1    0    0    0  501 -0.00000000000E+00  0.00000000000E+00  0.10428915192E+04  0.10428915192E+04  0.00000000000E+00 0.  1.
          1   -1    0    0  501    0  0.00000000000E+00 -0.00000000000E+00 -0.66585792315E+03  0.66585792315E+03  0.00000000000E+00 0. -1.
         23    2    1    2    0    0  0.19256010203E+03  0.36496459462E+03 -0.55022013478E+03  0.69382184416E+03  0.91476808496E+02 0.  0.
         11    1    3    3    0    0  0.95380004136E+02  0.25339952007E+03 -0.39959688515E+03  0.48268657800E+03  0.00000000000E+00 0.  1.
        -11    1    3    3    0    0  0.97180097894E+02  0.11156507455E+03 -0.15062324964E+03  0.21113526616E+03  0.00000000000E+00 0. -1.
         22    1    1    2    0    0 -0.19256010203E+03 -0.36496459462E+03  0.92725373088E+03  0.10149275982E+04  0.00000000000E+00 0.  1.
<mgrwt>
<rscale>  0 0.16666344E+04</rscale>
<asrwt>0</asrwt>
<pdfrwt beam="1">  1        1 0.10243968E+00 0.16666344E+04</pdfrwt>
<pdfrwt beam="2">  1       -1 0.16044485E+00 0.16666344E+04</pdfrwt>
<totfact> 0.81302931E+00</totfact>
</mgrwt>
</event>
<event>
 6    1  0.9512547E-007  0.3655331E+04  0.7818608E-02  0.8077934E-01
         -1   -1    0    0    0  501 -0.00000000000E+00  0.00000000000E+00  0.11482577470E+04  0.11482577470E+04  0.00000000000E+00 0.  1.
          1   -1    0    0  501    0  0.00000000000E+00 -0.00000000000E+00 -0.29090693772E+04  0.29090693772E+04  0.00000000000E+00 0. -1.
         23    2    1    2    0    0  0.15201834439E+04 -0.85801747701E+03 -0.28421401615E+03  0.17709561552E+04  0.91413360545E+02 0.  0.
         13    1    3    3    0    0  0.52550738359E+02 -0.47609520835E+02 -0.26429484353E+01  0.70959366912E+02  0.00000000000E+00 0. -1.
        -13    1    3    3    0    0  0.14676327056E+04 -0.81040795617E+03 -0.28157106772E+03  0.16999967883E+04  0.00000000000E+00 0.  1.
         22    1    1    2    0    0 -0.15201834439E+04  0.85801747701E+03 -0.14765976140E+04  0.22863709690E+04  0.00000000000E+00 0. -1.
<mgrwt>
<rscale>  0 0.36553311E+04</rscale>
<asrwt>0</asrwt>
<pdfrwt beam="1">  1        1 0.44754913E+00 0.36553311E+04</pdfrwt>
<pdfrwt beam="2">  1       -1 0.17665504E+00 0.36553311E+04</pdfrwt>
<totfact> 0.12323383E-01</totfact>
</mgrwt>
</event>
<event>
 6    1  0.9512547E-007  0.2590677E+04  0.7818608E-02  0.8371375E-01
          1   -1    0    0  501    0  0.00000000000E+00  0.00000000000E+00  0.43837445927E+04  0.43837445927E+04  0.00000000000E+00 0. -1.
         -1   -1    0    0    0  501 -0.00000000000E+00 -0.00000000000E+00 -0.38275531110E+03  0.38275531110E+03  0.00000000000E+00 0.  1.
         23    2    1    2    0    0  0.10496311498E+04  0.75254093077E+03  0.21277679111E+04  0.24911973512E+04  0.10307548719E+03 0.  0.
         13    1    3    3    0    0  0.52253720074E+03  0.31357949673E+03  0.10271706905E+04  0.11943436919E+04  0.00000000000E+00 0. -1.
        -13    1    3    3    0    0  0.52709394902E+03  0.43896143404E+03  0.11005972206E+04  0.12968536593E+04  0.00000000000E+00 0.  1.
         22    1    1    2    0    0 -0.10496311498E+04 -0.75254093077E+03  0.18732213705E+04  0.22753025526E+04  0.00000000000E+00 0.  1.
<mgrwt>
<rscale>  0 0.25906768E+04</rscale>
<asrwt>0</asrwt>
<pdfrwt beam="1">  1        1 0.67442221E+00 0.25906768E+04</pdfrwt>
<pdfrwt beam="2">  1       -1 0.58885436E-01 0.25906768E+04</pdfrwt>
<totfact> 0.10902525E-01</totfact>
</mgrwt>
</event>
<event>
 6    1  0.9512547E-007  0.2184407E+03  0.7818608E-02  0.1135051E+00
          3   -1    0    0  501    0  0.00000000000E+00  0.00000000000E+00  0.25222414474E+02  0.25222414474E+02  0.00000000000E+00 0. -1.
         -3   -1    0    0    0  501 -0.00000000000E+00 -0.00000000000E+00 -0.47295552246E+03  0.47295552246E+03  0.00000000000E+00 0.  1.
         23    2    1    2    0    0  0.86081690679E+02  0.63294122571E+01 -0.20564592383E+03  0.24116368895E+03  0.91758160150E+02 0.  0.
         11    1    3    3    0    0  0.82522765347E+01  0.40215573622E+02 -0.64389320933E+02  0.76363453824E+02  0.00000000000E+00 0.  1.
        -11    1    3    3    0    0  0.77829414144E+02 -0.33886161365E+02 -0.14125660289E+03  0.16480023513E+03  0.00000000000E+00 0. -1.
         22    1    1    2    0    0 -0.86081690679E+02 -0.63294122571E+01 -0.24208718416E+03  0.25701424798E+03  0.00000000000E+00 0.  1.
<mgrwt>
<rscale>  0 0.21844066E+03</rscale>
<asrwt>0</asrwt>
<pdfrwt beam="1">  1        3 0.38803712E-02 0.21844066E+03</pdfrwt>
<pdfrwt beam="2">  1       -3 0.72762393E-01 0.21844066E+03</pdfrwt>
<totfact> 0.15437844E+03</totfact>
</mgrwt>
</event>
<event>
 6    1  0.9512547E-007  0.1680755E+04  0.7818608E-02  0.8772417E-01
         -2   -1    0    0    0  501 -0.00000000000E+00  0.00000000000E+00  0.15398192025E+04  0.15398192025E+04  0.00000000000E+00 0.  1.
          2   -1    0    0  501    0  0.00000000000E+00 -0.00000000000E+00 -0.45864734644E+03  0.45864734644E+03  0.00000000000E+00 0. -1.
         23    2    1    2    0    0  0.36978043068E+03 -0.10601033870E+03 -0.34299180962E+03  0.52326557772E+03  0.90486046101E+02 0.  0.
         13    1    3    3    0    0  0.25945053480E+03 -0.62636279841E+02 -0.18083741018E+03  0.32239735185E+03  0.00000000000E+00 0.  1.
        -13    1    3    3    0    0  0.11032989588E+03 -0.43374058863E+02 -0.16215439944E+03  0.20086822587E+03  0.00000000000E+00 0. -1.
         22    1    1    2    0    0 -0.36978043068E+03  0.10601033870E+03  0.14241636657E+04  0.14752009712E+04  0.00000000000E+00 0.  1.
<mgrwt>
<rscale>  0 0.16807546E+04</rscale>
<asrwt>0</asrwt>
<pdfrwt beam="1">  1        2 0.70561131E-01 0.16807546E+04</pdfrwt>
<pdfrwt beam="2">  1       -2 0.23689526E+00 0.16807546E+04</pdfrwt>
<totfact> 0.50198638E+00</totfact>
</mgrwt>
</event>
<event>
 6    1  0.9512547E-007  0.1595932E+04  0.7818608E-02  0.8823051E-01
          2   -1    0    0  501    0  0.00000000000E+00  0.00000000000E+00  0.17250443549E+04  0.17250443549E+04  0.00000000000E+00 0. -1.
         -2   -1    0    0    0  501 -0.00000000000E+00 -0.00000000000E+00 -0.36912087886E+03  0.36912087886E+03  0.00000000000E+00 0.  1.
         23    2    1    2    0    0  0.77800398444E+03 -0.14296102364E+03  0.79012544102E+03  0.11216142220E+04  0.89399084508E+02 0.  0.
         11    1    3    3    0    0  0.45025940857E+03 -0.11756393218E+03  0.50167810034E+03  0.68427752376E+03  0.00000000000E+00 0. -1.
        -11    1    3    3    0    0  0.32774457586E+03 -0.25397091456E+02  0.28844734068E+03  0.43733669822E+03  0.00000000000E+00 0.  1.
         22    1    1    2    0    0 -0.77800398444E+03  0.14296102364E+03  0.56579803501E+03  0.97255101177E+03  0.00000000000E+00 0. -1.
<mgrwt>
<rscale>  0 0.15959322E+04</rscale>
<asrwt>0</asrwt>
<pdfrwt beam="1">  1        2 0.26539144E+00 0.15959322E+04</pdfrwt>
<pdfrwt beam="2">  1       -2 0.56787828E-01 0.15959322E+04</pdfrwt>
<totfact> 0.26489726E+01</totfact>
</mgrwt>
</event>
<event>
 6    1  0.9512547E-007  0.2356820E+04  0.7818608E-02  0.8455849E-01
         -2   -1    0    0    0  501 -0.00000000000E+00  0.00000000000E+00  0.59998077111E+03  0.59998077111E+03  0.00000000000E+00 0.  1.
          2   -1    0    0  501    0  0.00000000000E+00 -0.00000000000E+00 -0.23144902808E+04  0.23144902808E+04  0.00000000000E+00 0. -1.
         23    2    1    2    0    0 -0.10278307982E+04 -0.44321301871E+03 -0.41413260649E+03  0.11987047450E+04  0.11186295212E+03 0.  0.
         11    1    3    3    0    0 -0.41801983473E+03 -0.21294505841E+03 -0.12420490960E+03  0.48529685729E+03  0.00000000000E+00 0. -1.
        -11    1    3    3    0    0 -0.60981096351E+03 -0.23026796030E+03 -0.28992769688E+03  0.71340788766E+03  0.00000000000E+00 0.  1.
         22    1    1    2    0    0  0.10278307982E+04  0.44321301871E+03 -0.13003769032E+04  0.17157663070E+04  0.00000000000E+00 0. -1.
<mgrwt>
<rscale>  0 0.23568196E+04</rscale>
<asrwt>0</asrwt>
<pdfrwt beam="1">  1        2 0.35607543E+00 0.23568196E+04</pdfrwt>
<pdfrwt beam="2">  1       -2 0.92304734E-01 0.23568196E+04</pdfrwt>
<totfact> 0.40005183E+00</totfact>
</mgrwt>
</event>
<event>
 6    1  0.9512547E-007  0.8176750E+03  0.7818608E-02  0.9534780E-01
          2   -1    0    0  501    0  0.00000000000E+00  0.00000000000E+00  0.35499873770E+03  0.35499873770E+03  0.00000000000E+00 0. -1.
         -2   -1    0    0    0  501 -0.00000000000E+00 -0.00000000000E+00 -0.47084137460E+03  0.47084137460E+03  0.00000000000E+00 0.  1.
         23    2    1    2    0    0  0.28144440751E+03 -0.28189678252E+03  0.78524828942E+01  0.40873433055E+03  0.91243306425E+02 0.  0.
         11    1    3    3    0    0  0.25420831736E+03 -0.21501330860E+03  0.26953583751E+02  0.33403455984E+03  0.00000000000E+00 0. -1.
        -11    1    3    3    0    0  0.27236090152E+02 -0.66883473915E+02 -0.19101100857E+02  0.74699770707E+02  0.00000000000E+00 0.  1.
         22    1    1    2    0    0 -0.28144440751E+03  0.28189678252E+03 -0.12369511979E+03  0.41710578175E+03  0.00000000000E+00 0.  1.
<mgrwt>
<rscale>  0 0.81767498E+03</rscale>
<asrwt>0</asrwt>
<pdfrwt beam="1">  1        2 0.54615191E-01 0.81767498E+03</pdfrwt>
<pdfrwt beam="2">  1       -2 0.72437134E-01 0.81767498E+03</pdfrwt>
<totfact> 0.15796310E+02</totfact>
</mgrwt>
</event>
<event>
 6    1  0.9512547E-007  0.2827355E+04  0.7818608E-02  0.8294826E-01
          1   -1    0    0  501    0  0.00000000000E+00  0.00000000000E+00  0.20246049479E+04  0.20246049479E+04  0.00000000000E+00 0. -1.
         -1   -1    0    0    0  501 -0.00000000000E+00 -0.00000000000E+00 -0.98709838091E+03  0.98709838091E+03  0.00000000000E+00 0.  1.
         23    2    1    2    0    0  0.45275962869E+01 -0.70329262449E+03  0.18237737186E+04  0.19567829297E+04  0.90597144229E+02 0.  0.
         13    1    3    3    0    0 -0.33131573718E+02 -0.53368691412E+03  0.13391108639E+04  0.14419214019E+04  0.00000000000E+00 0. -1.
        -13    1    3    3    0    0  0.37659170005E+02 -0.16960571037E+03  0.48466285470E+03  0.51486152779E+03  0.00000000000E+00 0.  1.
         22    1    1    2    0    0 -0.45275962869E+01  0.70329262449E+03 -0.78626715160E+03  0.10549203991E+04  0.00000000000E+00 0.  1.
<mgrwt>
<rscale>  0 0.28273551E+04</rscale>
<asrwt>0</asrwt>
<pdfrwt beam="1">  1        1 0.31147768E+00 0.28273551E+04</pdfrwt>
<pdfrwt beam="2">  1       -1 0.15186129E+00 0.28273551E+04</pdfrwt>
<totfact> 0.83566580E-01</totfact>
</mgrwt>
</event>
<event>
 6    1  0.9512547E-007  0.3983106E+04  0.7818608E-02  0.8007963E-01
          2   -1    0    0  501    0  0.00000000000E+00  0.00000000000E+00  0.32935680053E+04  0.32935680053E+04  0.00000000000E+00 0. -1.
         -2   -1    0    0    0  501 -0.00000000000E+00 -0.00000000000E+00 -0.12042512644E+04  0.12042512644E+04  0.00000000000E+00 0.  1.
         23    2    1    2    0    0 -0.10131654442E+02 -0.48839329327E+03  0.32242196371E+04  0.32622484530E+04  0.89677427970E+02 0.  0.
         13    1    3    3    0    0 -0.37180916810E+02 -0.15408035535E+03  0.88082522418E+03  0.89497276609E+03  0.00000000000E+00 0.  1.
        -13    1    3    3    0    0  0.27049262369E+02 -0.33431293791E+03  0.23433944130E+04  0.23672756869E+04  0.00000000000E+00 0. -1.
         22    1    1    2    0    0  0.10131654442E+02  0.48839329327E+03 -0.11349028962E+04  0.12355708167E+04  0.00000000000E+00 0.  1.
<mgrwt>
<rscale>  0 0.39831060E+04</rscale>
<asrwt>0</asrwt>
<pdfrwt beam="1">  1        2 0.50670277E+00 0.39831060E+04</pdfrwt>
<pdfrwt beam="2">  1       -2 0.18526943E+00 0.39831060E+04</pdfrwt>
<totfact> 0.14808045E-01</totfact>
</mgrwt>
</event>
<event>
 6    1  0.9512547E-007  0.1388727E+04  0.7818608E-02  0.8962019E-01
         -1   -1    0    0    0  501 -0.00000000000E+00  0.00000000000E+00  0.28822418745E+03  0.28822418745E+03  0.00000000000E+00 0.  1.
          1   -1    0    0  501    0  0.00000000000E+00 -0.00000000000E+00 -0.16727984683E+04  0.16727984683E+04  0.00000000000E+00 0. -1.
         23    2    1    2    0    0 -0.28528407896E+03  0.20328504728E+03 -0.15369202243E+04  0.15790264480E+04  0.92135397382E+02 0.  0.
         13    1    3    3    0    0 -0.25610685592E+03  0.17461901266E+03 -0.11901989323E+04  0.12299008170E+04  0.00000000000E+00 0. -1.
        -13    1    3    3    0    0 -0.29177223047E+02  0.28666034622E+02 -0.34672129206E+03  0.34912563105E+03  0.00000000000E+00 0.  1.
         22    1    1    2    0    0  0.28528407896E+03 -0.20328504728E+03  0.15234594354E+03  0.38199620767E+03  0.00000000000E+00 0.  1.
<mgrwt>
<rscale>  0 0.13887274E+04</rscale>
<asrwt>0</asrwt>
<pdfrwt beam="1">  1        1 0.25735360E+00 0.13887274E+04</pdfrwt>
<pdfrwt beam="2">  1       -1 0.44342184E-01 0.13887274E+04</pdfrwt>
<totfact> 0.24440477E+01</totfact>
</mgrwt>
</event>
<event>
 6    1  0.9512547E-007  0.1440718E+04  0.7818608E-02  0.8924861E-01
         -2   -1    0    0    0  501 -0.00000000000E+00  0.00000000000E+00  0.33661773370E+03  0.33661773370E+03  0.00000000000E+00 0.  1.
          2   -1    0    0  501    0  0.00000000000E+00 -0.00000000000E+00 -0.15415620308E+04  0.15415620308E+04  0.00000000000E+00 0. -1.
         23    2    1    2    0    0 -0.32485201732E+03 -0.61033225690E+03 -0.85448758975E+03  0.11030319072E+04  0.92174021266E+02 0.  0.
         11    1    3    3    0    0 -0.28951428133E+03 -0.52952776045E+03 -0.69233941910E+03  0.91845089113E+03  0.00000000000E+00 0. -1.
        -11    1    3    3    0    0 -0.35337735994E+02 -0.80804496455E+02 -0.16214817065E+03  0.18458101603E+03  0.00000000000E+00 0.  1.
         22    1    1    2    0    0  0.32485201732E+03  0.61033225690E+03 -0.35045670731E+03  0.77514785730E+03  0.00000000000E+00 0.  1.
<mgrwt>
<rscale>  0 0.14407180E+04</rscale>
<asrwt>0</asrwt>
<pdfrwt beam="1">  1        2 0.23716339E+00 0.14407180E+04</pdfrwt>
<pdfrwt beam="2">  1       -2 0.51787344E-01 0.14407180E+04</pdfrwt>
<totfact> 0.41090603E+01</totfact>
</mgrwt>
</event>
<event>
 6    1  0.9512547E-007  0.9295693E+03  0.7818608E-02  0.9389355E-01
         -2   -1    0    0    0  501 -0.00000000000E+00  0.00000000000E+00  0.92509990516E+03  0.92509990516E+03  0.00000000000E+00 0.  1.
          2   -1    0    0  501    0  0.00000000000E+00 -0.00000000000E+00 -0.23351506462E+03  0.23351506462E+03  0.00000000000E+00 0. -1.
         23    2    1    2    0    0  0.43049509055E+03 -0.75038149083E+02  0.52704286836E+03  0.69167727863E+03  0.98420149777E+02 0.  0.
         13    1    3    3    0    0  0.24049200341E+03 -0.67713656347E+02  0.36228881850E+03  0.44008491336E+03  0.00000000000E+00 0.  1.
        -13    1    3    3    0    0  0.19000308714E+03 -0.73244927361E+01  0.16475404987E+03  0.25159236528E+03  0.00000000000E+00 0. -1.
         22    1    1    2    0    0 -0.43049509055E+03  0.75038149083E+02  0.16454197217E+03  0.46693769114E+03  0.00000000000E+00 0.  1.
<mgrwt>
<rscale>  0 0.92956929E+03</rscale>
<asrwt>0</asrwt>
<pdfrwt beam="1">  1        2 0.35925395E-01 0.92956929E+03</pdfrwt>
<pdfrwt beam="2">  1       -2 0.14232306E+00 0.92956929E+03</pdfrwt>
<totfact> 0.50048115E+01</totfact>
</mgrwt>
</event>
<event>
 6    1  0.9512547E-007  0.2032034E+04  0.7818608E-02  0.8591788E-01
          2   -1    0    0  501    0  0.00000000000E+00  0.00000000000E+00  0.17068547601E+04  0.17068547601E+04  0.00000000000E+00 0. -1.
         -2   -1    0    0    0  501 -0.00000000000E+00 -0.00000000000E+00 -0.60479136404E+03  0.60479136404E+03  0.00000000000E+00 0.  1.
         23    2    1    2    0    0  0.63212193155E+03 -0.52434895071E+03 -0.12427687555E+03  0.83569544060E+03  0.91772377072E+02 0.  0.
         13    1    3    3    0    0  0.50106160799E+03 -0.37140189175E+03 -0.73828238597E+02  0.62805470224E+03  0.00000000000E+00 0. -1.
        -13    1    3    3    0    0  0.13106032356E+03 -0.15294705896E+03 -0.50448636950E+02  0.20764073836E+03  0.00000000000E+00 0.  1.
         22    1    1    2    0    0 -0.63212193155E+03  0.52434895071E+03  0.12263402716E+04  0.14759506836E+04  0.00000000000E+00 0. -1.
<mgrwt>
<rscale>  0 0.20320345E+04</rscale>
<asrwt>0</asrwt>
<pdfrwt beam="1">  1        2 0.26259304E+00 0.20320345E+04</pdfrwt>
<pdfrwt beam="2">  1       -2 0.93044826E-01 0.20320345E+04</pdfrwt>
<totfact> 0.88131467E+00</totfact>
</mgrwt>
</event>
<event>
 6    1  0.9512547E-007  0.1264495E+04  0.7818608E-02  0.9058204E-01
         -1   -1    0    0    0  501 -0.00000000000E+00  0.00000000000E+00  0.18064142305E+03  0.18064142305E+03  0.00000000000E+00 0.  1.
          1   -1    0    0  501    0  0.00000000000E+00 -0.00000000000E+00 -0.22128760853E+04  0.22128760853E+04  0.00000000000E+00 0. -1.
         23    2    1    2    0    0 -0.21814238541E+03  0.32528657397E+03 -0.19530340917E+04  0.19939299887E+04  0.89538711372E+02 0.  0.
         11    1    3    3    0    0 -0.11245995949E+03  0.23393317883E+03 -0.11598450167E+04  0.11885337343E+04  0.00000000000E+00 0. -1.
        -11    1    3    3    0    0 -0.10568242592E+03  0.91353395136E+02 -0.79318907502E+03  0.80539625445E+03  0.00000000000E+00 0.  1.
         22    1    1    2    0    0  0.21814238541E+03 -0.32528657397E+03 -0.79200570565E+02  0.39958751969E+03  0.00000000000E+00 0.  1.
<mgrwt>
<rscale>  0 0.12644953E+04</rscale>
<asrwt>0</asrwt>
<pdfrwt beam="1">  1        1 0.34044248E+00 0.12644953E+04</pdfrwt>
<pdfrwt beam="2">  1       -1 0.27790987E-01 0.12644953E+04</pdfrwt>
<totfact> 0.24600196E+01</totfact>
</mgrwt>
</event>
<event>
 6    1  0.9512547E-007  0.4881132E+04  0.7818608E-02  0.7847110E-01
         -2   -1    0    0    0  501 -0.00000000000E+00  0.00000000000E+00  0.35083869273E+04  0.35083869273E+04  0.00000000000E+00 0.  1.
          2   -1    0    0  501    0  0.00000000000E+00 -0.00000000000E+00 -0.16977492745E+04  0.16977492745E+04  0.00000000000E+00 0. -1.
         23    2    1    2    0    0 -0.24688449397E+03 -0.17796111810E+04  0.26660434615E+04  0.32162399717E+04  0.91890739030E+02 0.  0.
         13    1    3    3    0    0 -0.13391791907E+03 -0.65514022607E+03  0.96887341529E+03  0.11772248807E+04  0.00000000000E+00 0.  1.
        -13    1    3    3    0    0 -0.11296657491E+03 -0.11244709549E+04  0.16971700462E+04  0.20390150910E+04  0.00000000000E+00 0. -1.
         22    1    1    2    0    0  0.24688449397E+03  0.17796111810E+04 -0.85540580876E+03  0.19898962301E+04  0.00000000000E+00 0. -1.
<mgrwt>
<rscale>  0 0.48811316E+04</rscale>
<asrwt>0</asrwt>
<pdfrwt beam="1">  1        2 0.26119220E+00 0.48811316E+04</pdfrwt>
<pdfrwt beam="2">  1       -2 0.53975183E+00 0.48811316E+04</pdfrwt>
<totfact> 0.70498359E-03</totfact>
</mgrwt>
</event>
<event>
 6    1  0.9512547E-007  0.6814699E+03  0.7818608E-02  0.9749457E-01
         -1   -1    0    0    0  501 -0.00000000000E+00  0.00000000000E+00  0.64968752939E+03  0.64968752939E+03  0.00000000000E+00 0.  1.
          1   -1    0    0  501    0  0.00000000000E+00 -0.00000000000E+00 -0.17870177090E+03  0.17870177090E+03  0.00000000000E+00 0. -1.
         23    2    1    2    0    0  0.27580995354E+03 -0.19412614906E+01  0.46949315520E+03  0.55256847650E+03  0.93985102428E+02 0.  0.
         11    1    3    3    0    0  0.19199422241E+03  0.92222021337E+01  0.39742377553E+03  0.44146629295E+03  0.00000000000E+00 0.  1.
        -11    1    3    3    0    0  0.83815731133E+02 -0.11163463624E+02  0.72069379665E+02  0.11110218355E+03  0.00000000000E+00 0. -1.
         22    1    1    2    0    0 -0.27580995354E+03  0.19412614906E+01  0.14926032910E+01  0.27582082379E+03  0.00000000000E+00 0. -1.
<mgrwt>
<rscale>  0 0.68146992E+03</rscale>
<asrwt>0</asrwt>
<pdfrwt beam="1">  1        1 0.27492580E-01 0.68146992E+03</pdfrwt>
<pdfrwt beam="2">  1       -1 0.99951927E-01 0.68146992E+03</pdfrwt>
<totfact> 0.16714656E+02</totfact>
</mgrwt>
</event>
<event>
 6    1  0.9512547E-007  0.3994312E+04  0.7818608E-02  0.8005695E-01
         -2   -1    0    0    0  501 -0.00000000000E+00  0.00000000000E+00  0.11117525786E+04  0.11117525786E+04  0.00000000000E+00 0.  1.
          2   -1    0    0  501    0  0.00000000000E+00 -0.00000000000E+00 -0.35876978590E+04  0.35876978590E+04  0.00000000000E+00 0. -1.
         23    2    1    2    0    0 -0.28919524184E+02 -0.18700395200E+04 -0.41796234036E+03  0.19185912310E+04  0.91736843399E+02 0.  0.
         13    1    3    3    0    0 -0.37219574121E+02 -0.28596274086E+03 -0.68808758577E+02  0.29647028707E+03  0.00000000000E+00 0.  1.
        -13    1    3    3    0    0  0.83000499370E+01 -0.15840767791E+04 -0.34915358178E+03  0.16221209439E+04  0.00000000000E+00 0. -1.
         22    1    1    2    0    0  0.28919524184E+02  0.18700395200E+04 -0.20579829401E+04  0.27808592066E+04  0.00000000000E+00 0. -1.
<mgrwt>
<rscale>  0 0.39943121E+04</rscale>
<asrwt>0</asrwt>
<pdfrwt beam="1">  1        2 0.55195351E+00 0.39943121E+04</pdfrwt>
<pdfrwt beam="2">  1       -2 0.17103886E+00 0.39943121E+04</pdfrwt>
<totfact> 0.11627835E-01</totfact>
</mgrwt>
</event>
<event>
 6    1  0.9512547E-007  0.3561241E+04  0.7818608E-02  0.8099428E-01
         -1   -1    0    0    0  501 -0.00000000000E+00  0.00000000000E+00  0.15422413364E+04  0.15422413364E+04  0.00000000000E+00 0.  1.
          1   -1    0    0  501    0  0.00000000000E+00 -0.00000000000E+00 -0.20558448516E+04  0.20558448516E+04  0.00000000000E+00 0. -1.
         23    2    1    2    0    0  0.91766464289E+03 -0.11093008152E+04 -0.13137524050E+04  0.19509993836E+04  0.88297892030E+02 0.  0.
         11    1    3    3    0    0  0.20546664649E+03 -0.19358312244E+03 -0.25415218798E+03  0.37984773629E+03  0.00000000000E+00 0. -1.
        -11    1    3    3    0    0  0.71219799640E+03 -0.91571769276E+03 -0.10596002170E+04  0.15711516473E+04  0.00000000000E+00 0.  1.
         22    1    1    2    0    0 -0.91766464289E+03  0.11093008152E+04  0.80014888985E+03  0.16470868044E+04  0.00000000000E+00 0.  1.
<mgrwt>
<rscale>  0 0.35612407E+04</rscale>
<asrwt>0</asrwt>
<pdfrwt beam="1">  1        1 0.31628382E+00 0.35612407E+04</pdfrwt>
<pdfrwt beam="2">  1       -1 0.23726790E+00 0.35612407E+04</pdfrwt>
<totfact> 0.18731587E-01</totfact>
</mgrwt>
</event>
<event>
 6    1  0.9512547E-007  0.2931697E+04  0.7818608E-02  0.8263509E-01
          2   -1    0    0  501    0  0.00000000000E+00  0.00000000000E+00  0.17288984014E+04  0.17288984014E+04  0.00000000000E+00 0. -1.
         -2   -1    0    0    0  501 -0.00000000000E+00 -0.00000000000E+00 -0.12428211374E+04  0.12428211374E+04  0.00000000000E+00 0.  1.
         23    2    1    2    0    0  0.63217397829E+03 -0.89830654404E+03  0.12247358102E+04  0.16480069439E+04  0.96697964682E+02 0.  0.
         11    1    3    3    0    0  0.49250579725E+03 -0.75918248611E+03  0.10264439592E+04  0.13683958524E+04  0.00000000000E+00 0. -1.
        -11    1    3    3    0    0  0.13966818104E+03 -0.13912405793E+03  0.19829185099E+03  0.27961109145E+03  0.00000000000E+00 0.  1.
         22    1    1    2    0    0 -0.63217397829E+03  0.89830654404E+03 -0.73865854627E+03  0.13237125949E+04  0.00000000000E+00 0.  1.
<mgrwt>
<rscale>  0 0.29316968E+04</rscale>
<asrwt>0</asrwt>
<pdfrwt beam="1">  1        2 0.26598437E+00 0.29316968E+04</pdfrwt>
<pdfrwt beam="2">  1       -2 0.19120325E+00 0.29316968E+04</pdfrwt>
<totfact> 0.12379089E+00</totfact>
</mgrwt>
</event>
<event>
 6    1  0.9512547E-007  0.2977311E+04  0.7818608E-02  0.8250240E-01
          2   -1    0    0  501    0  0.00000000000E+00  0.00000000000E+00  0.11060534190E+04  0.11060534190E+04  0.00000000000E+00 0. -1.
         -2   -1    0    0    0  501 -0.00000000000E+00 -0.00000000000E+00 -0.20036054959E+04  0.20036054959E+04  0.00000000000E+00 0.  1.
         23    2    1    2    0    0 -0.12601792951E+04  0.27847711068E+03 -0.12211863478E+04  0.17791174843E+04  0.91441620707E+02 0.  0.
         11    1    3    3    0    0 -0.53698287415E+03  0.16419866956E+03 -0.54213123187E+03  0.78052423587E+03  0.00000000000E+00 0.  1.
        -11    1    3    3    0    0 -0.72319642096E+03  0.11427844112E+03 -0.67905511595E+03  0.99859324848E+03  0.00000000000E+00 0. -1.
         22    1    1    2    0    0  0.12601792951E+04 -0.27847711068E+03  0.32363427097E+03  0.13305414305E+04  0.00000000000E+00 0. -1.
<mgrwt>
<rscale>  0 0.29773107E+04</rscale>
<asrwt>0</asrwt>
<pdfrwt beam="1">  1        2 0.17016207E+00 0.29773107E+04</pdfrwt>
<pdfrwt beam="2">  1       -2 0.30824700E+00 0.29773107E+04</pdfrwt>
<totfact> 0.52397237E-01</totfact>
</mgrwt>
</event>
<event>
 6    1  0.9512547E-007  0.2027965E+04  0.7818608E-02  0.8593657E-01
         -2   -1    0    0    0  501 -0.00000000000E+00  0.00000000000E+00  0.13600513453E+04  0.13600513453E+04  0.00000000000E+00 0.  1.
          2   -1    0    0  501    0  0.00000000000E+00 -0.00000000000E+00 -0.75597171136E+03  0.75597171136E+03  0.00000000000E+00 0. -1.
         23    2    1    2    0    0 -0.60041638973E+03 -0.61932449277E+03 -0.24958953991E+03  0.90242768471E+03  0.89543951789E+02 0.  0.
         13    1    3    3    0    0 -0.39802351665E+03 -0.38785121021E+03 -0.11885952987E+03  0.56831229875E+03  0.00000000000E+00 0. -1.
        -13    1    3    3    0    0 -0.20239287308E+03 -0.23147328256E+03 -0.13073001004E+03  0.33411538597E+03  0.00000000000E+00 0.  1.
         22    1    1    2    0    0  0.60041638973E+03  0.61932449277E+03  0.85366917383E+03  0.12135953719E+04  0.00000000000E+00 0.  1.
<mgrwt>
<rscale>  0 0.20279648E+04</rscale>
<asrwt>0</asrwt>
<pdfrwt beam="1">  1        2 0.11630334E+00 0.20279648E+04</pdfrwt>
<pdfrwt beam="2">  1       -2 0.20923867E+00 0.20279648E+04</pdfrwt>
<totfact> 0.39821679E+00</totfact>
</mgrwt>
</event>
<event>
 6    1  0.9512547E-007  0.4053402E+04  0.7818608E-02  0.7993860E-01
          1   -1    0    0  501    0  0.00000000000E+00  0.00000000000E+00  0.33014479127E+04  0.33014479127E+04  0.00000000000E+00 0. -1.
         -1   -1    0    0    0  501 -0.00000000000E+00 -0.00000000000E+00 -0.12441560494E+04  0.12441560494E+04  0.00000000000E+00 0.  1.
         23    2    1    2    0    0 -0.46618468402E+03 -0.10817476007E+04  0.28772403855E+04  0.31103960990E+04  0.92442552993E+02 0.  0.
         11    1    3    3    0    0 -0.41518761683E+03 -0.87359880039E+03  0.23558106974E+04  0.25466447854E+04  0.00000000000E+00 0. -1.
        -11    1    3    3    0    0 -0.50997067189E+02 -0.20814880031E+03  0.52142968809E+03  0.56375131357E+03  0.00000000000E+00 0.  1.
         22    1    1    2    0    0  0.46618468402E+03  0.10817476007E+04 -0.81994852224E+03  0.14352078631E+04  0.00000000000E+00 0.  1.
<mgrwt>
<rscale>  0 0.40534017E+04</rscale>
<asrwt>0</asrwt>
<pdfrwt beam="1">  1        1 0.50791506E+00 0.40534017E+04</pdfrwt>
<pdfrwt beam="2">  1       -1 0.19140862E+00 0.40534017E+04</pdfrwt>
<totfact> 0.47893954E-02</totfact>
</mgrwt>
</event>
<event>
 6    1  0.9512547E-007  0.2021521E+04  0.7818608E-02  0.8596624E-01
          1   -1    0    0  501    0  0.00000000000E+00  0.00000000000E+00  0.20962022878E+04  0.20962022878E+04  0.00000000000E+00 0. -1.
         -1   -1    0    0    0  501 -0.00000000000E+00 -0.00000000000E+00 -0.48737530712E+03  0.48737530712E+03  0.00000000000E+00 0.  1.
         23    2    1    2    0    0  0.91561654007E+03 -0.33368315537E+02  0.26712115985E+03  0.95888020692E+03  0.92900184335E+02 0.  0.
         13    1    3    3    0    0  0.40044935048E+03 -0.15744194827E+02  0.16498217300E+03  0.43338975458E+03  0.00000000000E+00 0. -1.
        -13    1    3    3    0    0  0.51516718959E+03 -0.17624120711E+02  0.10213898685E+03  0.52549045233E+03  0.00000000000E+00 0.  1.
         22    1    1    2    0    0 -0.91561654007E+03  0.33368315537E+02  0.13417058208E+04  0.16246973880E+04  0.00000000000E+00 0. -1.
<mgrwt>
<rscale>  0 0.20215214E+04</rscale>
<asrwt>0</asrwt>
<pdfrwt beam="1">  1        1 0.32249265E+00 0.20215214E+04</pdfrwt>
<pdfrwt beam="2">  1       -1 0.74980818E-01 0.20215214E+04</pdfrwt>
<totfact> 0.42461917E+00</totfact>
</mgrwt>
</event>
<event>
 6    1  0.9512547E-007  0.8635468E+03  0.7818608E-02  0.9472333E-01
         -2   -1    0    0    0  501 -0.00000000000E+00  0.00000000000E+00  0.36839216536E+02  0.36839216536E+02  0.00000000000E+00 0.  1.
          2   -1    0    0  501    0  0.00000000000E+00 -0.00000000000E+00 -0.50605928280E+04  0.50605928280E+04  0.00000000000E+00 0. -1.
         23    2    1    2    0    0 -0.24046098873E+03  0.35254151820E+03 -0.25500060565E+04  0.25871464085E+04  0.93212881620E+02 0.  0.
         11    1    3    3    0    0 -0.12088645238E+03  0.25110995514E+03 -0.15336733581E+04  0.15587891818E+04  0.00000000000E+00 0.  1.
        -11    1    3    3    0    0 -0.11957453635E+03  0.10143156306E+03 -0.10163326985E+04  0.10283572267E+04  0.00000000000E+00 0. -1.
         22    1    1    2    0    0  0.24046098873E+03 -0.35254151820E+03 -0.24737475549E+04  0.25102856360E+04  0.00000000000E+00 0. -1.
<mgrwt>
<rscale>  0 0.86354681E+03</rscale>
<asrwt>0</asrwt>
<pdfrwt beam="1">  1        2 0.77855305E+00 0.86354681E+03</pdfrwt>
<pdfrwt beam="2">  1       -2 0.56675696E-02 0.86354681E+03</pdfrwt>
<totfact> 0.55941395E+00</totfact>
</mgrwt>
</event>
<event>
 6    1  0.9512547E-007  0.1338240E+04  0.7818608E-02  0.8999778E-01
          1   -1    0    0  501    0  0.00000000000E+00  0.00000000000E+00  0.32598346670E+03  0.32598346670E+03  0.00000000000E+00 0. -1.
         -1   -1    0    0    0  501 -0.00000000000E+00 -0.00000000000E+00 -0.13734489820E+04  0.13734489820E+04  0.00000000000E+00 0.  1.
         23    2    1    2    0    0 -0.59360856067E+03  0.25461236006E+03 -0.32058777685E+03  0.72703858620E+03  0.92790117774E+02 0.  0.
         11    1    3    3    0    0 -0.22501641782E+03  0.12976762756E+03 -0.91177133104E+02  0.27529129128E+03  0.00000000000E+00 0. -1.
        -11    1    3    3    0    0 -0.36859214285E+03  0.12484473250E+03 -0.22941064375E+03  0.45174729492E+03  0.00000000000E+00 0.  1.
         22    1    1    2    0    0  0.59360856067E+03 -0.25461236006E+03 -0.72687773846E+03  0.97239386252E+03  0.00000000000E+00 0. -1.
<mgrwt>
<rscale>  0 0.13382401E+04</rscale>
<asrwt>0</asrwt>
<pdfrwt beam="1">  1        1 0.50151303E-01 0.13382401E+04</pdfrwt>
<pdfrwt beam="2">  1       -1 0.21129984E+00 0.13382401E+04</pdfrwt>
<totfact> 0.97067679E+00</totfact>
</mgrwt>
</event>
<event>
 6    1  0.9512547E-007  0.2071030E+04  0.7818608E-02  0.8574114E-01
          1   -1    0    0  501    0  0.00000000000E+00  0.00000000000E+00  0.19904906246E+04  0.19904906246E+04  0.00000000000E+00 0. -1.
         -1   -1    0    0    0  501 -0.00000000000E+00 -0.00000000000E+00 -0.53870678249E+03  0.53870678249E+03  0.00000000000E+00 0.  1.
         23    2    1    2    0    0 -0.50714794844E+03 -0.59361911582E+03 -0.99640225891E+02  0.79239018261E+03  0.91494975810E+02 0.  0.
         11    1    3    3    0    0 -0.77085777236E+02 -0.12731819819E+03 -0.46008341553E+02  0.15578481355E+03  0.00000000000E+00 0.  1.
        -11    1    3    3    0    0 -0.43006217121E+03 -0.46630091764E+03 -0.53631884338E+02  0.63660536905E+03  0.00000000000E+00 0. -1.
         22    1    1    2    0    0  0.50714794844E+03  0.59361911582E+03  0.15514240680E+04  0.17368072245E+04  0.00000000000E+00 0. -1.
<mgrwt>
<rscale>  0 0.20710295E+04</rscale>
<asrwt>0</asrwt>
<pdfrwt beam="1">  1        1 0.30622932E+00 0.20710295E+04</pdfrwt>
<pdfrwt beam="2">  1       -1 0.82877968E-01 0.20710295E+04</pdfrwt>
<totfact> 0.40321274E+00</totfact>
</mgrwt>
</event>
<event>
 6    1  0.9512547E-007  0.3038313E+04  0.7818608E-02  0.8232874E-01
          2   -1    0    0  501    0  0.00000000000E+00  0.00000000000E+00  0.18250255578E+04  0.18250255578E+04  0.00000000000E+00 0. -1.
         -2   -1    0    0    0  501 -0.00000000000E+00 -0.00000000000E+00 -0.12645506130E+04  0.12645506130E+04  0.00000000000E+00 0.  1.
         23    2    1    2    0    0  0.91792516512E+03  0.10162781306E+04  0.94602995387E+03  0.16668813643E+04  0.90071979427E+02 0.  0.
         11    1    3    3    0    0  0.55583366477E+03  0.66612970737E+03  0.63110573416E+03  0.10728347019E+04  0.00000000000E+00 0.  1.
        -11    1    3    3    0    0  0.36209150035E+03  0.35014842322E+03  0.31492421970E+03  0.59404666236E+03  0.00000000000E+00 0. -1.
         22    1    1    2    0    0 -0.91792516512E+03 -0.10162781306E+04 -0.38555500900E+03  0.14226948065E+04  0.00000000000E+00 0.  1.
<mgrwt>
<rscale>  0 0.30383135E+04</rscale>
<asrwt>0</asrwt>
<pdfrwt beam="1">  1        2 0.28077316E+00 0.30383135E+04</pdfrwt>
<pdfrwt beam="2">  1       -2 0.19454625E+00 0.30383135E+04</pdfrwt>
<totfact> 0.10307409E+00</totfact>
</mgrwt>
</event>
<event>
 6    1  0.9512547E-007  0.2135250E+04  0.7818608E-02  0.8545872E-01
          1   -1    0    0  501    0  0.00000000000E+00  0.00000000000E+00  0.11180271258E+04  0.11180271258E+04  0.00000000000E+00 0. -1.
         -1   -1    0    0    0  501 -0.00000000000E+00 -0.00000000000E+00 -0.10194954306E+04  0.10194954306E+04  0.00000000000E+00 0.  1.
         23    2    1    2    0    0  0.49496024650E+03 -0.16906703204E+02  0.99382884632E+03  0.11143761979E+04  0.94165027640E+02 0.  0.
         13    1    3    3    0    0  0.30076133863E+03 -0.27101795286E+02  0.50664764481E+03  0.58981668857E+03  0.00000000000E+00 0. -1.
        -13    1    3    3    0    0  0.19419890787E+03  0.10195092082E+02  0.48718120151E+03  0.52455950933E+03  0.00000000000E+00 0.  1.
         22    1    1    2    0    0 -0.49496024650E+03  0.16906703204E+02 -0.89529715108E+03  0.10231463585E+04  0.00000000000E+00 0.  1.
<mgrwt>
<rscale>  0 0.21352504E+04</rscale>
<asrwt>0</asrwt>
<pdfrwt beam="1">  1        1 0.17200417E+00 0.21352504E+04</pdfrwt>
<pdfrwt beam="2">  1       -1 0.15684545E+00 0.21352504E+04</pdfrwt>
<totfact> 0.34805412E+00</totfact>
</mgrwt>
</event>
<event>
 6    1  0.9512547E-007  0.2526812E+04  0.7818608E-02  0.8393495E-01
          2   -1    0    0  501    0  0.00000000000E+00  0.00000000000E+00  0.13401144634E+04  0.13401144634E+04  0.00000000000E+00 0. -1.
         -2   -1    0    0    0  501 -0.00000000000E+00 -0.00000000000E+00 -0.11910887845E+04  0.11910887845E+04  0.00000000000E+00 0.  1.
         23    2    1    2    0    0 -0.89384233924E+03  0.43602898472E+03  0.85275265773E+03  0.13128818355E+04  0.86001255076E+02 0.  0.
         11    1    3    3    0    0 -0.60752822251E+03  0.25160863714E+03  0.55309608235E+03  0.85925125763E+03  0.00000000000E+00 0. -1.
        -11    1    3    3    0    0 -0.28631411673E+03  0.18442034758E+03  0.29965657537E+03  0.45363057790E+03  0.00000000000E+00 0.  1.
         22    1    1    2    0    0  0.89384233924E+03 -0.43602898472E+03 -0.70372697888E+03  0.12183214123E+04  0.00000000000E+00 0.  1.
<mgrwt>
<rscale>  0 0.25268125E+04</rscale>
<asrwt>0</asrwt>
<pdfrwt beam="1">  1        2 0.20617146E+00 0.25268125E+04</pdfrwt>
<pdfrwt beam="2">  1       -2 0.18324443E+00 0.25268125E+04</pdfrwt>
<totfact> 0.24016259E+00</totfact>
</mgrwt>
</event>
<event>
 6    1  0.9512547E-007  0.3951505E+04  0.7818608E-02  0.8014402E-01
         -2   -1    0    0    0  501 -0.00000000000E+00  0.00000000000E+00  0.69374271750E+03  0.69374271750E+03  0.00000000000E+00 0.  1.
          2   -1    0    0  501    0  0.00000000000E+00 -0.00000000000E+00 -0.56268661171E+04  0.56268661171E+04  0.00000000000E+00 0. -1.
         23    2    1    2    0    0  0.34371108502E+03  0.17055022175E+04 -0.39623701932E+04  0.43283144508E+04  0.83984006377E+02 0.  0.
         11    1    3    3    0    0  0.23484935172E+03  0.97080966077E+03 -0.22332669702E+04  0.24464478281E+04  0.00000000000E+00 0. -1.
        -11    1    3    3    0    0  0.10886173330E+03  0.73469255672E+03 -0.17291032230E+04  0.18818666227E+04  0.00000000000E+00 0.  1.
         22    1    1    2    0    0 -0.34371108502E+03 -0.17055022175E+04 -0.97075320638E+03  0.19922943838E+04  0.00000000000E+00 0.  1.
<mgrwt>
<rscale>  0 0.39515047E+04</rscale>
<asrwt>0</asrwt>
<pdfrwt beam="1">  1        2 0.86567173E+00 0.39515047E+04</pdfrwt>
<pdfrwt beam="2">  1       -2 0.10672965E+00 0.39515047E+04</pdfrwt>
<totfact> 0.18495827E-03</totfact>
</mgrwt>
</event>
<event>
 6    1  0.9512547E-007  0.9271453E+03  0.7818608E-02  0.9392270E-01
         -3   -1    0    0    0  501 -0.00000000000E+00  0.00000000000E+00  0.89764913630E+02  0.89764913630E+02  0.00000000000E+00 0.  1.
          3   -1    0    0  501    0  0.00000000000E+00 -0.00000000000E+00 -0.23940269602E+04  0.23940269602E+04  0.00000000000E+00 0. -1.
         23    2    1    2    0    0  0.39960094873E+02  0.44748265279E+03 -0.14166236094E+04  0.14889353370E+04  0.90931036067E+02 0.  0.
         13    1    3    3    0    0 -0.25841095172E+02  0.15751946385E+03 -0.55187104394E+03  0.57449263949E+03  0.00000000000E+00 0.  1.
        -13    1    3    3    0    0  0.65801190045E+02  0.28996318894E+03 -0.86475256551E+03  0.91444269755E+03  0.00000000000E+00 0. -1.
         22    1    1    2    0    0 -0.39960094873E+02 -0.44748265279E+03 -0.88763843711E+03  0.99485653678E+03  0.00000000000E+00 0.  1.
<mgrwt>
<rscale>  0 0.92714535E+03</rscale>
<asrwt>0</asrwt>
<pdfrwt beam="1">  1        3 0.36831188E+00 0.92714535E+03</pdfrwt>
<pdfrwt beam="2">  1       -3 0.13809985E-01 0.92714535E+03</pdfrwt>
<totfact> 0.19635438E+00</totfact>
</mgrwt>
</event>
<event>
 6    1  0.9512547E-007  0.2044792E+04  0.7818608E-02  0.8585961E-01
          2   -1    0    0  501    0  0.00000000000E+00  0.00000000000E+00  0.29023376263E+04  0.29023376263E+04  0.00000000000E+00 0. -1.
         -2   -1    0    0    0  501 -0.00000000000E+00 -0.00000000000E+00 -0.36015573388E+03  0.36015573388E+03  0.00000000000E+00 0.  1.
         23    2    1    2    0    0  0.60063478721E+03 -0.44278411149E+03  0.23839417820E+04  0.24996959758E+04  0.92095791040E+02 0.  0.
         11    1    3    3    0    0  0.10780407006E+03 -0.60674085601E+02  0.50678283830E+03  0.52166263751E+03  0.00000000000E+00 0.  1.
        -11    1    3    3    0    0  0.49283071715E+03 -0.38211002589E+03  0.18771589437E+04  0.19780333383E+04  0.00000000000E+00 0. -1.
         22    1    1    2    0    0 -0.60063478721E+03  0.44278411149E+03  0.15824011041E+03  0.76279738432E+03  0.00000000000E+00 0.  1.
<mgrwt>
<rscale>  0 0.20447920E+04</rscale>
<asrwt>0</asrwt>
<pdfrwt beam="1">  1        2 0.44651347E+00 0.20447920E+04</pdfrwt>
<pdfrwt beam="2">  1       -2 0.55408576E-01 0.20447920E+04</pdfrwt>
<totfact> 0.56843161E+00</totfact>
</mgrwt>
</event>
<event>
 6    1  0.9512547E-007  0.2343752E+04  0.7818608E-02  0.8460867E-01
         -2   -1    0    0    0  501 -0.00000000000E+00  0.00000000000E+00  0.57652365030E+03  0.57652365030E+03  0.00000000000E+00 0.  1.
          2   -1    0    0  501    0  0.00000000000E+00 -0.00000000000E+00 -0.23820252650E+04  0.23820252650E+04  0.00000000000E+00 0. -1.
         23    2    1    2    0    0 -0.10329444230E+04 -0.10304962008E+03 -0.22249470837E+03  0.10655343167E+04  0.90917982770E+02 0.  0.
         11    1    3    3    0    0 -0.62909036103E+03 -0.58661506760E+02 -0.18042375311E+03  0.65707578361E+03  0.00000000000E+00 0. -1.
        -11    1    3    3    0    0 -0.40385406194E+03 -0.44388113323E+02 -0.42070955256E+02  0.40845853306E+03  0.00000000000E+00 0.  1.
         22    1    1    2    0    0  0.10329444230E+04  0.10304962008E+03 -0.15830069063E+04  0.18930145986E+04  0.00000000000E+00 0. -1.
<mgrwt>
<rscale>  0 0.23437525E+04</rscale>
<asrwt>0</asrwt>
<pdfrwt beam="1">  1        2 0.36646542E+00 0.23437525E+04</pdfrwt>
<pdfrwt beam="2">  1       -2 0.88695947E-01 0.23437525E+04</pdfrwt>
<totfact> 0.40190109E+00</totfact>
</mgrwt>
</event>
<event>
 6    1  0.9512547E-007  0.4559687E+03  0.7818608E-02  0.1025957E+00
         -1   -1    0    0    0  501 -0.00000000000E+00  0.00000000000E+00  0.91910432207E+03  0.91910432207E+03  0.00000000000E+00 0.  1.
          1   -1    0    0  501    0  0.00000000000E+00 -0.00000000000E+00 -0.56551641609E+02  0.56551641609E+02  0.00000000000E+00 0. -1.
         23    2    1    2    0    0  0.96032878448E+02 -0.16827603724E+03  0.22879959976E+03  0.31294780336E+03  0.89710268792E+02 0.  0.
         11    1    3    3    0    0  0.23613490734E+02 -0.30288234771E+02  0.29056441484E+01  0.38515151280E+02  0.00000000000E+00 0.  1.
        -11    1    3    3    0    0  0.72419387714E+02 -0.13798780247E+03  0.22589395561E+03  0.27443265209E+03  0.00000000000E+00 0. -1.
         22    1    1    2    0    0 -0.96032878448E+02  0.16827603724E+03  0.63375308070E+03  0.66270816031E+03  0.00000000000E+00 0.  1.
<mgrwt>
<rscale>  0 0.45596868E+03</rscale>
<asrwt>0</asrwt>
<pdfrwt beam="1">  1        1 0.87002532E-02 0.45596868E+03</pdfrwt>
<pdfrwt beam="2">  1       -1 0.14140065E+00 0.45596868E+03</pdfrwt>
<totfact> 0.34007535E+02</totfact>
</mgrwt>
</event>
<event>
 6    1  0.9512547E-007  0.9951069E+03  0.7818608E-02  0.9313928E-01
         -1   -1    0    0    0  501 -0.00000000000E+00  0.00000000000E+00  0.12947580049E+03  0.12947580049E+03  0.00000000000E+00 0.  1.
          1   -1    0    0  501    0  0.00000000000E+00 -0.00000000000E+00 -0.19120131321E+04  0.19120131321E+04  0.00000000000E+00 0. -1.
         23    2    1    2    0    0 -0.35377287208E+03  0.94347587620E+02 -0.15770333790E+04  0.16216215882E+04  0.92550443143E+02 0.  0.
         11    1    3    3    0    0 -0.25253734016E+03  0.10074155352E+03 -0.12495417943E+04  0.12787801470E+04  0.00000000000E+00 0. -1.
        -11    1    3    3    0    0 -0.10123553192E+03 -0.63939659020E+01 -0.32749158478E+03  0.34284144123E+03  0.00000000000E+00 0.  1.
         22    1    1    2    0    0  0.35377287208E+03 -0.94347587620E+02 -0.20550395254E+03  0.41986734431E+03  0.00000000000E+00 0.  1.
<mgrwt>
<rscale>  0 0.99510689E+03</rscale>
<asrwt>0</asrwt>
<pdfrwt beam="1">  1        1 0.29415583E+00 0.99510689E+03</pdfrwt>
<pdfrwt beam="2">  1       -1 0.19919357E-01 0.99510689E+03</pdfrwt>
<totfact> 0.70888904E+01</totfact>
</mgrwt>
</event>
<event>
 6    1  0.9512547E-007  0.4084197E+04  0.7818608E-02  0.7987774E-01
          2   -1    0    0  501    0  0.00000000000E+00  0.00000000000E+00  0.33168479309E+04  0.33168479309E+04  0.00000000000E+00 0. -1.
         -2   -1    0    0    0  501 -0.00000000000E+00 -0.00000000000E+00 -0.12572676350E+04  0.12572676350E+04  0.00000000000E+00 0.  1.
         23    2    1    2    0    0  0.58043017547E+03  0.15337299445E+04 -0.33038977574E+03  0.16756360205E+04  0.96808770135E+02 0.  0.
         13    1    3    3    0    0  0.71752882884E+02  0.28922737036E+03 -0.72298951449E+02  0.30663999470E+03  0.00000000000E+00 0.  1.
        -13    1    3    3    0    0  0.50867729259E+03  0.12445025742E+04 -0.25809082429E+03  0.13689960258E+04  0.00000000000E+00 0. -1.
         22    1    1    2    0    0 -0.58043017547E+03 -0.15337299445E+04  0.23899700717E+04  0.28984795453E+04  0.00000000000E+00 0. -1.
<mgrwt>
<rscale>  0 0.40841966E+04</rscale>
<asrwt>0</asrwt>
<pdfrwt beam="1">  1        2 0.51028429E+00 0.40841966E+04</pdfrwt>
<pdfrwt beam="2">  1       -2 0.19342579E+00 0.40841966E+04</pdfrwt>
<totfact> 0.12486910E-01</totfact>
</mgrwt>
</event>
<event>
 6    1  0.1702372E-006  0.3841150E+04  0.7818608E-02  0.8037381E-01
          2   -1    0    0  501    0  0.00000000000E+00  0.00000000000E+00  0.26088115082E+04  0.26088115082E+04  0.00000000000E+00 0. -1.
         -2   -1    0    0    0  501 -0.00000000000E+00 -0.00000000000E+00 -0.14139039150E+04  0.14139039150E+04  0.00000000000E+00 0.  1.
         23    2    1    2    0    0 -0.28788720003E+03 -0.36918593242E+03 -0.13516485398E+04  0.14334828282E+04  0.93498401375E+02 0.  0.
         11    1    3    3    0    0 -0.82364524768E+02 -0.60740669744E+02 -0.38004882051E+03  0.39358664850E+03  0.00000000000E+00 0.  1.
        -11    1    3    3    0    0 -0.20552267526E+03 -0.30844526268E+03 -0.97159971929E+03  0.10398961797E+04  0.00000000000E+00 0. -1.
         22    1    1    2    0    0  0.28788720003E+03  0.36918593242E+03  0.25465561330E+04  0.25892325950E+04  0.00000000000E+00 0. -1.
<mgrwt>
<rscale>  0 0.38411502E+04</rscale>
<asrwt>0</asrwt>
<pdfrwt beam="1">  1        2 0.40135561E+00 0.38411502E+04</pdfrwt>
<pdfrwt beam="2">  1       -2 0.21752368E+00 0.38411502E+04</pdfrwt>
<totfact> 0.24624041E-01</totfact>
</mgrwt>
</event>
<event>
 6    1  0.9512547E-007  0.1057128E+04  0.7818608E-02  0.9248016E-01
          1   -1    0    0  501    0  0.00000000000E+00  0.00000000000E+00  0.10795800911E+04  0.10795800911E+04  0.00000000000E+00 0. -1.
         -1   -1    0    0    0  501 -0.00000000000E+00 -0.00000000000E+00 -0.25878566753E+03  0.25878566753E+03  0.00000000000E+00 0.  1.
         23    2    1    2    0    0  0.40731488611E+02  0.51632737357E+03  0.31029255713E+03  0.61113459421E+03  0.94609779453E+02 0.  0.
         13    1    3    3    0    0  0.32921856746E+02  0.26914786157E+03  0.21522562817E+03  0.34618851954E+03  0.00000000000E+00 0.  1.
        -13    1    3    3    0    0  0.78096318649E+01  0.24717951200E+03  0.95066928963E+02  0.26494607467E+03  0.00000000000E+00 0. -1.
         22    1    1    2    0    0 -0.40731488611E+02 -0.51632737357E+03  0.51050186644E+03  0.72723116442E+03  0.00000000000E+00 0. -1.
<mgrwt>
<rscale>  0 0.10571279E+04</rscale>
<asrwt>0</asrwt>
<pdfrwt beam="1">  1        1 0.16608924E+00 0.10571279E+04</pdfrwt>
<pdfrwt beam="2">  1       -1 0.39813180E-01 0.10571279E+04</pdfrwt>
<totfact> 0.80579753E+01</totfact>
</mgrwt>
</event>
<event>
 6    1  0.9512547E-007  0.9596762E+03  0.7818608E-02  0.9353912E-01
          2   -1    0    0  501    0  0.00000000000E+00  0.00000000000E+00  0.88412059357E+03  0.88412059357E+03  0.00000000000E+00 0. -1.
         -2   -1    0    0    0  501 -0.00000000000E+00 -0.00000000000E+00 -0.26042214594E+03  0.26042214594E+03  0.00000000000E+00 0.  1.
         23    2    1    2    0    0 -0.15397273680E+03  0.12375927526E+03 -0.20202162241E+03  0.29552118740E+03  0.86579872905E+02 0.  0.
         13    1    3    3    0    0 -0.78301218382E+02  0.91360902245E+02 -0.67917930476E+02  0.13816924600E+03  0.00000000000E+00 0. -1.
        -13    1    3    3    0    0 -0.75671518415E+02  0.32398373012E+02 -0.13410369194E+03  0.15735194140E+03  0.00000000000E+00 0.  1.
         22    1    1    2    0    0  0.15397273680E+03 -0.12375927526E+03  0.82572007004E+03  0.84902155211E+03  0.00000000000E+00 0. -1.
<mgrwt>
<rscale>  0 0.95967616E+03</rscale>
<asrwt>0</asrwt>
<pdfrwt beam="1">  1        2 0.13601855E+00 0.95967616E+03</pdfrwt>
<pdfrwt beam="2">  1       -2 0.40064946E-01 0.95967616E+03</pdfrwt>
<totfact> 0.17714237E+02</totfact>
</mgrwt>
</event>
<event>
 6    1  0.9512547E-007  0.2061185E+04  0.7818608E-02  0.8578537E-01
          1   -1    0    0  501    0  0.00000000000E+00  0.00000000000E+00  0.10071374554E+04  0.10071374554E+04  0.00000000000E+00 0. -1.
         -1   -1    0    0    0  501 -0.00000000000E+00 -0.00000000000E+00 -0.10545933232E+04  0.10545933232E+04  0.00000000000E+00 0.  1.
         23    2    1    2    0    0  0.58296321019E+03  0.75201691071E+03 -0.41418041844E+03  0.10419943252E+04  0.93974551576E+02 0.  0.
         13    1    3    3    0    0  0.92818102124E+02  0.13204856291E+03 -0.33827013493E+02  0.16491297672E+03  0.00000000000E+00 0. -1.
        -13    1    3    3    0    0  0.49014510806E+03  0.61996834780E+03 -0.38035340494E+03  0.87708134850E+03  0.00000000000E+00 0.  1.
         22    1    1    2    0    0 -0.58296321019E+03 -0.75201691071E+03  0.36672455063E+03  0.10197364534E+04  0.00000000000E+00 0.  1.
<mgrwt>
<rscale>  0 0.20611845E+04</rscale>
<asrwt>0</asrwt>
<pdfrwt beam="1">  1        1 0.15494422E+00 0.20611845E+04</pdfrwt>
<pdfrwt beam="2">  1       -1 0.16224513E+00 0.20611845E+04</pdfrwt>
<totfact> 0.38741536E+00</totfact>
</mgrwt>
</event>
<event>
 6    1  0.9512547E-007  0.2129529E+04  0.7818608E-02  0.8548346E-01
         -2   -1    0    0    0  501 -0.00000000000E+00  0.00000000000E+00  0.33230665182E+03  0.33230665182E+03  0.00000000000E+00 0.  1.
          2   -1    0    0  501    0  0.00000000000E+00 -0.00000000000E+00 -0.34116775355E+04  0.34116775355E+04  0.00000000000E+00 0. -1.
         23    2    1    2    0    0  0.24638734608E+03  0.76244530449E+03 -0.27700485590E+04  0.28850838047E+04  0.92249522709E+02 0.  0.
         11    1    3    3    0    0  0.17441474344E+03  0.40530741556E+03 -0.14454601143E+04  0.15113072308E+04  0.00000000000E+00 0. -1.
        -11    1    3    3    0    0  0.71972602639E+02  0.35713788893E+03 -0.13245884447E+04  0.13737765740E+04  0.00000000000E+00 0.  1.
         22    1    1    2    0    0 -0.24638734608E+03 -0.76244530449E+03 -0.30932232465E+03  0.85890038256E+03  0.00000000000E+00 0.  1.
<mgrwt>
<rscale>  0 0.21295287E+04</rscale>
<asrwt>0</asrwt>
<pdfrwt beam="1">  1        2 0.52487346E+00 0.21295287E+04</pdfrwt>
<pdfrwt beam="2">  1       -2 0.51124101E-01 0.21295287E+04</pdfrwt>
<totfact> 0.31228944E+00</totfact>
</mgrwt>
</event>
<event>
 6    1  0.9512547E-007  0.3499489E+04  0.7818608E-02  0.8113911E-01
         -1   -1    0    0    0  501 -0.00000000000E+00  0.00000000000E+00  0.10547073918E+04  0.10547073918E+04  0.00000000000E+00 0.  1.
          1   -1    0    0  501    0  0.00000000000E+00 -0.00000000000E+00 -0.29028017799E+04  0.29028017799E+04  0.00000000000E+00 0. -1.
         23    2    1    2    0    0  0.11956275467E+04  0.90489675436E+03 -0.19419654452E+04  0.24551193615E+04  0.89542853729E+02 0.  0.
         13    1    3    3    0    0  0.96926097567E+03  0.69617763811E+03 -0.15096471193E+04  0.19243608206E+04  0.00000000000E+00 0.  1.
        -13    1    3    3    0    0  0.22636657101E+03  0.20871911625E+03 -0.43231832584E+03  0.53075854097E+03  0.00000000000E+00 0. -1.
         22    1    1    2    0    0 -0.11956275467E+04 -0.90489675436E+03  0.93871057089E+02  0.15023898102E+04  0.00000000000E+00 0.  1.
<mgrwt>
<rscale>  0 0.34994894E+04</rscale>
<asrwt>0</asrwt>
<pdfrwt beam="1">  1        1 0.44658488E+00 0.34994894E+04</pdfrwt>
<pdfrwt beam="2">  1       -1 0.16226268E+00 0.34994894E+04</pdfrwt>
<totfact> 0.16109142E-01</totfact>
</mgrwt>
</event>
<event>
 6    1  0.9512547E-007  0.2085591E+04  0.7818608E-02  0.8567617E-01
         -2   -1    0    0    0  501 -0.00000000000E+00  0.00000000000E+00  0.63711547901E+03  0.63711547901E+03  0.00000000000E+00 0.  1.
          2   -1    0    0  501    0  0.00000000000E+00 -0.00000000000E+00 -0.17067907275E+04  0.17067907275E+04  0.00000000000E+00 0. -1.
         23    2    1    2    0    0  0.47375379300E+03  0.91186841336E+03 -0.71943638333E+03  0.12582663388E+04  0.98482536608E+02 0.  0.
         13    1    3    3    0    0  0.41524712578E+02  0.10129688660E+03 -0.43661704350E+02  0.11786307910E+03  0.00000000000E+00 0.  1.
        -13    1    3    3    0    0  0.43222908043E+03  0.81057152676E+03 -0.67577467898E+03  0.11404032597E+04  0.00000000000E+00 0. -1.
         22    1    1    2    0    0 -0.47375379300E+03 -0.91186841336E+03 -0.35023886512E+03  0.10856398677E+04  0.00000000000E+00 0.  1.
<mgrwt>
<rscale>  0 0.20855913E+04</rscale>
<asrwt>0</asrwt>
<pdfrwt beam="1">  1        2 0.26258319E+00 0.20855913E+04</pdfrwt>
<pdfrwt beam="2">  1       -2 0.98017765E-01 0.20855913E+04</pdfrwt>
<totfact> 0.77683043E+00</totfact>
</mgrwt>
</event>
<event>
 6    1  0.9512547E-007  0.1442008E+04  0.7818608E-02  0.8923960E-01
         -2   -1    0    0    0  501 -0.00000000000E+00  0.00000000000E+00  0.14331597440E+04  0.14331597440E+04  0.00000000000E+00 0.  1.
          2   -1    0    0  501    0  0.00000000000E+00 -0.00000000000E+00 -0.36272748122E+03  0.36272748122E+03  0.00000000000E+00 0. -1.
         23    2    1    2    0    0 -0.30395161291E+03 -0.63603769980E+03  0.70754961886E+03  0.10030351887E+04  0.92317864616E+02 0.  0.
         13    1    3    3    0    0 -0.22851656467E+03 -0.43901173405E+03  0.43934300053E+03  0.66179558406E+03  0.00000000000E+00 0. -1.
        -13    1    3    3    0    0 -0.75435048237E+02 -0.19702596575E+03  0.26820661833E+03  0.34123960467E+03  0.00000000000E+00 0.  1.
         22    1    1    2    0    0  0.30395161291E+03  0.63603769980E+03  0.36288264397E+03  0.79285203654E+03  0.00000000000E+00 0.  1.
<mgrwt>
<rscale>  0 0.14420075E+04</rscale>
<asrwt>0</asrwt>
<pdfrwt beam="1">  1        2 0.55804229E-01 0.14420075E+04</pdfrwt>
<pdfrwt beam="2">  1       -2 0.22048611E+00 0.14420075E+04</pdfrwt>
<totfact> 0.84501264E+00</totfact>
</mgrwt>
</event>
<event>
 6    1  0.9512547E-007  0.2169832E+04  0.7818608E-02  0.8531091E-01
         -2   -1    0    0    0  501 -0.00000000000E+00  0.00000000000E+00  0.90507332867E+03  0.90507332867E+03  0.00000000000E+00 0.  1.
          2   -1    0    0  501    0  0.00000000000E+00 -0.00000000000E+00 -0.13004937973E+04  0.13004937973E+04  0.00000000000E+00 0. -1.
         23    2    1    2    0    0 -0.99278606468E+03 -0.43248006372E+03 -0.18271370100E+03  0.11019787314E+04  0.91157293212E+02 0.  0.
         11    1    3    3    0    0 -0.31601703329E+03 -0.11794737088E+03 -0.18380630613E+02  0.33781088676E+03  0.00000000000E+00 0. -1.
        -11    1    3    3    0    0 -0.67676903139E+03 -0.31453269284E+03 -0.16433307039E+03  0.76416784461E+03  0.00000000000E+00 0.  1.
         22    1    1    2    0    0  0.99278606468E+03  0.43248006372E+03 -0.21270676764E+03  0.11035883946E+04  0.00000000000E+00 0.  1.
<mgrwt>
<rscale>  0 0.21698316E+04</rscale>
<asrwt>0</asrwt>
<pdfrwt beam="1">  1        2 0.20007597E+00 0.21698316E+04</pdfrwt>
<pdfrwt beam="2">  1       -2 0.13924205E+00 0.21698316E+04</pdfrwt>
<totfact> 0.55150085E+00</totfact>
</mgrwt>
</event>
<event>
 6    1  0.9512547E-007  0.2083810E+04  0.7818608E-02  0.8568409E-01
          1   -1    0    0  501    0  0.00000000000E+00  0.00000000000E+00  0.11538919921E+04  0.11538919921E+04  0.00000000000E+00 0. -1.
         -1   -1    0    0    0  501 -0.00000000000E+00 -0.00000000000E+00 -0.94078662701E+03  0.94078662701E+03  0.00000000000E+00 0.  1.
         23    2    1    2    0    0 -0.52925076571E+03  0.19838852660E+03  0.98442497683E+03  0.11384368484E+04  0.86495909262E+02 0.  0.
         13    1    3    3    0    0 -0.34532873420E+03  0.16826606161E+03  0.62640267338E+03  0.73480998317E+03  0.00000000000E+00 0. -1.
        -13    1    3    3    0    0 -0.18392203151E+03  0.30122464983E+02  0.35802230345E+03  0.40362686524E+03  0.00000000000E+00 0.  1.
         22    1    1    2    0    0  0.52925076571E+03 -0.19838852660E+03 -0.77131961177E+03  0.95624177068E+03  0.00000000000E+00 0.  1.
<mgrwt>
<rscale>  0 0.20838101E+04</rscale>
<asrwt>0</asrwt>
<pdfrwt beam="1">  1        1 0.17752185E+00 0.20838101E+04</pdfrwt>
<pdfrwt beam="2">  1       -1 0.14473640E+00 0.20838101E+04</pdfrwt>
<totfact> 0.40861781E+00</totfact>
</mgrwt>
</event>
<event>
 6    1  0.9512547E-007  0.1936193E+04  0.7818608E-02  0.8637047E-01
          1   -1    0    0  501    0  0.00000000000E+00  0.00000000000E+00  0.27595694105E+04  0.27595694105E+04  0.00000000000E+00 0. -1.
         -1   -1    0    0    0  501 -0.00000000000E+00 -0.00000000000E+00 -0.33962227658E+03  0.33962227658E+03  0.00000000000E+00 0.  1.
         23    2    1    2    0    0 -0.87297928115E+03  0.10005751230E+02  0.55001530449E+03  0.10354964608E+04  0.86851279331E+02 0.  0.
         13    1    3    3    0    0 -0.27806910939E+03  0.41344638001E+02  0.16037769451E+03  0.32365539326E+03  0.00000000000E+00 0.  1.
        -13    1    3    3    0    0 -0.59491017176E+03 -0.31338886771E+02  0.38963760999E+03  0.71184106752E+03  0.00000000000E+00 0. -1.
         22    1    1    2    0    0  0.87297928115E+03 -0.10005751230E+02  0.18699318294E+04  0.20636952263E+04  0.00000000000E+00 0. -1.
<mgrwt>
<rscale>  0 0.19361934E+04</rscale>
<asrwt>0</asrwt>
<pdfrwt beam="1">  1        1 0.42454913E+00 0.19361934E+04</pdfrwt>
<pdfrwt beam="2">  1       -1 0.52249583E-01 0.19361934E+04</pdfrwt>
<totfact> 0.30686408E+00</totfact>
</mgrwt>
</event>
<event>
 6    1  0.9512547E-007  0.5459186E+04  0.7818608E-02  0.7761330E-01
         -1   -1    0    0    0  501 -0.00000000000E+00  0.00000000000E+00  0.19011230342E+04  0.19011230342E+04  0.00000000000E+00 0.  1.
          1   -1    0    0  501    0  0.00000000000E+00 -0.00000000000E+00 -0.39190934510E+04  0.39190934510E+04  0.00000000000E+00 0. -1.
         23    2    1    2    0    0  0.19069316397E+04  0.17098553811E+03 -0.30823177674E+04  0.36296778264E+04  0.90851372071E+02 0.  0.
         11    1    3    3    0    0  0.45483715851E+02 -0.97829005590E+01 -0.73237066260E+02  0.86764862850E+02  0.00000000000E+00 0. -1.
        -11    1    3    3    0    0  0.18614479239E+04  0.18076843867E+03 -0.30090807011E+04  0.35429129636E+04  0.00000000000E+00 0.  1.
         22    1    1    2    0    0 -0.19069316397E+04 -0.17098553811E+03  0.10643473506E+04  0.21905386588E+04  0.00000000000E+00 0.  1.
<mgrwt>
<rscale>  0 0.54591863E+04</rscale>
<asrwt>0</asrwt>
<pdfrwt beam="1">  1        1 0.60293744E+00 0.54591863E+04</pdfrwt>
<pdfrwt beam="2">  1       -1 0.29248047E+00 0.54591863E+04</pdfrwt>
<totfact> 0.28952309E-03</totfact>
</mgrwt>
</event>
<event>
 6    1  0.9512547E-007  0.1313141E+04  0.7818608E-02  0.9019208E-01
          2   -1    0    0  501    0  0.00000000000E+00  0.00000000000E+00  0.16222188272E+04  0.16222188272E+04  0.00000000000E+00 0. -1.
         -2   -1    0    0    0  501 -0.00000000000E+00 -0.00000000000E+00 -0.26573788932E+03  0.26573788932E+03  0.00000000000E+00 0.  1.
         23    2    1    2    0    0  0.97170214824E+02 -0.23129122375E+03  0.15490519431E+04  0.15716953170E+04  0.87900888597E+02 0.  0.
         11    1    3    3    0    0  0.35379708117E+02 -0.18339827768E+03  0.11478931350E+04  0.11629898114E+04  0.00000000000E+00 0. -1.
        -11    1    3    3    0    0  0.61790506707E+02 -0.47892946069E+02  0.40115880809E+03  0.40870550560E+03  0.00000000000E+00 0.  1.
         22    1    1    2    0    0 -0.97170214824E+02  0.23129122375E+03 -0.19257100517E+03  0.31626139958E+03  0.00000000000E+00 0.  1.
<mgrwt>
<rscale>  0 0.13131413E+04</rscale>
<asrwt>0</asrwt>
<pdfrwt beam="1">  1        2 0.24957212E+00 0.13131413E+04</pdfrwt>
<pdfrwt beam="2">  1       -2 0.40882753E-01 0.13131413E+04</pdfrwt>
<totfact> 0.60115842E+01</totfact>
</mgrwt>
</event>
<event>
 6    1  0.9512547E-007  0.3051368E+04  0.7818608E-02  0.8229213E-01
         -2   -1    0    0    0  501 -0.00000000000E+00  0.00000000000E+00  0.12696226446E+04  0.12696226446E+04  0.00000000000E+00 0.  1.
          2   -1    0    0  501    0  0.00000000000E+00 -0.00000000000E+00 -0.18333882849E+04  0.18333882849E+04  0.00000000000E+00 0. -1.
         23    2    1    2    0    0  0.20534445959E+03 -0.30424125071E+03  0.12224742196E+04  0.12794479549E+04  0.88401164452E+02 0.  0.
         11    1    3    3    0    0 -0.50241140279E+01 -0.23975793408E+02  0.12518910621E+03  0.12756328902E+03  0.00000000000E+00 0. -1.
        -11    1    3    3    0    0  0.21036857361E+03 -0.28026545731E+03  0.10972851134E+04  0.11518846658E+04  0.00000000000E+00 0.  1.
         22    1    1    2    0    0 -0.20534445959E+03  0.30424125071E+03 -0.17862398599E+04  0.18235629747E+04  0.00000000000E+00 0. -1.
<mgrwt>
<rscale>  0 0.30513677E+04</rscale>
<asrwt>0</asrwt>
<pdfrwt beam="1">  1        2 0.28205974E+00 0.30513677E+04</pdfrwt>
<pdfrwt beam="2">  1       -2 0.19532656E+00 0.30513677E+04</pdfrwt>
<totfact> 0.10065849E+00</totfact>
</mgrwt>
</event>
<event>
 6    1  0.9512547E-007  0.1879455E+04  0.7818608E-02  0.8665151E-01
          2   -1    0    0  501    0  0.00000000000E+00  0.00000000000E+00  0.19560340315E+04  0.19560340315E+04  0.00000000000E+00 0. -1.
         -2   -1    0    0    0  501 -0.00000000000E+00 -0.00000000000E+00 -0.45146845850E+03  0.45146845850E+03  0.00000000000E+00 0.  1.
         23    2    1    2    0    0  0.32831809066E+03 -0.20594036819E+03 -0.33949190617E+03  0.52315852182E+03  0.90751753116E+02 0.  0.
         13    1    3    3    0    0  0.39324458645E+02  0.56544286580E+01 -0.38168905664E+02  0.55093111827E+02  0.00000000000E+00 0.  1.
        -13    1    3    3    0    0  0.28899363201E+03 -0.21159479685E+03 -0.30132300051E+03  0.46806540999E+03  0.00000000000E+00 0. -1.
         22    1    1    2    0    0 -0.32831809066E+03  0.20594036819E+03  0.18440574791E+04  0.18843439681E+04  0.00000000000E+00 0. -1.
<mgrwt>
<rscale>  0 0.18794549E+04</rscale>
<asrwt>0</asrwt>
<pdfrwt beam="1">  1        2 0.30092831E+00 0.18794549E+04</pdfrwt>
<pdfrwt beam="2">  1       -2 0.69456687E-01 0.18794549E+04</pdfrwt>
<totfact> 0.12536636E+01</totfact>
</mgrwt>
</event>
<event>
 6    1  0.9512547E-007  0.1156938E+04  0.7818608E-02  0.9151406E-01
          2   -1    0    0  501    0  0.00000000000E+00  0.00000000000E+00  0.13707199937E+04  0.13707199937E+04  0.00000000000E+00 0. -1.
         -2   -1    0    0    0  501 -0.00000000000E+00 -0.00000000000E+00 -0.24412469288E+03  0.24412469288E+03  0.00000000000E+00 0.  1.
         23    2    1    2    0    0 -0.83790962412E+02  0.46156353454E+03  0.96609547080E+02  0.48306181222E+03  0.62876768623E+02 0.  0.
         13    1    3    3    0    0 -0.21894343522E+02  0.23498527017E+03  0.24031087528E+02  0.23722338132E+03  0.00000000000E+00 0.  1.
        -13    1    3    3    0    0 -0.61896618890E+02  0.22657826437E+03  0.72578459552E+02  0.24583843090E+03  0.00000000000E+00 0. -1.
         22    1    1    2    0    0  0.83790962412E+02 -0.46156353454E+03  0.10299857537E+04  0.11317828744E+04  0.00000000000E+00 0. -1.
<mgrwt>
<rscale>  0 0.11569384E+04</rscale>
<asrwt>0</asrwt>
<pdfrwt beam="1">  1        2 0.21087999E+00 0.11569384E+04</pdfrwt>
<pdfrwt beam="2">  1       -2 0.37557646E-01 0.11569384E+04</pdfrwt>
<totfact> 0.99453549E+01</totfact>
</mgrwt>
</event>
<event>
 6    1  0.9512547E-007  0.4134621E+04  0.7818608E-02  0.7977926E-01
         -2   -1    0    0    0  501 -0.00000000000E+00  0.00000000000E+00  0.18614712794E+04  0.18614712794E+04  0.00000000000E+00 0.  1.
          2   -1    0    0  501    0  0.00000000000E+00 -0.00000000000E+00 -0.22959114464E+04  0.22959114464E+04  0.00000000000E+00 0. -1.
         23    2    1    2    0    0 -0.12256381916E+04  0.12207666861E+04 -0.13536610054E+04  0.21984474975E+04  0.91175669456E+02 0.  0.
         13    1    3    3    0    0 -0.43436582252E+03  0.48182924398E+03 -0.47301238743E+03  0.80285354006E+03  0.00000000000E+00 0. -1.
        -13    1    3    3    0    0 -0.79127236910E+03  0.73893744216E+03 -0.88064861801E+03  0.13955939574E+04  0.00000000000E+00 0.  1.
         22    1    1    2    0    0  0.12256381916E+04 -0.12207666861E+04  0.91922083848E+03  0.19589352283E+04  0.00000000000E+00 0.  1.
<mgrwt>
<rscale>  0 0.41346212E+04</rscale>
<asrwt>0</asrwt>
<pdfrwt beam="1">  1        2 0.35321714E+00 0.41346212E+04</pdfrwt>
<pdfrwt beam="2">  1       -2 0.28638020E+00 0.41346212E+04</pdfrwt>
<totfact> 0.13694926E-01</totfact>
</mgrwt>
</event>
<event>
 6    1  0.9512547E-007  0.1486992E+04  0.7818608E-02  0.8893150E-01
          1   -1    0    0  501    0  0.00000000000E+00  0.00000000000E+00  0.10726724579E+04  0.10726724579E+04  0.00000000000E+00 0. -1.
         -1   -1    0    0    0  501 -0.00000000000E+00 -0.00000000000E+00 -0.51533538926E+03  0.51533538926E+03  0.00000000000E+00 0.  1.
         23    2    1    2    0    0 -0.18333528773E+03 -0.59948403437E+03  0.70091519087E+03  0.94488452128E+03  0.92367302511E+02 0.  0.
         13    1    3    3    0    0 -0.15073085000E+03 -0.54193450511E+03  0.58595256494E+03  0.81225193464E+03  0.00000000000E+00 0. -1.
        -13    1    3    3    0    0 -0.32604437724E+02 -0.57549529260E+02  0.11496262594E+03  0.13263258664E+03  0.00000000000E+00 0.  1.
         22    1    1    2    0    0  0.18333528773E+03  0.59948403437E+03 -0.14357812219E+03  0.64312332593E+03  0.00000000000E+00 0.  1.
<mgrwt>
<rscale>  0 0.14869917E+04</rscale>
<asrwt>0</asrwt>
<pdfrwt beam="1">  1        1 0.16502653E+00 0.14869917E+04</pdfrwt>
<pdfrwt beam="2">  1       -1 0.79282367E-01 0.14869917E+04</pdfrwt>
<totfact> 0.20479951E+01</totfact>
</mgrwt>
</event>
<event>
 6    1  0.9512547E-007  0.1707401E+04  0.7818608E-02  0.8757154E-01
          2   -1    0    0  501    0  0.00000000000E+00  0.00000000000E+00  0.24273197625E+04  0.24273197625E+04  0.00000000000E+00 0. -1.
         -2   -1    0    0    0  501 -0.00000000000E+00 -0.00000000000E+00 -0.30025077043E+03  0.30025077043E+03  0.00000000000E+00 0.  1.
         23    2    1    2    0    0  0.72612827676E+02 -0.20040531044E+03  0.23833282620E+04  0.23942482795E+04  0.82075016736E+02 0.  0.
         13    1    3    3    0    0 -0.33942967408E+01 -0.43559491639E+02  0.83474725175E+03  0.83588989996E+03  0.00000000000E+00 0.  1.
        -13    1    3    3    0    0  0.76007124417E+02 -0.15684581880E+03  0.15485810103E+04  0.15583583796E+04  0.00000000000E+00 0. -1.
         22    1    1    2    0    0 -0.72612827676E+02  0.20040531044E+03 -0.25625926992E+03  0.33332225341E+03  0.00000000000E+00 0.  1.
<mgrwt>
<rscale>  0 0.17074011E+04</rscale>
<asrwt>0</asrwt>
<pdfrwt beam="1">  1        2 0.37343380E+00 0.17074011E+04</pdfrwt>
<pdfrwt beam="2">  1       -2 0.46192428E-01 0.17074011E+04</pdfrwt>
<totfact> 0.16224495E+01</totfact>
</mgrwt>
</event>
<event>
 6    1  0.9512547E-007  0.3231876E+04  0.7818608E-02  0.8180449E-01
         -2   -1    0    0    0  501 -0.00000000000E+00  0.00000000000E+00  0.12310022288E+04  0.12310022288E+04  0.00000000000E+00 0.  1.
          2   -1    0    0  501    0  0.00000000000E+00 -0.00000000000E+00 -0.21212437716E+04  0.21212437716E+04  0.00000000000E+00 0. -1.
         23    2    1    2    0    0 -0.12883605054E+04 -0.44736292429E+02  0.56317284825E+03  0.14094934378E+04  0.87372572763E+02 0.  0.
         13    1    3    3    0    0 -0.10545398519E+04 -0.18753398745E+02  0.42861502856E+03  0.11384712697E+04  0.00000000000E+00 0. -1.
        -13    1    3    3    0    0 -0.23382065349E+03 -0.25982893684E+02  0.13455781969E+03  0.27102216810E+03  0.00000000000E+00 0.  1.
         22    1    1    2    0    0  0.12883605054E+04  0.44736292429E+02 -0.14534143910E+04  0.19427525627E+04  0.00000000000E+00 0. -1.
<mgrwt>
<rscale>  0 0.32318761E+04</rscale>
<asrwt>0</asrwt>
<pdfrwt beam="1">  1        2 0.32634519E+00 0.32318761E+04</pdfrwt>
<pdfrwt beam="2">  1       -2 0.18938496E+00 0.32318761E+04</pdfrwt>
<totfact> 0.75140423E-01</totfact>
</mgrwt>
</event>
<event>
 6    1  0.9512547E-007  0.2255228E+04  0.7818608E-02  0.8495786E-01
         -1   -1    0    0    0  501 -0.00000000000E+00  0.00000000000E+00  0.11775274327E+04  0.11775274327E+04  0.00000000000E+00 0.  1.
          1   -1    0    0  501    0  0.00000000000E+00 -0.00000000000E+00 -0.10798160440E+04  0.10798160440E+04  0.00000000000E+00 0. -1.
         23    2    1    2    0    0  0.56703673834E+03 -0.29991981703E+03 -0.87706945780E+03  0.10904329155E+04  0.91162218452E+02 0.  0.
         11    1    3    3    0    0  0.27300067154E+03 -0.18930035120E+03 -0.41307608763E+03  0.53009041097E+03  0.00000000000E+00 0. -1.
        -11    1    3    3    0    0  0.29403606680E+03 -0.11061946583E+03 -0.46399337017E+03  0.56034250451E+03  0.00000000000E+00 0.  1.
         22    1    1    2    0    0 -0.56703673834E+03  0.29991981703E+03  0.97478084648E+03  0.11669105612E+04  0.00000000000E+00 0.  1.
<mgrwt>
<rscale>  0 0.22552277E+04</rscale>
<asrwt>0</asrwt>
<pdfrwt beam="1">  1        1 0.16612555E+00 0.22552277E+04</pdfrwt>
<pdfrwt beam="2">  1       -1 0.18115807E+00 0.22552277E+04</pdfrwt>
<totfact> 0.24329288E+00</totfact>
</mgrwt>
</event>
<event>
 6    1  0.9512547E-007  0.2397705E+04  0.7818608E-02  0.8440363E-01
         -1   -1    0    0    0  501 -0.00000000000E+00  0.00000000000E+00  0.54656251029E+03  0.54656251029E+03  0.00000000000E+00 0.  1.
          1   -1    0    0  501    0  0.00000000000E+00 -0.00000000000E+00 -0.26296128379E+04  0.26296128379E+04  0.00000000000E+00 0. -1.
         23    2    1    2    0    0  0.43453588819E+03 -0.83188545923E+03 -0.58521976534E+02  0.94468035610E+03  0.90229141986E+02 0.  0.
         11    1    3    3    0    0  0.23036375439E+03 -0.40247050674E+03 -0.70408921216E+02  0.46904944763E+03  0.00000000000E+00 0.  1.
        -11    1    3    3    0    0  0.20417213379E+03 -0.42941495249E+03  0.11886944682E+02  0.47563090847E+03  0.00000000000E+00 0. -1.
         22    1    1    2    0    0 -0.43453588819E+03  0.83188545923E+03 -0.20245283511E+04  0.22314949921E+04  0.00000000000E+00 0. -1.
<mgrwt>
<rscale>  0 0.23977054E+04</rscale>
<asrwt>0</asrwt>
<pdfrwt beam="1">  1        1 0.40455582E+00 0.23977054E+04</pdfrwt>
<pdfrwt beam="2">  1       -1 0.84086539E-01 0.23977054E+04</pdfrwt>
<totfact> 0.13816074E+00</totfact>
</mgrwt>
</event>
<event>
 6    1  0.9512547E-007  0.2666202E+04  0.7818608E-02  0.8346055E-01
          1   -1    0    0  501    0  0.00000000000E+00  0.00000000000E+00  0.25441580980E+04  0.25441580980E+04  0.00000000000E+00 0. -1.
         -1   -1    0    0    0  501 -0.00000000000E+00 -0.00000000000E+00 -0.69852485177E+03  0.69852485177E+03  0.00000000000E+00 0.  1.
         23    2    1    2    0    0  0.61343948104E+03  0.47242226602E+03  0.22417438221E+04  0.23729735830E+04  0.78086280201E+02 0.  0.
         13    1    3    3    0    0  0.44111569333E+03  0.33149922495E+03  0.16987330841E+04  0.17861043873E+04  0.00000000000E+00 0. -1.
        -13    1    3    3    0    0  0.17232378771E+03  0.14092304107E+03  0.54301073796E+03  0.58686919569E+03  0.00000000000E+00 0.  1.
         22    1    1    2    0    0 -0.61343948104E+03 -0.47242226602E+03 -0.39611057590E+03  0.86970936678E+03  0.00000000000E+00 0.  1.
<mgrwt>
<rscale>  0 0.26662015E+04</rscale>
<asrwt>0</asrwt>
<pdfrwt beam="1">  1        1 0.39140893E+00 0.26662015E+04</pdfrwt>
<pdfrwt beam="2">  1       -1 0.10746536E+00 0.26662015E+04</pdfrwt>
<totfact> 0.89087437E-01</totfact>
</mgrwt>
</event>
<event>
 6    1  0.9512547E-007  0.2513812E+04  0.7818608E-02  0.8398081E-01
         -1   -1    0    0    0  501 -0.00000000000E+00  0.00000000000E+00  0.85847929833E+03  0.85847929833E+03  0.00000000000E+00 0.  1.
          1   -1    0    0  501    0  0.00000000000E+00 -0.00000000000E+00 -0.18402455463E+04  0.18402455463E+04  0.00000000000E+00 0. -1.
         23    2    1    2    0    0 -0.25029318021E+03 -0.90224203603E+03  0.40601442304E+03  0.10246213357E+04  0.91180054252E+02 0.  0.
         13    1    3    3    0    0 -0.88260425269E+02 -0.48681304592E+03  0.20664434007E+03  0.53617042779E+03  0.00000000000E+00 0. -1.
        -13    1    3    3    0    0 -0.16203275494E+03 -0.41542899011E+03  0.19937008297E+03  0.48845090795E+03  0.00000000000E+00 0.  1.
         22    1    1    2    0    0  0.25029318021E+03  0.90224203603E+03 -0.13877806710E+04  0.16741035089E+04  0.00000000000E+00 0. -1.
<mgrwt>
<rscale>  0 0.25138120E+04</rscale>
<asrwt>0</asrwt>
<pdfrwt beam="1">  1        1 0.28311470E+00 0.25138120E+04</pdfrwt>
<pdfrwt beam="2">  1       -1 0.13207374E+00 0.25138120E+04</pdfrwt>
<totfact> 0.16535287E+00</totfact>
</mgrwt>
</event>
<event>
 6    1  0.9512547E-007  0.2282993E+04  0.7818608E-02  0.8484657E-01
         -2   -1    0    0    0  501 -0.00000000000E+00  0.00000000000E+00  0.54623526618E+03  0.54623526618E+03  0.00000000000E+00 0.  1.
          2   -1    0    0  501    0  0.00000000000E+00 -0.00000000000E+00 -0.23854458531E+04  0.23854458531E+04  0.00000000000E+00 0. -1.
         23    2    1    2    0    0 -0.10507496202E+04  0.31947084790E+03 -0.52995670928E+03  0.12227978280E+04  0.90796627385E+02 0.  0.
         11    1    3    3    0    0 -0.56358628980E+03  0.14550401807E+03 -0.32265603162E+03  0.66551321554E+03  0.00000000000E+00 0. -1.
        -11    1    3    3    0    0 -0.48716333039E+03  0.17396682982E+03 -0.20730067766E+03  0.55728461249E+03  0.00000000000E+00 0.  1.
         22    1    1    2    0    0  0.10507496202E+04 -0.31947084790E+03 -0.13092538777E+04  0.17088832913E+04  0.00000000000E+00 0. -1.
<mgrwt>
<rscale>  0 0.22829933E+04</rscale>
<asrwt>0</asrwt>
<pdfrwt beam="1">  1        2 0.36699167E+00 0.22829933E+04</pdfrwt>
<pdfrwt beam="2">  1       -2 0.84036194E-01 0.22829933E+04</pdfrwt>
<totfact> 0.45493206E+00</totfact>
</mgrwt>
</event>
<event>
 6    1  0.9512547E-007  0.7664992E+03  0.7818608E-02  0.9609815E-01
         -2   -1    0    0    0  501 -0.00000000000E+00  0.00000000000E+00  0.11095651964E+03  0.11095651964E+03  0.00000000000E+00 0.  1.
          2   -1    0    0  501    0  0.00000000000E+00 -0.00000000000E+00 -0.13237641132E+04  0.13237641132E+04  0.00000000000E+00 0. -1.
         23    2    1    2    0    0  0.32907879205E+03 -0.13392565942E+03 -0.37410541058E+03  0.52386922600E+03  0.90857988594E+02 0.  0.
         11    1    3    3    0    0  0.17353419905E+03 -0.25141418250E+02 -0.15555947213E+03  0.23440340979E+03  0.00000000000E+00 0. -1.
        -11    1    3    3    0    0  0.15554459300E+03 -0.10878424117E+03 -0.21854593845E+03  0.28946581621E+03  0.00000000000E+00 0.  1.
         22    1    1    2    0    0 -0.32907879205E+03  0.13392565942E+03 -0.83870218295E+03  0.91085140683E+03  0.00000000000E+00 0. -1.
<mgrwt>
<rscale>  0 0.76649921E+03</rscale>
<asrwt>0</asrwt>
<pdfrwt beam="1">  1        2 0.20365603E+00 0.76649921E+03</pdfrwt>
<pdfrwt beam="2">  1       -2 0.17070233E-01 0.76649921E+03</pdfrwt>
<totfact> 0.45390086E+02</totfact>
</mgrwt>
</event>
<event>
 6    1  0.9512547E-007  0.1781562E+04  0.7818608E-02  0.8716167E-01
          2   -1    0    0  501    0  0.00000000000E+00  0.00000000000E+00  0.37215538115E+03  0.37215538115E+03  0.00000000000E+00 0. -1.
         -2   -1    0    0    0  501 -0.00000000000E+00 -0.00000000000E+00 -0.21321487865E+04  0.21321487865E+04  0.00000000000E+00 0.  1.
         23    2    1    2    0    0 -0.23816725057E+03 -0.45682589457E+03  0.13617337341E+03  0.53939653877E+03  0.83617589193E+02 0.  0.
         13    1    3    3    0    0 -0.16953965934E+03 -0.33525400852E+03  0.13672492110E+03  0.39979075823E+03  0.00000000000E+00 0. -1.
        -13    1    3    3    0    0 -0.68627591222E+02 -0.12157188605E+03 -0.55154769448E+00  0.13960578054E+03  0.00000000000E+00 0.  1.
         22    1    1    2    0    0  0.23816725057E+03  0.45682589457E+03 -0.18961667787E+04  0.19649076289E+04  0.00000000000E+00 0.  1.
<mgrwt>
<rscale>  0 0.17815618E+04</rscale>
<asrwt>0</asrwt>
<pdfrwt beam="1">  1        2 0.57254675E-01 0.17815618E+04</pdfrwt>
<pdfrwt beam="2">  1       -2 0.32802289E+00 0.17815618E+04</pdfrwt>
<totfact> 0.17466909E+00</totfact>
</mgrwt>
</event>
<event>
 6    1  0.9512547E-007  0.3587781E+04  0.7818608E-02  0.8093296E-01
          2   -1    0    0  501    0  0.00000000000E+00  0.00000000000E+00  0.23511868341E+04  0.23511868341E+04  0.00000000000E+00 0. -1.
         -2   -1    0    0    0  501 -0.00000000000E+00 -0.00000000000E+00 -0.13686889104E+04  0.13686889104E+04  0.00000000000E+00 0.  1.
         23    2    1    2    0    0 -0.40951286066E+03 -0.16142888779E+04 -0.19640250943E+03  0.16794258932E+04  0.90928658243E+02 0.  0.
         13    1    3    3    0    0 -0.13616456276E+03 -0.53004279188E+03 -0.21656221128E+02  0.54768160576E+03  0.00000000000E+00 0.  1.
        -13    1    3    3    0    0 -0.27334829789E+03 -0.10842460860E+04 -0.17474628830E+03  0.11317442875E+04  0.00000000000E+00 0. -1.
         22    1    1    2    0    0  0.40951286066E+03  0.16142888779E+04  0.11789004332E+04  0.20404498513E+04  0.00000000000E+00 0. -1.
<mgrwt>
<rscale>  0 0.35877811E+04</rscale>
<asrwt>0</asrwt>
<pdfrwt beam="1">  1        2 0.36172105E+00 0.35877811E+04</pdfrwt>
<pdfrwt beam="2">  1       -2 0.21056752E+00 0.35877811E+04</pdfrwt>
<totfact> 0.39273871E-01</totfact>
</mgrwt>
</event>
<event>
 6    1  0.9512547E-007  0.7712343E+03  0.7818608E-02  0.9602614E-01
          2   -1    0    0  501    0  0.00000000000E+00  0.00000000000E+00  0.11935143906E+04  0.11935143906E+04  0.00000000000E+00 0. -1.
         -2   -1    0    0    0  501 -0.00000000000E+00 -0.00000000000E+00 -0.12459052905E+03  0.12459052905E+03  0.00000000000E+00 0.  1.
         23    2    1    2    0    0 -0.14319679466E+03 -0.12347895124E+03 -0.21504387022E+02  0.21140435551E+03  0.92070567860E+02 0.  0.
         13    1    3    3    0    0 -0.48162598267E+02 -0.45915836581E+02 -0.52640078531E+02  0.84846200790E+02  0.00000000000E+00 0. -1.
        -13    1    3    3    0    0 -0.95034196396E+02 -0.77563114658E+02  0.31135691509E+02  0.12655815472E+03  0.00000000000E+00 0.  1.
         22    1    1    2    0    0  0.14319679466E+03  0.12347895124E+03  0.10904282485E+04  0.11067005641E+04  0.00000000000E+00 0. -1.
<mgrwt>
<rscale>  0 0.77123431E+03</rscale>
<asrwt>0</asrwt>
<pdfrwt beam="1">  1        2 0.18361759E+00 0.77123431E+03</pdfrwt>
<pdfrwt beam="2">  1       -2 0.19167774E-01 0.77123431E+03</pdfrwt>
<totfact> 0.44240534E+02</totfact>
</mgrwt>
</event>
<event>
 6    1  0.9512547E-007  0.1964506E+04  0.7818608E-02  0.8623397E-01
          2   -1    0    0  501    0  0.00000000000E+00  0.00000000000E+00  0.13696140719E+04  0.13696140719E+04  0.00000000000E+00 0. -1.
         -2   -1    0    0    0  501 -0.00000000000E+00 -0.00000000000E+00 -0.70444732795E+03  0.70444732795E+03  0.00000000000E+00 0.  1.
         23    2    1    2    0    0 -0.69214701740E+03 -0.87939654681E+02  0.10600640232E+04  0.12723477741E+04  0.91281149658E+02 0.  0.
         11    1    3    3    0    0 -0.11740204482E+03  0.18070219250E+02  0.19621303722E+03  0.22936723594E+03  0.00000000000E+00 0. -1.
        -11    1    3    3    0    0 -0.57474497258E+03 -0.10600987393E+03  0.86385098599E+03  0.10429805381E+04  0.00000000000E+00 0.  1.
         22    1    1    2    0    0  0.69214701740E+03  0.87939654681E+02 -0.39489727928E+03  0.80171362577E+03  0.00000000000E+00 0.  1.
<mgrwt>
<rscale>  0 0.19645060E+04</rscale>
<asrwt>0</asrwt>
<pdfrwt beam="1">  1        2 0.21070986E+00 0.19645060E+04</pdfrwt>
<pdfrwt beam="2">  1       -2 0.10837651E+00 0.19645060E+04</pdfrwt>
<totfact> 0.95612233E+00</totfact>
</mgrwt>
</event>
<event>
 6    1  0.9512547E-007  0.7018082E+04  0.7818608E-02  0.7575573E-01
         -2   -1    0    0    0  501 -0.00000000000E+00  0.00000000000E+00  0.50450049015E+04  0.50450049015E+04  0.00000000000E+00 0.  1.
          2   -1    0    0  501    0  0.00000000000E+00 -0.00000000000E+00 -0.24407047732E+04  0.24407047732E+04  0.00000000000E+00 0. -1.
         23    2    1    2    0    0 -0.26167209670E+04 -0.23241007560E+04  0.10398642126E+04  0.36521561433E+04  0.90851369963E+02 0.  0.
         11    1    3    3    0    0 -0.94743940563E+02 -0.88514353057E+02  0.21228013402E+02  0.13138429710E+03  0.00000000000E+00 0.  1.
        -11    1    3    3    0    0 -0.25219770264E+04 -0.22355864029E+04  0.10186361992E+04  0.35207718462E+04  0.00000000000E+00 0. -1.
         22    1    1    2    0    0  0.26167209670E+04  0.23241007560E+04  0.15644359157E+04  0.38335535313E+04  0.00000000000E+00 0.  1.
<mgrwt>
<rscale>  0 0.70180817E+04</rscale>
<asrwt>0</asrwt>
<pdfrwt beam="1">  1        2 0.37549304E+00 0.70180817E+04</pdfrwt>
<pdfrwt beam="2">  1       -2 0.77615460E+00 0.70180817E+04</pdfrwt>
<totfact> 0.25422320E-04</totfact>
</mgrwt>
</event>
<event>
 6    1  0.9512547E-007  0.1948044E+04  0.7818608E-02  0.8631304E-01
         -2   -1    0    0    0  501 -0.00000000000E+00  0.00000000000E+00  0.93584645258E+03  0.93584645258E+03  0.00000000000E+00 0.  1.
          2   -1    0    0  501    0  0.00000000000E+00 -0.00000000000E+00 -0.10137553228E+04  0.10137553228E+04  0.00000000000E+00 0. -1.
         23    2    1    2    0    0 -0.49764554956E+03  0.22259856191E+02 -0.87421000154E+03  0.10103243478E+04  0.91463472572E+02 0.  0.
         11    1    3    3    0    0 -0.27181390919E+03 -0.21980405678E+02 -0.53386880941E+03  0.59948464962E+03  0.00000000000E+00 0.  1.
        -11    1    3    3    0    0 -0.22583164037E+03  0.44240261869E+02 -0.34034119213E+03  0.41083969821E+03  0.00000000000E+00 0. -1.
         22    1    1    2    0    0  0.49764554956E+03 -0.22259856191E+02  0.79630113132E+03  0.93927742757E+03  0.00000000000E+00 0.  1.
<mgrwt>
<rscale>  0 0.19480445E+04</rscale>
<asrwt>0</asrwt>
<pdfrwt beam="1">  1        2 0.15596236E+00 0.19480445E+04</pdfrwt>
<pdfrwt beam="2">  1       -2 0.14397638E+00 0.19480445E+04</pdfrwt>
<totfact> 0.76866167E+00</totfact>
</mgrwt>
</event>
<event>
 6    1  0.9512547E-007  0.2825372E+04  0.7818608E-02  0.8295434E-01
          1   -1    0    0  501    0  0.00000000000E+00  0.00000000000E+00  0.12063926003E+04  0.12063926003E+04  0.00000000000E+00 0. -1.
         -1   -1    0    0    0  501 -0.00000000000E+00 -0.00000000000E+00 -0.16542560572E+04  0.16542560572E+04  0.00000000000E+00 0.  1.
         23    2    1    2    0    0  0.12487393080E+04 -0.54874548663E+03  0.14268300385E+03  0.13743052952E+04  0.88798290391E+02 0.  0.
         13    1    3    3    0    0  0.46223949708E+03 -0.23341859528E+03  0.21008767876E+02  0.51825762089E+03  0.00000000000E+00 0.  1.
        -13    1    3    3    0    0  0.78649981091E+03 -0.31532689135E+03  0.12167423597E+03  0.85604767430E+03  0.00000000000E+00 0. -1.
         22    1    1    2    0    0 -0.12487393080E+04  0.54874548663E+03 -0.59054646071E+03  0.14863433623E+04  0.00000000000E+00 0.  1.
<mgrwt>
<rscale>  0 0.28253724E+04</rscale>
<asrwt>0</asrwt>
<pdfrwt beam="1">  1        1 0.18559886E+00 0.28253724E+04</pdfrwt>
<pdfrwt beam="2">  1       -1 0.25450093E+00 0.28253724E+04</pdfrwt>
<totfact> 0.59499189E-01</totfact>
</mgrwt>
</event>
<event>
 6    1  0.9512547E-007  0.1830991E+04  0.7818608E-02  0.8689990E-01
         -1   -1    0    0    0  501 -0.00000000000E+00  0.00000000000E+00  0.36300267555E+03  0.36300267555E+03  0.00000000000E+00 0.  1.
          1   -1    0    0  501    0  0.00000000000E+00 -0.00000000000E+00 -0.23088874770E+04  0.23088874770E+04  0.00000000000E+00 0. -1.
         23    2    1    2    0    0 -0.53550881623E+03  0.19201543837E+03 -0.20177920483E+04  0.20984703473E+04  0.91942524846E+02 0.  0.
         11    1    3    3    0    0 -0.46978680711E+03  0.19830714151E+03 -0.17631116762E+04  0.18353713927E+04  0.00000000000E+00 0.  1.
        -11    1    3    3    0    0 -0.65722009119E+02 -0.62917031354E+01 -0.25468037206E+03  0.26309895462E+03  0.00000000000E+00 0. -1.
         22    1    1    2    0    0  0.53550881623E+03 -0.19201543837E+03  0.71907246816E+02  0.57341980519E+03  0.00000000000E+00 0.  1.
<mgrwt>
<rscale>  0 0.18309914E+04</rscale>
<asrwt>0</asrwt>
<pdfrwt beam="1">  1        1 0.35521345E+00 0.18309914E+04</pdfrwt>
<pdfrwt beam="2">  1       -1 0.55846567E-01 0.18309914E+04</pdfrwt>
<totfact> 0.56044317E+00</totfact>
</mgrwt>
</event>
<event>
 6    1  0.9512547E-007  0.3086879E+04  0.7818608E-02  0.8219348E-01
          2   -1    0    0  501    0  0.00000000000E+00  0.00000000000E+00  0.29061249827E+04  0.29061249827E+04  0.00000000000E+00 0. -1.
         -2   -1    0    0    0  501 -0.00000000000E+00 -0.00000000000E+00 -0.81971911480E+03  0.81971911480E+03  0.00000000000E+00 0.  1.
         23    2    1    2    0    0  0.15107706434E+04 -0.29288226789E+03  0.92378260043E+03  0.17971396562E+04  0.90159253922E+02 0.  0.
         11    1    3    3    0    0  0.46300929025E+03 -0.69179857987E+02  0.23914619241E+03  0.52569416674E+03  0.00000000000E+00 0. -1.
        -11    1    3    3    0    0  0.10477613532E+04 -0.22370240990E+03  0.68463640802E+03  0.12714454894E+04  0.00000000000E+00 0.  1.
         22    1    1    2    0    0 -0.15107706434E+04  0.29288226789E+03  0.11626232675E+04  0.19287044413E+04  0.00000000000E+00 0. -1.
<mgrwt>
<rscale>  0 0.30868795E+04</rscale>
<asrwt>0</asrwt>
<pdfrwt beam="1">  1        2 0.44709615E+00 0.30868795E+04</pdfrwt>
<pdfrwt beam="2">  1       -2 0.12611063E+00 0.30868795E+04</pdfrwt>
<totfact> 0.79335360E-01</totfact>
</mgrwt>
</event>
<event>
 6    1  0.1291375E-006  0.2688164E+04  0.7818608E-02  0.8338856E-01
         -2   -1    0    0    0  501 -0.00000000000E+00  0.00000000000E+00  0.91990407793E+03  0.91990407793E+03  0.00000000000E+00 0.  1.
          2   -1    0    0  501    0  0.00000000000E+00 -0.00000000000E+00 -0.19638527202E+04  0.19638527202E+04  0.00000000000E+00 0. -1.
         23    2    1    2    0    0 -0.14933639108E+03  0.13307434200E+04 -0.41910261788E+03  0.14060518337E+04  0.90306960837E+02 0.  0.
         13    1    3    3    0    0 -0.70284207194E+02  0.61844693534E+03 -0.14769239915E+03  0.63971050200E+03  0.00000000000E+00 0.  1.
        -13    1    3    3    0    0 -0.79052183882E+02  0.71229648469E+03 -0.27141021873E+03  0.76634133173E+03  0.00000000000E+00 0. -1.
         22    1    1    2    0    0  0.14933639108E+03 -0.13307434200E+04 -0.62484602441E+03  0.14777049644E+04  0.00000000000E+00 0. -1.
<mgrwt>
<rscale>  0 0.26881638E+04</rscale>
<asrwt>0</asrwt>
<pdfrwt beam="1">  1        2 0.30213118E+00 0.26881638E+04</pdfrwt>
<pdfrwt beam="2">  1       -2 0.14152371E+00 0.26881638E+04</pdfrwt>
<totfact> 0.21458698E+00</totfact>
</mgrwt>
</event>
<event>
 6    1  0.9512547E-007  0.2883664E+04  0.7818608E-02  0.8277755E-01
          1   -1    0    0  501    0  0.00000000000E+00  0.00000000000E+00  0.18306131239E+04  0.18306131239E+04  0.00000000000E+00 0. -1.
         -1   -1    0    0    0  501 -0.00000000000E+00 -0.00000000000E+00 -0.11356192614E+04  0.11356192614E+04  0.00000000000E+00 0.  1.
         23    2    1    2    0    0 -0.36564029371E+03  0.96031072248E+03 -0.69046325490E+03  0.12413031310E+04  0.90578410500E+02 0.  0.
         13    1    3    3    0    0 -0.11578393186E+03  0.41608024051E+03 -0.31374031561E+03  0.53381801305E+03  0.00000000000E+00 0.  1.
        -13    1    3    3    0    0 -0.24985636185E+03  0.54423048197E+03 -0.37672293929E+03  0.70748511790E+03  0.00000000000E+00 0. -1.
         22    1    1    2    0    0  0.36564029371E+03 -0.96031072248E+03  0.13854571174E+04  0.17249292543E+04  0.00000000000E+00 0. -1.
<mgrwt>
<rscale>  0 0.28836640E+04</rscale>
<asrwt>0</asrwt>
<pdfrwt beam="1">  1        1 0.28163279E+00 0.28836640E+04</pdfrwt>
<pdfrwt beam="2">  1       -1 0.17471066E+00 0.28836640E+04</pdfrwt>
<totfact> 0.75870541E-01</totfact>
</mgrwt>
</event>
<event>
 6    1  0.9512547E-007  0.1480689E+04  0.7818608E-02  0.8897397E-01
         -2   -1    0    0    0  501 -0.00000000000E+00  0.00000000000E+00  0.35706448614E+03  0.35706448614E+03  0.00000000000E+00 0.  1.
          2   -1    0    0  501    0  0.00000000000E+00 -0.00000000000E+00 -0.15350447222E+04  0.15350447222E+04  0.00000000000E+00 0. -1.
         23    2    1    2    0    0 -0.97183912312E+02 -0.37497231643E+03 -0.13933888917E+04  0.14488825848E+04  0.87630988553E+02 0.  0.
         13    1    3    3    0    0 -0.81141653170E+02 -0.15291330291E+03 -0.54972701440E+03  0.57633864737E+03  0.00000000000E+00 0. -1.
        -13    1    3    3    0    0 -0.16042259141E+02 -0.22205901352E+03 -0.84366187727E+03  0.87254393742E+03  0.00000000000E+00 0.  1.
         22    1    1    2    0    0  0.97183912312E+02  0.37497231643E+03  0.21540865563E+03  0.44322662354E+03  0.00000000000E+00 0.  1.
<mgrwt>
<rscale>  0 0.14806890E+04</rscale>
<asrwt>0</asrwt>
<pdfrwt beam="1">  1        2 0.23616073E+00 0.14806890E+04</pdfrwt>
<pdfrwt beam="2">  1       -2 0.54932998E-01 0.14806890E+04</pdfrwt>
<totfact> 0.36572540E+01</totfact>
</mgrwt>
</event>
<event>
 6    1  0.9512547E-007  0.4698041E+04  0.7818608E-02  0.7876854E-01
          2   -1    0    0  501    0  0.00000000000E+00  0.00000000000E+00  0.24265029978E+04  0.24265029978E+04  0.00000000000E+00 0. -1.
         -2   -1    0    0    0  501 -0.00000000000E+00 -0.00000000000E+00 -0.22740124902E+04  0.22740124902E+04  0.00000000000E+00 0.  1.
         23    2    1    2    0    0 -0.21450901749E+04 -0.87935155062E+03 -0.29714251198E+03  0.23389819058E+04  0.88722463307E+02 0.  0.
         13    1    3    3    0    0 -0.78876348971E+03 -0.33388883564E+03 -0.15186907016E+03  0.86988149292E+03  0.00000000000E+00 0.  1.
        -13    1    3    3    0    0 -0.13563266851E+04 -0.54546271499E+03 -0.14527344183E+03  0.14691004129E+04  0.00000000000E+00 0. -1.
         22    1    1    2    0    0  0.21450901749E+04  0.87935155062E+03  0.44963301956E+03  0.23615335823E+04  0.00000000000E+00 0. -1.
<mgrwt>
<rscale>  0 0.46980413E+04</rscale>
<asrwt>0</asrwt>
<pdfrwt beam="1">  1        2 0.37330815E+00 0.46980413E+04</pdfrwt>
<pdfrwt beam="2">  1       -2 0.34984808E+00 0.46980413E+04</pdfrwt>
<totfact> 0.44634095E-02</totfact>
</mgrwt>
</event>
<event>
 6    1  0.9512547E-007  0.3462860E+04  0.7818608E-02  0.8122649E-01
         -2   -1    0    0    0  501 -0.00000000000E+00  0.00000000000E+00  0.78611437726E+03  0.78611437726E+03  0.00000000000E+00 0.  1.
          2   -1    0    0  501    0  0.00000000000E+00 -0.00000000000E+00 -0.38135030156E+04  0.38135030156E+04  0.00000000000E+00 0. -1.
         23    2    1    2    0    0 -0.98086626701E+03  0.12367837858E+03  0.37134135543E+03  0.10600184685E+04  0.91377109401E+02 0.  0.
         11    1    3    3    0    0 -0.84368366793E+02 -0.12513347700E+02  0.43898229152E+02  0.95925281906E+02  0.00000000000E+00 0. -1.
        -11    1    3    3    0    0 -0.89649790022E+03  0.13619172628E+03  0.32744312628E+03  0.96409318655E+03  0.00000000000E+00 0.  1.
         22    1    1    2    0    0  0.98086626701E+03 -0.12367837858E+03 -0.33987299938E+04  0.35395989244E+04  0.00000000000E+00 0. -1.
<mgrwt>
<rscale>  0 0.34628598E+04</rscale>
<asrwt>0</asrwt>
<pdfrwt beam="1">  1        2 0.58669278E+00 0.34628598E+04</pdfrwt>
<pdfrwt beam="2">  1       -2 0.12094067E+00 0.34628598E+04</pdfrwt>
<totfact> 0.20541510E-01</totfact>
</mgrwt>
</event>
<event>
 6    1  0.9512547E-007  0.1986237E+04  0.7818608E-02  0.8613083E-01
          1   -1    0    0  501    0  0.00000000000E+00  0.00000000000E+00  0.12666275329E+04  0.12666275329E+04  0.00000000000E+00 0. -1.
         -1   -1    0    0    0  501 -0.00000000000E+00 -0.00000000000E+00 -0.77866951775E+03  0.77866951775E+03  0.00000000000E+00 0.  1.
         23    2    1    2    0    0  0.41773430255E+03  0.89688647413E+03  0.29709370222E+03  0.10376579878E+04  0.97786179134E+02 0.  0.
         11    1    3    3    0    0  0.29961424988E+03  0.56657163133E+03  0.15658960831E+03  0.65976694187E+03  0.00000000000E+00 0.  1.
        -11    1    3    3    0    0  0.11812005267E+03  0.33031484281E+03  0.14050409392E+03  0.37789104598E+03  0.00000000000E+00 0. -1.
         22    1    1    2    0    0 -0.41773430255E+03 -0.89688647413E+03  0.19086431298E+03  0.10076390629E+04  0.00000000000E+00 0.  1.
<mgrwt>
<rscale>  0 0.19862369E+04</rscale>
<asrwt>0</asrwt>
<pdfrwt beam="1">  1        1 0.19486577E+00 0.19862369E+04</pdfrwt>
<pdfrwt beam="2">  1       -1 0.11979531E+00 0.19862369E+04</pdfrwt>
<totfact> 0.55195489E+00</totfact>
</mgrwt>
</event>
<event>
 6    1  0.9512547E-007  0.9157287E+04  0.7818608E-02  0.7388410E-01
          1   -1    0    0  501    0  0.00000000000E+00  0.00000000000E+00  0.46672177342E+04  0.46672177342E+04  0.00000000000E+00 0. -1.
         -1   -1    0    0    0  501 -0.00000000000E+00 -0.00000000000E+00 -0.44917498630E+04  0.44917498630E+04  0.00000000000E+00 0.  1.
         23    2    1    2    0    0 -0.32593127215E+04  0.21340201782E+04 -0.23174023294E+04  0.45338661524E+04  0.91799752463E+02 0.  0.
         13    1    3    3    0    0 -0.11549309275E+04  0.80759544433E+03 -0.82672645069E+03  0.16338765172E+04  0.00000000000E+00 0. -1.
        -13    1    3    3    0    0 -0.21043817940E+04  0.13264247338E+04 -0.14906758787E+04  0.28999896353E+04  0.00000000000E+00 0.  1.
         22    1    1    2    0    0  0.32593127215E+04 -0.21340201782E+04  0.24928702006E+04  0.46251014448E+04  0.00000000000E+00 0. -1.
<mgrwt>
<rscale>  0 0.91572866E+04</rscale>
<asrwt>0</asrwt>
<pdfrwt beam="1">  1        1 0.71803349E+00 0.91572866E+04</pdfrwt>
<pdfrwt beam="2">  1       -1 0.69103844E+00 0.91572866E+04</pdfrwt>
<totfact> 0.25074480E-06</totfact>
</mgrwt>
</event>
<event>
 6    1  0.9512547E-007  0.1110746E+04  0.7818608E-02  0.9194780E-01
         -2   -1    0    0    0  501 -0.00000000000E+00  0.00000000000E+00  0.22992734428E+03  0.22992734428E+03  0.00000000000E+00 0.  1.
          2   -1    0    0  501    0  0.00000000000E+00 -0.00000000000E+00 -0.13414648204E+04  0.13414648204E+04  0.00000000000E+00 0. -1.
         23    2    1    2    0    0 -0.79891814734E+02 -0.42601908643E+03 -0.10420969373E+04  0.11324195545E+04  0.92374544687E+02 0.  0.
         13    1    3    3    0    0 -0.11823381031E+02 -0.17313064880E+03 -0.52233911493E+03  0.55041090548E+03  0.00000000000E+00 0. -1.
        -13    1    3    3    0    0 -0.68068433702E+02 -0.25288843764E+03 -0.51975782241E+03  0.58200864900E+03  0.00000000000E+00 0.  1.
         22    1    1    2    0    0  0.79891814734E+02  0.42601908643E+03 -0.69440538768E+02  0.43897261018E+03  0.00000000000E+00 0.  1.
<mgrwt>
<rscale>  0 0.11107465E+04</rscale>
<asrwt>0</asrwt>
<pdfrwt beam="1">  1        2 0.20637921E+00 0.11107465E+04</pdfrwt>
<pdfrwt beam="2">  1       -2 0.35373436E-01 0.11107465E+04</pdfrwt>
<totfact> 0.11637414E+02</totfact>
</mgrwt>
</event>
<event>
 6    1  0.9512547E-007  0.7303953E+03  0.7818608E-02  0.9666619E-01
         -2   -1    0    0    0  501 -0.00000000000E+00  0.00000000000E+00  0.11642532310E+03  0.11642532310E+03  0.00000000000E+00 0.  1.
          2   -1    0    0  501    0  0.00000000000E+00 -0.00000000000E+00 -0.11455354220E+04  0.11455354220E+04  0.00000000000E+00 0. -1.
         23    2    1    2    0    0  0.31876699576E+03  0.96084364543E+02 -0.75674372783E+03  0.83181188393E+03  0.91680630103E+02 0.  0.
         11    1    3    3    0    0  0.15650929505E+03  0.91163358529E+02 -0.44200489292E+03  0.47767587624E+03  0.00000000000E+00 0.  1.
        -11    1    3    3    0    0  0.16225770072E+03  0.49210060135E+01 -0.31473883490E+03  0.35413600768E+03  0.00000000000E+00 0. -1.
         22    1    1    2    0    0 -0.31876699576E+03 -0.96084364543E+02 -0.27236637112E+03  0.43014886123E+03  0.00000000000E+00 0.  1.
<mgrwt>
<rscale>  0 0.73039532E+03</rscale>
<asrwt>0</asrwt>
<pdfrwt beam="1">  1        2 0.17623620E+00 0.73039532E+03</pdfrwt>
<pdfrwt beam="2">  1       -2 0.17911590E-01 0.73039532E+03</pdfrwt>
<totfact> 0.53248394E+02</totfact>
</mgrwt>
</event>
<event>
 6    1  0.9512547E-007  0.4352438E+04  0.7818608E-02  0.7936992E-01
         -2   -1    0    0    0  501 -0.00000000000E+00  0.00000000000E+00  0.11472944860E+04  0.11472944860E+04  0.00000000000E+00 0.  1.
          2   -1    0    0  501    0  0.00000000000E+00 -0.00000000000E+00 -0.41279105245E+04  0.41279105245E+04  0.00000000000E+00 0. -1.
         23    2    1    2    0    0  0.82401419699E+03  0.95365045344E+03 -0.36397790046E+04  0.38529025110E+04  0.91749507284E+02 0.  0.
         11    1    3    3    0    0  0.72812409349E+02  0.99323358907E+02 -0.44000236789E+03  0.45691231142E+03  0.00000000000E+00 0. -1.
        -11    1    3    3    0    0  0.75120178765E+03  0.85432709453E+03 -0.31997766368E+04  0.33959901995E+04  0.00000000000E+00 0.  1.
         22    1    1    2    0    0 -0.82401419699E+03 -0.95365045344E+03  0.65916296618E+03  0.14223024995E+04  0.00000000000E+00 0.  1.
<mgrwt>
<rscale>  0 0.43524379E+04</rscale>
<asrwt>0</asrwt>
<pdfrwt beam="1">  1        2 0.63506314E+00 0.43524379E+04</pdfrwt>
<pdfrwt beam="2">  1       -2 0.17650685E+00 0.43524379E+04</pdfrwt>
<totfact> 0.39226151E-02</totfact>
</mgrwt>
</event>
<event>
 6    1  0.9512547E-007  0.1433291E+04  0.7818608E-02  0.8930067E-01
         -1   -1    0    0    0  501 -0.00000000000E+00  0.00000000000E+00  0.55422305805E+03  0.55422305805E+03  0.00000000000E+00 0.  1.
          1   -1    0    0  501    0  0.00000000000E+00 -0.00000000000E+00 -0.92666778902E+03  0.92666778902E+03  0.00000000000E+00 0. -1.
         23    2    1    2    0    0 -0.15366912110E+03 -0.66407621130E+03 -0.40577683663E+03  0.79845224730E+03  0.90883094559E+02 0.  0.
         13    1    3    3    0    0 -0.62569435695E+02 -0.30866477326E+03 -0.23933749108E+03  0.39556454741E+03  0.00000000000E+00 0. -1.
        -13    1    3    3    0    0 -0.91099685403E+02 -0.35541143804E+03 -0.16643934555E+03  0.40288769989E+03  0.00000000000E+00 0.  1.
         22    1    1    2    0    0  0.15366912110E+03  0.66407621130E+03  0.33332105655E+02  0.68243859977E+03  0.00000000000E+00 0. -1.
<mgrwt>
<rscale>  0 0.14332908E+04</rscale>
<asrwt>0</asrwt>
<pdfrwt beam="1">  1        1 0.14256427E+00 0.14332908E+04</pdfrwt>
<pdfrwt beam="2">  1       -1 0.85265086E-01 0.14332908E+04</pdfrwt>
<totfact> 0.22896154E+01</totfact>
</mgrwt>
</event>
<event>
 6    1  0.9512547E-007  0.8660391E+03  0.7818608E-02  0.9469059E-01
         -3   -1    0    0    0  501 -0.00000000000E+00  0.00000000000E+00  0.20146471927E+03  0.20146471927E+03  0.00000000000E+00 0.  1.
          3   -1    0    0  501    0  0.00000000000E+00 -0.00000000000E+00 -0.93071338709E+03  0.93071338709E+03  0.00000000000E+00 0. -1.
         23    2    1    2    0    0 -0.33452534096E+03 -0.72983272723E+02 -0.70485087848E+03  0.78891579564E+03  0.91321464471E+02 0.  0.
         13    1    3    3    0    0 -0.11716824070E+03 -0.31245391744E+02 -0.35293892134E+03  0.37318970153E+03  0.00000000000E+00 0.  1.
        -13    1    3    3    0    0 -0.21735710026E+03 -0.41737880979E+02 -0.35191195714E+03  0.41572609411E+03  0.00000000000E+00 0. -1.
         22    1    1    2    0    0  0.33452534096E+03  0.72983272723E+02 -0.24397789340E+02  0.34326231072E+03  0.00000000000E+00 0.  1.
<mgrwt>
<rscale>  0 0.86603906E+03</rscale>
<asrwt>0</asrwt>
<pdfrwt beam="1">  1        3 0.14318668E+00 0.86603906E+03</pdfrwt>
<pdfrwt beam="2">  1       -3 0.30994572E-01 0.86603906E+03</pdfrwt>
<totfact> 0.97896930E+00</totfact>
</mgrwt>
</event>
<event>
 6    1  0.9512547E-007  0.3325042E+04  0.7818608E-02  0.8156552E-01
          2   -1    0    0  501    0  0.00000000000E+00  0.00000000000E+00  0.20247403076E+04  0.20247403076E+04  0.00000000000E+00 0. -1.
         -2   -1    0    0    0  501 -0.00000000000E+00 -0.00000000000E+00 -0.13651018347E+04  0.13651018347E+04  0.00000000000E+00 0.  1.
         23    2    1    2    0    0 -0.14236677258E+04 -0.76687717275E+03 -0.57651509195E+02  0.16208211391E+04  0.93846028869E+02 0.  0.
         13    1    3    3    0    0 -0.55696406949E+03 -0.33771059525E+03  0.86940004470E+01  0.65140847898E+03  0.00000000000E+00 0. -1.
        -13    1    3    3    0    0 -0.86670365627E+03 -0.42916657750E+03 -0.66345509642E+02  0.96941266016E+03  0.00000000000E+00 0.  1.
         22    1    1    2    0    0  0.14236677258E+04  0.76687717275E+03  0.71728998207E+03  0.17690210032E+04  0.00000000000E+00 0.  1.
<mgrwt>
<rscale>  0 0.33250424E+04</rscale>
<asrwt>0</asrwt>
<pdfrwt beam="1">  1        2 0.31149851E+00 0.33250424E+04</pdfrwt>
<pdfrwt beam="2">  1       -2 0.21001567E+00 0.33250424E+04</pdfrwt>
<totfact> 0.61767286E-01</totfact>
</mgrwt>
</event>
<event>
 6    1  0.9512547E-007  0.5534724E+04  0.7818608E-02  0.7750929E-01
         -1   -1    0    0    0  501 -0.00000000000E+00  0.00000000000E+00  0.24193427492E+04  0.24193427492E+04  0.00000000000E+00 0.  1.
          1   -1    0    0  501    0  0.00000000000E+00 -0.00000000000E+00 -0.31654438262E+04  0.31654438262E+04  0.00000000000E+00 0. -1.
         23    2    1    2    0    0 -0.27330908578E+04 -0.90581780834E+02 -0.79694761481E+03  0.28497223959E+04  0.88326306618E+02 0.  0.
         13    1    3    3    0    0 -0.37638711462E+03 -0.39427349837E+02 -0.95447683836E+02  0.39029736909E+03  0.00000000000E+00 0. -1.
        -13    1    3    3    0    0 -0.23567037432E+04 -0.51154430998E+02 -0.70149993097E+03  0.24594250268E+04  0.00000000000E+00 0.  1.
         22    1    1    2    0    0  0.27330908578E+04  0.90581780834E+02  0.50846537822E+02  0.27350641796E+04  0.00000000000E+00 0. -1.
<mgrwt>
<rscale>  0 0.55347244E+04</rscale>
<asrwt>0</asrwt>
<pdfrwt beam="1">  1        1 0.48699136E+00 0.55347244E+04</pdfrwt>
<pdfrwt beam="2">  1       -1 0.37220658E+00 0.55347244E+04</pdfrwt>
<totfact> 0.34488898E-03</totfact>
</mgrwt>
</event>
<event>
 6    1  0.9512547E-007  0.3394805E+04  0.7818608E-02  0.8139182E-01
          2   -1    0    0  501    0  0.00000000000E+00  0.00000000000E+00  0.23556569860E+04  0.23556569860E+04  0.00000000000E+00 0. -1.
         -2   -1    0    0    0  501 -0.00000000000E+00 -0.00000000000E+00 -0.12230881236E+04  0.12230881236E+04  0.00000000000E+00 0.  1.
         23    2    1    2    0    0  0.13813640382E+04  0.97542867512E+03  0.70574445767E+03  0.18346674798E+04  0.91114298159E+02 0.  0.
         13    1    3    3    0    0  0.11282977498E+04  0.80048516424E+03  0.61467839672E+03  0.15138235834E+04  0.00000000000E+00 0. -1.
        -13    1    3    3    0    0  0.25306628848E+03  0.17494351088E+03  0.91066060952E+02  0.32084389634E+03  0.00000000000E+00 0.  1.
         22    1    1    2    0    0 -0.13813640382E+04 -0.97542867512E+03  0.42682440474E+03  0.17440776298E+04  0.00000000000E+00 0. -1.
<mgrwt>
<rscale>  0 0.33948055E+04</rscale>
<asrwt>0</asrwt>
<pdfrwt beam="1">  1        2 0.36240877E+00 0.33948055E+04</pdfrwt>
<pdfrwt beam="2">  1       -2 0.18816740E+00 0.33948055E+04</pdfrwt>
<totfact> 0.55700126E-01</totfact>
</mgrwt>
</event>
<event>
 6    1  0.9512547E-007  0.4128417E+04  0.7818608E-02  0.7979130E-01
          2   -1    0    0  501    0  0.00000000000E+00  0.00000000000E+00  0.26689999205E+04  0.26689999205E+04  0.00000000000E+00 0. -1.
         -2   -1    0    0    0  501 -0.00000000000E+00 -0.00000000000E+00 -0.15964618983E+04  0.15964618983E+04  0.00000000000E+00 0.  1.
         23    2    1    2    0    0  0.70486329834E+03 -0.57176597712E+03 -0.13776591975E+04  0.16525678260E+04  0.96368839299E+02 0.  0.
         13    1    3    3    0    0  0.34742291455E+02 -0.57828881368E+02 -0.85440220789E+02  0.10886338992E+03  0.00000000000E+00 0. -1.
        -13    1    3    3    0    0  0.67012100689E+03 -0.51393709575E+03 -0.12922189767E+04  0.15437044361E+04  0.00000000000E+00 0.  1.
         22    1    1    2    0    0 -0.70486329834E+03  0.57176597712E+03  0.24501972197E+04  0.26128939928E+04  0.00000000000E+00 0. -1.
<mgrwt>
<rscale>  0 0.41284170E+04</rscale>
<asrwt>0</asrwt>
<pdfrwt beam="1">  1        2 0.41061537E+00 0.41284170E+04</pdfrwt>
<pdfrwt beam="2">  1       -2 0.24560952E+00 0.41284170E+04</pdfrwt>
<totfact> 0.14793205E-01</totfact>
</mgrwt>
</event>
<event>
 6    1  0.9512547E-007  0.1158375E+04  0.7818608E-02  0.9150092E-01
         -1   -1    0    0    0  501 -0.00000000000E+00  0.00000000000E+00  0.46579032410E+03  0.46579032410E+03  0.00000000000E+00 0.  1.
          1   -1    0    0  501    0  0.00000000000E+00 -0.00000000000E+00 -0.72019104291E+03  0.72019104291E+03  0.00000000000E+00 0. -1.
         23    2    1    2    0    0 -0.30244548198E+02  0.55604491909E+03 -0.27688291957E+03  0.62866087205E+03  0.91922011275E+02 0.  0.
         13    1    3    3    0    0 -0.42316340232E+02  0.28005549489E+03 -0.18152773571E+03  0.33641354268E+03  0.00000000000E+00 0. -1.
        -13    1    3    3    0    0  0.12071792034E+02  0.27598942421E+03 -0.95355183857E+02  0.29224732937E+03  0.00000000000E+00 0.  1.
         22    1    1    2    0    0  0.30244548198E+02 -0.55604491909E+03  0.22482200757E+02  0.55732049495E+03  0.00000000000E+00 0.  1.
<mgrwt>
<rscale>  0 0.11583748E+04</rscale>
<asrwt>0</asrwt>
<pdfrwt beam="1">  1        1 0.11079862E+00 0.11583748E+04</pdfrwt>
<pdfrwt beam="2">  1       -1 0.71660050E-01 0.11583748E+04</pdfrwt>
<totfact> 0.50914849E+01</totfact>
</mgrwt>
</event>
<event>
 6    1  0.9512547E-007  0.1471351E+04  0.7818608E-02  0.8903731E-01
         -2   -1    0    0    0  501 -0.00000000000E+00  0.00000000000E+00  0.29440469398E+03  0.29440469398E+03  0.00000000000E+00 0.  1.
          2   -1    0    0  501    0  0.00000000000E+00 -0.00000000000E+00 -0.18383480958E+04  0.18383480958E+04  0.00000000000E+00 0. -1.
         23    2    1    2    0    0 -0.55111156577E+03  0.19584192063E+03 -0.14144089508E+04  0.15337058886E+04  0.98097180302E+02 0.  0.
         13    1    3    3    0    0 -0.38511327389E+03  0.16809711207E+03 -0.91953770406E+03  0.10109987448E+04  0.00000000000E+00 0. -1.
        -13    1    3    3    0    0 -0.16599829188E+03  0.27744808565E+02 -0.49487124677E+03  0.52270714381E+03  0.00000000000E+00 0.  1.
         22    1    1    2    0    0  0.55111156577E+03 -0.19584192063E+03 -0.12953445100E+03  0.59904690117E+03  0.00000000000E+00 0.  1.
<mgrwt>
<rscale>  0 0.14713508E+04</rscale>
<asrwt>0</asrwt>
<pdfrwt beam="1">  1        2 0.28282278E+00 0.14713508E+04</pdfrwt>
<pdfrwt beam="2">  1       -2 0.45293030E-01 0.14713508E+04</pdfrwt>
<totfact> 0.36776168E+01</totfact>
</mgrwt>
</event>
<event>
 6    1  0.9512547E-007  0.2042283E+04  0.7818608E-02  0.8587103E-01
          2   -1    0    0  501    0  0.00000000000E+00  0.00000000000E+00  0.30684706030E+04  0.30684706030E+04  0.00000000000E+00 0. -1.
         -2   -1    0    0    0  501 -0.00000000000E+00 -0.00000000000E+00 -0.33982058993E+03  0.33982058993E+03  0.00000000000E+00 0.  1.
         23    2    1    2    0    0  0.33814435348E+02 -0.56847796788E+03  0.27774988613E+04  0.28367172030E+04  0.90299221414E+02 0.  0.
         11    1    3    3    0    0 -0.21991605770E+02 -0.34292816862E+03  0.17206823336E+04  0.17546598111E+04  0.00000000000E+00 0. -1.
        -11    1    3    3    0    0  0.55806041118E+02 -0.22554979926E+03  0.10568165277E+04  0.10820573920E+04  0.00000000000E+00 0.  1.
         22    1    1    2    0    0 -0.33814435348E+02  0.56847796788E+03 -0.48848848204E+02  0.57157398994E+03  0.00000000000E+00 0.  1.
<mgrwt>
<rscale>  0 0.20422825E+04</rscale>
<asrwt>0</asrwt>
<pdfrwt beam="1">  1        2 0.47207238E+00 0.20422825E+04</pdfrwt>
<pdfrwt beam="2">  1       -2 0.52280093E-01 0.20422825E+04</pdfrwt>
<totfact> 0.50520301E+00</totfact>
</mgrwt>
</event>
<event>
 6    1  0.9512547E-007  0.3230126E+04  0.7818608E-02  0.8180906E-01
          2   -1    0    0  501    0  0.00000000000E+00  0.00000000000E+00  0.26245316835E+04  0.26245316835E+04  0.00000000000E+00 0. -1.
         -2   -1    0    0    0  501 -0.00000000000E+00 -0.00000000000E+00 -0.99386455055E+03  0.99386455055E+03  0.00000000000E+00 0.  1.
         23    2    1    2    0    0  0.33163825259E+03  0.56214538198E+03 -0.83738089435E+03  0.10655052403E+04  0.90018296796E+02 0.  0.
         13    1    3    3    0    0  0.17603836003E+03  0.36879612531E+03 -0.47994220845E+03  0.63035276607E+03  0.00000000000E+00 0. -1.
        -13    1    3    3    0    0  0.15559989256E+03  0.19334925666E+03 -0.35743868591E+03  0.43515247420E+03  0.00000000000E+00 0.  1.
         22    1    1    2    0    0 -0.33163825259E+03 -0.56214538198E+03  0.24680480273E+04  0.25528909938E+04  0.00000000000E+00 0. -1.
<mgrwt>
<rscale>  0 0.32301263E+04</rscale>
<asrwt>0</asrwt>
<pdfrwt beam="1">  1        2 0.40377410E+00 0.32301263E+04</pdfrwt>
<pdfrwt beam="2">  1       -2 0.15290224E+00 0.32301263E+04</pdfrwt>
<totfact> 0.70379275E-01</totfact>
</mgrwt>
</event>
<event>
 6    1  0.9512547E-007  0.2298806E+04  0.7818608E-02  0.8478392E-01
          2   -1    0    0  501    0  0.00000000000E+00  0.00000000000E+00  0.14205751434E+04  0.14205751434E+04  0.00000000000E+00 0. -1.
         -2   -1    0    0    0  501 -0.00000000000E+00 -0.00000000000E+00 -0.92999424430E+03  0.92999424430E+03  0.00000000000E+00 0.  1.
         23    2    1    2    0    0  0.80960997796E+01  0.45517599498E+03  0.13228275541E+04  0.14019465817E+04  0.91272925088E+02 0.  0.
         13    1    3    3    0    0  0.43489960565E+02  0.35621864279E+03  0.10453411988E+04  0.11052245564E+04  0.00000000000E+00 0.  1.
        -13    1    3    3    0    0 -0.35393860785E+02  0.98957352184E+02  0.27748635528E+03  0.29672202530E+03  0.00000000000E+00 0. -1.
         22    1    1    2    0    0 -0.80960997796E+01 -0.45517599498E+03 -0.83224665501E+03  0.94862280598E+03  0.00000000000E+00 0.  1.
<mgrwt>
<rscale>  0 0.22988055E+04</rscale>
<asrwt>0</asrwt>
<pdfrwt beam="1">  1        2 0.21855002E+00 0.22988055E+04</pdfrwt>
<pdfrwt beam="2">  1       -2 0.14307604E+00 0.22988055E+04</pdfrwt>
<totfact> 0.43342559E+00</totfact>
</mgrwt>
</event>
<event>
 6    1  0.9512547E-007  0.1861820E+04  0.7818608E-02  0.8674098E-01
         -1   -1    0    0    0  501 -0.00000000000E+00  0.00000000000E+00  0.40200064813E+04  0.40200064813E+04  0.00000000000E+00 0.  1.
          1   -1    0    0  501    0  0.00000000000E+00 -0.00000000000E+00 -0.21557022107E+03  0.21557022107E+03  0.00000000000E+00 0. -1.
         23    2    1    2    0    0  0.18240308520E+03 -0.24090472850E+03  0.39044872303E+04  0.39172746912E+04  0.93351490332E+02 0.  0.
         13    1    3    3    0    0  0.16672078534E+03 -0.20299250446E+03  0.28765252843E+04  0.28884943290E+04  0.00000000000E+00 0.  1.
        -13    1    3    3    0    0  0.15682299855E+02 -0.37912224034E+02  0.10279619460E+04  0.10287803622E+04  0.00000000000E+00 0. -1.
         22    1    1    2    0    0 -0.18240308520E+03  0.24090472850E+03 -0.10005097010E+03  0.31830201118E+03  0.00000000000E+00 0. -1.
<mgrwt>
<rscale>  0 0.18618203E+04</rscale>
<asrwt>0</asrwt>
<pdfrwt beam="1">  1        1 0.33164652E-01 0.18618203E+04</pdfrwt>
<pdfrwt beam="2">  1       -1 0.61846248E+00 0.18618203E+04</pdfrwt>
<totfact> 0.46385390E-02</totfact>
</mgrwt>
</event>
<event>
 6    1  0.9512547E-007  0.1950508E+04  0.7818608E-02  0.8630116E-01
          2   -1    0    0  501    0  0.00000000000E+00  0.00000000000E+00  0.22781984604E+04  0.22781984604E+04  0.00000000000E+00 0. -1.
         -2   -1    0    0    0  501 -0.00000000000E+00 -0.00000000000E+00 -0.41748782912E+03  0.41748782912E+03  0.00000000000E+00 0.  1.
         23    2    1    2    0    0  0.23035763859E+02  0.84148607889E+03  0.16074119205E+04  0.18166017064E+04  0.87402575994E+02 0.  0.
         13    1    3    3    0    0  0.48071752416E+02  0.40358127542E+03  0.72343312599E+03  0.82978565125E+03  0.00000000000E+00 0. -1.
        -13    1    3    3    0    0 -0.25035988557E+02  0.43790480347E+03  0.88397879450E+03  0.98681605518E+03  0.00000000000E+00 0.  1.
         22    1    1    2    0    0 -0.23035763859E+02 -0.84148607889E+03  0.25329871083E+03  0.87908458312E+03  0.00000000000E+00 0.  1.
<mgrwt>
<rscale>  0 0.19505078E+04</rscale>
<asrwt>0</asrwt>
<pdfrwt beam="1">  1        2 0.35049206E+00 0.19505078E+04</pdfrwt>
<pdfrwt beam="2">  1       -2 0.64228898E-01 0.19505078E+04</pdfrwt>
<totfact> 0.97475569E+00</totfact>
</mgrwt>
</event>
<event>
 6    1  0.9512547E-007  0.1599420E+04  0.7818608E-02  0.8820904E-01
          2   -1    0    0  501    0  0.00000000000E+00  0.00000000000E+00  0.13365318585E+04  0.13365318585E+04  0.00000000000E+00 0. -1.
         -2   -1    0    0    0  501 -0.00000000000E+00 -0.00000000000E+00 -0.47850432896E+03  0.47850432896E+03  0.00000000000E+00 0.  1.
         23    2    1    2    0    0  0.65844292014E+03  0.17242691238E+03  0.90118588070E+03  0.11330238983E+04  0.91263592944E+02 0.  0.
         11    1    3    3    0    0  0.25085744906E+03  0.60174010007E+02  0.27086152223E+03  0.37405392051E+03  0.00000000000E+00 0.  1.
        -11    1    3    3    0    0  0.40758547108E+03  0.11225290238E+03  0.63032435848E+03  0.75896997781E+03  0.00000000000E+00 0. -1.
         22    1    1    2    0    0 -0.65844292014E+03 -0.17242691238E+03 -0.43158351198E+02  0.68201228909E+03  0.00000000000E+00 0. -1.
<mgrwt>
<rscale>  0 0.15994202E+04</rscale>
<asrwt>0</asrwt>
<pdfrwt beam="1">  1        2 0.20562029E+00 0.15994202E+04</pdfrwt>
<pdfrwt beam="2">  1       -2 0.73616051E-01 0.15994202E+04</pdfrwt>
<totfact> 0.25121547E+01</totfact>
</mgrwt>
</event>
<event>
 6    1  0.9512547E-007  0.2909633E+04  0.7818608E-02  0.8270017E-01
         -2   -1    0    0    0  501 -0.00000000000E+00  0.00000000000E+00  0.10096498085E+04  0.10096498085E+04  0.00000000000E+00 0.  1.
          2   -1    0    0  501    0  0.00000000000E+00 -0.00000000000E+00 -0.20962629277E+04  0.20962629277E+04  0.00000000000E+00 0. -1.
         23    2    1    2    0    0  0.76075886103E+03 -0.75459960142E+03  0.50393163058E+03  0.11880996056E+04  0.97257294530E+02 0.  0.
         13    1    3    3    0    0  0.16914044396E+03 -0.11760576514E+03  0.11196318364E+03  0.23446825002E+03  0.00000000000E+00 0.  1.
        -13    1    3    3    0    0  0.59161841707E+03 -0.63699383628E+03  0.39196844694E+03  0.95363135554E+03  0.00000000000E+00 0. -1.
         22    1    1    2    0    0 -0.76075886103E+03  0.75459960142E+03 -0.15905447497E+04  0.19178131306E+04  0.00000000000E+00 0. -1.
<mgrwt>
<rscale>  0 0.29096333E+04</rscale>
<asrwt>0</asrwt>
<pdfrwt beam="1">  1        2 0.32250199E+00 0.29096333E+04</pdfrwt>
<pdfrwt beam="2">  1       -2 0.15533074E+00 0.29096333E+04</pdfrwt>
<totfact> 0.13898402E+00</totfact>
</mgrwt>
</event>
<event>
 6    1  0.1141442E-006  0.4243405E+04  0.7818608E-02  0.7957167E-01
          1   -1    0    0  501    0  0.00000000000E+00  0.00000000000E+00  0.27368288307E+04  0.27368288307E+04  0.00000000000E+00 0. -1.
         -1   -1    0    0    0  501 -0.00000000000E+00 -0.00000000000E+00 -0.16448312232E+04  0.16448312232E+04  0.00000000000E+00 0.  1.
         23    2    1    2    0    0  0.99274303822E+03  0.50504538383E+03 -0.13172123349E+04  0.17274366031E+04  0.91538531984E+02 0.  0.
         13    1    3    3    0    0  0.44928374765E+03  0.18560838405E+03 -0.61132832146E+03  0.78104332451E+03  0.00000000000E+00 0. -1.
        -13    1    3    3    0    0  0.54345929057E+03  0.31943699977E+03 -0.70588401345E+03  0.94639327860E+03  0.00000000000E+00 0.  1.
         22    1    1    2    0    0 -0.99274303822E+03 -0.50504538383E+03  0.24092099425E+04  0.26542234507E+04  0.00000000000E+00 0. -1.
<mgrwt>
<rscale>  0 0.42434050E+04</rscale>
<asrwt>0</asrwt>
<pdfrwt beam="1">  1        1 0.42105059E+00 0.42434050E+04</pdfrwt>
<pdfrwt beam="2">  1       -1 0.25305096E+00 0.42434050E+04</pdfrwt>
<totfact> 0.47218906E-02</totfact>
</mgrwt>
</event>
<event>
 6    1  0.9512547E-007  0.4141487E+04  0.7818608E-02  0.7976597E-01
         -1   -1    0    0    0  501 -0.00000000000E+00  0.00000000000E+00  0.17423460166E+04  0.17423460166E+04  0.00000000000E+00 0.  1.
          1   -1    0    0  501    0  0.00000000000E+00 -0.00000000000E+00 -0.24610378310E+04  0.24610378310E+04  0.00000000000E+00 0. -1.
         23    2    1    2    0    0  0.38195620575E+03 -0.73868905890E+03 -0.22831830888E+04  0.24316093087E+04  0.90811586483E+02 0.  0.
         11    1    3    3    0    0  0.25525006659E+03 -0.43249025182E+03 -0.14739903833E+04  0.15571923659E+04  0.00000000000E+00 0.  1.
        -11    1    3    3    0    0  0.12670613916E+03 -0.30619880708E+03 -0.80919270550E+03  0.87441694276E+03  0.00000000000E+00 0. -1.
         22    1    1    2    0    0 -0.38195620575E+03  0.73868905890E+03  0.15644912744E+04  0.17717745389E+04  0.00000000000E+00 0.  1.
<mgrwt>
<rscale>  0 0.41414874E+04</rscale>
<asrwt>0</asrwt>
<pdfrwt beam="1">  1        1 0.37862120E+00 0.41414874E+04</pdfrwt>
<pdfrwt beam="2">  1       -1 0.26805323E+00 0.41414874E+04</pdfrwt>
<totfact> 0.59334259E-02</totfact>
</mgrwt>
</event>
<event>
 6    1  0.9512547E-007  0.1620407E+04  0.7818608E-02  0.8808109E-01
          1   -1    0    0  501    0  0.00000000000E+00  0.00000000000E+00  0.11059168505E+04  0.11059168505E+04  0.00000000000E+00 0. -1.
         -1   -1    0    0    0  501 -0.00000000000E+00 -0.00000000000E+00 -0.59356123780E+03  0.59356123780E+03  0.00000000000E+00 0.  1.
         23    2    1    2    0    0 -0.35383018784E+03  0.72514382064E+03  0.21637458345E+03  0.84003982288E+03  0.88428395990E+02 0.  0.
         11    1    3    3    0    0 -0.26725228081E+03  0.60478699567E+03  0.15225837773E+03  0.67850844159E+03  0.00000000000E+00 0. -1.
        -11    1    3    3    0    0 -0.86577907030E+02  0.12035682497E+03  0.64116205717E+02  0.16153138128E+03  0.00000000000E+00 0.  1.
         22    1    1    2    0    0  0.35383018784E+03 -0.72514382064E+03  0.29598102929E+03  0.85943826546E+03  0.00000000000E+00 0.  1.
<mgrwt>
<rscale>  0 0.16204066E+04</rscale>
<asrwt>0</asrwt>
<pdfrwt beam="1">  1        1 0.17014105E+00 0.16204066E+04</pdfrwt>
<pdfrwt beam="2">  1       -1 0.91317113E-01 0.16204066E+04</pdfrwt>
<totfact> 0.14063357E+01</totfact>
</mgrwt>
</event>
<event>
 6    1  0.9512547E-007  0.3162315E+04  0.7818608E-02  0.8198841E-01
          2   -1    0    0  501    0  0.00000000000E+00  0.00000000000E+00  0.28079422814E+04  0.28079422814E+04  0.00000000000E+00 0. -1.
         -2   -1    0    0    0  501 -0.00000000000E+00 -0.00000000000E+00 -0.89035299584E+03  0.89035299584E+03  0.00000000000E+00 0.  1.
         23    2    1    2    0    0  0.11416655935E+04 -0.88350978927E+03  0.17102813777E+04  0.22398829749E+04  0.89573852905E+02 0.  0.
         11    1    3    3    0    0  0.51408864547E+03 -0.35995837337E+03  0.69235357146E+03  0.93445740078E+03  0.00000000000E+00 0. -1.
        -11    1    3    3    0    0  0.62757694800E+03 -0.52355141590E+03  0.10179278062E+04  0.13054255741E+04  0.00000000000E+00 0.  1.
         22    1    1    2    0    0 -0.11416655935E+04  0.88350978927E+03  0.20730790787E+03  0.14584123024E+04  0.00000000000E+00 0.  1.
<mgrwt>
<rscale>  0 0.31623155E+04</rscale>
<asrwt>0</asrwt>
<pdfrwt beam="1">  1        2 0.43199112E+00 0.31623155E+04</pdfrwt>
<pdfrwt beam="2">  1       -2 0.13697739E+00 0.31623155E+04</pdfrwt>
<totfact> 0.73383550E-01</totfact>
</mgrwt>
</event>
<event>
 6    1  0.9512547E-007  0.2130844E+04  0.7818608E-02  0.8547777E-01
          1   -1    0    0  501    0  0.00000000000E+00  0.00000000000E+00  0.21340022848E+04  0.21340022848E+04  0.00000000000E+00 0. -1.
         -1   -1    0    0    0  501 -0.00000000000E+00 -0.00000000000E+00 -0.53192277138E+03  0.53192277138E+03  0.00000000000E+00 0.  1.
         23    2    1    2    0    0  0.13180651643E+03  0.52968858270E+03  0.19443932792E+04  0.20216256952E+04  0.91445474453E+02 0.  0.
         13    1    3    3    0    0 -0.11512983995E+01  0.10507967936E+03  0.29029695844E+03  0.30873190406E+03  0.00000000000E+00 0.  1.
        -13    1    3    3    0    0  0.13295781483E+03  0.42460890333E+03  0.16540963207E+04  0.17128937911E+04  0.00000000000E+00 0. -1.
         22    1    1    2    0    0 -0.13180651643E+03 -0.52968858270E+03 -0.34231376574E+03  0.64429936103E+03  0.00000000000E+00 0.  1.
<mgrwt>
<rscale>  0 0.21308443E+04</rscale>
<asrwt>0</asrwt>
<pdfrwt beam="1">  1        1 0.32830804E+00 0.21308443E+04</pdfrwt>
<pdfrwt beam="2">  1       -1 0.81834274E-01 0.21308443E+04</pdfrwt>
<totfact> 0.32930155E+00</totfact>
</mgrwt>
</event>
<event>
 6    1  0.9512547E-007  0.2520567E+04  0.7818608E-02  0.8395695E-01
          1   -1    0    0  501    0  0.00000000000E+00  0.00000000000E+00  0.18135412354E+04  0.18135412354E+04  0.00000000000E+00 0. -1.
         -1   -1    0    0    0  501 -0.00000000000E+00 -0.00000000000E+00 -0.87580841032E+03  0.87580841032E+03  0.00000000000E+00 0.  1.
         23    2    1    2    0    0 -0.95215316225E+03 -0.33299001119E+03  0.12727219850E+04  0.16264781910E+04  0.90177950374E+02 0.  0.
         11    1    3    3    0    0 -0.61201309021E+03 -0.25343508212E+03  0.79867086115E+03  0.10376244542E+04  0.00000000000E+00 0. -1.
        -11    1    3    3    0    0 -0.34014007205E+03 -0.79554929071E+02  0.47405112388E+03  0.58885373685E+03  0.00000000000E+00 0.  1.
         22    1    1    2    0    0  0.95215316225E+03  0.33299001119E+03 -0.33498915995E+03  0.10628714547E+04  0.00000000000E+00 0.  1.
<mgrwt>
<rscale>  0 0.25205671E+04</rscale>
<asrwt>0</asrwt>
<pdfrwt beam="1">  1        1 0.27900634E+00 0.25205671E+04</pdfrwt>
<pdfrwt beam="2">  1       -1 0.13473976E+00 0.25205671E+04</pdfrwt>
<totfact> 0.16373284E+00</totfact>
</mgrwt>
</event>
<event>
 6    1  0.9512547E-007  0.2711494E+04  0.7818608E-02  0.8331285E-01
          1   -1    0    0  501    0  0.00000000000E+00  0.00000000000E+00  0.14945602899E+04  0.14945602899E+04  0.00000000000E+00 0. -1.
         -1   -1    0    0    0  501 -0.00000000000E+00 -0.00000000000E+00 -0.12298262254E+04  0.12298262254E+04  0.00000000000E+00 0.  1.
         23    2    1    2    0    0  0.32210440457E+03 -0.47739853638E+03 -0.10989718008E+04  0.12440641527E+04  0.91082308692E+02 0.  0.
         11    1    3    3    0    0  0.22054751475E+03 -0.24825693832E+03 -0.64740494019E+03  0.72760282454E+03  0.00000000000E+00 0. -1.
        -11    1    3    3    0    0  0.10155688982E+03 -0.22914159806E+03 -0.45156686064E+03  0.51646132813E+03  0.00000000000E+00 0.  1.
         22    1    1    2    0    0 -0.32210440457E+03  0.47739853638E+03  0.13637058654E+04  0.14803223626E+04  0.00000000000E+00 0. -1.
<mgrwt>
<rscale>  0 0.27114936E+04</rscale>
<asrwt>0</asrwt>
<pdfrwt beam="1">  1        1 0.22993235E+00 0.27114936E+04</pdfrwt>
<pdfrwt beam="2">  1       -1 0.18920404E+00 0.27114936E+04</pdfrwt>
<totfact> 0.10303496E+00</totfact>
</mgrwt>
</event>
<event>
 6    1  0.9512547E-007  0.1072905E+04  0.7818608E-02  0.9232010E-01
          2   -1    0    0  501    0  0.00000000000E+00  0.00000000000E+00  0.12671136959E+04  0.12671136959E+04  0.00000000000E+00 0. -1.
         -2   -1    0    0    0  501 -0.00000000000E+00 -0.00000000000E+00 -0.22711571728E+03  0.22711571728E+03  0.00000000000E+00 0.  1.
         23    2    1    2    0    0  0.36952873972E+02  0.64265836309E+02  0.12582457748E+04  0.12637349162E+04  0.91366820974E+02 0.  0.
         11    1    3    3    0    0  0.54664389365E+02  0.32448421712E+02  0.42842657142E+03  0.43311710037E+03  0.00000000000E+00 0. -1.
        -11    1    3    3    0    0 -0.17711515393E+02  0.31817414597E+02  0.82981920340E+03  0.83061781583E+03  0.00000000000E+00 0.  1.
         22    1    1    2    0    0 -0.36952873972E+02 -0.64265836309E+02 -0.21824779617E+03  0.23049449700E+03  0.00000000000E+00 0.  1.
<mgrwt>
<rscale>  0 0.10729053E+04</rscale>
<asrwt>0</asrwt>
<pdfrwt beam="1">  1        2 0.19494056E+00 0.10729053E+04</pdfrwt>
<pdfrwt beam="2">  1       -2 0.34940880E-01 0.10729053E+04</pdfrwt>
<totfact> 0.13194014E+02</totfact>
</mgrwt>
</event>
<event>
 6    1  0.9512547E-007  0.1258107E+04  0.7818608E-02  0.9063463E-01
         -2   -1    0    0    0  501 -0.00000000000E+00  0.00000000000E+00  0.41081593504E+03  0.41081593504E+03  0.00000000000E+00 0.  1.
          2   -1    0    0  501    0  0.00000000000E+00 -0.00000000000E+00 -0.96322508302E+03  0.96322508302E+03  0.00000000000E+00 0. -1.
         23    2    1    2    0    0  0.52967407124E+03 -0.20534847044E+03  0.91495021465E+01  0.57524771965E+03  0.90020050619E+02 0.  0.
         13    1    3    3    0    0  0.34398462093E+03 -0.11073594264E+03  0.43690445983E+02  0.36400099382E+03  0.00000000000E+00 0. -1.
        -13    1    3    3    0    0  0.18568945031E+03 -0.94612527801E+02 -0.34540943837E+02  0.21124672583E+03  0.00000000000E+00 0.  1.
         22    1    1    2    0    0 -0.52967407124E+03  0.20534847044E+03 -0.56155865013E+03  0.79879329841E+03  0.00000000000E+00 0. -1.
<mgrwt>
<rscale>  0 0.12581069E+04</rscale>
<asrwt>0</asrwt>
<pdfrwt beam="1">  1        2 0.14818847E+00 0.12581069E+04</pdfrwt>
<pdfrwt beam="2">  1       -2 0.63202452E-01 0.12581069E+04</pdfrwt>
<totfact> 0.60663612E+01</totfact>
</mgrwt>
</event>
<event>
 6    1  0.9512547E-007  0.6615675E+03  0.7818608E-02  0.9785312E-01
         -2   -1    0    0    0  501 -0.00000000000E+00  0.00000000000E+00  0.35021579784E+03  0.35021579784E+03  0.00000000000E+00 0.  1.
          2   -1    0    0  501    0  0.00000000000E+00 -0.00000000000E+00 -0.31242992756E+03  0.31242992756E+03  0.00000000000E+00 0. -1.
         23    2    1    2    0    0  0.51751133393E+02 -0.14024082709E+03 -0.26883232307E+03  0.32152934367E+03  0.93619610789E+02 0.  0.
         11    1    3    3    0    0  0.75888207372E+02 -0.74487320003E+02 -0.16148377802E+03  0.19335043683E+03  0.00000000000E+00 0.  1.
        -11    1    3    3    0    0 -0.24137073978E+02 -0.65753507082E+02 -0.10734854505E+03  0.12817890684E+03  0.00000000000E+00 0. -1.
         22    1    1    2    0    0 -0.51751133393E+02  0.14024082709E+03  0.30661819335E+03  0.34111638173E+03  0.00000000000E+00 0.  1.
<mgrwt>
<rscale>  0 0.66156752E+03</rscale>
<asrwt>0</asrwt>
<pdfrwt beam="1">  1        2 0.48066142E-01 0.66156752E+03</pdfrwt>
<pdfrwt beam="2">  1       -2 0.53879354E-01 0.66156752E+03</pdfrwt>
<totfact> 0.34375370E+02</totfact>
</mgrwt>
</event>
<event>
 6    1  0.9512547E-007  0.1372279E+04  0.7818608E-02  0.8974133E-01
         -1   -1    0    0    0  501 -0.00000000000E+00  0.00000000000E+00  0.80133105931E+03  0.80133105931E+03  0.00000000000E+00 0.  1.
          1   -1    0    0  501    0  0.00000000000E+00 -0.00000000000E+00 -0.58750636163E+03  0.58750636163E+03  0.00000000000E+00 0. -1.
         23    2    1    2    0    0  0.40674236950E+03  0.10211841158E+03 -0.43825622655E+03  0.61354582621E+03  0.92208652591E+02 0.  0.
         13    1    3    3    0    0  0.33423725825E+03  0.11177877059E+03 -0.39134367310E+03  0.52664875280E+03  0.00000000000E+00 0.  1.
        -13    1    3    3    0    0  0.72505111256E+02 -0.96603590137E+01 -0.46912553452E+02  0.86897073403E+02  0.00000000000E+00 0. -1.
         22    1    1    2    0    0 -0.40674236950E+03 -0.10211841158E+03  0.65208092422E+03  0.77529159474E+03  0.00000000000E+00 0.  1.
<mgrwt>
<rscale>  0 0.13722785E+04</rscale>
<asrwt>0</asrwt>
<pdfrwt beam="1">  1        1 0.90385594E-01 0.13722785E+04</pdfrwt>
<pdfrwt beam="2">  1       -1 0.12328170E+00 0.13722785E+04</pdfrwt>
<totfact> 0.19989141E+01</totfact>
</mgrwt>
</event>
<event>
 6    1  0.9512547E-007  0.5005084E+04  0.7818608E-02  0.7827723E-01
         -1   -1    0    0    0  501 -0.00000000000E+00  0.00000000000E+00  0.33490428986E+04  0.33490428986E+04  0.00000000000E+00 0.  1.
          1   -1    0    0  501    0  0.00000000000E+00 -0.00000000000E+00 -0.18700021019E+04  0.18700021019E+04  0.00000000000E+00 0. -1.
         23    2    1    2    0    0 -0.47145582876E+03 -0.18603026165E+04  0.24132394873E+04  0.30846308848E+04  0.90699775510E+02 0.  0.
         13    1    3    3    0    0 -0.28354873805E+03 -0.11303408441E+04  0.15358101901E+04  0.19278960684E+04  0.00000000000E+00 0.  1.
        -13    1    3    3    0    0 -0.18790709071E+03 -0.72996177247E+03  0.87742929718E+03  0.11567348164E+04  0.00000000000E+00 0. -1.
         22    1    1    2    0    0  0.47145582876E+03  0.18603026165E+04 -0.93419869054E+03  0.21344141156E+04  0.00000000000E+00 0. -1.
<mgrwt>
<rscale>  0 0.50050843E+04</rscale>
<asrwt>0</asrwt>
<pdfrwt beam="1">  1        1 0.28769263E+00 0.50050843E+04</pdfrwt>
<pdfrwt beam="2">  1       -1 0.51523737E+00 0.50050843E+04</pdfrwt>
<totfact> 0.31667931E-03</totfact>
</mgrwt>
</event>
<event>
 6    1  0.9512547E-007  0.1607541E+04  0.7818608E-02  0.8815929E-01
         -3   -1    0    0    0  501 -0.00000000000E+00  0.00000000000E+00  0.12008657466E+04  0.12008657466E+04  0.00000000000E+00 0.  1.
          3   -1    0    0  501    0  0.00000000000E+00 -0.00000000000E+00 -0.53798429383E+03  0.53798429383E+03  0.00000000000E+00 0. -1.
         23    2    1    2    0    0 -0.78776866906E+03 -0.51231818897E+02  0.47946871019E+03  0.92839065879E+03  0.93887145308E+02 0.  0.
         13    1    3    3    0    0 -0.10764849581E+03 -0.10415425212E+02  0.10585651537E+03  0.15133499786E+03  0.00000000000E+00 0. -1.
        -13    1    3    3    0    0 -0.68012017325E+03 -0.40816393685E+02  0.37361219482E+03  0.77705566093E+03  0.00000000000E+00 0.  1.
         22    1    1    2    0    0  0.78776866906E+03  0.51231818897E+02  0.18341274262E+03  0.81045938169E+03  0.00000000000E+00 0.  1.
<mgrwt>
<rscale>  0 0.16075409E+04</rscale>
<asrwt>0</asrwt>
<pdfrwt beam="1">  1        3 0.82766814E-01 0.16075409E+04</pdfrwt>
<pdfrwt beam="2">  1       -3 0.18474858E+00 0.16075409E+04</pdfrwt>
<totfact> 0.62179927E-01</totfact>
</mgrwt>
</event>
<event>
 6    1  0.9512547E-007  0.2811243E+04  0.7818608E-02  0.8299786E-01
          2   -1    0    0  501    0  0.00000000000E+00  0.00000000000E+00  0.19993421254E+04  0.19993421254E+04  0.00000000000E+00 0. -1.
         -2   -1    0    0    0  501 -0.00000000000E+00 -0.00000000000E+00 -0.98821075419E+03  0.98821075419E+03  0.00000000000E+00 0.  1.
         23    2    1    2    0    0 -0.45128136764E+03  0.59623880923E+03  0.17691138554E+04  0.19228026570E+04  0.90833000573E+02 0.  0.
         11    1    3    3    0    0 -0.35842019289E+03  0.52436376817E+03  0.15216580146E+04  0.16488982714E+04  0.00000000000E+00 0. -1.
        -11    1    3    3    0    0 -0.92861174757E+02  0.71875041060E+02  0.24745584079E+03  0.27390438559E+03  0.00000000000E+00 0.  1.
         22    1    1    2    0    0  0.45128136764E+03 -0.59623880923E+03 -0.75798248412E+03  0.10647502227E+04  0.00000000000E+00 0.  1.
<mgrwt>
<rscale>  0 0.28112427E+04</rscale>
<asrwt>0</asrwt>
<pdfrwt beam="1">  1        2 0.30759110E+00 0.28112427E+04</pdfrwt>
<pdfrwt beam="2">  1       -2 0.15203242E+00 0.28112427E+04</pdfrwt>
<totfact> 0.16806441E+00</totfact>
</mgrwt>
</event>
<event>
 6    1  0.9512547E-007  0.1861827E+04  0.7818608E-02  0.8674094E-01
         -2   -1    0    0    0  501 -0.00000000000E+00  0.00000000000E+00  0.68583341440E+03  0.68583341440E+03  0.00000000000E+00 0.  1.
          2   -1    0    0  501    0  0.00000000000E+00 -0.00000000000E+00 -0.12635721895E+04  0.12635721895E+04  0.00000000000E+00 0. -1.
         23    2    1    2    0    0 -0.62496638558E+03  0.68708124273E+03 -0.30187468375E+03  0.98050694352E+03  0.87189015331E+02 0.  0.
         13    1    3    3    0    0 -0.36395880530E+02  0.14782944687E+02 -0.10419575841E+02  0.40641888906E+02  0.00000000000E+00 0. -1.
        -13    1    3    3    0    0 -0.58857050505E+03  0.67229829804E+03 -0.29145510791E+03  0.93986505462E+03  0.00000000000E+00 0.  1.
         22    1    1    2    0    0  0.62496638558E+03 -0.68708124273E+03 -0.27586409136E+03  0.96889866039E+03  0.00000000000E+00 0.  1.
<mgrwt>
<rscale>  0 0.18618271E+04</rscale>
<asrwt>0</asrwt>
<pdfrwt beam="1">  1        2 0.19439572E+00 0.18618271E+04</pdfrwt>
<pdfrwt beam="2">  1       -2 0.10551283E+00 0.18618271E+04</pdfrwt>
<totfact> 0.11853713E+01</totfact>
</mgrwt>
</event>
<event>
 6    1  0.9512547E-007  0.2036410E+04  0.7818608E-02  0.8589785E-01
          1   -1    0    0  501    0  0.00000000000E+00  0.00000000000E+00  0.12650020331E+04  0.12650020331E+04  0.00000000000E+00 0. -1.
         -1   -1    0    0    0  501 -0.00000000000E+00 -0.00000000000E+00 -0.81955698271E+03  0.81955698271E+03  0.00000000000E+00 0.  1.
         23    2    1    2    0    0  0.28342931834E+03  0.91988199640E+03 -0.10999794781E+03  0.97323908437E+03  0.92626675575E+02 0.  0.
         11    1    3    3    0    0  0.33696811440E+02  0.18154644458E+03  0.85688301732E+01  0.18484591284E+03  0.00000000000E+00 0.  1.
        -11    1    3    3    0    0  0.24973250690E+03  0.73833555182E+03 -0.11856677798E+03  0.78839317153E+03  0.00000000000E+00 0. -1.
         22    1    1    2    0    0 -0.28342931834E+03 -0.91988199640E+03  0.55544299821E+03  0.11113199315E+04  0.00000000000E+00 0. -1.
<mgrwt>
<rscale>  0 0.20364098E+04</rscale>
<asrwt>0</asrwt>
<pdfrwt beam="1">  1        1 0.19461570E+00 0.20364098E+04</pdfrwt>
<pdfrwt beam="2">  1       -1 0.12608569E+00 0.20364098E+04</pdfrwt>
<totfact> 0.48546508E+00</totfact>
</mgrwt>
</event>
<event>
 6    1  0.9512547E-007  0.3977901E+04  0.7818608E-02  0.8009020E-01
         -2   -1    0    0    0  501 -0.00000000000E+00  0.00000000000E+00  0.30827339811E+04  0.30827339811E+04  0.00000000000E+00 0.  1.
          2   -1    0    0  501    0  0.00000000000E+00 -0.00000000000E+00 -0.12832515995E+04  0.12832515995E+04  0.00000000000E+00 0. -1.
         23    2    1    2    0    0 -0.95719095156E+03 -0.17388158073E+04  0.10203058359E+04  0.22336603196E+04  0.92301110605E+02 0.  0.
         13    1    3    3    0    0 -0.51826974704E+03 -0.10349745491E+04  0.60136885183E+03  0.13043850443E+04  0.00000000000E+00 0. -1.
        -13    1    3    3    0    0 -0.43892120451E+03 -0.70384125819E+03  0.41893698410E+03  0.92927527523E+03  0.00000000000E+00 0.  1.
         22    1    1    2    0    0  0.95719095156E+03  0.17388158073E+04  0.77917654574E+03  0.21323252610E+04  0.00000000000E+00 0. -1.
<mgrwt>
<rscale>  0 0.39779006E+04</rscale>
<asrwt>0</asrwt>
<pdfrwt beam="1">  1        2 0.19742332E+00 0.39779006E+04</pdfrwt>
<pdfrwt beam="2">  1       -2 0.47426676E+00 0.39779006E+04</pdfrwt>
<totfact> 0.32153762E-02</totfact>
</mgrwt>
</event>
<event>
 6    1  0.9512547E-007  0.1279439E+04  0.7818608E-02  0.9046031E-01
         -2   -1    0    0    0  501 -0.00000000000E+00  0.00000000000E+00  0.48854216894E+03  0.48854216894E+03  0.00000000000E+00 0.  1.
          2   -1    0    0  501    0  0.00000000000E+00 -0.00000000000E+00 -0.83767812154E+03  0.83767812154E+03  0.00000000000E+00 0. -1.
         23    2    1    2    0    0 -0.48448861170E+03  0.87300083378E+02 -0.59369859575E+03  0.77652818953E+03  0.90374150723E+02 0.  0.
         13    1    3    3    0    0 -0.22550589941E+03  0.13361501930E+02 -0.32742965386E+03  0.39779595100E+03  0.00000000000E+00 0. -1.
        -13    1    3    3    0    0 -0.25898271228E+03  0.73938581448E+02 -0.26626894189E+03  0.37873223853E+03  0.00000000000E+00 0.  1.
         22    1    1    2    0    0  0.48448861170E+03 -0.87300083378E+02  0.24456264315E+03  0.54969210095E+03  0.00000000000E+00 0.  1.
<mgrwt>
<rscale>  0 0.12794391E+04</rscale>
<asrwt>0</asrwt>
<pdfrwt beam="1">  1        2 0.12887356E+00 0.12794391E+04</pdfrwt>
<pdfrwt beam="2">  1       -2 0.75160333E-01 0.12794391E+04</pdfrwt>
<totfact> 0.50526570E+01</totfact>
</mgrwt>
</event>
<event>
 6    1  0.9512547E-007  0.3097354E+04  0.7818608E-02  0.8216465E-01
          2   -1    0    0  501    0  0.00000000000E+00  0.00000000000E+00  0.32257409211E+04  0.32257409211E+04  0.00000000000E+00 0. -1.
         -2   -1    0    0    0  501 -0.00000000000E+00 -0.00000000000E+00 -0.74351915329E+03  0.74351915329E+03  0.00000000000E+00 0.  1.
         23    2    1    2    0    0  0.44323199831E+03 -0.13549131776E+04  0.20133324239E+04  0.24685597246E+04  0.89640066433E+02 0.  0.
         13    1    3    3    0    0  0.34138701564E+03 -0.11492676919E+04  0.16891155837E+04  0.20713456441E+04  0.00000000000E+00 0. -1.
        -13    1    3    3    0    0  0.10184498267E+03 -0.20564548562E+03  0.32421684027E+03  0.39721408052E+03  0.00000000000E+00 0.  1.
         22    1    1    2    0    0 -0.44323199831E+03  0.13549131776E+04  0.46888934385E+03  0.15007003498E+04  0.00000000000E+00 0.  1.
<mgrwt>
<rscale>  0 0.30973538E+04</rscale>
<asrwt>0</asrwt>
<pdfrwt beam="1">  1        2 0.49626783E+00 0.30973538E+04</pdfrwt>
<pdfrwt beam="2">  1       -2 0.11438756E+00 0.30973538E+04</pdfrwt>
<totfact> 0.63226072E-01</totfact>
</mgrwt>
</event>
<event>
 6    1  0.9512547E-007  0.1585100E+04  0.7818608E-02  0.8829754E-01
          1   -1    0    0  501    0  0.00000000000E+00  0.00000000000E+00  0.45238467900E+04  0.45238467900E+04  0.00000000000E+00 0. -1.
         -1   -1    0    0    0  501 -0.00000000000E+00 -0.00000000000E+00 -0.13884983691E+03  0.13884983691E+03  0.00000000000E+00 0.  1.
         23    2    1    2    0    0 -0.65153896571E+03  0.32904203020E+03  0.30880360500E+04  0.31744495823E+04  0.91606895795E+02 0.  0.
         13    1    3    3    0    0 -0.24925307053E+03  0.14901528011E+03  0.10587078627E+04  0.10978137298E+04  0.00000000000E+00 0. -1.
        -13    1    3    3    0    0 -0.40228589518E+03  0.18002675010E+03  0.20293281873E+04  0.20766358525E+04  0.00000000000E+00 0.  1.
         22    1    1    2    0    0  0.65153896571E+03 -0.32904203020E+03  0.12969609032E+04  0.14882470446E+04  0.00000000000E+00 0.  1.
<mgrwt>
<rscale>  0 0.15850999E+04</rscale>
<asrwt>0</asrwt>
<pdfrwt beam="1">  1        1 0.69597632E+00 0.15850999E+04</pdfrwt>
<pdfrwt beam="2">  1       -1 0.21361517E-01 0.15850999E+04</pdfrwt>
<totfact> 0.54993608E-01</totfact>
</mgrwt>
</event>
<event>
 6    1  0.9512547E-007  0.1750776E+04  0.7818608E-02  0.8732923E-01
          1   -1    0    0  501    0  0.00000000000E+00  0.00000000000E+00  0.47576839397E+03  0.47576839397E+03  0.00000000000E+00 0. -1.
         -1   -1    0    0    0  501 -0.00000000000E+00 -0.00000000000E+00 -0.16106659558E+04  0.16106659558E+04  0.00000000000E+00 0.  1.
         23    2    1    2    0    0 -0.19136394909E+03  0.45068890894E+03  0.29218436132E+03  0.57769200297E+03  0.92820771591E+02 0.  0.
         13    1    3    3    0    0 -0.15484533356E+02  0.80002608241E+02  0.86105654317E+02  0.11855113582E+03  0.00000000000E+00 0.  1.
        -13    1    3    3    0    0 -0.17587941574E+03  0.37068630070E+03  0.20607870700E+03  0.45914086715E+03  0.00000000000E+00 0. -1.
         22    1    1    2    0    0  0.19136394909E+03 -0.45068890894E+03 -0.14270819231E+04  0.15087423468E+04  0.00000000000E+00 0.  1.
<mgrwt>
<rscale>  0 0.17507758E+04</rscale>
<asrwt>0</asrwt>
<pdfrwt beam="1">  1        1 0.73195138E-01 0.17507758E+04</pdfrwt>
<pdfrwt beam="2">  1       -1 0.24779476E+00 0.17507758E+04</pdfrwt>
<totfact> 0.32416681E+00</totfact>
</mgrwt>
</event>
<event>
 6    1  0.9512547E-007  0.2904340E+04  0.7818608E-02  0.8271587E-01
         -2   -1    0    0    0  501 -0.00000000000E+00  0.00000000000E+00  0.12138133491E+04  0.12138133491E+04  0.00000000000E+00 0.  1.
          2   -1    0    0  501    0  0.00000000000E+00 -0.00000000000E+00 -0.17373331645E+04  0.17373331645E+04  0.00000000000E+00 0. -1.
         23    2    1    2    0    0  0.11115095313E+04 -0.31804563194E+03 -0.11526258747E+04  0.16349471002E+04  0.88877169087E+02 0.  0.
         11    1    3    3    0    0  0.91074408883E+03 -0.25460637381E+03 -0.89286829890E+03  0.13005741040E+04  0.00000000000E+00 0. -1.
        -11    1    3    3    0    0  0.20076544249E+03 -0.63439258124E+02 -0.25975757576E+03  0.33437299611E+03  0.00000000000E+00 0.  1.
         22    1    1    2    0    0 -0.11115095313E+04  0.31804563194E+03  0.62910605928E+03  0.13161994135E+04  0.00000000000E+00 0.  1.
<mgrwt>
<rscale>  0 0.29043403E+04</rscale>
<asrwt>0</asrwt>
<pdfrwt beam="1">  1        2 0.26728202E+00 0.29043403E+04</pdfrwt>
<pdfrwt beam="2">  1       -2 0.18674052E+00 0.29043403E+04</pdfrwt>
<totfact> 0.13153259E+00</totfact>
</mgrwt>
</event>
<event>
 6    1  0.9512547E-007  0.2576574E+04  0.7818608E-02  0.8376202E-01
          2   -1    0    0  501    0  0.00000000000E+00  0.00000000000E+00  0.36494981164E+04  0.36494981164E+04  0.00000000000E+00 0. -1.
         -2   -1    0    0    0  501 -0.00000000000E+00 -0.00000000000E+00 -0.45477037387E+03  0.45477037387E+03  0.00000000000E+00 0.  1.
         23    2    1    2    0    0 -0.43796272240E+03  0.57556397781E+03  0.32945736511E+04  0.33741627142E+04  0.87597035529E+02 0.  0.
         13    1    3    3    0    0 -0.23111968748E+03  0.35853087231E+03  0.18054812635E+04  0.18551882085E+04  0.00000000000E+00 0. -1.
        -13    1    3    3    0    0 -0.20684303492E+03  0.21703310550E+03  0.14890923876E+04  0.15189745056E+04  0.00000000000E+00 0.  1.
         22    1    1    2    0    0  0.43796272240E+03 -0.57556397781E+03 -0.99845908576E+02  0.73010577605E+03  0.00000000000E+00 0.  1.
<mgrwt>
<rscale>  0 0.25765742E+04</rscale>
<asrwt>0</asrwt>
<pdfrwt beam="1">  1        2 0.56146123E+00 0.25765742E+04</pdfrwt>
<pdfrwt beam="2">  1       -2 0.69964675E-01 0.25765742E+04</pdfrwt>
<totfact> 0.10498455E+00</totfact>
</mgrwt>
</event>
<event>
 6    1  0.9512547E-007  0.2494661E+04  0.7818608E-02  0.8404890E-01
          2   -1    0    0  501    0  0.00000000000E+00  0.00000000000E+00  0.55981318143E+03  0.55981318143E+03  0.00000000000E+00 0. -1.
         -2   -1    0    0    0  501 -0.00000000000E+00 -0.00000000000E+00 -0.27792020579E+04  0.27792020579E+04  0.00000000000E+00 0.  1.
         23    2    1    2    0    0 -0.47496050983E+03  0.34780044568E+03 -0.25805014069E+04  0.26483960277E+04  0.91985720436E+02 0.  0.
         13    1    3    3    0    0 -0.19409034690E+03  0.16131174428E+03 -0.91833674303E+03  0.95238380667E+03  0.00000000000E+00 0. -1.
        -13    1    3    3    0    0 -0.28087016293E+03  0.18648870140E+03 -0.16621646639E+04  0.16960122210E+04  0.00000000000E+00 0.  1.
         22    1    1    2    0    0  0.47496050983E+03 -0.34780044568E+03  0.36111253038E+03  0.69061921166E+03  0.00000000000E+00 0. -1.
<mgrwt>
<rscale>  0 0.24946615E+04</rscale>
<asrwt>0</asrwt>
<pdfrwt beam="1">  1        2 0.86125104E-01 0.24946615E+04</pdfrwt>
<pdfrwt beam="2">  1       -2 0.42756955E+00 0.24946615E+04</pdfrwt>
<totfact> 0.23498571E-01</totfact>
</mgrwt>
</event>
<event>
 6    1  0.9512547E-007  0.3003808E+04  0.7818608E-02  0.8242644E-01
          2   -1    0    0  501    0  0.00000000000E+00  0.00000000000E+00  0.22867715316E+04  0.22867715316E+04  0.00000000000E+00 0. -1.
         -2   -1    0    0    0  501 -0.00000000000E+00 -0.00000000000E+00 -0.98641961519E+03  0.98641961519E+03  0.00000000000E+00 0.  1.
         23    2    1    2    0    0 -0.73480698010E+03 -0.56738007184E+03  0.19353683433E+04  0.21484212564E+04  0.90563937989E+02 0.  0.
         13    1    3    3    0    0 -0.15366352071E+03 -0.82713943862E+02  0.31649658143E+03  0.36141964552E+03  0.00000000000E+00 0. -1.
        -13    1    3    3    0    0 -0.58114345939E+03 -0.48466612798E+03  0.16188717619E+04  0.17870016109E+04  0.00000000000E+00 0.  1.
         22    1    1    2    0    0  0.73480698010E+03  0.56738007184E+03 -0.63501642687E+03  0.11247698904E+04  0.00000000000E+00 0.  1.
<mgrwt>
<rscale>  0 0.30038084E+04</rscale>
<asrwt>0</asrwt>
<pdfrwt beam="1">  1        2 0.35181101E+00 0.30038084E+04</pdfrwt>
<pdfrwt beam="2">  1       -2 0.15175686E+00 0.30038084E+04</pdfrwt>
<totfact> 0.11465402E+00</totfact>
</mgrwt>
</event>
<event>
 6    1  0.9512547E-007  0.1812881E+04  0.7818608E-02  0.8699479E-01
         -1   -1    0    0    0  501 -0.00000000000E+00  0.00000000000E+00  0.22142816656E+03  0.22142816656E+03  0.00000000000E+00 0.  1.
          1   -1    0    0  501    0  0.00000000000E+00 -0.00000000000E+00 -0.37106126459E+04  0.37106126459E+04  0.00000000000E+00 0. -1.
         23    2    1    2    0    0  0.42116624030E+03 -0.33791040723E+03 -0.33219913676E+04  0.33667815959E+04  0.89594768376E+02 0.  0.
         13    1    3    3    0    0  0.88502725131E+02 -0.36174456347E+02 -0.46779719337E+03  0.47746783952E+03  0.00000000000E+00 0.  1.
        -13    1    3    3    0    0  0.33266351517E+03 -0.30173595088E+03 -0.28541941743E+04  0.28893137564E+04  0.00000000000E+00 0. -1.
         22    1    1    2    0    0 -0.42116624030E+03  0.33791040723E+03 -0.16719311166E+03  0.56525921653E+03  0.00000000000E+00 0.  1.
<mgrwt>
<rscale>  0 0.18128808E+04</rscale>
<asrwt>0</asrwt>
<pdfrwt beam="1">  1        1 0.57086351E+00 0.18128808E+04</pdfrwt>
<pdfrwt beam="2">  1       -1 0.34065870E-01 0.18128808E+04</pdfrwt>
<totfact> 0.13090499E+00</totfact>
</mgrwt>
</event>
<event>
 6    1  0.9512547E-007  0.1814665E+04  0.7818608E-02  0.8698540E-01
          2   -1    0    0  501    0  0.00000000000E+00  0.00000000000E+00  0.52367713988E+03  0.52367713988E+03  0.00000000000E+00 0. -1.
         -2   -1    0    0    0  501 -0.00000000000E+00 -0.00000000000E+00 -0.15720599441E+04  0.15720599441E+04  0.00000000000E+00 0.  1.
         23    2    1    2    0    0 -0.85393095220E+03 -0.16608055644E+03 -0.81429236373E+03  0.11948602019E+04  0.88532626827E+02 0.  0.
         11    1    3    3    0    0 -0.57468899558E+03 -0.13681706408E+03 -0.50551554806E+03  0.77751676509E+03  0.00000000000E+00 0. -1.
        -11    1    3    3    0    0 -0.27924195661E+03 -0.29263492355E+02 -0.30877681567E+03  0.41734343677E+03  0.00000000000E+00 0.  1.
         22    1    1    2    0    0  0.85393095220E+03  0.16608055644E+03 -0.23409044045E+03  0.90087688207E+03  0.00000000000E+00 0.  1.
<mgrwt>
<rscale>  0 0.18146645E+04</rscale>
<asrwt>0</asrwt>
<pdfrwt beam="1">  1        2 0.80565715E-01 0.18146645E+04</pdfrwt>
<pdfrwt beam="2">  1       -2 0.24185537E+00 0.18146645E+04</pdfrwt>
<totfact> 0.39672248E+00</totfact>
</mgrwt>
</event>
<event>
 6    1  0.9512547E-007  0.3449421E+03  0.7818608E-02  0.1064710E+00
          2   -1    0    0  501    0  0.00000000000E+00  0.00000000000E+00  0.72398872982E+02  0.72398872982E+02  0.00000000000E+00 0. -1.
         -2   -1    0    0    0  501 -0.00000000000E+00 -0.00000000000E+00 -0.41086640789E+03  0.41086640789E+03  0.00000000000E+00 0.  1.
         23    2    1    2    0    0  0.55258521650E+02 -0.11541307476E+03 -0.31687441564E+03  0.35349646782E+03  0.90424971295E+02 0.  0.
         13    1    3    3    0    0 -0.30069831901E+01 -0.89271179552E+02 -0.14693879200E+03  0.17195753558E+03  0.00000000000E+00 0. -1.
        -13    1    3    3    0    0  0.58265504840E+02 -0.26141895212E+02 -0.16993562364E+03  0.18153893224E+03  0.00000000000E+00 0.  1.
         22    1    1    2    0    0 -0.55258521650E+02  0.11541307476E+03 -0.21593119270E+02  0.12976881305E+03  0.00000000000E+00 0. -1.
<mgrwt>
<rscale>  0 0.34494211E+03</rscale>
<asrwt>0</asrwt>
<pdfrwt beam="1">  1        2 0.11138288E-01 0.34494211E+03</pdfrwt>
<pdfrwt beam="2">  1       -2 0.63210217E-01 0.34494211E+03</pdfrwt>
<totfact> 0.13348093E+03</totfact>
</mgrwt>
</event>
<event>
 6    1  0.9512547E-007  0.1895516E+04  0.7818608E-02  0.8657092E-01
         -1   -1    0    0    0  501 -0.00000000000E+00  0.00000000000E+00  0.93078947269E+03  0.93078947269E+03  0.00000000000E+00 0.  1.
          1   -1    0    0  501    0  0.00000000000E+00 -0.00000000000E+00 -0.96503552926E+03  0.96503552926E+03  0.00000000000E+00 0. -1.
         23    2    1    2    0    0 -0.81201891394E+03 -0.41188037800E+03 -0.27209666152E+03  0.95476545407E+03  0.92305561610E+02 0.  0.
         13    1    3    3    0    0 -0.58231343836E+03 -0.24763421887E+03 -0.18977159843E+03  0.66062463352E+03  0.00000000000E+00 0.  1.
        -13    1    3    3    0    0 -0.22970547558E+03 -0.16424615913E+03 -0.82325063098E+02  0.29414082055E+03  0.00000000000E+00 0. -1.
         22    1    1    2    0    0  0.81201891394E+03  0.41188037800E+03  0.23785060495E+03  0.94105954788E+03  0.00000000000E+00 0. -1.
<mgrwt>
<rscale>  0 0.18955157E+04</rscale>
<asrwt>0</asrwt>
<pdfrwt beam="1">  1        1 0.14846700E+00 0.18955157E+04</pdfrwt>
<pdfrwt beam="2">  1       -1 0.14319838E+00 0.18955157E+04</pdfrwt>
<totfact> 0.59609807E+00</totfact>
</mgrwt>
</event>
<event>
 6    1  0.9512547E-007  0.2551263E+04  0.7818608E-02  0.8384947E-01
         -4   -1    0    0    0  501 -0.00000000000E+00  0.00000000000E+00  0.67970902421E+03  0.67970902421E+03  0.00000000000E+00 0.  1.
          4   -1    0    0  501    0  0.00000000000E+00 -0.00000000000E+00 -0.23940183760E+04  0.23940183760E+04  0.00000000000E+00 0. -1.
         23    2    1    2    0    0  0.31390742129E+03  0.25876742690E+03  0.59641450835E+03  0.72746586147E+03  0.89430774814E+02 0.  0.
         13    1    3    3    0    0  0.11656644511E+03  0.94515550191E+02  0.14814849036E+03  0.21087650545E+03  0.00000000000E+00 0. -1.
        -13    1    3    3    0    0  0.19734097618E+03  0.16425187670E+03  0.44826601799E+03  0.51658935603E+03  0.00000000000E+00 0.  1.
         22    1    1    2    0    0 -0.31390742129E+03 -0.25876742690E+03 -0.23107238601E+04  0.23462615387E+04  0.00000000000E+00 0. -1.
<mgrwt>
<rscale>  0 0.25512631E+04</rscale>
<asrwt>0</asrwt>
<pdfrwt beam="1">  1        4 0.36831052E+00 0.25512631E+04</pdfrwt>
<pdfrwt beam="2">  1       -4 0.10457062E+00 0.25512631E+04</pdfrwt>
<totfact> 0.14741362E-02</totfact>
</mgrwt>
</event>
<event>
 6    1  0.9512547E-007  0.9732303E+03  0.7818608E-02  0.9338403E-01
          1   -1    0    0  501    0  0.00000000000E+00  0.00000000000E+00  0.43619118566E+03  0.43619118566E+03  0.00000000000E+00 0. -1.
         -1   -1    0    0    0  501 -0.00000000000E+00 -0.00000000000E+00 -0.54286812087E+03  0.54286812087E+03  0.00000000000E+00 0.  1.
         23    2    1    2    0    0 -0.18444439394E+02 -0.32359071689E+03 -0.41301259075E+03  0.53308544714E+03  0.92463746589E+02 0.  0.
         13    1    3    3    0    0  0.10448091614E+01 -0.19888843804E+03 -0.31811842577E+03  0.37517600566E+03  0.00000000000E+00 0.  1.
        -13    1    3    3    0    0 -0.19489248556E+02 -0.12470227886E+03 -0.94894164982E+02  0.15790944148E+03  0.00000000000E+00 0. -1.
         22    1    1    2    0    0  0.18444439394E+02  0.32359071689E+03  0.30633565554E+03  0.44597385939E+03  0.00000000000E+00 0. -1.
<mgrwt>
<rscale>  0 0.97323027E+03</rscale>
<asrwt>0</asrwt>
<pdfrwt beam="1">  1        1 0.67106336E-01 0.97323027E+03</pdfrwt>
<pdfrwt beam="2">  1       -1 0.83518173E-01 0.97323027E+03</pdfrwt>
<totfact> 0.76325379E+01</totfact>
</mgrwt>
</event>
<event>
 6    1  0.9512547E-007  0.2802698E+04  0.7818608E-02  0.8302431E-01
          2   -1    0    0  501    0  0.00000000000E+00  0.00000000000E+00  0.14319998010E+04  0.14319998010E+04  0.00000000000E+00 0. -1.
         -2   -1    0    0    0  501 -0.00000000000E+00 -0.00000000000E+00 -0.13713543033E+04  0.13713543033E+04  0.00000000000E+00 0.  1.
         23    2    1    2    0    0 -0.24539982870E+02 -0.41044295141E+03  0.13691145050E+04  0.14318014185E+04  0.80716461631E+02 0.  0.
         13    1    3    3    0    0  0.22174264865E+02 -0.74821196228E+02  0.20421779938E+03  0.21862026212E+03  0.00000000000E+00 0. -1.
        -13    1    3    3    0    0 -0.46714247735E+02 -0.33562175518E+03  0.11648967056E+04  0.12131811564E+04  0.00000000000E+00 0.  1.
         22    1    1    2    0    0  0.24539982870E+02  0.41044295141E+03 -0.13084690072E+04  0.13715526858E+04  0.00000000000E+00 0.  1.
<mgrwt>
<rscale>  0 0.28026980E+04</rscale>
<asrwt>0</asrwt>
<pdfrwt beam="1">  1        2 0.22030766E+00 0.28026980E+04</pdfrwt>
<pdfrwt beam="2">  1       -2 0.21097758E+00 0.28026980E+04</pdfrwt>
<totfact> 0.13623034E+00</totfact>
</mgrwt>
</event>
<event>
 6    1  0.9512547E-007  0.1190232E+04  0.7818608E-02  0.9121450E-01
          2   -1    0    0  501    0  0.00000000000E+00  0.00000000000E+00  0.16079887125E+04  0.16079887125E+04  0.00000000000E+00 0. -1.
         -2   -1    0    0    0  501 -0.00000000000E+00 -0.00000000000E+00 -0.22025207253E+03  0.22025207253E+03  0.00000000000E+00 0.  1.
         23    2    1    2    0    0  0.59713630432E+02  0.58764481169E+03  0.74804787367E+03  0.95755492888E+03  0.91889488844E+02 0.  0.
         11    1    3    3    0    0 -0.14135984507E+02  0.36491222928E+02  0.29722422528E+02  0.49141202770E+02  0.00000000000E+00 0.  1.
        -11    1    3    3    0    0  0.73849614939E+02  0.55115358876E+03  0.71832545114E+03  0.90841372611E+03  0.00000000000E+00 0. -1.
         22    1    1    2    0    0 -0.59713630432E+02 -0.58764481169E+03  0.63968876626E+03  0.87068585611E+03  0.00000000000E+00 0. -1.
<mgrwt>
<rscale>  0 0.11902317E+04</rscale>
<asrwt>0</asrwt>
<pdfrwt beam="1">  1        2 0.24738287E+00 0.11902317E+04</pdfrwt>
<pdfrwt beam="2">  1       -2 0.33884935E-01 0.11902317E+04</pdfrwt>
<totfact> 0.88780338E+01</totfact>
</mgrwt>
</event>
<event>
 6    1  0.9512547E-007  0.2881139E+04  0.7818608E-02  0.8278511E-01
         -2   -1    0    0    0  501 -0.00000000000E+00  0.00000000000E+00  0.58435334336E+03  0.58435334336E+03  0.00000000000E+00 0.  1.
          2   -1    0    0  501    0  0.00000000000E+00 -0.00000000000E+00 -0.35513445586E+04  0.35513445586E+04  0.00000000000E+00 0. -1.
         23    2    1    2    0    0 -0.91036374712E+03  0.59809302042E+03 -0.28348773703E+04  0.30384597869E+04  0.96076837029E+02 0.  0.
         11    1    3    3    0    0 -0.60245158957E+03  0.38050962238E+03 -0.17288376522E+04  0.18699238268E+04  0.00000000000E+00 0.  1.
        -11    1    3    3    0    0 -0.30791215755E+03  0.21758339804E+03 -0.11060397181E+04  0.11685359601E+04  0.00000000000E+00 0. -1.
         22    1    1    2    0    0  0.91036374712E+03 -0.59809302042E+03 -0.13211384492E+03  0.10972381151E+04  0.00000000000E+00 0.  1.
<mgrwt>
<rscale>  0 0.28811387E+04</rscale>
<asrwt>0</asrwt>
<pdfrwt beam="1">  1        2 0.54636071E+00 0.28811387E+04</pdfrwt>
<pdfrwt beam="2">  1       -2 0.89900514E-01 0.28811387E+04</pdfrwt>
<totfact> 0.68471302E-01</totfact>
</mgrwt>
</event>
<event>
 6    1  0.9512547E-007  0.1546261E+04  0.7818608E-02  0.8854259E-01
          2   -1    0    0  501    0  0.00000000000E+00  0.00000000000E+00  0.43535726081E+03  0.43535726081E+03  0.00000000000E+00 0. -1.
         -2   -1    0    0    0  501 -0.00000000000E+00 -0.00000000000E+00 -0.13729670090E+04  0.13729670090E+04  0.00000000000E+00 0.  1.
         23    2    1    2    0    0 -0.67023458001E+03  0.25496387517E+03 -0.79931730939E+03  0.10780190127E+04  0.94846512088E+02 0.  0.
         11    1    3    3    0    0 -0.26735674949E+03  0.14354562658E+03 -0.37489633788E+03  0.48231964771E+03  0.00000000000E+00 0.  1.
        -11    1    3    3    0    0 -0.40287783052E+03  0.11141824859E+03 -0.42442097151E+03  0.59569936503E+03  0.00000000000E+00 0. -1.
         22    1    1    2    0    0  0.67023458001E+03 -0.25496387517E+03 -0.13829243879E+03  0.73030525707E+03  0.00000000000E+00 0.  1.
<mgrwt>
<rscale>  0 0.15462615E+04</rscale>
<asrwt>0</asrwt>
<pdfrwt beam="1">  1        2 0.66978041E-01 0.15462615E+04</pdfrwt>
<pdfrwt beam="2">  1       -2 0.21122569E+00 0.15462615E+04</pdfrwt>
<totfact> 0.78135471E+00</totfact>
</mgrwt>
</event>
<event>
 6    1  0.9512547E-007  0.1218015E+04  0.7818608E-02  0.9097233E-01
         -2   -1    0    0    0  501 -0.00000000000E+00  0.00000000000E+00  0.39229613255E+03  0.39229613255E+03  0.00000000000E+00 0.  1.
          2   -1    0    0  501    0  0.00000000000E+00 -0.00000000000E+00 -0.94543398830E+03  0.94543398830E+03  0.00000000000E+00 0. -1.
         23    2    1    2    0    0  0.10490921897E+03 -0.58901887503E+03 -0.17866515164E+03  0.63191216593E+03  0.97172885474E+02 0.  0.
         13    1    3    3    0    0  0.76160364453E+01 -0.20355878571E+03 -0.98895796101E+02  0.22643886976E+03  0.00000000000E+00 0. -1.
        -13    1    3    3    0    0  0.97293182529E+02 -0.38546008932E+03 -0.79769355543E+02  0.40547329617E+03  0.00000000000E+00 0.  1.
         22    1    1    2    0    0 -0.10490921897E+03  0.58901887503E+03 -0.37447270411E+03  0.70581795492E+03  0.00000000000E+00 0. -1.
<mgrwt>
<rscale>  0 0.12180149E+04</rscale>
<asrwt>0</asrwt>
<pdfrwt beam="1">  1        2 0.14545138E+00 0.12180149E+04</pdfrwt>
<pdfrwt beam="2">  1       -2 0.60353251E-01 0.12180149E+04</pdfrwt>
<totfact> 0.68935684E+01</totfact>
</mgrwt>
</event>
<event>
 6    1  0.9512547E-007  0.1866295E+04  0.7818608E-02  0.8671818E-01
         -2   -1    0    0    0  501 -0.00000000000E+00  0.00000000000E+00  0.74552345865E+03  0.74552345865E+03  0.00000000000E+00 0.  1.
          2   -1    0    0  501    0  0.00000000000E+00 -0.00000000000E+00 -0.11679908501E+04  0.11679908501E+04  0.00000000000E+00 0. -1.
         23    2    1    2    0    0  0.84964590333E+03 -0.29826468327E+03 -0.45383803732E+03  0.10124903913E+04  0.91147386767E+02 0.  0.
         11    1    3    3    0    0  0.74846758945E+03 -0.24082801302E+03 -0.41958257449E+03  0.89120783273E+03  0.00000000000E+00 0.  1.
        -11    1    3    3    0    0  0.10117831388E+03 -0.57436670257E+02 -0.34255462834E+02  0.12128255861E+03  0.00000000000E+00 0. -1.
         22    1    1    2    0    0 -0.84964590333E+03  0.29826468327E+03  0.31370645865E+02  0.90102391742E+03  0.00000000000E+00 0. -1.
<mgrwt>
<rscale>  0 0.18662953E+04</rscale>
<asrwt>0</asrwt>
<pdfrwt beam="1">  1        2 0.17969090E+00 0.18662953E+04</pdfrwt>
<pdfrwt beam="2">  1       -2 0.11469592E+00 0.18662953E+04</pdfrwt>
<totfact> 0.11036399E+01</totfact>
</mgrwt>
</event>
<event>
 6    1  0.9512547E-007  0.2535298E+04  0.7818608E-02  0.8390517E-01
          1   -1    0    0  501    0  0.00000000000E+00  0.00000000000E+00  0.30627997900E+04  0.30627997900E+04  0.00000000000E+00 0. -1.
         -1   -1    0    0    0  501 -0.00000000000E+00 -0.00000000000E+00 -0.52466184298E+03  0.52466184298E+03  0.00000000000E+00 0.  1.
         23    2    1    2    0    0  0.79455938446E+02 -0.54663223241E+03  0.28825746678E+04  0.29364956598E+04  0.93005380645E+02 0.  0.
         13    1    3    3    0    0  0.89896668551E+01 -0.15778700105E+03  0.63008343842E+03  0.64960194825E+03  0.00000000000E+00 0.  1.
        -13    1    3    3    0    0  0.70466271591E+02 -0.38884523137E+03  0.22524912294E+04  0.22868937115E+04  0.00000000000E+00 0. -1.
         22    1    1    2    0    0 -0.79455938446E+02  0.54663223241E+03 -0.34443672077E+03  0.65096597321E+03  0.00000000000E+00 0.  1.
<mgrwt>
<rscale>  0 0.25352982E+04</rscale>
<asrwt>0</asrwt>
<pdfrwt beam="1">  1        1 0.47119996E+00 0.25352982E+04</pdfrwt>
<pdfrwt beam="2">  1       -1 0.80717208E-01 0.25352982E+04</pdfrwt>
<totfact> 0.72869397E-01</totfact>
</mgrwt>
</event>
<event>
 6    1  0.9512547E-007  0.2097433E+04  0.7818608E-02  0.8562375E-01
          2   -1    0    0  501    0  0.00000000000E+00  0.00000000000E+00  0.34368875397E+04  0.34368875397E+04  0.00000000000E+00 0. -1.
         -2   -1    0    0    0  501 -0.00000000000E+00 -0.00000000000E+00 -0.32000069716E+03  0.32000069716E+03  0.00000000000E+00 0.  1.
         23    2    1    2    0    0 -0.65828933856E+03  0.26063664474E+03  0.29422818869E+04  0.30276672797E+04  0.92033367868E+02 0.  0.
         11    1    3    3    0    0 -0.42582915941E+03  0.15744259645E+03  0.20614263892E+04  0.21108286056E+04  0.00000000000E+00 0. -1.
        -11    1    3    3    0    0 -0.23246017915E+03  0.10319404829E+03  0.88085549770E+03  0.91683867410E+03  0.00000000000E+00 0.  1.
         22    1    1    2    0    0  0.65828933856E+03 -0.26063664474E+03  0.17460495567E+03  0.72922095718E+03  0.00000000000E+00 0.  1.
<mgrwt>
<rscale>  0 0.20974331E+04</rscale>
<asrwt>0</asrwt>
<pdfrwt beam="1">  1        2 0.52875190E+00 0.20974331E+04</pdfrwt>
<pdfrwt beam="2">  1       -2 0.49230879E-01 0.20974331E+04</pdfrwt>
<totfact> 0.32514092E+00</totfact>
</mgrwt>
</event>
<event>
 6    1  0.9512547E-007  0.2471641E+04  0.7818608E-02  0.8413159E-01
          1   -1    0    0  501    0  0.00000000000E+00  0.00000000000E+00  0.79966955518E+03  0.79966955518E+03  0.00000000000E+00 0. -1.
         -1   -1    0    0    0  501 -0.00000000000E+00 -0.00000000000E+00 -0.19098545115E+04  0.19098545115E+04  0.00000000000E+00 0.  1.
         23    2    1    2    0    0  0.70468034360E+03  0.88914640288E+03 -0.10884814597E+04  0.15747876417E+04  0.89490311851E+02 0.  0.
         13    1    3    3    0    0  0.39776565710E+03  0.46572480552E+03 -0.53362203845E+03  0.81232357615E+03  0.00000000000E+00 0. -1.
        -13    1    3    3    0    0  0.30691468650E+03  0.42342159736E+03 -0.55485942129E+03  0.76246406558E+03  0.00000000000E+00 0.  1.
         22    1    1    2    0    0 -0.70468034360E+03 -0.88914640288E+03 -0.21703496599E+02  0.11347364250E+04  0.00000000000E+00 0. -1.
<mgrwt>
<rscale>  0 0.24716412E+04</rscale>
<asrwt>0</asrwt>
<pdfrwt beam="1">  1        1 0.12302609E+00 0.24716412E+04</pdfrwt>
<pdfrwt beam="2">  1       -1 0.29382377E+00 0.24716412E+04</pdfrwt>
<totfact> 0.71360952E-01</totfact>
</mgrwt>
</event>
<event>
 6    1  0.9512547E-007  0.1288735E+04  0.7818608E-02  0.9038546E-01
          1   -1    0    0  501    0  0.00000000000E+00  0.00000000000E+00  0.93628953552E+03  0.93628953552E+03  0.00000000000E+00 0. -1.
         -1   -1    0    0    0  501 -0.00000000000E+00 -0.00000000000E+00 -0.44346302300E+03  0.44346302300E+03  0.00000000000E+00 0.  1.
         23    2    1    2    0    0 -0.46401313509E+03 -0.40718425453E+03  0.42936913800E+03  0.75916086905E+03  0.10421209983E+03 0.  0.
         11    1    3    3    0    0 -0.38835468544E+03 -0.37300730722E+03  0.33827633375E+03  0.63591248684E+03  0.00000000000E+00 0. -1.
        -11    1    3    3    0    0 -0.75658449650E+02 -0.34176947311E+02  0.91092804247E+02  0.12324838221E+03  0.00000000000E+00 0.  1.
         22    1    1    2    0    0  0.46401313509E+03  0.40718425453E+03  0.63457374513E+02  0.62059168948E+03  0.00000000000E+00 0. -1.
<mgrwt>
<rscale>  0 0.12887355E+04</rscale>
<asrwt>0</asrwt>
<pdfrwt beam="1">  1        1 0.14404454E+00 0.12887355E+04</pdfrwt>
<pdfrwt beam="2">  1       -1 0.68225081E-01 0.12887355E+04</pdfrwt>
<totfact> 0.36364225E+01</totfact>
</mgrwt>
</event>
<event>
 6    1  0.9512547E-007  0.2549693E+04  0.7818608E-02  0.8385493E-01
          2   -1    0    0  501    0  0.00000000000E+00  0.00000000000E+00  0.19170588802E+04  0.19170588802E+04  0.00000000000E+00 0. -1.
         -2   -1    0    0    0  501 -0.00000000000E+00 -0.00000000000E+00 -0.84777479653E+03  0.84777479653E+03  0.00000000000E+00 0.  1.
         23    2    1    2    0    0  0.49881163142E+03  0.82674001977E+03  0.14352743397E+04  0.17322345428E+04  0.91170044908E+02 0.  0.
         13    1    3    3    0    0  0.42154705343E+03  0.62551209110E+03  0.11135488478E+04  0.13449752157E+04  0.00000000000E+00 0. -1.
        -13    1    3    3    0    0  0.77264577992E+02  0.20122792867E+03  0.32172549194E+03  0.38725932714E+03  0.00000000000E+00 0.  1.
         22    1    1    2    0    0 -0.49881163142E+03 -0.82674001977E+03 -0.36599025603E+03  0.10325991340E+04  0.00000000000E+00 0.  1.
<mgrwt>
<rscale>  0 0.25496935E+04</rscale>
<asrwt>0</asrwt>
<pdfrwt beam="1">  1        2 0.29493214E+00 0.25496935E+04</pdfrwt>
<pdfrwt beam="2">  1       -2 0.13042689E+00 0.25496935E+04</pdfrwt>
<totfact> 0.28425301E+00</totfact>
</mgrwt>
</event>
<event>
 6    1  0.9512547E-007  0.6393984E+03  0.7818608E-02  0.9826878E-01
          2   -1    0    0  501    0  0.00000000000E+00  0.00000000000E+00  0.11917930639E+04  0.11917930639E+04  0.00000000000E+00 0. -1.
         -2   -1    0    0    0  501 -0.00000000000E+00 -0.00000000000E+00 -0.85759496287E+02  0.85759496287E+02  0.00000000000E+00 0.  1.
         23    2    1    2    0    0 -0.29251455621E+03  0.10274486053E+03  0.47263138858E+03  0.57234366038E+03  0.89864142730E+02 0.  0.
         11    1    3    3    0    0 -0.15311233946E+03  0.24687596765E+02  0.16991119945E+03  0.23004930260E+03  0.00000000000E+00 0.  1.
        -11    1    3    3    0    0 -0.13940221675E+03  0.78057263765E+02  0.30272018913E+03  0.34229435778E+03  0.00000000000E+00 0. -1.
         22    1    1    2    0    0  0.29251455621E+03 -0.10274486053E+03  0.63340217901E+03  0.70520889979E+03  0.00000000000E+00 0. -1.
<mgrwt>
<rscale>  0 0.63939838E+03</rscale>
<asrwt>0</asrwt>
<pdfrwt beam="1">  1        2 0.18335277E+00 0.63939838E+03</pdfrwt>
<pdfrwt beam="2">  1       -2 0.13193770E-01 0.63939838E+03</pdfrwt>
<totfact> 0.84187097E+02</totfact>
</mgrwt>
</event>
<event>
 6    1  0.9512547E-007  0.1782246E+04  0.7818608E-02  0.8715798E-01
          2   -1    0    0  501    0  0.00000000000E+00  0.00000000000E+00  0.15798411728E+04  0.15798411728E+04  0.00000000000E+00 0. -1.
         -2   -1    0    0    0  501 -0.00000000000E+00 -0.00000000000E+00 -0.50264548260E+03  0.50264548260E+03  0.00000000000E+00 0.  1.
         23    2    1    2    0    0  0.42721073385E+03  0.73574777869E+03  0.84062935139E+03  0.11994252546E+04  0.90163351218E+02 0.  0.
         13    1    3    3    0    0  0.40709064433E+03  0.66525130472E+03  0.74167833728E+03  0.10762754513E+04  0.00000000000E+00 0.  1.
        -13    1    3    3    0    0  0.20120089520E+02  0.70496473978E+02  0.98951014116E+02  0.12314980325E+03  0.00000000000E+00 0. -1.
         22    1    1    2    0    0 -0.42721073385E+03 -0.73574777869E+03  0.23656633879E+03  0.88306140082E+03  0.00000000000E+00 0.  1.
<mgrwt>
<rscale>  0 0.17822458E+04</rscale>
<asrwt>0</asrwt>
<pdfrwt beam="1">  1        2 0.24305249E+00 0.17822458E+04</pdfrwt>
<pdfrwt beam="2">  1       -2 0.77330075E-01 0.17822458E+04</pdfrwt>
<totfact> 0.16140008E+01</totfact>
</mgrwt>
</event>
<event>
 6    1  0.9512547E-007  0.1303801E+04  0.7818608E-02  0.9026556E-01
         -1   -1    0    0    0  501 -0.00000000000E+00  0.00000000000E+00  0.52630613847E+03  0.52630613847E+03  0.00000000000E+00 0.  1.
          1   -1    0    0  501    0  0.00000000000E+00 -0.00000000000E+00 -0.80746593598E+03  0.80746593598E+03  0.00000000000E+00 0. -1.
         23    2    1    2    0    0 -0.27721609071E+02  0.48878505387E+03 -0.57671244459E+03  0.76190610790E+03  0.90688240743E+02 0.  0.
         13    1    3    3    0    0  0.14237494793E+02  0.31477516279E+03 -0.41179237538E+03  0.51851621941E+03  0.00000000000E+00 0. -1.
        -13    1    3    3    0    0 -0.41959103863E+02  0.17400989108E+03 -0.16492006921E+03  0.24338988849E+03  0.00000000000E+00 0.  1.
         22    1    1    2    0    0  0.27721609071E+02 -0.48878505387E+03  0.29555264709E+03  0.57186596655E+03  0.00000000000E+00 0.  1.
<mgrwt>
<rscale>  0 0.13038010E+04</rscale>
<asrwt>0</asrwt>
<pdfrwt beam="1">  1        1 0.12422553E+00 0.13038010E+04</pdfrwt>
<pdfrwt beam="2">  1       -1 0.80970176E-01 0.13038010E+04</pdfrwt>
<totfact> 0.32537290E+01</totfact>
</mgrwt>
</event>
<event>
 6    1  0.9512547E-007  0.3107165E+04  0.7818608E-02  0.8213774E-01
          2   -1    0    0  501    0  0.00000000000E+00  0.00000000000E+00  0.12714268163E+04  0.12714268163E+04  0.00000000000E+00 0. -1.
         -2   -1    0    0    0  501 -0.00000000000E+00 -0.00000000000E+00 -0.18983549140E+04  0.18983549140E+04  0.00000000000E+00 0.  1.
         23    2    1    2    0    0 -0.14572051370E+04 -0.13047194425E+02 -0.85915645414E+03  0.16941303317E+04  0.91163192084E+02 0.  0.
         13    1    3    3    0    0 -0.64855197710E+03  0.31871447398E+02 -0.35317621423E+03  0.73916770388E+03  0.00000000000E+00 0. -1.
        -13    1    3    3    0    0 -0.80865315991E+03 -0.44918641823E+02 -0.50598023991E+03  0.95496262785E+03  0.00000000000E+00 0.  1.
         22    1    1    2    0    0  0.14572051370E+04  0.13047194425E+02  0.23222835647E+03  0.14756513986E+04  0.00000000000E+00 0. -1.
<mgrwt>
<rscale>  0 0.31071655E+04</rscale>
<asrwt>0</asrwt>
<pdfrwt beam="1">  1        2 0.19560413E+00 0.31071655E+04</pdfrwt>
<pdfrwt beam="2">  1       -2 0.29205460E+00 0.31071655E+04</pdfrwt>
<totfact> 0.51818042E-01</totfact>
</mgrwt>
</event>
<event>
 6    1  0.9512547E-007  0.3512480E+04  0.7818608E-02  0.8110839E-01
         -2   -1    0    0    0  501 -0.00000000000E+00  0.00000000000E+00  0.15402734750E+04  0.15402734750E+04  0.00000000000E+00 0.  1.
          2   -1    0    0  501    0  0.00000000000E+00 -0.00000000000E+00 -0.20024882155E+04  0.20024882155E+04  0.00000000000E+00 0. -1.
         23    2    1    2    0    0 -0.15648322844E+04 -0.78550024050E+03 -0.35277519352E+03  0.17884277084E+04  0.91173597909E+02 0.  0.
         13    1    3    3    0    0 -0.59020790431E+03 -0.30463691590E+03 -0.89448282658E+02  0.67018655321E+03  0.00000000000E+00 0. -1.
        -13    1    3    3    0    0 -0.97462438009E+03 -0.48086332460E+03 -0.26332691086E+03  0.11182411552E+04  0.00000000000E+00 0.  1.
         22    1    1    2    0    0  0.15648322844E+04  0.78550024050E+03 -0.10943954704E+03  0.17543339821E+04  0.00000000000E+00 0. -1.
<mgrwt>
<rscale>  0 0.35124803E+04</rscale>
<asrwt>0</asrwt>
<pdfrwt beam="1">  1        2 0.30807511E+00 0.35124803E+04</pdfrwt>
<pdfrwt beam="2">  1       -2 0.23696515E+00 0.35124803E+04</pdfrwt>
<totfact> 0.42294445E-01</totfact>
</mgrwt>
</event>
<event>
 6    1  0.9512547E-007  0.2091858E+04  0.7818608E-02  0.8564839E-01
          2   -1    0    0  501    0  0.00000000000E+00  0.00000000000E+00  0.11060500801E+04  0.11060500801E+04  0.00000000000E+00 0. -1.
         -2   -1    0    0    0  501 -0.00000000000E+00 -0.00000000000E+00 -0.98907557576E+03  0.98907557576E+03  0.00000000000E+00 0.  1.
         23    2    1    2    0    0  0.39693915681E+03 -0.45576672857E+03 -0.79475384638E+03  0.10012643344E+04  0.74917193835E+02 0.  0.
         13    1    3    3    0    0  0.22854399929E+03 -0.24843778669E+03 -0.50231044710E+03  0.60520201481E+03  0.00000000000E+00 0. -1.
        -13    1    3    3    0    0  0.16839515753E+03 -0.20732894188E+03 -0.29244339928E+03  0.39606231959E+03  0.00000000000E+00 0.  1.
         22    1    1    2    0    0 -0.39693915681E+03  0.45576672857E+03  0.91172835076E+03  0.10938613215E+04  0.00000000000E+00 0. -1.
<mgrwt>
<rscale>  0 0.20918577E+04</rscale>
<asrwt>0</asrwt>
<pdfrwt beam="1">  1        2 0.17016155E+00 0.20918577E+04</pdfrwt>
<pdfrwt beam="2">  1       -2 0.15216547E+00 0.20918577E+04</pdfrwt>
<totfact> 0.57446454E+00</totfact>
</mgrwt>
</event>
<event>
 6    1  0.9512547E-007  0.1268338E+04  0.7818608E-02  0.9055057E-01
          2   -1    0    0  501    0  0.00000000000E+00  0.00000000000E+00  0.51071587487E+03  0.51071587487E+03  0.00000000000E+00 0. -1.
         -2   -1    0    0    0  501 -0.00000000000E+00 -0.00000000000E+00 -0.78746423745E+03  0.78746423745E+03  0.00000000000E+00 0.  1.
         23    2    1    2    0    0 -0.59662223301E+03  0.17794975232E+03 -0.24523732719E+03  0.67478846285E+03  0.87028269445E+02 0.  0.
         13    1    3    3    0    0 -0.27613813549E+03  0.10248439071E+03 -0.15769271001E+03  0.33409925321E+03  0.00000000000E+00 0.  1.
        -13    1    3    3    0    0 -0.32048409752E+03  0.75465361612E+02 -0.87544617187E+02  0.34068920964E+03  0.00000000000E+00 0. -1.
         22    1    1    2    0    0  0.59662223301E+03 -0.17794975232E+03 -0.31511035383E+02  0.62339164946E+03  0.00000000000E+00 0. -1.
<mgrwt>
<rscale>  0 0.12683383E+04</rscale>
<asrwt>0</asrwt>
<pdfrwt beam="1">  1        2 0.78571674E-01 0.12683383E+04</pdfrwt>
<pdfrwt beam="2">  1       -2 0.12114834E+00 0.12683383E+04</pdfrwt>
<totfact> 0.30590321E+01</totfact>
</mgrwt>
</event>
<event>
 6    1  0.9512547E-007  0.2782744E+04  0.7818608E-02  0.8308646E-01
          2   -1    0    0  501    0  0.00000000000E+00  0.00000000000E+00  0.24414186775E+04  0.24414186775E+04  0.00000000000E+00 0. -1.
         -2   -1    0    0    0  501 -0.00000000000E+00 -0.00000000000E+00 -0.79294730401E+03  0.79294730401E+03  0.00000000000E+00 0.  1.
         23    2    1    2    0    0 -0.12203315547E+04  0.21330566644E+02  0.52474780089E+02  0.12251698182E+04  0.92862180660E+02 0.  0.
         13    1    3    3    0    0 -0.32801116047E+03  0.22776968924E+02  0.51746003628E+02  0.33284795418E+03  0.00000000000E+00 0.  1.
        -13    1    3    3    0    0 -0.89232039419E+03 -0.14464022802E+01  0.72877646101E+00  0.89232186406E+03  0.00000000000E+00 0. -1.
         22    1    1    2    0    0  0.12203315547E+04 -0.21330566644E+02  0.15959965934E+04  0.20091961633E+04  0.00000000000E+00 0. -1.
<mgrwt>
<rscale>  0 0.27827442E+04</rscale>
<asrwt>0</asrwt>
<pdfrwt beam="1">  1        2 0.37560287E+00 0.27827442E+04</pdfrwt>
<pdfrwt beam="2">  1       -2 0.12199189E+00 0.27827442E+04</pdfrwt>
<totfact> 0.16710157E+00</totfact>
</mgrwt>
</event>
<event>
 6    1  0.9512547E-007  0.2700297E+04  0.7818608E-02  0.8334908E-01
          1   -1    0    0  501    0  0.00000000000E+00  0.00000000000E+00  0.13430764991E+04  0.13430764991E+04  0.00000000000E+00 0. -1.
         -1   -1    0    0    0  501 -0.00000000000E+00 -0.00000000000E+00 -0.13572581601E+04  0.13572581601E+04  0.00000000000E+00 0.  1.
         23    2    1    2    0    0  0.15114604335E+01  0.11197938807E+04 -0.75861859878E+03  0.13556685393E+04  0.91620904155E+02 0.  0.
         11    1    3    3    0    0 -0.13971664289E+02  0.77366579968E+03 -0.47535407194E+03  0.90813846450E+03  0.00000000000E+00 0. -1.
        -11    1    3    3    0    0  0.15483124722E+02  0.34612808105E+03 -0.28326452684E+03  0.44753007475E+03  0.00000000000E+00 0.  1.
         22    1    1    2    0    0 -0.15114604335E+01 -0.11197938807E+04  0.74443693775E+03  0.13446661199E+04  0.00000000000E+00 0. -1.
<mgrwt>
<rscale>  0 0.27002974E+04</rscale>
<asrwt>0</asrwt>
<pdfrwt beam="1">  1        1 0.20662715E+00 0.27002974E+04</pdfrwt>
<pdfrwt beam="2">  1       -1 0.20880895E+00 0.27002974E+04</pdfrwt>
<totfact> 0.96389319E-01</totfact>
</mgrwt>
</event>
<event>
 6    1  0.9512547E-007  0.1538188E+04  0.7818608E-02  0.8859448E-01
         -1   -1    0    0    0  501 -0.00000000000E+00  0.00000000000E+00  0.71732695583E+03  0.71732695583E+03  0.00000000000E+00 0.  1.
          1   -1    0    0  501    0  0.00000000000E+00 -0.00000000000E+00 -0.82459658642E+03  0.82459658642E+03  0.00000000000E+00 0. -1.
         23    2    1    2    0    0 -0.69194233093E+03 -0.31894220327E+03 -0.13812046634E+03  0.77938823656E+03  0.88659132068E+02 0.  0.
         13    1    3    3    0    0 -0.39640934293E+03 -0.18844280212E+03 -0.12363368100E+03  0.45600037710E+03  0.00000000000E+00 0.  1.
        -13    1    3    3    0    0 -0.29553298799E+03 -0.13049940115E+03 -0.14486785339E+02  0.32338785946E+03  0.00000000000E+00 0. -1.
         22    1    1    2    0    0  0.69194233093E+03  0.31894220327E+03  0.30850835757E+02  0.76253530569E+03  0.00000000000E+00 0.  1.
<mgrwt>
<rscale>  0 0.15381877E+04</rscale>
<asrwt>0</asrwt>
<pdfrwt beam="1">  1        1 0.12686101E+00 0.15381877E+04</pdfrwt>
<pdfrwt beam="2">  1       -1 0.11035799E+00 0.15381877E+04</pdfrwt>
<totfact> 0.15379505E+01</totfact>
</mgrwt>
</event>
<event>
 6    1  0.9512547E-007  0.2153404E+04  0.7818608E-02  0.8538077E-01
          2   -1    0    0  501    0  0.00000000000E+00  0.00000000000E+00  0.25914514075E+04  0.25914514075E+04  0.00000000000E+00 0. -1.
         -2   -1    0    0    0  501 -0.00000000000E+00 -0.00000000000E+00 -0.44735060512E+03  0.44735060512E+03  0.00000000000E+00 0.  1.
         23    2    1    2    0    0 -0.76738787575E+03  0.23871275231E+03  0.67239241421E+02  0.81187096893E+03  0.93516975121E+02 0.  0.
         13    1    3    3    0    0 -0.12676705673E+03  0.60001068296E+01  0.21907059088E+02  0.12878589671E+03  0.00000000000E+00 0. -1.
        -13    1    3    3    0    0 -0.64062081902E+03  0.23271264548E+03  0.45332182333E+02  0.68308507222E+03  0.00000000000E+00 0.  1.
         22    1    1    2    0    0  0.76738787575E+03 -0.23871275231E+03  0.20768615609E+04  0.22269310437E+04  0.00000000000E+00 0. -1.
<mgrwt>
<rscale>  0 0.21534041E+04</rscale>
<asrwt>0</asrwt>
<pdfrwt beam="1">  1        2 0.39868482E+00 0.21534041E+04</pdfrwt>
<pdfrwt beam="2">  1       -2 0.68823171E-01 0.21534041E+04</pdfrwt>
<totfact> 0.54508428E+00</totfact>
</mgrwt>
</event>
<event>
 6    1  0.9512547E-007  0.3054687E+04  0.7818608E-02  0.8228285E-01
          1   -1    0    0  501    0  0.00000000000E+00  0.00000000000E+00  0.30259944400E+04  0.30259944400E+04  0.00000000000E+00 0. -1.
         -1   -1    0    0    0  501 -0.00000000000E+00 -0.00000000000E+00 -0.77091314923E+03  0.77091314923E+03  0.00000000000E+00 0.  1.
         23    2    1    2    0    0 -0.13176793423E+04 -0.76728746943E+03  0.10497689703E+04  0.18532546624E+04  0.86770057469E+02 0.  0.
         11    1    3    3    0    0 -0.38191584000E+03 -0.26844059708E+03  0.31644429524E+03  0.56396547323E+03  0.00000000000E+00 0. -1.
        -11    1    3    3    0    0 -0.93576350234E+03 -0.49884687235E+03  0.73332467502E+03  0.12892891892E+04  0.00000000000E+00 0.  1.
         22    1    1    2    0    0  0.13176793423E+04  0.76728746943E+03  0.12053123205E+04  0.19436529268E+04  0.00000000000E+00 0.  1.
<mgrwt>
<rscale>  0 0.30546875E+04</rscale>
<asrwt>0</asrwt>
<pdfrwt beam="1">  1        1 0.46553760E+00 0.30546875E+04</pdfrwt>
<pdfrwt beam="2">  1       -1 0.11860202E+00 0.30546875E+04</pdfrwt>
<totfact> 0.30852842E-01</totfact>
</mgrwt>
</event>
<event>
 6    1  0.9512547E-007  0.3208703E+04  0.7818608E-02  0.8186522E-01
          1   -1    0    0  501    0  0.00000000000E+00  0.00000000000E+00  0.19260924253E+04  0.19260924253E+04  0.00000000000E+00 0. -1.
         -1   -1    0    0    0  501 -0.00000000000E+00 -0.00000000000E+00 -0.13363554096E+04  0.13363554096E+04  0.00000000000E+00 0.  1.
         23    2    1    2    0    0 -0.73928852492E+03  0.11799891789E+04 -0.51267186026E+03  0.14864333880E+04  0.87919254934E+02 0.  0.
         11    1    3    3    0    0 -0.21656113004E+03  0.35136025842E+03 -0.19504193205E+03  0.45650203669E+03  0.00000000000E+00 0.  1.
        -11    1    3    3    0    0 -0.52272739488E+03  0.82862892048E+03 -0.31762992821E+03  0.10299313514E+04  0.00000000000E+00 0. -1.
         22    1    1    2    0    0  0.73928852492E+03 -0.11799891789E+04  0.11024088760E+04  0.17760144468E+04  0.00000000000E+00 0. -1.
<mgrwt>
<rscale>  0 0.32087032E+04</rscale>
<asrwt>0</asrwt>
<pdfrwt beam="1">  1        1 0.29632191E+00 0.32087032E+04</pdfrwt>
<pdfrwt beam="2">  1       -1 0.20559314E+00 0.32087032E+04</pdfrwt>
<totfact> 0.38525823E-01</totfact>
</mgrwt>
</event>
<event>
 6    1  0.9512547E-007  0.9960546E+03  0.7818608E-02  0.9312883E-01
          1   -1    0    0  501    0  0.00000000000E+00  0.00000000000E+00  0.99511633342E+03  0.99511633342E+03  0.00000000000E+00 0. -1.
         -1   -1    0    0    0  501 -0.00000000000E+00 -0.00000000000E+00 -0.24924841998E+03  0.24924841998E+03  0.00000000000E+00 0.  1.
         23    2    1    2    0    0 -0.13058481413E+03 -0.14759118904E+03 -0.18953964539E+03  0.28842393208E+03  0.91801604894E+02 0.  0.
         11    1    3    3    0    0 -0.12878971383E+03 -0.86365949240E+02 -0.12250007339E+03  0.19761613183E+03  0.00000000000E+00 0.  1.
        -11    1    3    3    0    0 -0.17951002924E+01 -0.61225239798E+02 -0.67039571997E+02  0.90807800254E+02  0.00000000000E+00 0. -1.
         22    1    1    2    0    0  0.13058481413E+03  0.14759118904E+03  0.93540755882E+03  0.95594082132E+03  0.00000000000E+00 0. -1.
<mgrwt>
<rscale>  0 0.99605456E+03</rscale>
<asrwt>0</asrwt>
<pdfrwt beam="1">  1        1 0.15309482E+00 0.99605456E+03</pdfrwt>
<pdfrwt beam="2">  1       -1 0.38345911E-01 0.99605456E+03</pdfrwt>
<totfact> 0.10061415E+02</totfact>
</mgrwt>
</event>
<event>
 6    1  0.9512547E-007  0.2019021E+04  0.7818608E-02  0.8597779E-01
         -2   -1    0    0    0  501 -0.00000000000E+00  0.00000000000E+00  0.54771531505E+03  0.54771531505E+03  0.00000000000E+00 0.  1.
          2   -1    0    0  501    0  0.00000000000E+00 -0.00000000000E+00 -0.18606595310E+04  0.18606595310E+04  0.00000000000E+00 0. -1.
         23    2    1    2    0    0  0.54777556204E+03 -0.82004293182E+03 -0.90365324865E+03  0.13406447433E+04  0.90612679078E+02 0.  0.
         11    1    3    3    0    0  0.25038361985E+03 -0.29534341052E+03 -0.35038735374E+03  0.52219822374E+03  0.00000000000E+00 0. -1.
        -11    1    3    3    0    0  0.29739194220E+03 -0.52469952131E+03 -0.55326589492E+03  0.81844651958E+03  0.00000000000E+00 0.  1.
         22    1    1    2    0    0 -0.54777556204E+03  0.82004293182E+03 -0.40929096734E+03  0.10677301028E+04  0.00000000000E+00 0.  1.
<mgrwt>
<rscale>  0 0.20190213E+04</rscale>
<asrwt>0</asrwt>
<pdfrwt beam="1">  1        2 0.28625531E+00 0.20190213E+04</pdfrwt>
<pdfrwt beam="2">  1       -2 0.84263895E-01 0.20190213E+04</pdfrwt>
<totfact> 0.91029051E+00</totfact>
</mgrwt>
</event>
<event>
 6    1  0.9512547E-007  0.2458996E+04  0.7818608E-02  0.8417741E-01
         -2   -1    0    0    0  501 -0.00000000000E+00  0.00000000000E+00  0.61039253331E+03  0.61039253331E+03  0.00000000000E+00 0.  1.
          2   -1    0    0  501    0  0.00000000000E+00 -0.00000000000E+00 -0.24765454790E+04  0.24765454790E+04  0.00000000000E+00 0. -1.
         23    2    1    2    0    0  0.62517957171E+03 -0.17315921066E+02  0.39195868065E+03  0.74381670623E+03  0.92099658659E+02 0.  0.
         11    1    3    3    0    0  0.52219986010E+03 -0.74105480428E+01  0.28477040559E+03  0.59484602546E+03  0.00000000000E+00 0. -1.
        -11    1    3    3    0    0  0.10297971161E+03 -0.99053730228E+01  0.10718827506E+03  0.14897068077E+03  0.00000000000E+00 0.  1.
         22    1    1    2    0    0 -0.62517957171E+03  0.17315921066E+02 -0.22581116264E+04  0.23431213061E+04  0.00000000000E+00 0. -1.
<mgrwt>
<rscale>  0 0.24589956E+04</rscale>
<asrwt>0</asrwt>
<pdfrwt beam="1">  1        2 0.38100700E+00 0.24589956E+04</pdfrwt>
<pdfrwt beam="2">  1       -2 0.93906542E-01 0.24589956E+04</pdfrwt>
<totfact> 0.30773199E+00</totfact>
</mgrwt>
</event>
<event>
 6    1  0.9512547E-007  0.2595857E+04  0.7818608E-02  0.8369610E-01
          1   -1    0    0  501    0  0.00000000000E+00  0.00000000000E+00  0.31697791995E+04  0.31697791995E+04  0.00000000000E+00 0. -1.
         -1   -1    0    0    0  501 -0.00000000000E+00 -0.00000000000E+00 -0.53146220918E+03  0.53146220918E+03  0.00000000000E+00 0.  1.
         23    2    1    2    0    0  0.72688138881E+03 -0.37313300055E+02  0.28503200564E+04  0.29431555720E+04  0.89952551555E+02 0.  0.
         13    1    3    3    0    0  0.31561548320E+03 -0.13342706708E+02  0.14184534897E+04  0.14532038617E+04  0.00000000000E+00 0.  1.
        -13    1    3    3    0    0  0.41126590561E+03 -0.23970593347E+02  0.14318665667E+04  0.14899517104E+04  0.00000000000E+00 0. -1.
         22    1    1    2    0    0 -0.72688138881E+03  0.37313300055E+02 -0.21200306603E+03  0.75808583668E+03  0.00000000000E+00 0.  1.
<mgrwt>
<rscale>  0 0.25958566E+04</rscale>
<asrwt>0</asrwt>
<pdfrwt beam="1">  1        1 0.48765833E+00 0.25958566E+04</pdfrwt>
<pdfrwt beam="2">  1       -1 0.81763418E-01 0.25958566E+04</pdfrwt>
<totfact> 0.58736469E-01</totfact>
</mgrwt>
</event>
<event>
 6    1  0.9512547E-007  0.3726607E+04  0.7818608E-02  0.8062091E-01
          2   -1    0    0  501    0  0.00000000000E+00  0.00000000000E+00  0.27178740617E+04  0.27178740617E+04  0.00000000000E+00 0. -1.
         -2   -1    0    0    0  501 -0.00000000000E+00 -0.00000000000E+00 -0.12774318960E+04  0.12774318960E+04  0.00000000000E+00 0.  1.
         23    2    1    2    0    0 -0.18234608754E+03 -0.94055301286E+03  0.24326334015E+04  0.26160548878E+04  0.90265409761E+02 0.  0.
         13    1    3    3    0    0 -0.89932137506E+02 -0.59731759158E+03  0.16259392301E+04  0.17345185138E+04  0.00000000000E+00 0. -1.
        -13    1    3    3    0    0 -0.92413950033E+02 -0.34323542129E+03  0.80669417135E+03  0.88153637399E+03  0.00000000000E+00 0.  1.
         22    1    1    2    0    0  0.18234608754E+03  0.94055301286E+03 -0.99219123572E+03  0.13792510699E+04  0.00000000000E+00 0.  1.
<mgrwt>
<rscale>  0 0.37266065E+04</rscale>
<asrwt>0</asrwt>
<pdfrwt beam="1">  1        2 0.41813447E+00 0.37266065E+04</pdfrwt>
<pdfrwt beam="2">  1       -2 0.19652798E+00 0.37266065E+04</pdfrwt>
<totfact> 0.29296210E-01</totfact>
</mgrwt>
</event>
<event>
 6    1  0.9512547E-007  0.2593951E+04  0.7818608E-02  0.8370259E-01
         -1   -1    0    0    0  501 -0.00000000000E+00  0.00000000000E+00  0.96238953376E+03  0.96238953376E+03  0.00000000000E+00 0.  1.
          1   -1    0    0  501    0  0.00000000000E+00 -0.00000000000E+00 -0.17478848151E+04  0.17478848151E+04  0.00000000000E+00 0. -1.
         23    2    1    2    0    0  0.47758932920E+03  0.84894017375E+02 -0.16480434986E+04  0.17206845406E+04  0.97001822555E+02 0.  0.
         13    1    3    3    0    0  0.21080216896E+03  0.71082509247E+02 -0.87272894502E+03  0.90063649106E+03  0.00000000000E+00 0. -1.
        -13    1    3    3    0    0  0.26678716024E+03  0.13811508128E+02 -0.77531455354E+03  0.82004804954E+03  0.00000000000E+00 0.  1.
         22    1    1    2    0    0 -0.47758932920E+03 -0.84894017375E+02  0.86254821722E+03  0.98958980825E+03  0.00000000000E+00 0.  1.
<mgrwt>
<rscale>  0 0.25939515E+04</rscale>
<asrwt>0</asrwt>
<pdfrwt beam="1">  1        1 0.26890535E+00 0.25939515E+04</pdfrwt>
<pdfrwt beam="2">  1       -1 0.14805993E+00 0.25939515E+04</pdfrwt>
<totfact> 0.14076110E+00</totfact>
</mgrwt>
</event>
<event>
 6    1  0.9512547E-007  0.3911811E+04  0.7818608E-02  0.8022577E-01
          1   -1    0    0  501    0  0.00000000000E+00  0.00000000000E+00  0.15994672387E+04  0.15994672387E+04  0.00000000000E+00 0. -1.
         -1   -1    0    0    0  501 -0.00000000000E+00 -0.00000000000E+00 -0.23917755805E+04  0.23917755805E+04  0.00000000000E+00 0.  1.
         23    2    1    2    0    0 -0.10402953716E+04  0.16198147326E+04 -0.49617273362E+02  0.19278465288E+04  0.90089602449E+02 0.  0.
         13    1    3    3    0    0 -0.81505787417E+02  0.15428553245E+03 -0.25767910163E+02  0.17638368434E+03  0.00000000000E+00 0.  1.
        -13    1    3    3    0    0 -0.95878958420E+03  0.14655292002E+04 -0.23849363199E+02  0.17514628445E+04  0.00000000000E+00 0. -1.
         22    1    1    2    0    0  0.10402953716E+04 -0.16198147326E+04 -0.74269106847E+03  0.20633962905E+04  0.00000000000E+00 0.  1.
<mgrwt>
<rscale>  0 0.39118112E+04</rscale>
<asrwt>0</asrwt>
<pdfrwt beam="1">  1        1 0.24607188E+00 0.39118112E+04</pdfrwt>
<pdfrwt beam="2">  1       -1 0.36796547E+00 0.39118112E+04</pdfrwt>
<totfact> 0.51882298E-02</totfact>
</mgrwt>
</event>
<event>
 6    1  0.9512547E-007  0.1565647E+04  0.7818608E-02  0.8841935E-01
          2   -1    0    0  501    0  0.00000000000E+00  0.00000000000E+00  0.15751197600E+04  0.15751197600E+04  0.00000000000E+00 0. -1.
         -2   -1    0    0    0  501 -0.00000000000E+00 -0.00000000000E+00 -0.38905769001E+03  0.38905769001E+03  0.00000000000E+00 0.  1.
         23    2    1    2    0    0 -0.26634701021E+03 -0.69042455657E+03  0.90203777684E+03  0.11715258258E+04  0.10570625157E+03 0.  0.
         11    1    3    3    0    0 -0.16602390487E+03 -0.34423579758E+03  0.53109779649E+03  0.65431421409E+03  0.00000000000E+00 0. -1.
        -11    1    3    3    0    0 -0.10032310534E+03 -0.34618875899E+03  0.37093998035E+03  0.51721161176E+03  0.00000000000E+00 0.  1.
         22    1    1    2    0    0  0.26634701021E+03  0.69042455657E+03  0.28402429313E+03  0.79265162414E+03  0.00000000000E+00 0.  1.
<mgrwt>
<rscale>  0 0.15656468E+04</rscale>
<asrwt>0</asrwt>
<pdfrwt beam="1">  1        2 0.24232611E+00 0.15656468E+04</pdfrwt>
<pdfrwt beam="2">  1       -2 0.59855030E-01 0.15656468E+04</pdfrwt>
<totfact> 0.28818510E+01</totfact>
</mgrwt>
</event>
<event>
 6    1  0.9512547E-007  0.3706617E+04  0.7818608E-02  0.8066497E-01
          2   -1    0    0  501    0  0.00000000000E+00  0.00000000000E+00  0.19790193465E+04  0.19790193465E+04  0.00000000000E+00 0. -1.
         -2   -1    0    0    0  501 -0.00000000000E+00 -0.00000000000E+00 -0.17355826050E+04  0.17355826050E+04  0.00000000000E+00 0.  1.
         23    2    1    2    0    0  0.24119543890E+03  0.17155785417E+04 -0.53471113230E+03  0.18154181569E+04  0.91880993425E+02 0.  0.
         13    1    3    3    0    0  0.10841541523E+03  0.52937178695E+03 -0.13949463793E+03  0.55807449780E+03  0.00000000000E+00 0. -1.
        -13    1    3    3    0    0  0.13278002368E+03  0.11862067547E+04 -0.39521649436E+03  0.12573436591E+04  0.00000000000E+00 0.  1.
         22    1    1    2    0    0 -0.24119543890E+03 -0.17155785417E+04  0.77814787380E+03  0.18991837947E+04  0.00000000000E+00 0.  1.
<mgrwt>
<rscale>  0 0.37066165E+04</rscale>
<asrwt>0</asrwt>
<pdfrwt beam="1">  1        2 0.30446452E+00 0.37066165E+04</pdfrwt>
<pdfrwt beam="2">  1       -2 0.26701271E+00 0.37066165E+04</pdfrwt>
<totfact> 0.28031528E-01</totfact>
</mgrwt>
</event>
<event>
 6    1  0.9512547E-007  0.3826814E+04  0.7818608E-02  0.8040425E-01
         -2   -1    0    0    0  501 -0.00000000000E+00  0.00000000000E+00  0.52349596301E+04  0.52349596301E+04  0.00000000000E+00 0.  1.
          2   -1    0    0  501    0  0.00000000000E+00 -0.00000000000E+00 -0.69936087845E+03  0.69936087845E+03  0.00000000000E+00 0. -1.
         23    2    1    2    0    0  0.22569315945E+03  0.15403240743E+04  0.54870716881E+03  0.16542690895E+04  0.10950345876E+03 0.  0.
         11    1    3    3    0    0  0.19756926860E+03  0.98759559494E+03  0.35125432288E+03  0.10666575244E+04  0.00000000000E+00 0.  1.
        -11    1    3    3    0    0  0.28123890850E+02  0.55272847935E+03  0.19745284593E+03  0.58761156514E+03  0.00000000000E+00 0. -1.
         22    1    1    2    0    0 -0.22569315945E+03 -0.15403240743E+04  0.39868915829E+04  0.42800514190E+04  0.00000000000E+00 0.  1.
<mgrwt>
<rscale>  0 0.38268138E+04</rscale>
<asrwt>0</asrwt>
<pdfrwt beam="1">  1        2 0.10759398E+00 0.38268138E+04</pdfrwt>
<pdfrwt beam="2">  1       -2 0.80537838E+00 0.38268138E+04</pdfrwt>
<totfact> 0.23725460E-03</totfact>
</mgrwt>
</event>
<event>
 6    1  0.9512547E-007  0.1311489E+04  0.7818608E-02  0.9020503E-01
         -4   -1    0    0    0  501 -0.00000000000E+00  0.00000000000E+00  0.10681512624E+04  0.10681512624E+04  0.00000000000E+00 0.  1.
          4   -1    0    0  501    0  0.00000000000E+00 -0.00000000000E+00 -0.40256580292E+03  0.40256580292E+03  0.00000000000E+00 0. -1.
         23    2    1    2    0    0  0.55257118990E+03 -0.12668148924E+03 -0.26949783031E+02  0.57573763442E+03  0.96769898486E+02 0.  0.
         13    1    3    3    0    0  0.13859943408E+03 -0.39669158998E+01  0.24846724437E+02  0.14086482621E+03  0.00000000000E+00 0. -1.
        -13    1    3    3    0    0  0.41397175582E+03 -0.12271457334E+03 -0.51796507469E+02  0.43487280820E+03  0.00000000000E+00 0.  1.
         22    1    1    2    0    0 -0.55257118990E+03  0.12668148924E+03  0.69253524254E+03  0.89497943093E+03  0.00000000000E+00 0.  1.
<mgrwt>
<rscale>  0 0.13114895E+04</rscale>
<asrwt>0</asrwt>
<pdfrwt beam="1">  1        4 0.61933201E-01 0.13114895E+04</pdfrwt>
<pdfrwt beam="2">  1       -4 0.16433096E+00 0.13114895E+04</pdfrwt>
<totfact> 0.11130768E+00</totfact>
</mgrwt>
</event>
<event>
 6    1  0.9512547E-007  0.1378984E+04  0.7818608E-02  0.8969173E-01
          1   -1    0    0  501    0  0.00000000000E+00  0.00000000000E+00  0.54892253151E+03  0.54892253151E+03  0.00000000000E+00 0. -1.
         -1   -1    0    0    0  501 -0.00000000000E+00 -0.00000000000E+00 -0.86605864343E+03  0.86605864343E+03  0.00000000000E+00 0.  1.
         23    2    1    2    0    0  0.65858198163E+02 -0.38664215281E+03  0.41892891734E+03  0.58094209679E+03  0.90348356064E+02 0.  0.
         13    1    3    3    0    0 -0.17858768980E+01 -0.18142654610E+03  0.14631806075E+03  0.23308315230E+03  0.00000000000E+00 0.  1.
        -13    1    3    3    0    0  0.67644075061E+02 -0.20521560671E+03  0.27261085659E+03  0.34785894449E+03  0.00000000000E+00 0. -1.
         22    1    1    2    0    0 -0.65858198163E+02  0.38664215281E+03 -0.73606502926E+03  0.83403907816E+03  0.00000000000E+00 0.  1.
<mgrwt>
<rscale>  0 0.13789838E+04</rscale>
<asrwt>0</asrwt>
<pdfrwt beam="1">  1        1 0.84449620E-01 0.13789838E+04</pdfrwt>
<pdfrwt beam="2">  1       -1 0.13323979E+00 0.13789838E+04</pdfrwt>
<totfact> 0.18102483E+01</totfact>
</mgrwt>
</event>
<event>
 6    1  0.9512547E-007  0.4369154E+03  0.7818608E-02  0.1031697E+00
          2   -1    0    0  501    0  0.00000000000E+00  0.00000000000E+00  0.38738155985E+03  0.38738155985E+03  0.00000000000E+00 0. -1.
         -2   -1    0    0    0  501 -0.00000000000E+00 -0.00000000000E+00 -0.12319574085E+03  0.12319574085E+03  0.00000000000E+00 0.  1.
         23    2    1    2    0    0  0.10399173677E+02  0.11100316829E+03  0.34427756626E+03  0.37330190538E+03  0.91637458201E+02 0.  0.
         13    1    3    3    0    0  0.12168625431E+02  0.89996535084E+02  0.13343105923E+03  0.16140414908E+03  0.00000000000E+00 0. -1.
        -13    1    3    3    0    0 -0.17694517539E+01  0.21006633201E+02  0.21084650703E+03  0.21189775630E+03  0.00000000000E+00 0.  1.
         22    1    1    2    0    0 -0.10399173677E+02 -0.11100316829E+03 -0.80091747259E+02  0.13727539532E+03  0.00000000000E+00 0.  1.
<mgrwt>
<rscale>  0 0.43691536E+03</rscale>
<asrwt>0</asrwt>
<pdfrwt beam="1">  1        2 0.59597163E-01 0.43691536E+03</pdfrwt>
<pdfrwt beam="2">  1       -2 0.18953191E-01 0.43691536E+03</pdfrwt>
<totfact> 0.19194140E+03</totfact>
</mgrwt>
</event>
<event>
 6    1  0.9512547E-007  0.1399253E+04  0.7818608E-02  0.8954360E-01
         -1   -1    0    0    0  501 -0.00000000000E+00  0.00000000000E+00  0.43721168377E+03  0.43721168377E+03  0.00000000000E+00 0.  1.
          1   -1    0    0  501    0  0.00000000000E+00 -0.00000000000E+00 -0.11195427045E+04  0.11195427045E+04  0.00000000000E+00 0. -1.
         23    2    1    2    0    0  0.35543536605E+03 -0.19819753940E+03  0.28617844719E+03  0.50621778561E+03  0.93497479979E+02 0.  0.
         13    1    3    3    0    0  0.11673525632E+03 -0.17804608125E+02  0.72727582968E+02  0.13868462591E+03  0.00000000000E+00 0. -1.
        -13    1    3    3    0    0  0.23870010973E+03 -0.18039293128E+03  0.21345086423E+03  0.36753315970E+03  0.00000000000E+00 0.  1.
         22    1    1    2    0    0 -0.35543536605E+03  0.19819753940E+03 -0.96850946795E+03  0.10505366027E+04  0.00000000000E+00 0. -1.
<mgrwt>
<rscale>  0 0.13992529E+04</rscale>
<asrwt>0</asrwt>
<pdfrwt beam="1">  1        1 0.17223734E+00 0.13992529E+04</pdfrwt>
<pdfrwt beam="2">  1       -1 0.67263336E-01 0.13992529E+04</pdfrwt>
<totfact> 0.26759318E+01</totfact>
</mgrwt>
</event>
<event>
 6    1  0.9512547E-007  0.2086634E+04  0.7818608E-02  0.8567154E-01
          1   -1    0    0  501    0  0.00000000000E+00  0.00000000000E+00  0.15470986636E+04  0.15470986636E+04  0.00000000000E+00 0. -1.
         -1   -1    0    0    0  501 -0.00000000000E+00 -0.00000000000E+00 -0.70358205169E+03  0.70358205169E+03  0.00000000000E+00 0.  1.
         23    2    1    2    0    0 -0.17648010118E+03 -0.58181986440E+03  0.13344648483E+04  0.14692143043E+04  0.90192349737E+02 0.  0.
         13    1    3    3    0    0 -0.23405016592E+02 -0.20588710948E+03  0.50115472873E+03  0.54230375140E+03  0.00000000000E+00 0. -1.
        -13    1    3    3    0    0 -0.15307508459E+03 -0.37593275493E+03  0.83331011958E+03  0.92691055294E+03  0.00000000000E+00 0.  1.
         22    1    1    2    0    0  0.17648010118E+03  0.58181986440E+03 -0.49094823636E+03  0.78146641099E+03  0.00000000000E+00 0.  1.
<mgrwt>
<rscale>  0 0.20866345E+04</rscale>
<asrwt>0</asrwt>
<pdfrwt beam="1">  1        1 0.23801518E+00 0.20866345E+04</pdfrwt>
<pdfrwt beam="2">  1       -1 0.10824339E+00 0.20866345E+04</pdfrwt>
<totfact> 0.44294109E+00</totfact>
</mgrwt>
</event>
<event>
 6    1  0.9512547E-007  0.2726773E+04  0.7818608E-02  0.8326370E-01
          1   -1    0    0  501    0  0.00000000000E+00  0.00000000000E+00  0.13672831024E+04  0.13672831024E+04  0.00000000000E+00 0. -1.
         -1   -1    0    0    0  501 -0.00000000000E+00 -0.00000000000E+00 -0.13595012553E+04  0.13595012553E+04  0.00000000000E+00 0.  1.
         23    2    1    2    0    0 -0.11365004173E+04  0.37403261036E+03  0.65438990861E+03  0.13667712779E+04  0.91126185342E+02 0.  0.
         11    1    3    3    0    0 -0.61576508533E+03  0.22310829323E+03  0.40456181793E+03  0.76981440318E+03  0.00000000000E+00 0.  1.
        -11    1    3    3    0    0 -0.52073533194E+03  0.15092431712E+03  0.24982809067E+03  0.59695687476E+03  0.00000000000E+00 0. -1.
         22    1    1    2    0    0  0.11365004173E+04 -0.37403261036E+03 -0.64660806147E+03  0.13600130798E+04  0.00000000000E+00 0. -1.
<mgrwt>
<rscale>  0 0.27267733E+04</rscale>
<asrwt>0</asrwt>
<pdfrwt beam="1">  1        1 0.21035125E+00 0.27267733E+04</pdfrwt>
<pdfrwt beam="2">  1       -1 0.20915404E+00 0.27267733E+04</pdfrwt>
<totfact> 0.91950410E-01</totfact>
</mgrwt>
</event>
<event>
 6    1  0.9512547E-007  0.3289667E+04  0.7818608E-02  0.8165530E-01
          2   -1    0    0  501    0  0.00000000000E+00  0.00000000000E+00  0.36649884350E+04  0.36649884350E+04  0.00000000000E+00 0. -1.
         -2   -1    0    0    0  501 -0.00000000000E+00 -0.00000000000E+00 -0.73819531503E+03  0.73819531503E+03  0.00000000000E+00 0.  1.
         23    2    1    2    0    0  0.58965060908E+03 -0.15187981661E+04  0.17543060366E+04  0.23959065717E+04  0.91339585017E+02 0.  0.
         11    1    3    3    0    0  0.37088016921E+03 -0.10452025087E+04  0.12330578819E+04  0.16584426804E+04  0.00000000000E+00 0. -1.
        -11    1    3    3    0    0  0.21877043987E+03 -0.47359565745E+03  0.52124815474E+03  0.73746389128E+03  0.00000000000E+00 0.  1.
         22    1    1    2    0    0 -0.58965060908E+03  0.15187981661E+04  0.11724870834E+04  0.20072771784E+04  0.00000000000E+00 0.  1.
<mgrwt>
<rscale>  0 0.32896670E+04</rscale>
<asrwt>0</asrwt>
<pdfrwt beam="1">  1        2 0.56384436E+00 0.32896670E+04</pdfrwt>
<pdfrwt beam="2">  1       -2 0.11356851E+00 0.32896670E+04</pdfrwt>
<totfact> 0.31424575E-01</totfact>
</mgrwt>
</event>
<event>
 6    1  0.9512547E-007  0.2885637E+04  0.7818608E-02  0.8277164E-01
          1   -1    0    0  501    0  0.00000000000E+00  0.00000000000E+00  0.30438781528E+04  0.30438781528E+04  0.00000000000E+00 0. -1.
         -1   -1    0    0    0  501 -0.00000000000E+00 -0.00000000000E+00 -0.68390540656E+03  0.68390540656E+03  0.00000000000E+00 0.  1.
         23    2    1    2    0    0 -0.76605844634E+03 -0.74004654602E+03  0.24357165943E+04  0.26599579350E+04  0.90257715269E+02 0.  0.
         13    1    3    3    0    0 -0.36551775372E+03 -0.34743573546E+03  0.10419512610E+04  0.11575738633E+04  0.00000000000E+00 0. -1.
        -13    1    3    3    0    0 -0.40054069262E+03 -0.39261081056E+03  0.13937653332E+04  0.15023840718E+04  0.00000000000E+00 0.  1.
         22    1    1    2    0    0  0.76605844634E+03  0.74004654602E+03 -0.75743847991E+02  0.10678256243E+04  0.00000000000E+00 0.  1.
<mgrwt>
<rscale>  0 0.28856367E+04</rscale>
<asrwt>0</asrwt>
<pdfrwt beam="1">  1        1 0.46828894E+00 0.28856367E+04</pdfrwt>
<pdfrwt beam="2">  1       -1 0.10521622E+00 0.28856367E+04</pdfrwt>
<totfact> 0.40393474E-01</totfact>
</mgrwt>
</event>
<event>
 6    1  0.9512547E-007  0.1166685E+04  0.7818608E-02  0.9142527E-01
          1   -1    0    0  501    0  0.00000000000E+00  0.00000000000E+00  0.10666436620E+04  0.10666436620E+04  0.00000000000E+00 0. -1.
         -1   -1    0    0    0  501 -0.00000000000E+00 -0.00000000000E+00 -0.31902730913E+03  0.31902730913E+03  0.00000000000E+00 0.  1.
         23    2    1    2    0    0  0.38001430282E+03  0.41418227933E+03  0.54732818644E+03  0.78895229332E+03  0.83185014331E+02 0.  0.
         13    1    3    3    0    0  0.15808260747E+03  0.22567878427E+03  0.29481090862E+03  0.40352756572E+03  0.00000000000E+00 0. -1.
        -13    1    3    3    0    0  0.22193169535E+03  0.18850349506E+03  0.25251727782E+03  0.38542472761E+03  0.00000000000E+00 0.  1.
         22    1    1    2    0    0 -0.38001430282E+03 -0.41418227933E+03  0.20028816645E+03  0.59671867783E+03  0.00000000000E+00 0.  1.
<mgrwt>
<rscale>  0 0.11666850E+04</rscale>
<asrwt>0</asrwt>
<pdfrwt beam="1">  1        1 0.16409902E+00 0.11666850E+04</pdfrwt>
<pdfrwt beam="2">  1       -1 0.49081125E-01 0.11666850E+04</pdfrwt>
<totfact> 0.55417887E+01</totfact>
</mgrwt>
</event>
<event>
 6    1  0.9512547E-007  0.6501558E+03  0.7818608E-02  0.9806487E-01
         -2   -1    0    0    0  501 -0.00000000000E+00  0.00000000000E+00  0.12878360375E+03  0.12878360375E+03  0.00000000000E+00 0.  1.
          2   -1    0    0  501    0  0.00000000000E+00 -0.00000000000E+00 -0.82056740527E+03  0.82056740527E+03  0.00000000000E+00 0. -1.
         23    2    1    2    0    0  0.42935741432E+02 -0.29358534743E+03 -0.16572386030E+03  0.34538503657E+03  0.61567779655E+02 0.  0.
         13    1    3    3    0    0  0.17868191249E+02 -0.22458127221E+03 -0.14894684682E+03  0.27007625453E+03  0.00000000000E+00 0. -1.
        -13    1    3    3    0    0  0.25067550183E+02 -0.69004075229E+02 -0.16777013477E+02  0.75308782035E+02  0.00000000000E+00 0.  1.
         22    1    1    2    0    0 -0.42935741432E+02  0.29358534743E+03 -0.52605994122E+03  0.60396597245E+03  0.00000000000E+00 0. -1.
<mgrwt>
<rscale>  0 0.65015576E+03</rscale>
<asrwt>0</asrwt>
<pdfrwt beam="1">  1        2 0.12624114E+00 0.65015576E+03</pdfrwt>
<pdfrwt beam="2">  1       -2 0.19812861E-01 0.65015576E+03</pdfrwt>
<totfact> 0.72664793E+02</totfact>
</mgrwt>
</event>
<event>
 6    1  0.9512547E-007  0.3806706E+04  0.7818608E-02  0.8044717E-01
          1   -1    0    0  501    0  0.00000000000E+00  0.00000000000E+00  0.75772600390E+03  0.75772600390E+03  0.00000000000E+00 0. -1.
         -1   -1    0    0    0  501 -0.00000000000E+00 -0.00000000000E+00 -0.47810857677E+04  0.47810857677E+04  0.00000000000E+00 0.  1.
         23    2    1    2    0    0 -0.77272126379E+03  0.10646637479E+04 -0.13568850185E+02  0.13187371018E+04  0.90974625337E+02 0.  0.
         13    1    3    3    0    0 -0.39765662521E+03  0.60848576502E+03 -0.35420170996E+02  0.72776390837E+03  0.00000000000E+00 0. -1.
        -13    1    3    3    0    0 -0.37506463858E+03  0.45617798286E+03  0.21851320812E+02  0.59097319345E+03  0.00000000000E+00 0.  1.
         22    1    1    2    0    0  0.77272126379E+03 -0.10646637479E+04 -0.40097909136E+04  0.42200746697E+04  0.00000000000E+00 0.  1.
<mgrwt>
<rscale>  0 0.38067062E+04</rscale>
<asrwt>0</asrwt>
<pdfrwt beam="1">  1        1 0.11657323E+00 0.38067062E+04</pdfrwt>
<pdfrwt beam="2">  1       -1 0.73555166E+00 0.38067062E+04</pdfrwt>
<totfact> 0.28143832E-03</totfact>
</mgrwt>
</event>
<event>
 6    1  0.1144993E-006  0.2948301E+04  0.7818608E-02  0.8258650E-01
         -2   -1    0    0    0  501 -0.00000000000E+00  0.00000000000E+00  0.10858592335E+04  0.10858592335E+04  0.00000000000E+00 0.  1.
          2   -1    0    0  501    0  0.00000000000E+00 -0.00000000000E+00 -0.20012901854E+04  0.20012901854E+04  0.00000000000E+00 0. -1.
         23    2    1    2    0    0  0.13805129910E+04 -0.15812284076E+03 -0.96900190272E+03  0.16965780263E+04  0.92700382323E+02 0.  0.
         13    1    3    3    0    0  0.79698763105E+03 -0.13689516532E+03 -0.57028788829E+03  0.98952405017E+03  0.00000000000E+00 0. -1.
        -13    1    3    3    0    0  0.58352535994E+03 -0.21227675435E+02 -0.39871401443E+03  0.70705397616E+03  0.00000000000E+00 0.  1.
         22    1    1    2    0    0 -0.13805129910E+04  0.15812284076E+03  0.53570950795E+02  0.13905713926E+04  0.00000000000E+00 0.  1.
<mgrwt>
<rscale>  0 0.29483008E+04</rscale>
<asrwt>0</asrwt>
<pdfrwt beam="1">  1        2 0.30789080E+00 0.29483008E+04</pdfrwt>
<pdfrwt beam="2">  1       -2 0.16705527E+00 0.29483008E+04</pdfrwt>
<totfact> 0.12830081E+00</totfact>
</mgrwt>
</event>
<event>
 6    1  0.9512547E-007  0.5236740E+04  0.7818608E-02  0.7792991E-01
         -2   -1    0    0    0  501 -0.00000000000E+00  0.00000000000E+00  0.28267782329E+04  0.28267782329E+04  0.00000000000E+00 0.  1.
          2   -1    0    0  501    0  0.00000000000E+00 -0.00000000000E+00 -0.24253265504E+04  0.24253265504E+04  0.00000000000E+00 0. -1.
         23    2    1    2    0    0  0.14727048285E+04  0.42172818172E+02 -0.19691386456E+04  0.24609873435E+04  0.91179168185E+02 0.  0.
         13    1    3    3    0    0  0.75525478662E+03  0.40255715242E+02 -0.10798059649E+04  0.13183365417E+04  0.00000000000E+00 0. -1.
        -13    1    3    3    0    0  0.71745004193E+03  0.19171029294E+01 -0.88933268073E+03  0.11426508018E+04  0.00000000000E+00 0.  1.
         22    1    1    2    0    0 -0.14727048285E+04 -0.42172818172E+02  0.23705903281E+04  0.27911174397E+04  0.00000000000E+00 0.  1.
<mgrwt>
<rscale>  0 0.52367396E+04</rscale>
<asrwt>0</asrwt>
<pdfrwt beam="1">  1        2 0.37312716E+00 0.52367396E+04</pdfrwt>
<pdfrwt beam="2">  1       -2 0.43488896E+00 0.52367396E+04</pdfrwt>
<totfact> 0.12033164E-02</totfact>
</mgrwt>
</event>
<event>
 6    1  0.9512547E-007  0.2022584E+04  0.7818608E-02  0.8596134E-01
          2   -1    0    0  501    0  0.00000000000E+00  0.00000000000E+00  0.19747195696E+04  0.19747195696E+04  0.00000000000E+00 0. -1.
         -2   -1    0    0    0  501 -0.00000000000E+00 -0.00000000000E+00 -0.51790200331E+03  0.51790200331E+03  0.00000000000E+00 0.  1.
         23    2    1    2    0    0 -0.10267393162E+03 -0.94031095627E+03  0.11624506577E+04  0.15019760724E+04  0.99568869699E+02 0.  0.
         11    1    3    3    0    0 -0.11941984241E+02 -0.55827677219E+03  0.69086523058E+03  0.88831882350E+03  0.00000000000E+00 0. -1.
        -11    1    3    3    0    0 -0.90731947382E+02 -0.38203418409E+03  0.47158542708E+03  0.61365724890E+03  0.00000000000E+00 0.  1.
         22    1    1    2    0    0  0.10267393162E+03  0.94031095627E+03  0.29436690858E+03  0.99064550047E+03  0.00000000000E+00 0. -1.
<mgrwt>
<rscale>  0 0.20225837E+04</rscale>
<asrwt>0</asrwt>
<pdfrwt beam="1">  1        2 0.30380301E+00 0.20225837E+04</pdfrwt>
<pdfrwt beam="2">  1       -2 0.79677232E-01 0.20225837E+04</pdfrwt>
<totfact> 0.89265966E+00</totfact>
</mgrwt>
</event>
<event>
 6    1  0.9512547E-007  0.1632316E+04  0.7818608E-02  0.8800937E-01
          1   -1    0    0  501    0  0.00000000000E+00  0.00000000000E+00  0.19280241367E+04  0.19280241367E+04  0.00000000000E+00 0. -1.
         -1   -1    0    0    0  501 -0.00000000000E+00 -0.00000000000E+00 -0.34549041045E+03  0.34549041045E+03  0.00000000000E+00 0.  1.
         23    2    1    2    0    0 -0.45655477332E+03  0.62656465849E+03  0.45014582598E+03  0.90117060738E+03  0.91932946477E+02 0.  0.
         11    1    3    3    0    0 -0.37957508449E+03  0.54794748687E+03  0.41696606299E+03  0.78624702913E+03  0.00000000000E+00 0. -1.
        -11    1    3    3    0    0 -0.76979688820E+02  0.78617171628E+02  0.33179762994E+02  0.11492357825E+03  0.00000000000E+00 0.  1.
         22    1    1    2    0    0  0.45655477332E+03 -0.62656465849E+03  0.11323879002E+04  0.13723439397E+04  0.00000000000E+00 0. -1.
<mgrwt>
<rscale>  0 0.16323160E+04</rscale>
<asrwt>0</asrwt>
<pdfrwt beam="1">  1        1 0.29661909E+00 0.16323160E+04</pdfrwt>
<pdfrwt beam="2">  1       -1 0.53152372E-01 0.16323160E+04</pdfrwt>
<totfact> 0.11394943E+01</totfact>
</mgrwt>
</event>
<event>
 6    1  0.9512547E-007  0.9421456E+03  0.7818608E-02  0.9374379E-01
         -2   -1    0    0    0  501 -0.00000000000E+00  0.00000000000E+00  0.90010423542E+02  0.90010423542E+02  0.00000000000E+00 0.  1.
          2   -1    0    0  501    0  0.00000000000E+00 -0.00000000000E+00 -0.24653767398E+04  0.24653767398E+04  0.00000000000E+00 0. -1.
         23    2    1    2    0    0 -0.72409862839E+02 -0.22046738885E+02 -0.24481784508E+04  0.24503592916E+04  0.70382412903E+02 0.  0.
         11    1    3    3    0    0 -0.14424234982E+02 -0.29406900899E+02 -0.39722765519E+03  0.39857575745E+03  0.00000000000E+00 0. -1.
        -11    1    3    3    0    0 -0.57985627858E+02  0.73601620137E+01 -0.20509507956E+04  0.20517835341E+04  0.00000000000E+00 0.  1.
         22    1    1    2    0    0  0.72409862839E+02  0.22046738885E+02  0.72812134469E+02  0.10502787181E+03  0.00000000000E+00 0.  1.
<mgrwt>
<rscale>  0 0.94214565E+03</rscale>
<asrwt>0</asrwt>
<pdfrwt beam="1">  1        2 0.37928867E+00 0.94214565E+03</pdfrwt>
<pdfrwt beam="2">  1       -2 0.13847760E-01 0.94214565E+03</pdfrwt>
<totfact> 0.14877824E+02</totfact>
</mgrwt>
</event>
<event>
 6    1  0.9512547E-007  0.4143712E+04  0.7818608E-02  0.7976167E-01
         -2   -1    0    0    0  501 -0.00000000000E+00  0.00000000000E+00  0.21214221702E+04  0.21214221702E+04  0.00000000000E+00 0.  1.
          2   -1    0    0  501    0  0.00000000000E+00 -0.00000000000E+00 -0.20234481550E+04  0.20234481550E+04  0.00000000000E+00 0. -1.
         23    2    1    2    0    0  0.11348347568E+04 -0.14152654253E+03  0.17759697469E+04  0.21142178775E+04  0.89269277939E+02 0.  0.
         11    1    3    3    0    0  0.34726107356E+02  0.99422517638E+01  0.45775427953E+02  0.58310725484E+02  0.00000000000E+00 0.  1.
        -11    1    3    3    0    0  0.11001086495E+04 -0.15146879430E+03  0.17301943189E+04  0.20559071520E+04  0.00000000000E+00 0. -1.
         22    1    1    2    0    0 -0.11348347568E+04  0.14152654253E+03 -0.16779957317E+04  0.20306524477E+04  0.00000000000E+00 0. -1.
<mgrwt>
<rscale>  0 0.41437122E+04</rscale>
<asrwt>0</asrwt>
<pdfrwt beam="1">  1        2 0.31129972E+00 0.41437122E+04</pdfrwt>
<pdfrwt beam="2">  1       -2 0.32637264E+00 0.41437122E+04</pdfrwt>
<totfact> 0.11053123E-01</totfact>
</mgrwt>
</event>
<event>
 6    1  0.9512547E-007  0.1597579E+04  0.7818608E-02  0.8822037E-01
         -2   -1    0    0    0  501 -0.00000000000E+00  0.00000000000E+00  0.12088213845E+04  0.12088213845E+04  0.00000000000E+00 0.  1.
          2   -1    0    0  501    0  0.00000000000E+00 -0.00000000000E+00 -0.52784016068E+03  0.52784016068E+03  0.00000000000E+00 0. -1.
         23    2    1    2    0    0 -0.16106726859E+02 -0.16131241332E+03  0.11889928476E+04  0.12034102617E+04  0.90615368735E+02 0.  0.
         11    1    3    3    0    0  0.23716064988E+02 -0.67437167634E+01  0.21738126897E+03  0.21877510268E+03  0.00000000000E+00 0. -1.
        -11    1    3    3    0    0 -0.39822791847E+02 -0.15456869656E+03  0.97161157862E+03  0.98463515904E+03  0.00000000000E+00 0.  1.
         22    1    1    2    0    0  0.16106726859E+02  0.16131241332E+03 -0.50801162381E+03  0.53325128342E+03  0.00000000000E+00 0. -1.
<mgrwt>
<rscale>  0 0.15975788E+04</rscale>
<asrwt>0</asrwt>
<pdfrwt beam="1">  1        2 0.81206179E-01 0.15975788E+04</pdfrwt>
<pdfrwt beam="2">  1       -2 0.18597252E+00 0.15975788E+04</pdfrwt>
<totfact> 0.91377093E+00</totfact>
</mgrwt>
</event>
<event>
 6    1  0.9512547E-007  0.1338351E+04  0.7818608E-02  0.8999693E-01
          1   -1    0    0  501    0  0.00000000000E+00  0.00000000000E+00  0.97499590975E+03  0.97499590975E+03  0.00000000000E+00 0. -1.
         -1   -1    0    0    0  501 -0.00000000000E+00 -0.00000000000E+00 -0.45927994900E+03  0.45927994900E+03  0.00000000000E+00 0.  1.
         23    2    1    2    0    0 -0.16402106626E+03 -0.46144093070E+03 -0.22486445804E+03  0.54641888862E+03  0.90437462693E+02 0.  0.
         13    1    3    3    0    0 -0.15519699209E+03 -0.34744935106E+03 -0.19803144920E+03  0.42897973469E+03  0.00000000000E+00 0. -1.
        -13    1    3    3    0    0 -0.88240741698E+01 -0.11399157963E+03 -0.26833008841E+02  0.11743915393E+03  0.00000000000E+00 0.  1.
         22    1    1    2    0    0  0.16402106626E+03  0.46144093070E+03  0.74058041880E+03  0.88785697013E+03  0.00000000000E+00 0. -1.
<mgrwt>
<rscale>  0 0.13383513E+04</rscale>
<asrwt>0</asrwt>
<pdfrwt beam="1">  1        1 0.14999937E+00 0.13383513E+04</pdfrwt>
<pdfrwt beam="2">  1       -1 0.70658454E-01 0.13383513E+04</pdfrwt>
<totfact> 0.31397587E+01</totfact>
</mgrwt>
</event>
<event>
 6    1  0.9512547E-007  0.1589925E+04  0.7818608E-02  0.8826761E-01
         -2   -1    0    0    0  501 -0.00000000000E+00  0.00000000000E+00  0.40980048518E+03  0.40980048518E+03  0.00000000000E+00 0.  1.
          2   -1    0    0  501    0  0.00000000000E+00 -0.00000000000E+00 -0.15421299615E+04  0.15421299615E+04  0.00000000000E+00 0. -1.
         23    2    1    2    0    0  0.43161532125E+02  0.39400233475E+03  0.27403822575E+03  0.49077649480E+03  0.93079863763E+02 0.  0.
         11    1    3    3    0    0  0.58652837821E+02  0.20293489228E+03  0.10838622888E+03  0.23742430478E+03  0.00000000000E+00 0. -1.
        -11    1    3    3    0    0 -0.15491305696E+02  0.19106744247E+03  0.16565199687E+03  0.25335219002E+03  0.00000000000E+00 0.  1.
         22    1    1    2    0    0 -0.43161532125E+02 -0.39400233475E+03 -0.14063677021E+04  0.14611539519E+04  0.00000000000E+00 0. -1.
<mgrwt>
<rscale>  0 0.15899253E+04</rscale>
<asrwt>0</asrwt>
<pdfrwt beam="1">  1        2 0.23725077E+00 0.15899253E+04</pdfrwt>
<pdfrwt beam="2">  1       -2 0.63046228E-01 0.15899253E+04</pdfrwt>
<totfact> 0.26879787E+01</totfact>
</mgrwt>
</event>
<event>
 6    1  0.9512547E-007  0.2837278E+04  0.7818608E-02  0.8291788E-01
         -2   -1    0    0    0  501 -0.00000000000E+00  0.00000000000E+00  0.11947482952E+04  0.11947482952E+04  0.00000000000E+00 0.  1.
          2   -1    0    0  501    0  0.00000000000E+00 -0.00000000000E+00 -0.16844856723E+04  0.16844856723E+04  0.00000000000E+00 0. -1.
         23    2    1    2    0    0 -0.60491289389E+03 -0.75801883544E+03 -0.12937596161E+04  0.16194864036E+04  0.91706614488E+02 0.  0.
         11    1    3    3    0    0 -0.22651850432E+03 -0.21696012723E+03 -0.43283184108E+03  0.53453319098E+03  0.00000000000E+00 0. -1.
        -11    1    3    3    0    0 -0.37839438957E+03 -0.54105870821E+03 -0.86092777501E+03  0.10849532126E+04  0.00000000000E+00 0.  1.
         22    1    1    2    0    0  0.60491289389E+03  0.75801883544E+03  0.80402223897E+03  0.12597475639E+04  0.00000000000E+00 0.  1.
<mgrwt>
<rscale>  0 0.28372778E+04</rscale>
<asrwt>0</asrwt>
<pdfrwt beam="1">  1        2 0.25915164E+00 0.28372778E+04</pdfrwt>
<pdfrwt beam="2">  1       -2 0.18380743E+00 0.28372778E+04</pdfrwt>
<totfact> 0.14818159E+00</totfact>
</mgrwt>
</event>
<event>
 6    1  0.9512547E-007  0.4599990E+04  0.7818608E-02  0.7893362E-01
          2   -1    0    0  501    0  0.00000000000E+00  0.00000000000E+00  0.23358516501E+04  0.23358516501E+04  0.00000000000E+00 0. -1.
         -2   -1    0    0    0  501 -0.00000000000E+00 -0.00000000000E+00 -0.22646890813E+04  0.22646890813E+04  0.00000000000E+00 0.  1.
         23    2    1    2    0    0  0.15936488690E+04 -0.20527498535E+03 -0.16089853892E+04  0.22757285459E+04  0.90839939771E+02 0.  0.
         13    1    3    3    0    0  0.35402310063E+03 -0.31982583738E+02 -0.30731344974E+03  0.46989019763E+03  0.00000000000E+00 0. -1.
        -13    1    3    3    0    0  0.12396257684E+04 -0.17329240161E+03 -0.13016719395E+04  0.18058383483E+04  0.00000000000E+00 0.  1.
         22    1    1    2    0    0 -0.15936488690E+04  0.20527498535E+03  0.16801479580E+04  0.23248121855E+04  0.00000000000E+00 0. -1.
<mgrwt>
<rscale>  0 0.45999903E+04</rscale>
<asrwt>0</asrwt>
<pdfrwt beam="1">  1        2 0.35936179E+00 0.45999903E+04</pdfrwt>
<pdfrwt beam="2">  1       -2 0.34841370E+00 0.45999903E+04</pdfrwt>
<totfact> 0.51762945E-02</totfact>
</mgrwt>
</event>
<event>
 6    1  0.9512547E-007  0.1180797E+04  0.7818608E-02  0.9129833E-01
         -1   -1    0    0    0  501 -0.00000000000E+00  0.00000000000E+00  0.15854467545E+03  0.15854467545E+03  0.00000000000E+00 0.  1.
          1   -1    0    0  501    0  0.00000000000E+00 -0.00000000000E+00 -0.21985624125E+04  0.21985624125E+04  0.00000000000E+00 0. -1.
         23    2    1    2    0    0  0.30151077151E+03 -0.35462037413E+03 -0.17390826902E+04  0.18028271429E+04  0.95460717203E+02 0.  0.
         11    1    3    3    0    0  0.34014281944E+02 -0.37527702769E+02 -0.10045829108E+03  0.11250408036E+03  0.00000000000E+00 0.  1.
        -11    1    3    3    0    0  0.26749648957E+03 -0.31709267137E+03 -0.16386243991E+04  0.16903230625E+04  0.00000000000E+00 0. -1.
         22    1    1    2    0    0 -0.30151077151E+03  0.35462037413E+03 -0.30093504679E+03  0.55427994504E+03  0.00000000000E+00 0.  1.
<mgrwt>
<rscale>  0 0.11807970E+04</rscale>
<asrwt>0</asrwt>
<pdfrwt beam="1">  1        1 0.33824037E+00 0.11807970E+04</pdfrwt>
<pdfrwt beam="2">  1       -1 0.24391489E-01 0.11807970E+04</pdfrwt>
<totfact> 0.31735172E+01</totfact>
</mgrwt>
</event>
<event>
 6    1  0.1348191E-006  0.4511547E+04  0.7818608E-02  0.7908618E-01
         -2   -1    0    0    0  501 -0.00000000000E+00  0.00000000000E+00  0.16939212487E+04  0.16939212487E+04  0.00000000000E+00 0.  1.
          2   -1    0    0  501    0  0.00000000000E+00 -0.00000000000E+00 -0.30039848357E+04  0.30039848357E+04  0.00000000000E+00 0. -1.
         23    2    1    2    0    0  0.18751148916E+04 -0.11713623711E+04 -0.19271714828E+03  0.22206881438E+04  0.78551077129E+02 0.  0.
         11    1    3    3    0    0  0.66542372707E+03 -0.45834081153E+03 -0.81455580732E+02  0.81209608279E+03  0.00000000000E+00 0.  1.
        -11    1    3    3    0    0  0.12096911645E+04 -0.71302155957E+03 -0.11126156755E+03  0.14085920610E+04  0.00000000000E+00 0. -1.
         22    1    1    2    0    0 -0.18751148916E+04  0.11713623711E+04 -0.11173464387E+04  0.24772179406E+04  0.00000000000E+00 0. -1.
<mgrwt>
<rscale>  0 0.45115468E+04</rscale>
<asrwt>0</asrwt>
<pdfrwt beam="1">  1        2 0.46215152E+00 0.45115468E+04</pdfrwt>
<pdfrwt beam="2">  1       -2 0.26060327E+00 0.45115468E+04</pdfrwt>
<totfact> 0.72457688E-02</totfact>
</mgrwt>
</event>
<event>
 6    1  0.9512547E-007  0.1356466E+04  0.7818608E-02  0.8985947E-01
         -2   -1    0    0    0  501 -0.00000000000E+00  0.00000000000E+00  0.18577538582E+03  0.18577538582E+03  0.00000000000E+00 0.  1.
          2   -1    0    0  501    0  0.00000000000E+00 -0.00000000000E+00 -0.24761102574E+04  0.24761102574E+04  0.00000000000E+00 0. -1.
         23    2    1    2    0    0 -0.14644023984E+03  0.52074991569E+03 -0.35740277050E+03  0.65468567163E+03  0.90837050537E+02 0.  0.
         13    1    3    3    0    0 -0.10845037049E+03  0.23598061526E+03 -0.14540341386E+03  0.29764154011E+03  0.00000000000E+00 0. -1.
        -13    1    3    3    0    0 -0.37989869348E+02  0.28476930043E+03 -0.21199935664E+03  0.35704413152E+03  0.00000000000E+00 0.  1.
         22    1    1    2    0    0  0.14644023984E+03 -0.52074991569E+03 -0.19329321011E+04  0.20071999716E+04  0.00000000000E+00 0. -1.
<mgrwt>
<rscale>  0 0.13564665E+04</rscale>
<asrwt>0</asrwt>
<pdfrwt beam="1">  1        2 0.38094004E+00 0.13564665E+04</pdfrwt>
<pdfrwt beam="2">  1       -2 0.28580828E-01 0.13564665E+04</pdfrwt>
<totfact> 0.39530495E+01</totfact>
</mgrwt>
</event>
<event>
 6    1  0.9512547E-007  0.2086543E+04  0.7818608E-02  0.8567194E-01
          2   -1    0    0  501    0  0.00000000000E+00  0.00000000000E+00  0.42067522902E+04  0.42067522902E+04  0.00000000000E+00 0. -1.
         -2   -1    0    0    0  501 -0.00000000000E+00 -0.00000000000E+00 -0.25873064438E+03  0.25873064438E+03  0.00000000000E+00 0.  1.
         23    2    1    2    0    0 -0.42183927975E+03  0.46814709782E+03  0.20359724949E+03  0.66840193163E+03  0.90549539343E+02 0.  0.
         11    1    3    3    0    0 -0.13388569172E+03  0.18411189333E+03  0.11194347567E+03  0.25368072347E+03  0.00000000000E+00 0. -1.
        -11    1    3    3    0    0 -0.28795358803E+03  0.28403520449E+03  0.91653773815E+02  0.41472120817E+03  0.00000000000E+00 0.  1.
         22    1    1    2    0    0  0.42183927975E+03 -0.46814709782E+03  0.37444243963E+04  0.37970810029E+04  0.00000000000E+00 0. -1.
<mgrwt>
<rscale>  0 0.20865433E+04</rscale>
<asrwt>0</asrwt>
<pdfrwt beam="1">  1        2 0.64719261E+00 0.20865433E+04</pdfrwt>
<pdfrwt beam="2">  1       -2 0.39804717E-01 0.20865433E+04</pdfrwt>
<totfact> 0.12779195E+00</totfact>
</mgrwt>
</event>
<event>
 6    1  0.9512547E-007  0.1958344E+04  0.7818608E-02  0.8626348E-01
          2   -1    0    0  501    0  0.00000000000E+00  0.00000000000E+00  0.26133534280E+04  0.26133534280E+04  0.00000000000E+00 0. -1.
         -2   -1    0    0    0  501 -0.00000000000E+00 -0.00000000000E+00 -0.36687633507E+03  0.36687633507E+03  0.00000000000E+00 0.  1.
         23    2    1    2    0    0 -0.24157864167E+03  0.50471764709E+03  0.23445076201E+04  0.24121539516E+04  0.93115852922E+02 0.  0.
         13    1    3    3    0    0 -0.40719272673E+02  0.18681635532E+03  0.79565984749E+03  0.81831106720E+03  0.00000000000E+00 0. -1.
        -13    1    3    3    0    0 -0.20085936900E+03  0.31790129177E+03  0.15488477726E+04  0.15938428844E+04  0.00000000000E+00 0.  1.
         22    1    1    2    0    0  0.24157864167E+03 -0.50471764709E+03 -0.98030527130E+02  0.56807581153E+03  0.00000000000E+00 0.  1.
<mgrwt>
<rscale>  0 0.19583437E+04</rscale>
<asrwt>0</asrwt>
<pdfrwt beam="1">  1        2 0.40205436E+00 0.19583437E+04</pdfrwt>
<pdfrwt beam="2">  1       -2 0.56442515E-01 0.19583437E+04</pdfrwt>
<totfact> 0.82143166E+00</totfact>
</mgrwt>
</event>
<event>
 6    1  0.9512547E-007  0.2575045E+04  0.7818608E-02  0.8376727E-01
          1   -1    0    0  501    0  0.00000000000E+00  0.00000000000E+00  0.31259114734E+04  0.31259114734E+04  0.00000000000E+00 0. -1.
         -1   -1    0    0    0  501 -0.00000000000E+00 -0.00000000000E+00 -0.53031394076E+03  0.53031394076E+03  0.00000000000E+00 0.  1.
         23    2    1    2    0    0  0.61638894441E+03  0.11253395638E+04  0.11793156557E+04  0.17451579587E+04  0.92013152824E+02 0.  0.
         11    1    3    3    0    0  0.48134063291E+03  0.79411997131E+03  0.84239543497E+03  0.12537724684E+04  0.00000000000E+00 0. -1.
        -11    1    3    3    0    0  0.13504831150E+03  0.33121959246E+03  0.33692022078E+03  0.49138549026E+03  0.00000000000E+00 0.  1.
         22    1    1    2    0    0 -0.61638894441E+03 -0.11253395638E+04  0.14162818769E+04  0.19110674554E+04  0.00000000000E+00 0. -1.
<mgrwt>
<rscale>  0 0.25750452E+04</rscale>
<asrwt>0</asrwt>
<pdfrwt beam="1">  1        1 0.48090944E+00 0.25750452E+04</pdfrwt>
<pdfrwt beam="2">  1       -1 0.81586762E-01 0.25750452E+04</pdfrwt>
<totfact> 0.63737359E-01</totfact>
</mgrwt>
</event>
<event>
 6    1  0.9512547E-007  0.3191984E+04  0.7818608E-02  0.8190937E-01
          2   -1    0    0  501    0  0.00000000000E+00  0.00000000000E+00  0.14311069416E+04  0.14311069416E+04  0.00000000000E+00 0. -1.
         -2   -1    0    0    0  501 -0.00000000000E+00 -0.00000000000E+00 -0.17798743668E+04  0.17798743668E+04  0.00000000000E+00 0.  1.
         23    2    1    2    0    0  0.62734295003E+03 -0.42635495251E+02 -0.16487616803E+04  0.17669030469E+04  0.90301364105E+02 0.  0.
         13    1    3    3    0    0  0.23161616927E+03 -0.38637564703E+02 -0.51355189093E+03  0.56468969882E+03  0.00000000000E+00 0. -1.
        -13    1    3    3    0    0  0.39572678076E+03 -0.39979305482E+01 -0.11352097893E+04  0.12022133481E+04  0.00000000000E+00 0.  1.
         22    1    1    2    0    0 -0.62734295003E+03  0.42635495251E+02  0.12999942550E+04  0.14440782616E+04  0.00000000000E+00 0. -1.
<mgrwt>
<rscale>  0 0.31919841E+04</rscale>
<asrwt>0</asrwt>
<pdfrwt beam="1">  1        2 0.22017030E+00 0.31919841E+04</pdfrwt>
<pdfrwt beam="2">  1       -2 0.27382683E+00 0.31919841E+04</pdfrwt>
<totfact> 0.53752705E-01</totfact>
</mgrwt>
</event>
<event>
 6    1  0.9512547E-007  0.2187734E+04  0.7818608E-02  0.8523551E-01
          2   -1    0    0  501    0  0.00000000000E+00  0.00000000000E+00  0.13223158582E+04  0.13223158582E+04  0.00000000000E+00 0. -1.
         -2   -1    0    0    0  501 -0.00000000000E+00 -0.00000000000E+00 -0.90488566461E+03  0.90488566461E+03  0.00000000000E+00 0.  1.
         23    2    1    2    0    0 -0.95029758474E+03  0.48641648011E+03 -0.24831379256E+02  0.10716662397E+04  0.90473423208E+02 0.  0.
         11    1    3    3    0    0 -0.10426700480E+03  0.80545721256E+02 -0.20281219574E+02  0.13330622405E+03  0.00000000000E+00 0.  1.
        -11    1    3    3    0    0 -0.84603057994E+03  0.40587075885E+03 -0.45501596824E+01  0.93836001568E+03  0.00000000000E+00 0. -1.
         22    1    1    2    0    0  0.95029758474E+03 -0.48641648011E+03  0.44226157288E+03  0.11555352831E+04  0.00000000000E+00 0.  1.
<mgrwt>
<rscale>  0 0.21877337E+04</rscale>
<asrwt>0</asrwt>
<pdfrwt beam="1">  1        2 0.20343321E+00 0.21877337E+04</pdfrwt>
<pdfrwt beam="2">  1       -2 0.13921318E+00 0.21877337E+04</pdfrwt>
<totfact> 0.53509844E+00</totfact>
</mgrwt>
</event>
<event>
 6    1  0.9512547E-007  0.1429771E+04  0.7818608E-02  0.8932547E-01
         -1   -1    0    0    0  501 -0.00000000000E+00  0.00000000000E+00  0.42029588454E+03  0.42029588454E+03  0.00000000000E+00 0.  1.
          1   -1    0    0  501    0  0.00000000000E+00 -0.00000000000E+00 -0.12159554036E+04  0.12159554036E+04  0.00000000000E+00 0. -1.
         23    2    1    2    0    0 -0.34486640835E+03  0.54704798669E+03 -0.74037101544E+03  0.98721264676E+03  0.90803249252E+02 0.  0.
         13    1    3    3    0    0 -0.13403696713E+03  0.29503168744E+03 -0.35041551733E+03  0.47728465295E+03  0.00000000000E+00 0. -1.
        -13    1    3    3    0    0 -0.21082944122E+03  0.25201629925E+03 -0.38995549811E+03  0.50992799381E+03  0.00000000000E+00 0.  1.
         22    1    1    2    0    0  0.34486640835E+03 -0.54704798669E+03 -0.55288503617E+02  0.64903864136E+03  0.00000000000E+00 0.  1.
<mgrwt>
<rscale>  0 0.14297707E+04</rscale>
<asrwt>0</asrwt>
<pdfrwt beam="1">  1        1 0.18707006E+00 0.14297707E+04</pdfrwt>
<pdfrwt beam="2">  1       -1 0.64660906E-01 0.14297707E+04</pdfrwt>
<totfact> 0.24541530E+01</totfact>
</mgrwt>
</event>
<event>
 6    1  0.9512547E-007  0.5779795E+04  0.7818608E-02  0.7718320E-01
          2   -1    0    0  501    0  0.00000000000E+00  0.00000000000E+00  0.49100403174E+04  0.49100403174E+04  0.00000000000E+00 0. -1.
         -2   -1    0    0    0  501 -0.00000000000E+00 -0.00000000000E+00 -0.17009042391E+04  0.17009042391E+04  0.00000000000E+00 0.  1.
         23    2    1    2    0    0 -0.17839653219E+04  0.14738955223E+03 -0.98894165827E+03  0.20471618457E+04  0.92790458428E+02 0.  0.
         13    1    3    3    0    0 -0.10538561457E+03 -0.11396014330E+02 -0.48807726516E+02  0.11669700539E+03  0.00000000000E+00 0.  1.
        -13    1    3    3    0    0 -0.16785797073E+04  0.15878556656E+03 -0.94013393176E+03  0.19304648403E+04  0.00000000000E+00 0. -1.
         22    1    1    2    0    0  0.17839653219E+04 -0.14738955223E+03  0.41980777365E+04  0.45637827108E+04  0.00000000000E+00 0. -1.
<mgrwt>
<rscale>  0 0.57797953E+04</rscale>
<asrwt>0</asrwt>
<pdfrwt beam="1">  1        2 0.75539081E+00 0.57797953E+04</pdfrwt>
<pdfrwt beam="2">  1       -2 0.26167758E+00 0.57797953E+04</pdfrwt>
<totfact> 0.16224316E-03</totfact>
</mgrwt>
</event>
<event>
 6    1  0.9512547E-007  0.1790953E+04  0.7818608E-02  0.8711125E-01
          3   -1    0    0  501    0  0.00000000000E+00  0.00000000000E+00  0.24208017261E+04  0.24208017261E+04  0.00000000000E+00 0. -1.
         -3   -1    0    0    0  501 -0.00000000000E+00 -0.00000000000E+00 -0.33124495568E+03  0.33124495568E+03  0.00000000000E+00 0.  1.
         23    2    1    2    0    0 -0.22267002928E+03 -0.82974906566E+03  0.14227809170E+04  0.16645470300E+04  0.91355478608E+02 0.  0.
         13    1    3    3    0    0 -0.19589179768E+03 -0.57568526030E+03  0.97913284705E+03  0.11526006453E+04  0.00000000000E+00 0.  1.
        -13    1    3    3    0    0 -0.26778231599E+02 -0.25406380536E+03  0.44364806990E+03  0.51194638470E+03  0.00000000000E+00 0. -1.
         22    1    1    2    0    0  0.22267002928E+03  0.82974906566E+03  0.66677585346E+03  0.10874996518E+04  0.00000000000E+00 0.  1.
<mgrwt>
<rscale>  0 0.17909532E+04</rscale>
<asrwt>0</asrwt>
<pdfrwt beam="1">  1        3 0.37243102E+00 0.17909532E+04</pdfrwt>
<pdfrwt beam="2">  1       -3 0.50960764E-01 0.17909532E+04</pdfrwt>
<totfact> 0.14792386E-01</totfact>
</mgrwt>
</event>
<event>
 6    1  0.9512547E-007  0.3577849E+04  0.7818608E-02  0.8095585E-01
          2   -1    0    0  501    0  0.00000000000E+00  0.00000000000E+00  0.14869756967E+04  0.14869756967E+04  0.00000000000E+00 0. -1.
         -2   -1    0    0    0  501 -0.00000000000E+00 -0.00000000000E+00 -0.21521875213E+04  0.21521875213E+04  0.00000000000E+00 0.  1.
         23    2    1    2    0    0 -0.17002911760E+04  0.24116049374E+03  0.17258372718E+03  0.17283911610E+04  0.91664580823E+02 0.  0.
         11    1    3    3    0    0 -0.38031517854E+03  0.72381860535E+02  0.51464294485E+01  0.38717599938E+03  0.00000000000E+00 0.  1.
        -11    1    3    3    0    0 -0.13199759975E+04  0.16877863320E+03  0.16743729774E+03  0.13412151616E+04  0.00000000000E+00 0. -1.
         22    1    1    2    0    0  0.17002911760E+04 -0.24116049374E+03 -0.83779555181E+03  0.19107720570E+04  0.00000000000E+00 0. -1.
<mgrwt>
<rscale>  0 0.35778488E+04</rscale>
<asrwt>0</asrwt>
<pdfrwt beam="1">  1        2 0.22876549E+00 0.35778488E+04</pdfrwt>
<pdfrwt beam="2">  1       -2 0.33110577E+00 0.35778488E+04</pdfrwt>
<totfact> 0.21533882E-01</totfact>
</mgrwt>
</event>
<event>
 6    1  0.9512547E-007  0.7313826E+03  0.7818608E-02  0.9665020E-01
          1   -1    0    0  501    0  0.00000000000E+00  0.00000000000E+00  0.69673013458E+03  0.69673013458E+03  0.00000000000E+00 0. -1.
         -1   -1    0    0    0  501 -0.00000000000E+00 -0.00000000000E+00 -0.19193960834E+03  0.19193960834E+03  0.00000000000E+00 0.  1.
         23    2    1    2    0    0  0.35017646592E+03  0.70709668984E+02  0.18089943937E+03  0.40645728900E+03  0.69710157400E+02 0.  0.
         13    1    3    3    0    0  0.13429598405E+03  0.54670571364E+02  0.49452548598E+02  0.15319868559E+03  0.00000000000E+00 0.  1.
        -13    1    3    3    0    0  0.21588048187E+03  0.16039097621E+02  0.13144689078E+03  0.25325860341E+03  0.00000000000E+00 0. -1.
         22    1    1    2    0    0 -0.35017646592E+03 -0.70709668984E+02  0.32389108687E+03  0.48221245393E+03  0.00000000000E+00 0. -1.
<mgrwt>
<rscale>  0 0.73138255E+03</rscale>
<asrwt>0</asrwt>
<pdfrwt beam="1">  1        1 0.10718925E+00 0.73138255E+03</pdfrwt>
<pdfrwt beam="2">  1       -1 0.29529171E-01 0.73138255E+03</pdfrwt>
<totfact> 0.29105044E+02</totfact>
</mgrwt>
</event>
<event>
 6    1  0.9512547E-007  0.9698539E+03  0.7818608E-02  0.9342241E-01
         -1   -1    0    0    0  501 -0.00000000000E+00  0.00000000000E+00  0.55423175985E+03  0.55423175985E+03  0.00000000000E+00 0.  1.
          1   -1    0    0  501    0  0.00000000000E+00 -0.00000000000E+00 -0.42428843956E+03  0.42428843956E+03  0.00000000000E+00 0. -1.
         23    2    1    2    0    0 -0.43561018550E+02 -0.46759791415E+03  0.16924503316E+03  0.50725594627E+03  0.90107392163E+02 0.  0.
         13    1    3    3    0    0 -0.27511494128E+02 -0.34160616264E+03  0.79710703816E+02  0.35185998489E+03  0.00000000000E+00 0.  1.
        -13    1    3    3    0    0 -0.16049524422E+02 -0.12599175151E+03  0.89534329343E+02  0.15539596138E+03  0.00000000000E+00 0. -1.
         22    1    1    2    0    0  0.43561018550E+02  0.46759791415E+03 -0.39301712867E+02  0.47126425314E+03  0.00000000000E+00 0.  1.
<mgrwt>
<rscale>  0 0.96985386E+03</rscale>
<asrwt>0</asrwt>
<pdfrwt beam="1">  1        1 0.65275144E-01 0.96985386E+03</pdfrwt>
<pdfrwt beam="2">  1       -1 0.85266425E-01 0.96985386E+03</pdfrwt>
<totfact> 0.75761496E+01</totfact>
</mgrwt>
</event>
<event>
 6    1  0.9512547E-007  0.2234532E+04  0.7818608E-02  0.8504191E-01
         -1   -1    0    0    0  501 -0.00000000000E+00  0.00000000000E+00  0.10398052436E+04  0.10398052436E+04  0.00000000000E+00 0.  1.
          1   -1    0    0  501    0  0.00000000000E+00 -0.00000000000E+00 -0.12004970382E+04  0.12004970382E+04  0.00000000000E+00 0. -1.
         23    2    1    2    0    0  0.10238768431E+04  0.19056709500E+03 -0.48064030546E+03  0.11508039307E+04  0.93246854979E+02 0.  0.
         13    1    3    3    0    0  0.22493958965E+03  0.78088592830E+02 -0.92011003328E+02  0.25526784376E+03  0.00000000000E+00 0. -1.
        -13    1    3    3    0    0  0.79893725350E+03  0.11247850217E+03 -0.38862930213E+03  0.89553608691E+03  0.00000000000E+00 0.  1.
         22    1    1    2    0    0 -0.10238768431E+04 -0.19056709500E+03  0.31994851085E+03  0.10894983512E+04  0.00000000000E+00 0.  1.
<mgrwt>
<rscale>  0 0.22345318E+04</rscale>
<asrwt>0</asrwt>
<pdfrwt beam="1">  1        1 0.18469185E+00 0.22345318E+04</pdfrwt>
<pdfrwt beam="2">  1       -1 0.15997004E+00 0.22345318E+04</pdfrwt>
<totfact> 0.28379124E+00</totfact>
</mgrwt>
</event>
<event>
 6    1  0.9512547E-007  0.1662412E+04  0.7818608E-02  0.8783097E-01
         -2   -1    0    0    0  501 -0.00000000000E+00  0.00000000000E+00  0.46562163630E+03  0.46562163630E+03  0.00000000000E+00 0.  1.
          2   -1    0    0  501    0  0.00000000000E+00 -0.00000000000E+00 -0.14838306703E+04  0.14838306703E+04  0.00000000000E+00 0. -1.
         23    2    1    2    0    0  0.78771870617E+03 -0.24087692218E+03 -0.61610788436E+03  0.10328238179E+04  0.92809816105E+02 0.  0.
         13    1    3    3    0    0  0.69040112940E+03 -0.21593826376E+03 -0.50042047580E+03  0.87960428934E+03  0.00000000000E+00 0. -1.
        -13    1    3    3    0    0  0.97317576770E+02 -0.24938658425E+02 -0.11568740856E+03  0.15321952856E+03  0.00000000000E+00 0.  1.
         22    1    1    2    0    0 -0.78771870617E+03  0.24087692218E+03 -0.40210114960E+03  0.91662848865E+03  0.00000000000E+00 0.  1.
<mgrwt>
<rscale>  0 0.16624123E+04</rscale>
<asrwt>0</asrwt>
<pdfrwt beam="1">  1        2 0.22828164E+00 0.16624123E+04</pdfrwt>
<pdfrwt beam="2">  1       -2 0.71634097E-01 0.16624123E+04</pdfrwt>
<totfact> 0.21863178E+01</totfact>
</mgrwt>
</event>
<event>
 6    1  0.9512547E-007  0.3969785E+04  0.7818608E-02  0.8010670E-01
         -2   -1    0    0    0  501 -0.00000000000E+00  0.00000000000E+00  0.96427523016E+03  0.96427523016E+03  0.00000000000E+00 0.  1.
          2   -1    0    0  501    0  0.00000000000E+00 -0.00000000000E+00 -0.40857612699E+04  0.40857612699E+04  0.00000000000E+00 0. -1.
         23    2    1    2    0    0 -0.12997990194E+04  0.10643650208E+04 -0.29037005387E+04  0.33559937282E+04  0.94163139185E+02 0.  0.
         13    1    3    3    0    0 -0.45719570833E+03  0.40944095811E+03 -0.98851691408E+03  0.11635443710E+04  0.00000000000E+00 0. -1.
        -13    1    3    3    0    0 -0.84260331107E+03  0.65492406268E+03 -0.19151836246E+04  0.21924493572E+04  0.00000000000E+00 0.  1.
         22    1    1    2    0    0  0.12997990194E+04 -0.10643650208E+04 -0.21778550097E+03  0.16940427718E+04  0.00000000000E+00 0.  1.
<mgrwt>
<rscale>  0 0.39697851E+04</rscale>
<asrwt>0</asrwt>
<pdfrwt beam="1">  1        2 0.62857866E+00 0.39697851E+04</pdfrwt>
<pdfrwt beam="2">  1       -2 0.14835003E+00 0.39697851E+04</pdfrwt>
<totfact> 0.70676923E-02</totfact>
</mgrwt>
</event>
<event>
 6    1  0.9512547E-007  0.8909523E+03  0.7818608E-02  0.9436963E-01
         -1   -1    0    0    0  501 -0.00000000000E+00  0.00000000000E+00  0.83681003730E+03  0.83681003730E+03  0.00000000000E+00 0.  1.
          1   -1    0    0  501    0  0.00000000000E+00 -0.00000000000E+00 -0.23714940478E+03  0.23714940478E+03  0.00000000000E+00 0. -1.
         23    2    1    2    0    0 -0.31042641598E+03  0.82606865027E+02  0.66717394253E+03  0.74571182074E+03  0.88185010669E+02 0.  0.
         13    1    3    3    0    0 -0.13608070018E+03  0.74033828361E+02  0.25924647244E+03  0.30200612274E+03  0.00000000000E+00 0.  1.
        -13    1    3    3    0    0 -0.17434571580E+03  0.85730366666E+01  0.40792747009E+03  0.44370569799E+03  0.00000000000E+00 0. -1.
         22    1    1    2    0    0  0.31042641598E+03 -0.82606865027E+02 -0.67513310008E+02  0.32824762134E+03  0.00000000000E+00 0. -1.
<mgrwt>
<rscale>  0 0.89095230E+03</rscale>
<asrwt>0</asrwt>
<pdfrwt beam="1">  1        1 0.36484524E-01 0.89095230E+03</pdfrwt>
<pdfrwt beam="2">  1       -1 0.12874000E+00 0.89095230E+03</pdfrwt>
<totfact> 0.62473082E+01</totfact>
</mgrwt>
</event>
<event>
 6    1  0.9512547E-007  0.2412366E+04  0.7818608E-02  0.8434888E-01
         -2   -1    0    0    0  501 -0.00000000000E+00  0.00000000000E+00  0.58532865127E+03  0.58532865127E+03  0.00000000000E+00 0.  1.
          2   -1    0    0  501    0  0.00000000000E+00 -0.00000000000E+00 -0.24855743436E+04  0.24855743436E+04  0.00000000000E+00 0. -1.
         23    2    1    2    0    0 -0.25744182364E+03 -0.94045497099E+03 -0.18516354573E+04  0.20946372523E+04  0.90661497582E+02 0.  0.
         13    1    3    3    0    0 -0.17879834798E+03 -0.58670736255E+03 -0.12481053260E+04  0.13906693652E+04  0.00000000000E+00 0. -1.
        -13    1    3    3    0    0 -0.78643475660E+02 -0.35374760844E+03 -0.60353013130E+03  0.70396788714E+03  0.00000000000E+00 0.  1.
         22    1    1    2    0    0  0.25744182364E+03  0.94045497099E+03 -0.48610234995E+02  0.97626574249E+03  0.00000000000E+00 0.  1.
<mgrwt>
<rscale>  0 0.24123664E+04</rscale>
<asrwt>0</asrwt>
<pdfrwt beam="1">  1        2 0.38239606E+00 0.24123664E+04</pdfrwt>
<pdfrwt beam="2">  1       -2 0.90050561E-01 0.24123664E+04</pdfrwt>
<totfact> 0.33642663E+00</totfact>
</mgrwt>
</event>
<event>
 6    1  0.9512547E-007  0.1264368E+04  0.7818608E-02  0.9058309E-01
         -2   -1    0    0    0  501 -0.00000000000E+00  0.00000000000E+00  0.33080267688E+03  0.33080267688E+03  0.00000000000E+00 0.  1.
          2   -1    0    0  501    0  0.00000000000E+00 -0.00000000000E+00 -0.12081411058E+04  0.12081411058E+04  0.00000000000E+00 0. -1.
         23    2    1    2    0    0  0.35800953795E+03  0.95785158574E+02  0.17737276479E+03  0.42101653639E+03  0.91914092267E+02 0.  0.
         11    1    3    3    0    0  0.78903912220E+02  0.57088662014E+02  0.24423518707E+02  0.10040642888E+03  0.00000000000E+00 0.  1.
        -11    1    3    3    0    0  0.27910562573E+03  0.38696496560E+02  0.15294924608E+03  0.32061010751E+03  0.00000000000E+00 0. -1.
         22    1    1    2    0    0 -0.35800953795E+03 -0.95785158574E+02 -0.10547111937E+04  0.11179272463E+04  0.00000000000E+00 0. -1.
<mgrwt>
<rscale>  0 0.12643675E+04</rscale>
<asrwt>0</asrwt>
<pdfrwt beam="1">  1        2 0.18586787E+00 0.12643675E+04</pdfrwt>
<pdfrwt beam="2">  1       -2 0.50892719E-01 0.12643675E+04</pdfrwt>
<totfact> 0.67148216E+01</totfact>
</mgrwt>
</event>
<event>
 6    1  0.9512547E-007  0.4165411E+04  0.7818608E-02  0.7971985E-01
          2   -1    0    0  501    0  0.00000000000E+00  0.00000000000E+00  0.32367182283E+04  0.32367182283E+04  0.00000000000E+00 0. -1.
         -2   -1    0    0    0  501 -0.00000000000E+00 -0.00000000000E+00 -0.13401420385E+04  0.13401420385E+04  0.00000000000E+00 0.  1.
         23    2    1    2    0    0  0.86829322833E+03  0.11200640522E+04 -0.72668290955E+03  0.15952558473E+04  0.91085432829E+02 0.  0.
         13    1    3    3    0    0  0.39660583162E+03  0.57906444089E+03 -0.38075815708E+03  0.79849144426E+03  0.00000000000E+00 0. -1.
        -13    1    3    3    0    0  0.47168739671E+03  0.54099961129E+03 -0.34592475247E+03  0.79676440307E+03  0.00000000000E+00 0.  1.
         22    1    1    2    0    0 -0.86829322833E+03 -0.11200640522E+04  0.26232590994E+04  0.29816044195E+04  0.00000000000E+00 0. -1.
<mgrwt>
<rscale>  0 0.41654110E+04</rscale>
<asrwt>0</asrwt>
<pdfrwt beam="1">  1        2 0.49795665E+00 0.41654110E+04</pdfrwt>
<pdfrwt beam="2">  1       -2 0.20617570E+00 0.41654110E+04</pdfrwt>
<totfact> 0.11563123E-01</totfact>
</mgrwt>
</event>
<event>
 6    1  0.9512547E-007  0.3159959E+04  0.7818608E-02  0.8199473E-01
         -1   -1    0    0    0  501 -0.00000000000E+00  0.00000000000E+00  0.13032988636E+04  0.13032988636E+04  0.00000000000E+00 0.  1.
          1   -1    0    0  501    0  0.00000000000E+00 -0.00000000000E+00 -0.19153969416E+04  0.19153969416E+04  0.00000000000E+00 0. -1.
         23    2    1    2    0    0  0.11273486280E+04 -0.46598730163E+03  0.71458693742E+03  0.14164327211E+04  0.87109516801E+02 0.  0.
         11    1    3    3    0    0  0.34851622077E+03 -0.11754840402E+03  0.25227878117E+03  0.44601094925E+03  0.00000000000E+00 0. -1.
        -11    1    3    3    0    0  0.77883240720E+03 -0.34843889762E+03  0.46230815625E+03  0.97042177181E+03  0.00000000000E+00 0.  1.
         22    1    1    2    0    0 -0.11273486280E+04  0.46598730163E+03 -0.13266850154E+04  0.18022630841E+04  0.00000000000E+00 0. -1.
<mgrwt>
<rscale>  0 0.31599586E+04</rscale>
<asrwt>0</asrwt>
<pdfrwt beam="1">  1        1 0.29467645E+00 0.31599586E+04</pdfrwt>
<pdfrwt beam="2">  1       -1 0.20050752E+00 0.31599586E+04</pdfrwt>
<totfact> 0.42632119E-01</totfact>
</mgrwt>
</event>
<event>
 6    1  0.9512547E-007  0.3482096E+04  0.7818608E-02  0.8118046E-01
         -1   -1    0    0    0  501 -0.00000000000E+00  0.00000000000E+00  0.20276837609E+04  0.20276837609E+04  0.00000000000E+00 0.  1.
          1   -1    0    0  501    0  0.00000000000E+00 -0.00000000000E+00 -0.14949318009E+04  0.14949318009E+04  0.00000000000E+00 0. -1.
         23    2    1    2    0    0  0.79073568438E+03 -0.94751506089E+03 -0.97410171675E+03  0.15748846470E+04  0.91322416133E+02 0.  0.
         13    1    3    3    0    0  0.53453697809E+03 -0.57353699913E+03 -0.62948323553E+03  0.10054469723E+04  0.00000000000E+00 0.  1.
        -13    1    3    3    0    0  0.25619870629E+03 -0.37397806176E+03 -0.34461848122E+03  0.56943767471E+03  0.00000000000E+00 0. -1.
         22    1    1    2    0    0 -0.79073568438E+03  0.94751506089E+03  0.15068536768E+04  0.19477309148E+04  0.00000000000E+00 0.  1.
<mgrwt>
<rscale>  0 0.34820965E+04</rscale>
<asrwt>0</asrwt>
<pdfrwt beam="1">  1        1 0.22998951E+00 0.34820965E+04</pdfrwt>
<pdfrwt beam="2">  1       -1 0.31195135E+00 0.34820965E+04</pdfrwt>
<totfact> 0.14878449E-01</totfact>
</mgrwt>
</event>
<event>
 6    1  0.9512547E-007  0.2715782E+04  0.7818608E-02  0.8329902E-01
          2   -1    0    0  501    0  0.00000000000E+00  0.00000000000E+00  0.85154693234E+03  0.85154693234E+03  0.00000000000E+00 0. -1.
         -2   -1    0    0    0  501 -0.00000000000E+00 -0.00000000000E+00 -0.21653152439E+04  0.21653152439E+04  0.00000000000E+00 0.  1.
         23    2    1    2    0    0 -0.25626768200E+03 -0.50344364426E+03 -0.20274953983E+04  0.21066232064E+04  0.89415412375E+02 0.  0.
         11    1    3    3    0    0 -0.17446273404E+03 -0.40546458176E+03 -0.14784578971E+04  0.15429441099E+04  0.00000000000E+00 0. -1.
        -11    1    3    3    0    0 -0.81804947965E+02 -0.97979062504E+02 -0.54903750114E+03  0.56367909653E+03  0.00000000000E+00 0.  1.
         22    1    1    2    0    0  0.25626768200E+03  0.50344364426E+03  0.71372708675E+03  0.91023896980E+03  0.00000000000E+00 0. -1.
<mgrwt>
<rscale>  0 0.27157817E+04</rscale>
<asrwt>0</asrwt>
<pdfrwt beam="1">  1        2 0.13100722E+00 0.27157817E+04</pdfrwt>
<pdfrwt beam="2">  1       -2 0.33312542E+00 0.27157817E+04</pdfrwt>
<totfact> 0.55064679E-01</totfact>
</mgrwt>
</event>
<event>
 6    1  0.9512547E-007  0.8807775E+03  0.7818608E-02  0.9449935E-01
         -2   -1    0    0    0  501 -0.00000000000E+00  0.00000000000E+00  0.59068302047E+02  0.59068302047E+02  0.00000000000E+00 0.  1.
          2   -1    0    0  501    0  0.00000000000E+00 -0.00000000000E+00 -0.32833556860E+04  0.32833556860E+04  0.00000000000E+00 0. -1.
         23    2    1    2    0    0 -0.27797144834E+03  0.33143496779E+03 -0.18291554015E+04  0.18817698495E+04  0.90172167118E+02 0.  0.
         11    1    3    3    0    0 -0.21070961648E+03  0.19348979949E+03 -0.10955855255E+04  0.11323181923E+04  0.00000000000E+00 0.  1.
        -11    1    3    3    0    0 -0.67261831855E+02  0.13794516830E+03 -0.73356987604E+03  0.74945165722E+03  0.00000000000E+00 0. -1.
         22    1    1    2    0    0  0.27797144834E+03 -0.33143496779E+03 -0.13951319825E+04  0.14606541386E+04  0.00000000000E+00 0.  1.
<mgrwt>
<rscale>  0 0.88077749E+03</rscale>
<asrwt>0</asrwt>
<pdfrwt beam="1">  1        2 0.50513171E+00 0.88077749E+03</pdfrwt>
<pdfrwt beam="2">  1       -2 0.90874299E-02 0.88077749E+03</pdfrwt>
<totfact> 0.96112637E+01</totfact>
</mgrwt>
</event>
<event>
 6    1  0.9512547E-007  0.2743412E+04  0.7818608E-02  0.8321055E-01
          2   -1    0    0  501    0  0.00000000000E+00  0.00000000000E+00  0.13855393722E+04  0.13855393722E+04  0.00000000000E+00 0. -1.
         -2   -1    0    0    0  501 -0.00000000000E+00 -0.00000000000E+00 -0.13580103472E+04  0.13580103472E+04  0.00000000000E+00 0.  1.
         23    2    1    2    0    0  0.44614061623E+03 -0.88806926605E+03  0.95705320070E+03  0.13827691846E+04  0.91604138031E+02 0.  0.
         11    1    3    3    0    0  0.10445566433E+03 -0.23963729797E+03  0.20095233707E+03  0.32972543451E+03  0.00000000000E+00 0.  1.
        -11    1    3    3    0    0  0.34168495191E+03 -0.64843196808E+03  0.75610086362E+03  0.10530437501E+04  0.00000000000E+00 0. -1.
         22    1    1    2    0    0 -0.44614061623E+03  0.88806926605E+03 -0.92952417574E+03  0.13607805349E+04  0.00000000000E+00 0.  1.
<mgrwt>
<rscale>  0 0.27434116E+04</rscale>
<asrwt>0</asrwt>
<pdfrwt beam="1">  1        2 0.21315990E+00 0.27434116E+04</pdfrwt>
<pdfrwt beam="2">  1       -2 0.20892467E+00 0.27434116E+04</pdfrwt>
<totfact> 0.15003324E+00</totfact>
</mgrwt>
</event>
<event>
 6    1  0.9512547E-007  0.2711489E+03  0.7818608E-02  0.1100624E+00
          1   -1    0    0  501    0  0.00000000000E+00  0.00000000000E+00  0.41293215225E+03  0.41293215225E+03  0.00000000000E+00 0. -1.
         -1   -1    0    0    0  501 -0.00000000000E+00 -0.00000000000E+00 -0.44511989398E+02  0.44511989398E+02  0.00000000000E+00 0.  1.
         23    2    1    2    0    0 -0.20384654628E+02 -0.11842559089E+03  0.21553629722E+03  0.26298686847E+03  0.90917780693E+02 0.  0.
         13    1    3    3    0    0 -0.64156025942E+01 -0.86435864397E+02  0.21059323907E+03  0.22773192783E+03  0.00000000000E+00 0. -1.
        -13    1    3    3    0    0 -0.13969052034E+02 -0.31989726493E+02  0.49430581519E+01  0.35254940642E+02  0.00000000000E+00 0.  1.
         22    1    1    2    0    0  0.20384654628E+02  0.11842559089E+03  0.15288386564E+03  0.19445727318E+03  0.00000000000E+00 0.  1.
<mgrwt>
<rscale>  0 0.27114890E+03</rscale>
<asrwt>0</asrwt>
<pdfrwt beam="1">  1        1 0.63528021E-01 0.27114890E+03</pdfrwt>
<pdfrwt beam="2">  1       -1 0.68479987E-02 0.27114890E+03</pdfrwt>
<totfact> 0.63115590E+03</totfact>
</mgrwt>
</event>
<event>
 6    1  0.9512547E-007  0.2159465E+04  0.7818608E-02  0.8535492E-01
         -1   -1    0    0    0  501 -0.00000000000E+00  0.00000000000E+00  0.32496703608E+03  0.32496703608E+03  0.00000000000E+00 0.  1.
          1   -1    0    0  501    0  0.00000000000E+00 -0.00000000000E+00 -0.35875088248E+04  0.35875088248E+04  0.00000000000E+00 0. -1.
         23    2    1    2    0    0 -0.97526563477E+03  0.43488307672E+03 -0.13687370891E+04  0.17383639528E+04  0.90563040870E+02 0.  0.
         11    1    3    3    0    0 -0.75726844174E+02  0.44996216988E+02 -0.79166953966E+02  0.11843403680E+03  0.00000000000E+00 0. -1.
        -11    1    3    3    0    0 -0.89953879060E+03  0.38988685974E+03 -0.12895701351E+04  0.16199299160E+04  0.00000000000E+00 0.  1.
         22    1    1    2    0    0  0.97526563477E+03 -0.43488307672E+03 -0.18938046996E+04  0.21741119081E+04  0.00000000000E+00 0.  1.
<mgrwt>
<rscale>  0 0.21594649E+04</rscale>
<asrwt>0</asrwt>
<pdfrwt beam="1">  1        1 0.55192445E+00 0.21594649E+04</pdfrwt>
<pdfrwt beam="2">  1       -1 0.49994927E-01 0.21594649E+04</pdfrwt>
<totfact> 0.78468455E-01</totfact>
</mgrwt>
</event>
<event>
 6    1  0.9512547E-007  0.9983272E+03  0.7818608E-02  0.9310381E-01
          1   -1    0    0  501    0  0.00000000000E+00  0.00000000000E+00  0.88882109255E+03  0.88882109255E+03  0.00000000000E+00 0. -1.
         -1   -1    0    0    0  501 -0.00000000000E+00 -0.00000000000E+00 -0.28033121299E+03  0.28033121299E+03  0.00000000000E+00 0.  1.
         23    2    1    2    0    0 -0.15201851873E+03  0.28795610007E+03 -0.12965265681E+03  0.36237925840E+03  0.92090009734E+02 0.  0.
         11    1    3    3    0    0 -0.15241278372E+03  0.20809031923E+03 -0.10796222451E+03  0.27961952636E+03  0.00000000000E+00 0.  1.
        -11    1    3    3    0    0  0.39426498831E+00  0.79865780837E+02 -0.21690432300E+02  0.82759732038E+02  0.00000000000E+00 0. -1.
         22    1    1    2    0    0  0.15201851873E+03 -0.28795610007E+03  0.73814253636E+03  0.80677304714E+03  0.00000000000E+00 0. -1.
<mgrwt>
<rscale>  0 0.99832719E+03</rscale>
<asrwt>0</asrwt>
<pdfrwt beam="1">  1        1 0.13674170E+00 0.99832719E+03</pdfrwt>
<pdfrwt beam="2">  1       -1 0.43127879E-01 0.99832719E+03</pdfrwt>
<totfact> 0.98718430E+01</totfact>
</mgrwt>
</event>
<event>
 6    1  0.9512547E-007  0.1442860E+04  0.7818608E-02  0.8923366E-01
         -2   -1    0    0    0  501 -0.00000000000E+00  0.00000000000E+00  0.62540428916E+03  0.62540428916E+03  0.00000000000E+00 0.  1.
          2   -1    0    0  501    0  0.00000000000E+00 -0.00000000000E+00 -0.83219941355E+03  0.83219941355E+03  0.00000000000E+00 0. -1.
         23    2    1    2    0    0 -0.15227840764E+03 -0.19868442314E+02  0.60539628563E+03  0.63102136867E+03  0.89999092335E+02 0.  0.
         11    1    3    3    0    0 -0.10081494439E+03 -0.30101043481E+02  0.52195420506E+03  0.53245273782E+03  0.00000000000E+00 0.  1.
        -11    1    3    3    0    0 -0.51463463257E+02  0.10232601167E+02  0.83442080576E+02  0.98568630851E+02  0.00000000000E+00 0. -1.
         22    1    1    2    0    0  0.15227840764E+03  0.19868442314E+02 -0.81219141003E+03  0.82658233404E+03  0.00000000000E+00 0. -1.
<mgrwt>
<rscale>  0 0.14428598E+04</rscale>
<asrwt>0</asrwt>
<pdfrwt beam="1">  1        2 0.12803068E+00 0.14428598E+04</pdfrwt>
<pdfrwt beam="2">  1       -2 0.96216045E-01 0.14428598E+04</pdfrwt>
<totfact> 0.28681074E+01</totfact>
</mgrwt>
</event>
<event>
 6    1  0.9512547E-007  0.3340484E+04  0.7818608E-02  0.8152670E-01
         -2   -1    0    0    0  501 -0.00000000000E+00  0.00000000000E+00  0.14749950414E+04  0.14749950414E+04  0.00000000000E+00 0.  1.
          2   -1    0    0  501    0  0.00000000000E+00 -0.00000000000E+00 -0.18913340673E+04  0.18913340673E+04  0.00000000000E+00 0. -1.
         23    2    1    2    0    0 -0.12511689597E+04  0.47282351492E+02  0.90377711360E+03  0.15468879835E+04  0.91596811347E+02 0.  0.
         11    1    3    3    0    0 -0.52951060017E+03  0.23012848785E+02  0.32729589509E+03  0.62292348635E+03  0.00000000000E+00 0.  1.
        -11    1    3    3    0    0 -0.72165835952E+03  0.24269502707E+02  0.57648121851E+03  0.92396449711E+03  0.00000000000E+00 0. -1.
         22    1    1    2    0    0  0.12511689597E+04 -0.47282351492E+02 -0.13201161395E+04  0.18194411253E+04  0.00000000000E+00 0. -1.
<mgrwt>
<rscale>  0 0.33404840E+04</rscale>
<asrwt>0</asrwt>
<pdfrwt beam="1">  1        2 0.29097447E+00 0.33404840E+04</pdfrwt>
<pdfrwt beam="2">  1       -2 0.22692231E+00 0.33404840E+04</pdfrwt>
<totfact> 0.57134877E-01</totfact>
</mgrwt>
</event>
<event>
 6    1  0.9512547E-007  0.4182909E+04  0.7818608E-02  0.7968631E-01
         -1   -1    0    0    0  501 -0.00000000000E+00  0.00000000000E+00  0.34035160190E+04  0.34035160190E+04  0.00000000000E+00 0.  1.
          1   -1    0    0  501    0  0.00000000000E+00 -0.00000000000E+00 -0.12851952958E+04  0.12851952958E+04  0.00000000000E+00 0. -1.
         23    2    1    2    0    0 -0.27496028695E+03 -0.74424648962E+03  0.32275922345E+04  0.33248970743E+04  0.89905094199E+02 0.  0.
         11    1    3    3    0    0 -0.19521110546E+03 -0.40022295884E+03  0.18189883630E+04  0.18726997776E+04  0.00000000000E+00 0.  1.
        -11    1    3    3    0    0 -0.79749181492E+02 -0.34402353078E+03  0.14086038715E+04  0.14521972967E+04  0.00000000000E+00 0. -1.
         22    1    1    2    0    0  0.27496028695E+03  0.74424648962E+03 -0.11092715113E+04  0.13638142404E+04  0.00000000000E+00 0. -1.
<mgrwt>
<rscale>  0 0.41829094E+04</rscale>
<asrwt>0</asrwt>
<pdfrwt beam="1">  1        1 0.19772235E+00 0.41829094E+04</pdfrwt>
<pdfrwt beam="2">  1       -1 0.52361784E+00 0.41829094E+04</pdfrwt>
<totfact> 0.76003513E-03</totfact>
</mgrwt>
</event>
<event>
 6    1  0.9512547E-007  0.2000768E+04  0.7818608E-02  0.8606262E-01
          2   -1    0    0  501    0  0.00000000000E+00  0.00000000000E+00  0.12313796851E+04  0.12313796851E+04  0.00000000000E+00 0. -1.
         -2   -1    0    0    0  501 -0.00000000000E+00 -0.00000000000E+00 -0.81272076046E+03  0.81272076046E+03  0.00000000000E+00 0.  1.
         23    2    1    2    0    0 -0.81677612964E+03 -0.44741242455E+03  0.57692989213E+03  0.10994572205E+04  0.93042762121E+02 0.  0.
         13    1    3    3    0    0 -0.49153993870E+03 -0.24438336135E+03  0.38657968154E+03  0.67140046829E+03  0.00000000000E+00 0. -1.
        -13    1    3    3    0    0 -0.32523619094E+03 -0.20302906319E+03  0.19035021059E+03  0.42805675216E+03  0.00000000000E+00 0.  1.
         22    1    1    2    0    0  0.81677612964E+03  0.44741242455E+03 -0.15827096749E+03  0.94464322511E+03  0.00000000000E+00 0. -1.
<mgrwt>
<rscale>  0 0.20007677E+04</rscale>
<asrwt>0</asrwt>
<pdfrwt beam="1">  1        2 0.18944303E+00 0.20007677E+04</pdfrwt>
<pdfrwt beam="2">  1       -2 0.12503396E+00 0.20007677E+04</pdfrwt>
<totfact> 0.80771582E+00</totfact>
</mgrwt>
</event>
<event>
 6    1  0.9512547E-007  0.2706523E+04  0.7818608E-02  0.8332892E-01
         -2   -1    0    0    0  501 -0.00000000000E+00  0.00000000000E+00  0.65412520365E+03  0.65412520365E+03  0.00000000000E+00 0.  1.
          2   -1    0    0  501    0  0.00000000000E+00 -0.00000000000E+00 -0.27996419644E+04  0.27996419644E+04  0.00000000000E+00 0. -1.
         23    2    1    2    0    0 -0.13436113917E+04 -0.81155842206E+01 -0.88594774358E+03  0.16120637328E+04  0.92133813723E+02 0.  0.
         11    1    3    3    0    0 -0.10147990298E+04 -0.27844073567E+02 -0.70785631451E+03  0.12375996628E+04  0.00000000000E+00 0. -1.
        -11    1    3    3    0    0 -0.32881236182E+03  0.19728489346E+02 -0.17809142907E+03  0.37446406995E+03  0.00000000000E+00 0.  1.
         22    1    1    2    0    0  0.13436113917E+04  0.81155842206E+01 -0.12595690171E+04  0.18417034353E+04  0.00000000000E+00 0. -1.
<mgrwt>
<rscale>  0 0.27065228E+04</rscale>
<asrwt>0</asrwt>
<pdfrwt beam="1">  1        2 0.43071416E+00 0.27065228E+04</pdfrwt>
<pdfrwt beam="2">  1       -2 0.10063464E+00 0.27065228E+04</pdfrwt>
<totfact> 0.16501051E+00</totfact>
</mgrwt>
</event>
<event>
 6    1  0.9512547E-007  0.2077340E+04  0.7818608E-02  0.8571292E-01
          1   -1    0    0  501    0  0.00000000000E+00  0.00000000000E+00  0.12202727629E+04  0.12202727629E+04  0.00000000000E+00 0. -1.
         -1   -1    0    0    0  501 -0.00000000000E+00 -0.00000000000E+00 -0.88409333340E+03  0.88409333340E+03  0.00000000000E+00 0.  1.
         23    2    1    2    0    0  0.35638429788E+03 -0.26879655860E+03 -0.77945316452E+03  0.90274325924E+03  0.90204205758E+02 0.  0.
         13    1    3    3    0    0  0.18938117646E+03 -0.19439513057E+03 -0.43334691489E+03  0.51131618929E+03  0.00000000000E+00 0.  1.
        -13    1    3    3    0    0  0.16700312143E+03 -0.74401428027E+02 -0.34610624963E+03  0.39142706996E+03  0.00000000000E+00 0. -1.
         22    1    1    2    0    0 -0.35638429788E+03  0.26879655860E+03  0.11156325940E+04  0.12016228371E+04  0.00000000000E+00 0. -1.
<mgrwt>
<rscale>  0 0.20773397E+04</rscale>
<asrwt>0</asrwt>
<pdfrwt beam="1">  1        1 0.18773427E+00 0.20773397E+04</pdfrwt>
<pdfrwt beam="2">  1       -1 0.13601436E+00 0.20773397E+04</pdfrwt>
<totfact> 0.43005350E+00</totfact>
</mgrwt>
</event>
<event>
 6    1  0.1880770E-006  0.2376819E+04  0.7818608E-02  0.8448234E-01
          1   -1    0    0  501    0  0.00000000000E+00  0.00000000000E+00  0.18074618553E+04  0.18074618553E+04  0.00000000000E+00 0. -1.
         -1   -1    0    0    0  501 -0.00000000000E+00 -0.00000000000E+00 -0.78138121339E+03  0.78138121339E+03  0.00000000000E+00 0.  1.
         23    2    1    2    0    0  0.11444389799E+04 -0.29906932593E+03  0.41049162780E+03  0.12553765806E+04  0.91016165202E+02 0.  0.
         11    1    3    3    0    0  0.42014331015E+03 -0.81143230692E+02  0.18430317076E+03  0.46591016699E+03  0.00000000000E+00 0. -1.
        -11    1    3    3    0    0  0.72429566974E+03 -0.21792609524E+03  0.22618845704E+03  0.78946641365E+03  0.00000000000E+00 0.  1.
         22    1    1    2    0    0 -0.11444389799E+04  0.29906932593E+03  0.61558901407E+03  0.13334664880E+04  0.00000000000E+00 0. -1.
<mgrwt>
<rscale>  0 0.23768187E+04</rscale>
<asrwt>0</asrwt>
<pdfrwt beam="1">  1        1 0.27807105E+00 0.23768187E+04</pdfrwt>
<pdfrwt beam="2">  1       -1 0.12021249E+00 0.23768187E+04</pdfrwt>
<totfact> 0.22284507E+00</totfact>
</mgrwt>
</event>
<event>
 6    1  0.9512547E-007  0.2997989E+04  0.7818608E-02  0.8244305E-01
          1   -1    0    0  501    0  0.00000000000E+00  0.00000000000E+00  0.25146696959E+04  0.25146696959E+04  0.00000000000E+00 0. -1.
         -1   -1    0    0    0  501 -0.00000000000E+00 -0.00000000000E+00 -0.89355061230E+03  0.89355061230E+03  0.00000000000E+00 0.  1.
         23    2    1    2    0    0 -0.13591783892E+04  0.74528192895E+02  0.15211499955E+04  0.20433341724E+04  0.91634524916E+02 0.  0.
         13    1    3    3    0    0 -0.48883945250E+03 -0.14460840992E+02  0.56840167398E+03  0.74983570815E+03  0.00000000000E+00 0.  1.
        -13    1    3    3    0    0 -0.87033893668E+03  0.88989033887E+02  0.95274832149E+03  0.12934984642E+04  0.00000000000E+00 0. -1.
         22    1    1    2    0    0  0.13591783892E+04 -0.74528192895E+02  0.99969088130E+02  0.13648861358E+04  0.00000000000E+00 0.  1.
<mgrwt>
<rscale>  0 0.29979891E+04</rscale>
<asrwt>0</asrwt>
<pdfrwt beam="1">  1        1 0.38687226E+00 0.29979891E+04</pdfrwt>
<pdfrwt beam="2">  1       -1 0.13746933E+00 0.29979891E+04</pdfrwt>
<totfact> 0.49496196E-01</totfact>
</mgrwt>
</event>
<event>
 6    1  0.9512547E-007  0.4010568E+04  0.7818608E-02  0.8002418E-01
         -2   -1    0    0    0  501 -0.00000000000E+00  0.00000000000E+00  0.29064914615E+04  0.29064914615E+04  0.00000000000E+00 0.  1.
          2   -1    0    0  501    0  0.00000000000E+00 -0.00000000000E+00 -0.13835116256E+04  0.13835116256E+04  0.00000000000E+00 0. -1.
         23    2    1    2    0    0 -0.13560830598E+04 -0.57591631403E+03 -0.69158966286E+03  0.16301235916E+04  0.91464726018E+02 0.  0.
         13    1    3    3    0    0 -0.12156288161E+04 -0.52749748311E+03 -0.59269360268E+03  0.14516517212E+04  0.00000000000E+00 0. -1.
        -13    1    3    3    0    0 -0.14045424375E+03 -0.48418830928E+02 -0.98896060184E+02  0.17847187032E+03  0.00000000000E+00 0.  1.
         22    1    1    2    0    0  0.13560830598E+04  0.57591631403E+03  0.22145694988E+04  0.26598794955E+04  0.00000000000E+00 0.  1.
<mgrwt>
<rscale>  0 0.40105684E+04</rscale>
<asrwt>0</asrwt>
<pdfrwt beam="1">  1        2 0.21284794E+00 0.40105684E+04</pdfrwt>
<pdfrwt beam="2">  1       -2 0.44715253E+00 0.40105684E+04</pdfrwt>
<totfact> 0.42251590E-02</totfact>
</mgrwt>
</event>
<event>
 6    1  0.9512547E-007  0.2010743E+04  0.7818608E-02  0.8601614E-01
          2   -1    0    0  501    0  0.00000000000E+00  0.00000000000E+00  0.23975291326E+04  0.23975291326E+04  0.00000000000E+00 0. -1.
         -2   -1    0    0    0  501 -0.00000000000E+00 -0.00000000000E+00 -0.42158911885E+03  0.42158911885E+03  0.00000000000E+00 0.  1.
         23    2    1    2    0    0  0.74267484906E+03 -0.49576125092E+03  0.16314019981E+04  0.18620124090E+04  0.90953739461E+02 0.  0.
         13    1    3    3    0    0  0.46101911219E+03 -0.25464042746E+03  0.94208797667E+03  0.10793100226E+04  0.00000000000E+00 0.  1.
        -13    1    3    3    0    0  0.28165573688E+03 -0.24112082345E+03  0.68931402143E+03  0.78270238645E+03  0.00000000000E+00 0. -1.
         22    1    1    2    0    0 -0.74267484906E+03  0.49576125092E+03  0.34453801567E+03  0.95710584242E+03  0.00000000000E+00 0.  1.
<mgrwt>
<rscale>  0 0.20107433E+04</rscale>
<asrwt>0</asrwt>
<pdfrwt beam="1">  1        2 0.36885063E+00 0.20107433E+04</pdfrwt>
<pdfrwt beam="2">  1       -2 0.64859866E-01 0.20107433E+04</pdfrwt>
<totfact> 0.81228136E+00</totfact>
</mgrwt>
</event>
<event>
 6    1  0.9512547E-007  0.2753678E+04  0.7818608E-02  0.8317795E-01
          2   -1    0    0  501    0  0.00000000000E+00  0.00000000000E+00  0.30944144031E+04  0.30944144031E+04  0.00000000000E+00 0. -1.
         -2   -1    0    0    0  501 -0.00000000000E+00 -0.00000000000E+00 -0.61261538896E+03  0.61261538896E+03  0.00000000000E+00 0.  1.
         23    2    1    2    0    0  0.51238039450E+03 -0.10625222557E+04  0.21942456733E+04  0.24928740621E+04  0.90663126479E+02 0.  0.
         13    1    3    3    0    0  0.27050092999E+03 -0.48558122445E+03  0.10983717219E+04  0.12310078465E+04  0.00000000000E+00 0.  1.
        -13    1    3    3    0    0  0.24187946451E+03 -0.57694103128E+03  0.10958739513E+04  0.12618662156E+04  0.00000000000E+00 0. -1.
         22    1    1    2    0    0 -0.51238039450E+03  0.10625222557E+04  0.28755334084E+03  0.12141557299E+04  0.00000000000E+00 0.  1.
<mgrwt>
<rscale>  0 0.27536782E+04</rscale>
<asrwt>0</asrwt>
<pdfrwt beam="1">  1        2 0.47606375E+00 0.27536782E+04</pdfrwt>
<pdfrwt beam="2">  1       -2 0.94248523E-01 0.27536782E+04</pdfrwt>
<totfact> 0.12578898E+00</totfact>
</mgrwt>
</event>
<event>
 6    1  0.9512547E-007  0.4116212E+04  0.7818608E-02  0.7981505E-01
          2   -1    0    0  501    0  0.00000000000E+00  0.00000000000E+00  0.24121286079E+04  0.24121286079E+04  0.00000000000E+00 0. -1.
         -2   -1    0    0    0  501 -0.00000000000E+00 -0.00000000000E+00 -0.17560421746E+04  0.17560421746E+04  0.00000000000E+00 0.  1.
         23    2    1    2    0    0 -0.14943388578E+04  0.11100577169E+04 -0.55825369587E+03  0.19455824927E+04  0.91472893490E+02 0.  0.
         13    1    3    3    0    0 -0.10784625690E+03  0.52707821007E+02 -0.40236462198E+02  0.12660135234E+03  0.00000000000E+00 0. -1.
        -13    1    3    3    0    0 -0.13864926009E+04  0.10573498959E+04 -0.51801723367E+03  0.18189811403E+04  0.00000000000E+00 0.  1.
         22    1    1    2    0    0  0.14943388578E+04 -0.11100577169E+04  0.12143401292E+04  0.22225882898E+04  0.00000000000E+00 0. -1.
<mgrwt>
<rscale>  0 0.41162116E+04</rscale>
<asrwt>0</asrwt>
<pdfrwt beam="1">  1        2 0.37109671E+00 0.41162116E+04</pdfrwt>
<pdfrwt beam="2">  1       -2 0.27016034E+00 0.41162116E+04</pdfrwt>
<totfact> 0.14786294E-01</totfact>
</mgrwt>
</event>
<event>
 6    1  0.9512547E-007  0.6104911E+04  0.7818608E-02  0.7677529E-01
         -1   -1    0    0    0  501 -0.00000000000E+00  0.00000000000E+00  0.24251181322E+04  0.24251181322E+04  0.00000000000E+00 0.  1.
          1   -1    0    0  501    0  0.00000000000E+00 -0.00000000000E+00 -0.38420749188E+04  0.38420749188E+04  0.00000000000E+00 0. -1.
         23    2    1    2    0    0 -0.27305511482E+04  0.93994883361E+01  0.69032853628E+03  0.28180410747E+04  0.93830099194E+02 0.  0.
         13    1    3    3    0    0 -0.15469115188E+04 -0.32227934829E+02  0.41928169664E+03  0.16030505381E+04  0.00000000000E+00 0.  1.
        -13    1    3    3    0    0 -0.11836396294E+04  0.41627423165E+02  0.27104683964E+03  0.12149905366E+04  0.00000000000E+00 0. -1.
         22    1    1    2    0    0  0.27305511482E+04 -0.93994883361E+01 -0.21072853229E+04  0.34491519763E+04  0.00000000000E+00 0. -1.
<mgrwt>
<rscale>  0 0.61049113E+04</rscale>
<asrwt>0</asrwt>
<pdfrwt beam="1">  1        1 0.59108845E+00 0.61049113E+04</pdfrwt>
<pdfrwt beam="2">  1       -1 0.37309510E+00 0.61049113E+04</pdfrwt>
<totfact> 0.94583552E-04</totfact>
</mgrwt>
</event>
<event>
 6    1  0.9512547E-007  0.2171595E+04  0.7818608E-02  0.8530345E-01
         -2   -1    0    0    0  501 -0.00000000000E+00  0.00000000000E+00  0.99214437422E+03  0.99214437422E+03  0.00000000000E+00 0.  1.
          2   -1    0    0  501    0  0.00000000000E+00 -0.00000000000E+00 -0.11882913876E+04  0.11882913876E+04  0.00000000000E+00 0. -1.
         23    2    1    2    0    0  0.42859775938E+03  0.89179779647E+03  0.34610474083E+03  0.10521466525E+04  0.90690339366E+02 0.  0.
         11    1    3    3    0    0  0.24380162877E+03  0.40834857090E+03  0.15019032731E+03  0.49874334478E+03  0.00000000000E+00 0.  1.
        -11    1    3    3    0    0  0.18479613061E+03  0.48344922558E+03  0.19591441352E+03  0.55340330775E+03  0.00000000000E+00 0. -1.
         22    1    1    2    0    0 -0.42859775938E+03 -0.89179779647E+03 -0.54225175418E+03  0.11282891093E+04  0.00000000000E+00 0. -1.
<mgrwt>
<rscale>  0 0.21715954E+04</rscale>
<asrwt>0</asrwt>
<pdfrwt beam="1">  1        2 0.18281406E+00 0.21715954E+04</pdfrwt>
<pdfrwt beam="2">  1       -2 0.15263760E+00 0.21715954E+04</pdfrwt>
<totfact> 0.50448583E+00</totfact>
</mgrwt>
</event>
<event>
 6    1  0.9512547E-007  0.2384205E+04  0.7818608E-02  0.8445441E-01
         -2   -1    0    0    0  501 -0.00000000000E+00  0.00000000000E+00  0.66141900144E+03  0.66141900144E+03  0.00000000000E+00 0.  1.
          2   -1    0    0  501    0  0.00000000000E+00 -0.00000000000E+00 -0.21485748161E+04  0.21485748161E+04  0.00000000000E+00 0. -1.
         23    2    1    2    0    0  0.52242258235E+03  0.60474218302E+03  0.29508004485E+03  0.85679052003E+03  0.91538515724E+02 0.  0.
         13    1    3    3    0    0  0.27804917505E+03  0.38626624144E+03  0.19154315779E+03  0.51303190380E+03  0.00000000000E+00 0. -1.
        -13    1    3    3    0    0  0.24437340730E+03  0.21847594158E+03  0.10353688706E+03  0.34375861623E+03  0.00000000000E+00 0.  1.
         22    1    1    2    0    0 -0.52242258235E+03 -0.60474218302E+03 -0.17822358595E+04  0.19532032975E+04  0.00000000000E+00 0. -1.
<mgrwt>
<rscale>  0 0.23842049E+04</rscale>
<asrwt>0</asrwt>
<pdfrwt beam="1">  1        2 0.33054997E+00 0.23842049E+04</pdfrwt>
<pdfrwt beam="2">  1       -2 0.10175677E+00 0.23842049E+04</pdfrwt>
<totfact> 0.39375309E+00</totfact>
</mgrwt>
</event>
<event>
 6    1  0.9512547E-007  0.2605745E+04  0.7818608E-02  0.8366253E-01
          1   -1    0    0  501    0  0.00000000000E+00  0.00000000000E+00  0.10012373635E+04  0.10012373635E+04  0.00000000000E+00 0. -1.
         -1   -1    0    0    0  501 -0.00000000000E+00 -0.00000000000E+00 -0.16953784584E+04  0.16953784584E+04  0.00000000000E+00 0.  1.
         23    2    1    2    0    0 -0.98077375080E+03 -0.58410420518E+03  0.29883065607E+03  0.11836426658E+04  0.92818783196E+02 0.  0.
         11    1    3    3    0    0 -0.23043408896E+03 -0.16807893330E+03  0.10603598467E+03  0.30429266705E+03  0.00000000000E+00 0. -1.
        -11    1    3    3    0    0 -0.75033966185E+03 -0.41602527188E+03  0.19279467139E+03  0.87934999875E+03  0.00000000000E+00 0.  1.
         22    1    1    2    0    0  0.98077375080E+03  0.58410420518E+03 -0.99297175104E+03  0.15129731561E+04  0.00000000000E+00 0.  1.
<mgrwt>
<rscale>  0 0.26057446E+04</rscale>
<asrwt>0</asrwt>
<pdfrwt beam="1">  1        1 0.15403652E+00 0.26057446E+04</pdfrwt>
<pdfrwt beam="2">  1       -1 0.26082745E+00 0.26057446E+04</pdfrwt>
<totfact> 0.78757855E-01</totfact>
</mgrwt>
</event>
<event>
 6    1  0.9512547E-007  0.1001831E+04  0.7818608E-02  0.9306539E-01
         -2   -1    0    0    0  501 -0.00000000000E+00  0.00000000000E+00  0.21193111881E+03  0.21193111881E+03  0.00000000000E+00 0.  1.
          2   -1    0    0  501    0  0.00000000000E+00 -0.00000000000E+00 -0.11839519246E+04  0.11839519246E+04  0.00000000000E+00 0. -1.
         23    2    1    2    0    0 -0.34900456800E+03 -0.18580156415E+03 -0.90895921119E+03  0.99550425470E+03  0.92170840282E+02 0.  0.
         13    1    3    3    0    0 -0.80473465556E+02 -0.35598458035E+02 -0.12108985006E+03  0.14968627413E+03  0.00000000000E+00 0. -1.
        -13    1    3    3    0    0 -0.26853110244E+03 -0.15020310612E+03 -0.78786936113E+03  0.84581798058E+03  0.00000000000E+00 0.  1.
         22    1    1    2    0    0  0.34900456800E+03  0.18580156415E+03 -0.63061594597E+02  0.40037878870E+03  0.00000000000E+00 0.  1.
<mgrwt>
<rscale>  0 0.10018308E+04</rscale>
<asrwt>0</asrwt>
<pdfrwt beam="1">  1        2 0.18214645E+00 0.10018308E+04</pdfrwt>
<pdfrwt beam="2">  1       -2 0.32604787E-01 0.10018308E+04</pdfrwt>
<totfact> 0.16927253E+02</totfact>
</mgrwt>
</event>
<event>
 6    1  0.9512547E-007  0.3716624E+04  0.7818608E-02  0.8064288E-01
         -2   -1    0    0    0  501 -0.00000000000E+00  0.00000000000E+00  0.17312589459E+04  0.17312589459E+04  0.00000000000E+00 0.  1.
          2   -1    0    0  501    0  0.00000000000E+00 -0.00000000000E+00 -0.19946895583E+04  0.19946895583E+04  0.00000000000E+00 0. -1.
         23    2    1    2    0    0 -0.10386495247E+04 -0.29382808037E+03 -0.16467491359E+04  0.19713266324E+04  0.96011451957E+02 0.  0.
         13    1    3    3    0    0 -0.48941635308E+03 -0.12436334135E+03 -0.68693874400E+03  0.85257225227E+03  0.00000000000E+00 0.  1.
        -13    1    3    3    0    0 -0.54923317162E+03 -0.16946473902E+03 -0.95981039190E+03  0.11187543801E+04  0.00000000000E+00 0. -1.
         22    1    1    2    0    0  0.10386495247E+04  0.29382808037E+03  0.13833185235E+04  0.17546218719E+04  0.00000000000E+00 0.  1.
<mgrwt>
<rscale>  0 0.37166244E+04</rscale>
<asrwt>0</asrwt>
<pdfrwt beam="1">  1        2 0.30687532E+00 0.37166244E+04</pdfrwt>
<pdfrwt beam="2">  1       -2 0.26634753E+00 0.37166244E+04</pdfrwt>
<totfact> 0.27710271E-01</totfact>
</mgrwt>
</event>
<event>
 6    1  0.9512547E-007  0.2616269E+04  0.7818608E-02  0.8362696E-01
         -2   -1    0    0    0  501 -0.00000000000E+00  0.00000000000E+00  0.11577055883E+04  0.11577055883E+04  0.00000000000E+00 0.  1.
          2   -1    0    0  501    0  0.00000000000E+00 -0.00000000000E+00 -0.14781099433E+04  0.14781099433E+04  0.00000000000E+00 0. -1.
         23    2    1    2    0    0 -0.37027430232E+03  0.12511983301E+04 -0.21910637422E+03  0.13270521453E+04  0.10227156443E+03 0.  0.
         11    1    3    3    0    0 -0.76907288107E+01  0.50607340324E+02 -0.28247893579E+02  0.58465320456E+02  0.00000000000E+00 0.  1.
        -11    1    3    3    0    0 -0.36258357351E+03  0.12005909898E+04 -0.19085848064E+03  0.12685868249E+04  0.00000000000E+00 0. -1.
         22    1    1    2    0    0  0.37027430232E+03 -0.12511983301E+04 -0.10129798075E+03  0.13087633862E+04  0.00000000000E+00 0.  1.
<mgrwt>
<rscale>  0 0.26162692E+04</rscale>
<asrwt>0</asrwt>
<pdfrwt beam="1">  1        2 0.22740153E+00 0.26162692E+04</pdfrwt>
<pdfrwt beam="2">  1       -2 0.17810855E+00 0.26162692E+04</pdfrwt>
<totfact> 0.21566015E+00</totfact>
</mgrwt>
</event>
<event>
 6    1  0.9512547E-007  0.7206892E+03  0.7818608E-02  0.9682491E-01
         -2   -1    0    0    0  501 -0.00000000000E+00  0.00000000000E+00  0.25358445457E+03  0.25358445457E+03  0.00000000000E+00 0.  1.
          2   -1    0    0  501    0  0.00000000000E+00 -0.00000000000E+00 -0.51205129659E+03  0.51205129659E+03  0.00000000000E+00 0. -1.
         23    2    1    2    0    0  0.15168153878E+03 -0.31498278203E+03 -0.19008885584E+03  0.40940971172E+03  0.96234592302E+02 0.  0.
         13    1    3    3    0    0  0.34605506241E+02 -0.12581913388E+03 -0.11695903426E+03  0.17523530240E+03  0.00000000000E+00 0. -1.
        -13    1    3    3    0    0  0.11707603254E+03 -0.18916364815E+03 -0.73129821581E+02  0.23417440933E+03  0.00000000000E+00 0.  1.
         22    1    1    2    0    0 -0.15168153878E+03  0.31498278203E+03 -0.68377986182E+02  0.35622603944E+03  0.00000000000E+00 0. -1.
<mgrwt>
<rscale>  0 0.72068925E+03</rscale>
<asrwt>0</asrwt>
<pdfrwt beam="1">  1        2 0.78777123E-01 0.72068925E+03</pdfrwt>
<pdfrwt beam="2">  1       -2 0.39012993E-01 0.72068925E+03</pdfrwt>
<totfact> 0.37476427E+02</totfact>
</mgrwt>
</event>
<event>
 6    1  0.9512547E-007  0.6548688E+04  0.7818608E-02  0.7625859E-01
          2   -1    0    0  501    0  0.00000000000E+00  0.00000000000E+00  0.45413554563E+04  0.45413554563E+04  0.00000000000E+00 0. -1.
         -2   -1    0    0    0  501 -0.00000000000E+00 -0.00000000000E+00 -0.23608214917E+04  0.23608214917E+04  0.00000000000E+00 0.  1.
         23    2    1    2    0    0  0.30020535896E+04  0.11788080358E+04  0.49859864595E+03  0.32647574567E+04  0.90147109218E+02 0.  0.
         11    1    3    3    0    0  0.22483965804E+04  0.84246966310E+03  0.38269379241E+03  0.24313569986E+04  0.00000000000E+00 0.  1.
        -11    1    3    3    0    0  0.75365700914E+03  0.33633837267E+03  0.11590485354E+03  0.83340045802E+03  0.00000000000E+00 0. -1.
         22    1    1    2    0    0 -0.30020535896E+04 -0.11788080358E+04  0.16819353187E+04  0.36374194914E+04  0.00000000000E+00 0. -1.
<mgrwt>
<rscale>  0 0.65486883E+04</rscale>
<asrwt>0</asrwt>
<pdfrwt beam="1">  1        2 0.69867007E+00 0.65486883E+04</pdfrwt>
<pdfrwt beam="2">  1       -2 0.36320331E+00 0.65486883E+04</pdfrwt>
<totfact> 0.91554446E-04</totfact>
</mgrwt>
</event>
<event>
 6    1  0.9512547E-007  0.3807204E+04  0.7818608E-02  0.8044611E-01
          2   -1    0    0  501    0  0.00000000000E+00  0.00000000000E+00  0.16029249517E+04  0.16029249517E+04  0.00000000000E+00 0. -1.
         -2   -1    0    0    0  501 -0.00000000000E+00 -0.00000000000E+00 -0.22606797006E+04  0.22606797006E+04  0.00000000000E+00 0.  1.
         23    2    1    2    0    0  0.12421545415E+04  0.10157096201E+03 -0.17878270295E+04  0.21812468054E+04  0.90816150210E+02 0.  0.
         11    1    3    3    0    0  0.80652426389E+03  0.36640068196E+02 -0.12120391311E+04  0.14563182132E+04  0.00000000000E+00 0. -1.
        -11    1    3    3    0    0  0.43563027765E+03  0.64930893811E+02 -0.57578789847E+03  0.72492859220E+03  0.00000000000E+00 0.  1.
         22    1    1    2    0    0 -0.12421545415E+04 -0.10157096201E+03  0.11300722807E+04  0.16823578469E+04  0.00000000000E+00 0. -1.
<mgrwt>
<rscale>  0 0.38072036E+04</rscale>
<asrwt>0</asrwt>
<pdfrwt beam="1">  1        2 0.24660384E+00 0.38072036E+04</pdfrwt>
<pdfrwt beam="2">  1       -2 0.34779687E+00 0.38072036E+04</pdfrwt>
<totfact> 0.14296513E-01</totfact>
</mgrwt>
</event>
<event>
 6    1  0.9512547E-007  0.3629367E+04  0.7818608E-02  0.8083798E-01
          2   -1    0    0  501    0  0.00000000000E+00  0.00000000000E+00  0.26080406814E+04  0.26080406814E+04  0.00000000000E+00 0. -1.
         -2   -1    0    0    0  501 -0.00000000000E+00 -0.00000000000E+00 -0.12626626921E+04  0.12626626921E+04  0.00000000000E+00 0.  1.
         23    2    1    2    0    0  0.10014168286E+04 -0.11926204277E+04 -0.31700561355E+03  0.15928319126E+04  0.10696632061E+03 0.  0.
         13    1    3    3    0    0  0.36056654722E+03 -0.36474484313E+03 -0.13309293828E+03  0.52986863069E+03  0.00000000000E+00 0.  1.
        -13    1    3    3    0    0  0.64085028141E+03 -0.82787558454E+03 -0.18391267527E+03  0.10629632820E+04  0.00000000000E+00 0. -1.
         22    1    1    2    0    0 -0.10014168286E+04  0.11926204277E+04  0.16623836028E+04  0.22778714608E+04  0.00000000000E+00 0. -1.
<mgrwt>
<rscale>  0 0.36293667E+04</rscale>
<asrwt>0</asrwt>
<pdfrwt beam="1">  1        2 0.40123703E+00 0.36293667E+04</pdfrwt>
<pdfrwt beam="2">  1       -2 0.19425580E+00 0.36293667E+04</pdfrwt>
<totfact> 0.35524492E-01</totfact>
</mgrwt>
</event>
<event>
 6    1  0.9512547E-007  0.2401072E+04  0.7818608E-02  0.8439102E-01
          2   -1    0    0  501    0  0.00000000000E+00  0.00000000000E+00  0.11902979716E+04  0.11902979716E+04  0.00000000000E+00 0. -1.
         -2   -1    0    0    0  501 -0.00000000000E+00 -0.00000000000E+00 -0.12108625159E+04  0.12108625159E+04  0.00000000000E+00 0.  1.
         23    2    1    2    0    0  0.85525419065E+03 -0.22046432052E+03 -0.82094508421E+03  0.12092405002E+04  0.90815795910E+02 0.  0.
         11    1    3    3    0    0  0.48882592054E+03 -0.10512788019E+03 -0.51858998617E+03  0.72037367077E+03  0.00000000000E+00 0. -1.
        -11    1    3    3    0    0  0.36642827012E+03 -0.11533644033E+03 -0.30235509805E+03  0.48886682944E+03  0.00000000000E+00 0.  1.
         22    1    1    2    0    0 -0.85525419065E+03  0.22046432052E+03  0.80038053993E+03  0.11919199872E+04  0.00000000000E+00 0. -1.
<mgrwt>
<rscale>  0 0.24010724E+04</rscale>
<asrwt>0</asrwt>
<pdfrwt beam="1">  1        2 0.18312276E+00 0.24010724E+04</pdfrwt>
<pdfrwt beam="2">  1       -2 0.18628654E+00 0.24010724E+04</pdfrwt>
<totfact> 0.28342739E+00</totfact>
</mgrwt>
</event>
<event>
 6    1  0.9512547E-007  0.1363238E+04  0.7818608E-02  0.8980867E-01
          1   -1    0    0  501    0  0.00000000000E+00  0.00000000000E+00  0.88403180127E+03  0.88403180127E+03  0.00000000000E+00 0. -1.
         -1   -1    0    0    0  501 -0.00000000000E+00 -0.00000000000E+00 -0.52555192625E+03  0.52555192625E+03  0.00000000000E+00 0.  1.
         23    2    1    2    0    0  0.19352376851E+03  0.22138987225E+03  0.81213155145E+03  0.86896855196E+03  0.95308776754E+02 0.  0.
         13    1    3    3    0    0  0.14319018091E+03  0.17976979816E+03  0.50308427222E+03  0.55309528401E+03  0.00000000000E+00 0.  1.
        -13    1    3    3    0    0  0.50333587607E+02  0.41620074093E+02  0.30904727923E+03  0.31587326795E+03  0.00000000000E+00 0. -1.
         22    1    1    2    0    0 -0.19352376851E+03 -0.22138987225E+03 -0.45365167643E+03  0.54061517556E+03  0.00000000000E+00 0.  1.
<mgrwt>
<rscale>  0 0.13632382E+04</rscale>
<asrwt>0</asrwt>
<pdfrwt beam="1">  1        1 0.13600489E+00 0.13632382E+04</pdfrwt>
<pdfrwt beam="2">  1       -1 0.80854142E-01 0.13632382E+04</pdfrwt>
<totfact> 0.27978103E+01</totfact>
</mgrwt>
</event>
<event>
 6    1  0.9512547E-007  0.2107001E+04  0.7818608E-02  0.8558166E-01
         -2   -1    0    0    0  501 -0.00000000000E+00  0.00000000000E+00  0.11614431895E+04  0.11614431895E+04  0.00000000000E+00 0.  1.
          2   -1    0    0  501    0  0.00000000000E+00 -0.00000000000E+00 -0.95558989576E+03  0.95558989576E+03  0.00000000000E+00 0. -1.
         23    2    1    2    0    0  0.63490473812E+02  0.10434520319E+04 -0.13490155649E+02  0.10488876214E+04  0.84617224598E+02 0.  0.
         13    1    3    3    0    0  0.55557537084E+02  0.29327669630E+03  0.23925666135E+01  0.29850223599E+03  0.00000000000E+00 0.  1.
        -13    1    3    3    0    0  0.79329367279E+01  0.75017533564E+03 -0.15882722262E+02  0.75038538536E+03  0.00000000000E+00 0. -1.
         22    1    1    2    0    0 -0.63490473812E+02 -0.10434520319E+04  0.21934344935E+03  0.10681454639E+04  0.00000000000E+00 0. -1.
<mgrwt>
<rscale>  0 0.21070011E+04</rscale>
<asrwt>0</asrwt>
<pdfrwt beam="1">  1        2 0.14701383E+00 0.21070011E+04</pdfrwt>
<pdfrwt beam="2">  1       -2 0.17868357E+00 0.21070011E+04</pdfrwt>
<totfact> 0.45901681E+00</totfact>
</mgrwt>
</event>
<event>
 6    1  0.9512547E-007  0.2405898E+04  0.7818608E-02  0.8437299E-01
          2   -1    0    0  501    0  0.00000000000E+00  0.00000000000E+00  0.13446814967E+04  0.13446814967E+04  0.00000000000E+00 0. -1.
         -2   -1    0    0    0  501 -0.00000000000E+00 -0.00000000000E+00 -0.10761555016E+04  0.10761555016E+04  0.00000000000E+00 0.  1.
         23    2    1    2    0    0  0.82538287562E+03 -0.32078123615E+03  0.95110505434E+03  0.13027709605E+04  0.91944865071E+02 0.  0.
         13    1    3    3    0    0  0.49209765573E+03 -0.23136237223E+03  0.54538716529E+03  0.77015310823E+03  0.00000000000E+00 0. -1.
        -13    1    3    3    0    0  0.33328521989E+03 -0.89418863913E+02  0.40571788905E+03  0.53261785223E+03  0.00000000000E+00 0.  1.
         22    1    1    2    0    0 -0.82538287562E+03  0.32078123615E+03 -0.68257905927E+03  0.11180660378E+04  0.00000000000E+00 0.  1.
<mgrwt>
<rscale>  0 0.24058981E+04</rscale>
<asrwt>0</asrwt>
<pdfrwt beam="1">  1        2 0.20687408E+00 0.24058981E+04</pdfrwt>
<pdfrwt beam="2">  1       -2 0.16556239E+00 0.24058981E+04</pdfrwt>
<totfact> 0.32104050E+00</totfact>
</mgrwt>
</event>
<event>
 6    1  0.9512547E-007  0.3563611E+04  0.7818608E-02  0.8098878E-01
          2   -1    0    0  501    0  0.00000000000E+00  0.00000000000E+00  0.22458509818E+04  0.22458509818E+04  0.00000000000E+00 0. -1.
         -2   -1    0    0    0  501 -0.00000000000E+00 -0.00000000000E+00 -0.14136426775E+04  0.14136426775E+04  0.00000000000E+00 0.  1.
         23    2    1    2    0    0 -0.70899299918E+03 -0.20910440568E+03  0.20800640126E+04  0.22091352228E+04  0.84949460509E+02 0.  0.
         11    1    3    3    0    0 -0.20809480858E+03 -0.23399816908E+02  0.55248623338E+03  0.59084011278E+03  0.00000000000E+00 0. -1.
        -11    1    3    3    0    0 -0.50089819059E+03 -0.18570458877E+03  0.15275777792E+04  0.16182951100E+04  0.00000000000E+00 0.  1.
         22    1    1    2    0    0  0.70899299918E+03  0.20910440568E+03 -0.12478557084E+04  0.14503584365E+04  0.00000000000E+00 0.  1.
<mgrwt>
<rscale>  0 0.35636110E+04</rscale>
<asrwt>0</asrwt>
<pdfrwt beam="1">  1        2 0.34551554E+00 0.35636110E+04</pdfrwt>
<pdfrwt beam="2">  1       -2 0.21748349E+00 0.35636110E+04</pdfrwt>
<totfact> 0.40783768E-01</totfact>
</mgrwt>
</event>
<event>
 6    1  0.9512547E-007  0.9378347E+03  0.7818608E-02  0.9379484E-01
         -2   -1    0    0    0  501 -0.00000000000E+00  0.00000000000E+00  0.10082616742E+03  0.10082616742E+03  0.00000000000E+00 0.  1.
          2   -1    0    0  501    0  0.00000000000E+00 -0.00000000000E+00 -0.21808177186E+04  0.21808177186E+04  0.00000000000E+00 0. -1.
         23    2    1    2    0    0  0.13791059344E+03 -0.15485046891E+03 -0.20609908426E+04  0.20734155824E+04  0.91492757708E+02 0.  0.
         13    1    3    3    0    0  0.20121046699E+02 -0.75815857938E+02 -0.98439704192E+03  0.98751730971E+03  0.00000000000E+00 0. -1.
        -13    1    3    3    0    0  0.11778954674E+03 -0.79034610972E+02 -0.10765938007E+04  0.10858982727E+04  0.00000000000E+00 0.  1.
         22    1    1    2    0    0 -0.13791059344E+03  0.15485046891E+03 -0.19000708623E+02  0.20822830363E+03  0.00000000000E+00 0.  1.
<mgrwt>
<rscale>  0 0.93783472E+03</rscale>
<asrwt>0</asrwt>
<pdfrwt beam="1">  1        2 0.33551044E+00 0.93783472E+03</pdfrwt>
<pdfrwt beam="2">  1       -2 0.15511717E-01 0.93783472E+03</pdfrwt>
<totfact> 0.17733506E+02</totfact>
</mgrwt>
</event>
<event>
 6    1  0.9512547E-007  0.3318814E+04  0.7818608E-02  0.8158125E-01
         -2   -1    0    0    0  501 -0.00000000000E+00  0.00000000000E+00  0.73266828649E+03  0.73266828649E+03  0.00000000000E+00 0.  1.
          2   -1    0    0  501    0  0.00000000000E+00 -0.00000000000E+00 -0.37583608869E+04  0.37583608869E+04  0.00000000000E+00 0. -1.
         23    2    1    2    0    0  0.58386747528E+03 -0.95113354382E+03 -0.31730867559E+04  0.33652932879E+04  0.10565560336E+03 0.  0.
         13    1    3    3    0    0  0.44826827163E+03 -0.74028838325E+03 -0.23210760116E+04  0.24771687842E+04  0.00000000000E+00 0.  1.
        -13    1    3    3    0    0  0.13559920364E+03 -0.21084516057E+03 -0.85201074426E+03  0.88812450371E+03  0.00000000000E+00 0. -1.
         22    1    1    2    0    0 -0.58386747528E+03  0.95113354382E+03  0.14739415543E+03  0.11257358855E+04  0.00000000000E+00 0.  1.
<mgrwt>
<rscale>  0 0.33188141E+04</rscale>
<asrwt>0</asrwt>
<pdfrwt beam="1">  1        2 0.57820938E+00 0.33188141E+04</pdfrwt>
<pdfrwt beam="2">  1       -2 0.11271820E+00 0.33188141E+04</pdfrwt>
<totfact> 0.27217814E-01</totfact>
</mgrwt>
</event>
<event>
 6    1  0.9512547E-007  0.2999089E+04  0.7818608E-02  0.8243991E-01
          2   -1    0    0  501    0  0.00000000000E+00  0.00000000000E+00  0.28791913534E+04  0.28791913534E+04  0.00000000000E+00 0. -1.
         -2   -1    0    0    0  501 -0.00000000000E+00 -0.00000000000E+00 -0.78099500220E+03  0.78099500220E+03  0.00000000000E+00 0.  1.
         23    2    1    2    0    0  0.38023429782E+03  0.85920015190E+03 -0.37430180086E+03  0.10151816043E+04  0.87685970116E+02 0.  0.
         13    1    3    3    0    0  0.27143614212E+03  0.64256344374E+03 -0.31636587424E+03  0.76593258506E+03  0.00000000000E+00 0.  1.
        -13    1    3    3    0    0  0.10879815570E+03  0.21663670817E+03 -0.57935926629E+02  0.24924901926E+03  0.00000000000E+00 0. -1.
         22    1    1    2    0    0 -0.38023429782E+03 -0.85920015190E+03  0.24724981521E+04  0.26450047513E+04  0.00000000000E+00 0. -1.
<mgrwt>
<rscale>  0 0.29990892E+04</rscale>
<asrwt>0</asrwt>
<pdfrwt beam="1">  1        2 0.44295251E+00 0.29990892E+04</pdfrwt>
<pdfrwt beam="2">  1       -2 0.12015308E+00 0.29990892E+04</pdfrwt>
<totfact> 0.93713440E-01</totfact>
</mgrwt>
</event>
<event>
 6    1  0.9512547E-007  0.1487547E+04  0.7818608E-02  0.8892776E-01
          2   -1    0    0  501    0  0.00000000000E+00  0.00000000000E+00  0.16769683252E+04  0.16769683252E+04  0.00000000000E+00 0. -1.
         -2   -1    0    0    0  501 -0.00000000000E+00 -0.00000000000E+00 -0.32988053649E+03  0.32988053649E+03  0.00000000000E+00 0.  1.
         23    2    1    2    0    0  0.50061387622E+03  0.42487841801E+03  0.21028936164E+03  0.69404781547E+03  0.79654449868E+02 0.  0.
         11    1    3    3    0    0  0.18805005300E+03  0.17281933994E+03  0.42709727403E+02  0.25894684301E+03  0.00000000000E+00 0.  1.
        -11    1    3    3    0    0  0.31256382322E+03  0.25205907808E+03  0.16757963423E+03  0.43510097246E+03  0.00000000000E+00 0. -1.
         22    1    1    2    0    0 -0.50061387622E+03 -0.42487841801E+03  0.11367984271E+04  0.13128010462E+04  0.00000000000E+00 0. -1.
<mgrwt>
<rscale>  0 0.14875473E+04</rscale>
<asrwt>0</asrwt>
<pdfrwt beam="1">  1        2 0.25799512E+00 0.14875473E+04</pdfrwt>
<pdfrwt beam="2">  1       -2 0.50750853E-01 0.14875473E+04</pdfrwt>
<totfact> 0.35851075E+01</totfact>
</mgrwt>
</event>
<event>
 6    1  0.1314841E-006  0.3375255E+04  0.7818608E-02  0.8144006E-01
          1   -1    0    0  501    0  0.00000000000E+00  0.00000000000E+00  0.27553426596E+04  0.27553426596E+04  0.00000000000E+00 0. -1.
         -1   -1    0    0    0  501 -0.00000000000E+00 -0.00000000000E+00 -0.10336593816E+04  0.10336593816E+04  0.00000000000E+00 0.  1.
         23    2    1    2    0    0 -0.56337835837E+03  0.13391486393E+03 -0.91650469591E+03  0.10880088626E+04  0.91945973754E+02 0.  0.
         13    1    3    3    0    0 -0.16621967873E+03  0.67625244483E+02 -0.34535946152E+03  0.38919829515E+03  0.00000000000E+00 0.  1.
        -13    1    3    3    0    0 -0.39715867964E+03  0.66289619444E+02 -0.57114523439E+03  0.69881056748E+03  0.00000000000E+00 0. -1.
         22    1    1    2    0    0  0.56337835837E+03 -0.13391486393E+03  0.26381879738E+04  0.27009931786E+04  0.00000000000E+00 0. -1.
<mgrwt>
<rscale>  0 0.33752545E+04</rscale>
<asrwt>0</asrwt>
<pdfrwt beam="1">  1        1 0.42389887E+00 0.33752545E+04</pdfrwt>
<pdfrwt beam="2">  1       -1 0.15902452E+00 0.33752545E+04</pdfrwt>
<totfact> 0.21963937E-01</totfact>
</mgrwt>
</event>
<event>
 6    1  0.9512547E-007  0.1439763E+04  0.7818608E-02  0.8925529E-01
          1   -1    0    0  501    0  0.00000000000E+00  0.00000000000E+00  0.10349984598E+04  0.10349984598E+04  0.00000000000E+00 0. -1.
         -1   -1    0    0    0  501 -0.00000000000E+00 -0.00000000000E+00 -0.50070542625E+03  0.50070542625E+03  0.00000000000E+00 0.  1.
         23    2    1    2    0    0 -0.58847846345E+03  0.12837404510E+03  0.68266683068E+03  0.91538011488E+03  0.95393687497E+02 0.  0.
         13    1    3    3    0    0 -0.43569504281E+03  0.82467754537E+02  0.55905058120E+03  0.71356054628E+03  0.00000000000E+00 0. -1.
        -13    1    3    3    0    0 -0.15278342064E+03  0.45906290566E+02  0.12361624948E+03  0.20181956860E+03  0.00000000000E+00 0.  1.
         22    1    1    2    0    0  0.58847846345E+03 -0.12837404510E+03 -0.14837379714E+03  0.62032377117E+03  0.00000000000E+00 0.  1.
<mgrwt>
<rscale>  0 0.14397630E+04</rscale>
<asrwt>0</asrwt>
<pdfrwt beam="1">  1        1 0.15923053E+00 0.14397630E+04</pdfrwt>
<pdfrwt beam="2">  1       -1 0.77031604E-01 0.14397630E+04</pdfrwt>
<totfact> 0.23353714E+01</totfact>
</mgrwt>
</event>
<event>
 6    1  0.9512547E-007  0.2552493E+04  0.7818608E-02  0.8384520E-01
          1   -1    0    0  501    0  0.00000000000E+00  0.00000000000E+00  0.20652622108E+04  0.20652622108E+04  0.00000000000E+00 0. -1.
         -1   -1    0    0    0  501 -0.00000000000E+00 -0.00000000000E+00 -0.78866723002E+03  0.78866723002E+03  0.00000000000E+00 0.  1.
         23    2    1    2    0    0  0.30200303969E+03 -0.60914496723E+03  0.18445720373E+04  0.19680054238E+04  0.91301261028E+02 0.  0.
         11    1    3    3    0    0  0.18716932128E+03 -0.40145777808E+03  0.13175787022E+04  0.13900411285E+04  0.00000000000E+00 0.  1.
        -11    1    3    3    0    0  0.11483371841E+03 -0.20768718915E+03  0.52699333514E+03  0.57796429535E+03  0.00000000000E+00 0. -1.
         22    1    1    2    0    0 -0.30200303969E+03  0.60914496723E+03 -0.56797705655E+03  0.88592401698E+03  0.00000000000E+00 0.  1.
<mgrwt>
<rscale>  0 0.25524926E+04</rscale>
<asrwt>0</asrwt>
<pdfrwt beam="1">  1        1 0.31773264E+00 0.25524926E+04</pdfrwt>
<pdfrwt beam="2">  1       -1 0.12133342E+00 0.25524926E+04</pdfrwt>
<totfact> 0.14334620E+00</totfact>
</mgrwt>
</event>
<event>
 6    1  0.9512547E-007  0.2099898E+04  0.7818608E-02  0.8561288E-01
          1   -1    0    0  501    0  0.00000000000E+00  0.00000000000E+00  0.15705710847E+04  0.15705710847E+04  0.00000000000E+00 0. -1.
         -1   -1    0    0    0  501 -0.00000000000E+00 -0.00000000000E+00 -0.70190603773E+03  0.70190603773E+03  0.00000000000E+00 0.  1.
         23    2    1    2    0    0 -0.80834882503E+03 -0.54447639737E+03  0.18112636038E+02  0.97890772964E+03  0.89721264804E+02 0.  0.
         11    1    3    3    0    0 -0.12039125763E+03 -0.47148199815E+02  0.13541541200E+02  0.13000146536E+03  0.00000000000E+00 0. -1.
        -11    1    3    3    0    0 -0.68795756740E+03 -0.49732819755E+03  0.45710948372E+01  0.84890626428E+03  0.00000000000E+00 0.  1.
         22    1    1    2    0    0  0.80834882503E+03  0.54447639737E+03  0.85055241092E+03  0.12935693928E+04  0.00000000000E+00 0. -1.
<mgrwt>
<rscale>  0 0.20998984E+04</rscale>
<asrwt>0</asrwt>
<pdfrwt beam="1">  1        1 0.24162632E+00 0.20998984E+04</pdfrwt>
<pdfrwt beam="2">  1       -1 0.10798554E+00 0.20998984E+04</pdfrwt>
<totfact> 0.42863911E+00</totfact>
</mgrwt>
</event>
<event>
 6    1  0.9512547E-007  0.2040203E+04  0.7818608E-02  0.8588052E-01
         -1   -1    0    0    0  501 -0.00000000000E+00  0.00000000000E+00  0.10847512942E+04  0.10847512942E+04  0.00000000000E+00 0.  1.
          1   -1    0    0  501    0  0.00000000000E+00 -0.00000000000E+00 -0.95930507924E+03  0.95930507924E+03  0.00000000000E+00 0. -1.
         23    2    1    2    0    0 -0.15041092210E+03 -0.66156557462E+03 -0.69772106221E+03  0.97733390661E+03  0.89857828586E+02 0.  0.
         11    1    3    3    0    0 -0.12497531304E+02 -0.21389360020E+03 -0.25139412287E+03  0.33031146742E+03  0.00000000000E+00 0. -1.
        -11    1    3    3    0    0 -0.13791339079E+03 -0.44767197442E+03 -0.44632693934E+03  0.64702243919E+03  0.00000000000E+00 0.  1.
         22    1    1    2    0    0  0.15041092210E+03  0.66156557462E+03  0.82316727713E+03  0.10667224668E+04  0.00000000000E+00 0.  1.
<mgrwt>
<rscale>  0 0.20402033E+04</rscale>
<asrwt>0</asrwt>
<pdfrwt beam="1">  1        1 0.14758540E+00 0.20402033E+04</pdfrwt>
<pdfrwt beam="2">  1       -1 0.16688481E+00 0.20402033E+04</pdfrwt>
<totfact> 0.39082482E+00</totfact>
</mgrwt>
</event>
<event>
 6    1  0.9512547E-007  0.3603668E+04  0.7818608E-02  0.8089652E-01
         -2   -1    0    0    0  501 -0.00000000000E+00  0.00000000000E+00  0.19207673102E+04  0.19207673102E+04  0.00000000000E+00 0.  1.
          2   -1    0    0  501    0  0.00000000000E+00 -0.00000000000E+00 -0.16902645529E+04  0.16902645529E+04  0.00000000000E+00 0. -1.
         23    2    1    2    0    0 -0.59215796608E+03  0.15377305749E+04 -0.61220775570E+03  0.17602408467E+04  0.91559403233E+02 0.  0.
         13    1    3    3    0    0 -0.15545801491E+03  0.33957078584E+03 -0.10633353973E+03  0.38830701085E+03  0.00000000000E+00 0. -1.
        -13    1    3    3    0    0 -0.43669995116E+03  0.11981597891E+04 -0.50587421597E+03  0.13719338358E+04  0.00000000000E+00 0.  1.
         22    1    1    2    0    0  0.59215796608E+03 -0.15377305749E+04  0.84271051295E+03  0.18507910164E+04  0.00000000000E+00 0.  1.
<mgrwt>
<rscale>  0 0.36036675E+04</rscale>
<asrwt>0</asrwt>
<pdfrwt beam="1">  1        2 0.26004070E+00 0.36036675E+04</pdfrwt>
<pdfrwt beam="2">  1       -2 0.29550267E+00 0.36036675E+04</pdfrwt>
<totfact> 0.27396699E-01</totfact>
</mgrwt>
</event>
<event>
 6    1  0.9512547E-007  0.1398522E+04  0.7818608E-02  0.8954889E-01
         -2   -1    0    0    0  501 -0.00000000000E+00  0.00000000000E+00  0.36190876768E+03  0.36190876768E+03  0.00000000000E+00 0.  1.
          2   -1    0    0  501    0  0.00000000000E+00 -0.00000000000E+00 -0.13510748168E+04  0.13510748168E+04  0.00000000000E+00 0. -1.
         23    2    1    2    0    0  0.44426085935E+03  0.26995749737E+03 -0.10646429252E+04  0.11876822230E+04  0.82944216128E+02 0.  0.
         11    1    3    3    0    0  0.26602778569E+03  0.20807230180E+03 -0.68802569951E+03  0.76644910380E+03  0.00000000000E+00 0. -1.
        -11    1    3    3    0    0  0.17823307365E+03  0.61885195569E+02 -0.37661722572E+03  0.42123311917E+03  0.00000000000E+00 0.  1.
         22    1    1    2    0    0 -0.44426085935E+03 -0.26995749737E+03  0.75476876143E+02  0.52530136147E+03  0.00000000000E+00 0.  1.
<mgrwt>
<rscale>  0 0.13985218E+04</rscale>
<asrwt>0</asrwt>
<pdfrwt beam="1">  1        2 0.20785767E+00 0.13985218E+04</pdfrwt>
<pdfrwt beam="2">  1       -2 0.55678272E-01 0.13985218E+04</pdfrwt>
<totfact> 0.45540521E+01</totfact>
</mgrwt>
</event>
<event>
 6    1  0.9512547E-007  0.2382707E+04  0.7818608E-02  0.8446006E-01
          2   -1    0    0  501    0  0.00000000000E+00  0.00000000000E+00  0.44169590753E+04  0.44169590753E+04  0.00000000000E+00 0. -1.
         -2   -1    0    0    0  501 -0.00000000000E+00 -0.00000000000E+00 -0.32133489307E+03  0.32133489307E+03  0.00000000000E+00 0.  1.
         23    2    1    2    0    0  0.52975564725E+03  0.51031228806E+03  0.19180769339E+03  0.76578306773E+03  0.92595023912E+02 0.  0.
         11    1    3    3    0    0  0.29245067023E+03  0.26349113478E+03  0.14822574215E+03  0.42062553805E+03  0.00000000000E+00 0. -1.
        -11    1    3    3    0    0  0.23730497702E+03  0.24682115328E+03  0.43581951236E+02  0.34515752968E+03  0.00000000000E+00 0.  1.
         22    1    1    2    0    0 -0.52975564725E+03 -0.51031228806E+03  0.39038164889E+04  0.39725109007E+04  0.00000000000E+00 0. -1.
<mgrwt>
<rscale>  0 0.23827069E+04</rscale>
<asrwt>0</asrwt>
<pdfrwt beam="1">  1        2 0.67953212E+00 0.23827069E+04</pdfrwt>
<pdfrwt beam="2">  1       -2 0.49436140E-01 0.23827069E+04</pdfrwt>
<totfact> 0.51976410E-01</totfact>
</mgrwt>
</event>
<event>
 6    1  0.9512547E-007  0.5788057E+04  0.7818608E-02  0.7717250E-01
          2   -1    0    0  501    0  0.00000000000E+00  0.00000000000E+00  0.39806383807E+04  0.39806383807E+04  0.00000000000E+00 0. -1.
         -2   -1    0    0    0  501 -0.00000000000E+00 -0.00000000000E+00 -0.21040347545E+04  0.21040347545E+04  0.00000000000E+00 0.  1.
         23    2    1    2    0    0  0.26681189627E+04 -0.24688322424E+03 -0.20876909834E+03  0.26892954647E+04  0.94421579888E+02 0.  0.
         13    1    3    3    0    0  0.20115199519E+04 -0.20121678946E+03 -0.19532135956E+03  0.20309729557E+04  0.00000000000E+00 0.  1.
        -13    1    3    3    0    0  0.65659901075E+03 -0.45666434781E+02 -0.13447738786E+02  0.65832250900E+03  0.00000000000E+00 0. -1.
         22    1    1    2    0    0 -0.26681189627E+04  0.24688322424E+03  0.20853727245E+04  0.33953776705E+04  0.00000000000E+00 0.  1.
<mgrwt>
<rscale>  0 0.57880572E+04</rscale>
<asrwt>0</asrwt>
<pdfrwt beam="1">  1        2 0.61240590E+00 0.57880572E+04</pdfrwt>
<pdfrwt beam="2">  1       -2 0.32369765E+00 0.57880572E+04</pdfrwt>
<totfact> 0.54838730E-03</totfact>
</mgrwt>
</event>
<event>
 6    1  0.9512547E-007  0.8174312E+03  0.7818608E-02  0.9535123E-01
         -2   -1    0    0    0  501 -0.00000000000E+00  0.00000000000E+00  0.27151070061E+03  0.27151070061E+03  0.00000000000E+00 0.  1.
          2   -1    0    0  501    0  0.00000000000E+00 -0.00000000000E+00 -0.61525543434E+03  0.61525543434E+03  0.00000000000E+00 0. -1.
         23    2    1    2    0    0 -0.20684293597E+03  0.27229052576E+03 -0.40663331549E+03  0.53908653490E+03  0.91309957128E+02 0.  0.
         13    1    3    3    0    0 -0.13927049114E+03  0.21003945430E+03 -0.34952973058E+03  0.43091051812E+03  0.00000000000E+00 0. -1.
        -13    1    3    3    0    0 -0.67572444834E+02  0.62251071456E+02 -0.57103584907E+02  0.10817601679E+03  0.00000000000E+00 0.  1.
         22    1    1    2    0    0  0.20684293597E+03 -0.27229052576E+03  0.62888581758E+02  0.34767960005E+03  0.00000000000E+00 0.  1.
<mgrwt>
<rscale>  0 0.81743118E+03</rscale>
<asrwt>0</asrwt>
<pdfrwt beam="1">  1        2 0.94654683E-01 0.81743118E+03</pdfrwt>
<pdfrwt beam="2">  1       -2 0.41770877E-01 0.81743118E+03</pdfrwt>
<totfact> 0.26272398E+02</totfact>
</mgrwt>
</event>
<event>
 6    1  0.9512547E-007  0.2819878E+04  0.7818608E-02  0.8297123E-01
          1   -1    0    0  501    0  0.00000000000E+00  0.00000000000E+00  0.16667913605E+04  0.16667913605E+04  0.00000000000E+00 0. -1.
         -1   -1    0    0    0  501 -0.00000000000E+00 -0.00000000000E+00 -0.11926676980E+04  0.11926676980E+04  0.00000000000E+00 0.  1.
         23    2    1    2    0    0 -0.59233381202E+03 -0.12637350016E+04  0.45545301559E+02  0.13994710755E+04  0.92517119831E+02 0.  0.
         13    1    3    3    0    0 -0.48499524278E+03 -0.94930149476E+03  0.19402494150E+02  0.10661942460E+04  0.00000000000E+00 0. -1.
        -13    1    3    3    0    0 -0.10733856924E+03 -0.31443350682E+03  0.26142807409E+02  0.33327682944E+03  0.00000000000E+00 0.  1.
         22    1    1    2    0    0  0.59233381202E+03  0.12637350016E+04  0.42857836097E+03  0.14599879830E+04  0.00000000000E+00 0. -1.
<mgrwt>
<rscale>  0 0.28198782E+04</rscale>
<asrwt>0</asrwt>
<pdfrwt beam="1">  1        1 0.25642944E+00 0.28198782E+04</pdfrwt>
<pdfrwt beam="2">  1       -1 0.18348734E+00 0.28198782E+04</pdfrwt>
<totfact> 0.85277948E-01</totfact>
</mgrwt>
</event>
<event>
 6    1  0.9512547E-007  0.3101337E+04  0.7818608E-02  0.8215371E-01
          2   -1    0    0  501    0  0.00000000000E+00  0.00000000000E+00  0.27127327947E+04  0.27127327947E+04  0.00000000000E+00 0. -1.
         -2   -1    0    0    0  501 -0.00000000000E+00 -0.00000000000E+00 -0.88640245403E+03  0.88640245403E+03  0.00000000000E+00 0.  1.
         23    2    1    2    0    0 -0.80406974931E+03  0.12335109572E+04  0.35410198634E+03  0.15169407884E+04  0.87428230207E+02 0.  0.
         11    1    3    3    0    0 -0.44979086814E+03  0.76756198328E+03  0.20739181197E+03  0.91349580563E+03  0.00000000000E+00 0. -1.
        -11    1    3    3    0    0 -0.35427888117E+03  0.46594897394E+03  0.14671017438E+03  0.60344498277E+03  0.00000000000E+00 0.  1.
         22    1    1    2    0    0  0.80406974931E+03 -0.12335109572E+04  0.14722283544E+04  0.20821944604E+04  0.00000000000E+00 0. -1.
<mgrwt>
<rscale>  0 0.31013371E+04</rscale>
<asrwt>0</asrwt>
<pdfrwt beam="1">  1        2 0.41734350E+00 0.31013371E+04</pdfrwt>
<pdfrwt beam="2">  1       -2 0.13636961E+00 0.31013371E+04</pdfrwt>
<totfact> 0.85130647E-01</totfact>
</mgrwt>
</event>
<event>
 6    1  0.9512547E-007  0.3472716E+04  0.7818608E-02  0.8120287E-01
         -1   -1    0    0    0  501 -0.00000000000E+00  0.00000000000E+00  0.78977153297E+03  0.78977153297E+03  0.00000000000E+00 0.  1.
          1   -1    0    0  501    0  0.00000000000E+00 -0.00000000000E+00 -0.38174825220E+04  0.38174825220E+04  0.00000000000E+00 0. -1.
         23    2    1    2    0    0  0.70425462356E+03 -0.12773307074E+04 -0.26815905282E+03  0.14859281829E+04  0.92330798547E+02 0.  0.
         13    1    3    3    0    0  0.36078461620E+03 -0.60269779649E+03 -0.89623765072E+02  0.70812611337E+03  0.00000000000E+00 0. -1.
        -13    1    3    3    0    0  0.34347000736E+03 -0.67463291091E+03 -0.17853528775E+03  0.77780206956E+03  0.00000000000E+00 0.  1.
         22    1    1    2    0    0 -0.70425462356E+03  0.12773307074E+04 -0.27595519362E+04  0.31213258720E+04  0.00000000000E+00 0. -1.
<mgrwt>
<rscale>  0 0.34727160E+04</rscale>
<asrwt>0</asrwt>
<pdfrwt beam="1">  1        1 0.58730501E+00 0.34727160E+04</pdfrwt>
<pdfrwt beam="2">  1       -1 0.12150331E+00 0.34727160E+04</pdfrwt>
<totfact> 0.67505635E-02</totfact>
</mgrwt>
</event>
<event>
 6    1  0.9512547E-007  0.1925248E+04  0.7818608E-02  0.8642390E-01
          1   -1    0    0  501    0  0.00000000000E+00  0.00000000000E+00  0.99746016392E+03  0.99746016392E+03  0.00000000000E+00 0. -1.
         -1   -1    0    0    0  501 -0.00000000000E+00 -0.00000000000E+00 -0.92900430198E+03  0.92900430198E+03  0.00000000000E+00 0.  1.
         23    2    1    2    0    0 -0.37726999444E+03  0.69975905313E+03  0.57382851454E+03  0.98444700367E+03  0.88664298329E+02 0.  0.
         13    1    3    3    0    0 -0.89522184403E+02  0.98681307164E+02  0.10527030051E+03  0.16980594234E+03  0.00000000000E+00 0.  1.
        -13    1    3    3    0    0 -0.28774781004E+03  0.60107774597E+03  0.46855821403E+03  0.81464106133E+03  0.00000000000E+00 0. -1.
         22    1    1    2    0    0  0.37726999444E+03 -0.69975905313E+03 -0.50537265260E+03  0.94201746223E+03  0.00000000000E+00 0.  1.
<mgrwt>
<rscale>  0 0.19252478E+04</rscale>
<asrwt>0</asrwt>
<pdfrwt beam="1">  1        1 0.15345541E+00 0.19252478E+04</pdfrwt>
<pdfrwt beam="2">  1       -1 0.14292374E+00 0.19252478E+04</pdfrwt>
<totfact> 0.56341459E+00</totfact>
</mgrwt>
</event>
<event>
 6    1  0.9512547E-007  0.2415159E+04  0.7818608E-02  0.8433850E-01
         -1   -1    0    0    0  501 -0.00000000000E+00  0.00000000000E+00  0.95865118479E+03  0.95865118479E+03  0.00000000000E+00 0.  1.
          1   -1    0    0  501    0  0.00000000000E+00 -0.00000000000E+00 -0.15211454150E+04  0.15211454150E+04  0.00000000000E+00 0. -1.
         23    2    1    2    0    0 -0.76666098756E+03 -0.81721297603E+03  0.17566076426E+03  0.11379773445E+04  0.92355911891E+02 0.  0.
         11    1    3    3    0    0 -0.65063991637E+03 -0.65255255726E+03  0.16589502356E+03  0.93631100581E+03  0.00000000000E+00 0. -1.
        -11    1    3    3    0    0 -0.11602107119E+03 -0.16466041877E+03  0.97657407028E+01  0.20166633869E+03  0.00000000000E+00 0.  1.
         22    1    1    2    0    0  0.76666098756E+03  0.81721297603E+03 -0.73815499449E+03  0.13418192553E+04  0.00000000000E+00 0.  1.
<mgrwt>
<rscale>  0 0.24151587E+04</rscale>
<asrwt>0</asrwt>
<pdfrwt beam="1">  1        1 0.23402237E+00 0.24151587E+04</pdfrwt>
<pdfrwt beam="2">  1       -1 0.14748480E+00 0.24151587E+04</pdfrwt>
<totfact> 0.20667967E+00</totfact>
</mgrwt>
</event>
<event>
 6    1  0.9512547E-007  0.1806600E+04  0.7818608E-02  0.8702797E-01
          2   -1    0    0  501    0  0.00000000000E+00  0.00000000000E+00  0.27994570216E+04  0.27994570216E+04  0.00000000000E+00 0. -1.
         -2   -1    0    0    0  501 -0.00000000000E+00 -0.00000000000E+00 -0.29146762648E+03  0.29146762648E+03  0.00000000000E+00 0.  1.
         23    2    1    2    0    0 -0.82383274167E+02 -0.96899663933E+02  0.27833529919E+04  0.27876068953E+04  0.86728175821E+02 0.  0.
         13    1    3    3    0    0  0.41516591944E+00 -0.31000364644E+02  0.13487462491E+04  0.13491025311E+04  0.00000000000E+00 0. -1.
        -13    1    3    3    0    0 -0.82798440086E+02 -0.65899299289E+02  0.14346067429E+04  0.14385043643E+04  0.00000000000E+00 0.  1.
         22    1    1    2    0    0  0.82383274167E+02  0.96899663933E+02 -0.27536359677E+03  0.30331775279E+03  0.00000000000E+00 0.  1.
<mgrwt>
<rscale>  0 0.18066002E+04</rscale>
<asrwt>0</asrwt>
<pdfrwt beam="1">  1        2 0.43068568E+00 0.18066002E+04</pdfrwt>
<pdfrwt beam="2">  1       -2 0.44841175E-01 0.18066002E+04</pdfrwt>
<totfact> 0.10325056E+01</totfact>
</mgrwt>
</event>
<event>
 6    1  0.9512547E-007  0.5233559E+04  0.7818608E-02  0.7793455E-01
          2   -1    0    0  501    0  0.00000000000E+00  0.00000000000E+00  0.19479142228E+04  0.19479142228E+04  0.00000000000E+00 0. -1.
         -2   -1    0    0    0  501 -0.00000000000E+00 -0.00000000000E+00 -0.35153163460E+04  0.35153163460E+04  0.00000000000E+00 0.  1.
         23    2    1    2    0    0 -0.12861253717E+04  0.22613297174E+04 -0.10707364718E+04  0.28147579274E+04  0.93032442683E+02 0.  0.
         11    1    3    3    0    0 -0.98040494208E+03  0.16429505742E+04 -0.77684044093E+03  0.20649362001E+04  0.00000000000E+00 0.  1.
        -11    1    3    3    0    0 -0.30572042961E+03  0.61837914322E+03 -0.29389603087E+03  0.74982172736E+03  0.00000000000E+00 0. -1.
         22    1    1    2    0    0  0.12861253717E+04 -0.22613297174E+04 -0.49666565148E+03  0.26484726414E+04  0.00000000000E+00 0.  1.
<mgrwt>
<rscale>  0 0.52335589E+04</rscale>
<asrwt>0</asrwt>
<pdfrwt beam="1">  1        2 0.29967911E+00 0.52335589E+04</pdfrwt>
<pdfrwt beam="2">  1       -2 0.54081790E+00 0.52335589E+04</pdfrwt>
<totfact> 0.49275886E-03</totfact>
</mgrwt>
</event>
<event>
 6    1  0.9512547E-007  0.3425939E+04  0.7818608E-02  0.8131569E-01
         -2   -1    0    0    0  501 -0.00000000000E+00  0.00000000000E+00  0.12689518456E+04  0.12689518456E+04  0.00000000000E+00 0.  1.
          2   -1    0    0  501    0  0.00000000000E+00 -0.00000000000E+00 -0.23123524310E+04  0.23123524310E+04  0.00000000000E+00 0. -1.
         23    2    1    2    0    0 -0.87252953431E+03 -0.14034546458E+04 -0.58068127822E+02  0.16572791252E+04  0.11049642707E+03 0.  0.
         13    1    3    3    0    0 -0.36174671982E+03 -0.67731810763E+03 -0.46382395173E+01  0.76788151527E+03  0.00000000000E+00 0.  1.
        -13    1    3    3    0    0 -0.51078281449E+03 -0.72613653817E+03 -0.53429888305E+02  0.88939760996E+03  0.00000000000E+00 0. -1.
         22    1    1    2    0    0  0.87252953431E+03  0.14034546458E+04 -0.98533245761E+03  0.19240251514E+04  0.00000000000E+00 0. -1.
<mgrwt>
<rscale>  0 0.34259386E+04</rscale>
<asrwt>0</asrwt>
<pdfrwt beam="1">  1        2 0.35574653E+00 0.34259386E+04</pdfrwt>
<pdfrwt beam="2">  1       -2 0.19522336E+00 0.34259386E+04</pdfrwt>
<totfact> 0.52744978E-01</totfact>
</mgrwt>
</event>
<event>
 6    1  0.9512547E-007  0.2520199E+04  0.7818608E-02  0.8395825E-01
          2   -1    0    0  501    0  0.00000000000E+00  0.00000000000E+00  0.11762107114E+04  0.11762107114E+04  0.00000000000E+00 0. -1.
         -2   -1    0    0    0  501 -0.00000000000E+00 -0.00000000000E+00 -0.13499711150E+04  0.13499711150E+04  0.00000000000E+00 0.  1.
         23    2    1    2    0    0  0.40833653998E+03 -0.15114819731E+03  0.10965648897E+04  0.11833077228E+04  0.90432859191E+02 0.  0.
         13    1    3    3    0    0  0.17773734894E+03 -0.11145279996E+03  0.48046123130E+03  0.52426642713E+03  0.00000000000E+00 0. -1.
        -13    1    3    3    0    0  0.23059919104E+03 -0.39695397356E+02  0.61610365841E+03  0.65904129566E+03  0.00000000000E+00 0.  1.
         22    1    1    2    0    0 -0.40833653998E+03  0.15114819731E+03 -0.12703252933E+04  0.13428741036E+04  0.00000000000E+00 0.  1.
<mgrwt>
<rscale>  0 0.25201988E+04</rscale>
<asrwt>0</asrwt>
<pdfrwt beam="1">  1        2 0.18095549E+00 0.25201988E+04</pdfrwt>
<pdfrwt beam="2">  1       -2 0.20768786E+00 0.25201988E+04</pdfrwt>
<totfact> 0.20653881E+00</totfact>
</mgrwt>
</event>
<event>
 6    1  0.9512547E-007  0.2466970E+04  0.7818608E-02  0.8414848E-01
          1   -1    0    0  501    0  0.00000000000E+00  0.00000000000E+00  0.32744277716E+04  0.32744277716E+04  0.00000000000E+00 0. -1.
         -1   -1    0    0    0  501 -0.00000000000E+00 -0.00000000000E+00 -0.46465691783E+03  0.46465691783E+03  0.00000000000E+00 0.  1.
         23    2    1    2    0    0 -0.11525525867E+04  0.39848322697E+03  0.11317347598E+04  0.16647241904E+04  0.57590938447E+02 0.  0.
         13    1    3    3    0    0 -0.37961422728E+03  0.15882701785E+03  0.37083087224E+03  0.55393909318E+03  0.00000000000E+00 0. -1.
        -13    1    3    3    0    0 -0.77293835943E+03  0.23965620912E+03  0.76090388760E+03  0.11107850972E+04  0.00000000000E+00 0.  1.
         22    1    1    2    0    0  0.11525525867E+04 -0.39848322697E+03  0.16780360939E+04  0.20743604990E+04  0.00000000000E+00 0. -1.
<mgrwt>
<rscale>  0 0.24669702E+04</rscale>
<asrwt>0</asrwt>
<pdfrwt beam="1">  1        1 0.50375810E+00 0.24669702E+04</pdfrwt>
<pdfrwt beam="2">  1       -1 0.71485682E-01 0.24669702E+04</pdfrwt>
<totfact> 0.65780495E-01</totfact>
</mgrwt>
</event>
<event>
 6    1  0.9512547E-007  0.1943173E+04  0.7818608E-02  0.8633660E-01
          2   -1    0    0  501    0  0.00000000000E+00  0.00000000000E+00  0.17591544943E+04  0.17591544943E+04  0.00000000000E+00 0. -1.
         -2   -1    0    0    0  501 -0.00000000000E+00 -0.00000000000E+00 -0.53661018354E+03  0.53661018354E+03  0.00000000000E+00 0.  1.
         23    2    1    2    0    0  0.31216123500E+03  0.26386798740E+03 -0.42430148827E+03  0.59895236142E+03  0.10789451740E+03 0.  0.
         13    1    3    3    0    0  0.10775747880E+03  0.15422084218E+03 -0.22360116902E+03  0.29222119222E+03  0.00000000000E+00 0. -1.
        -13    1    3    3    0    0  0.20440375621E+03  0.10964714523E+03 -0.20070031925E+03  0.30673116919E+03  0.00000000000E+00 0.  1.
         22    1    1    2    0    0 -0.31216123500E+03 -0.26386798740E+03  0.16468457991E+04  0.16968123165E+04  0.00000000000E+00 0. -1.
<mgrwt>
<rscale>  0 0.19431729E+04</rscale>
<asrwt>0</asrwt>
<pdfrwt beam="1">  1        2 0.27063915E+00 0.19431729E+04</pdfrwt>
<pdfrwt beam="2">  1       -2 0.82555414E-01 0.19431729E+04</pdfrwt>
<totfact> 0.10924382E+01</totfact>
</mgrwt>
</event>
<event>
 6    1  0.9512547E-007  0.3260934E+04  0.7818608E-02  0.8172907E-01
          2   -1    0    0  501    0  0.00000000000E+00  0.00000000000E+00  0.10147145152E+04  0.10147145152E+04  0.00000000000E+00 0. -1.
         -2   -1    0    0    0  501 -0.00000000000E+00 -0.00000000000E+00 -0.26198723392E+04  0.26198723392E+04  0.00000000000E+00 0.  1.
         23    2    1    2    0    0  0.10785913074E+04 -0.45320528145E+01 -0.21645336817E+04  0.24195637690E+04  0.75518377308E+02 0.  0.
         11    1    3    3    0    0  0.97204791660E+03 -0.49224388334E+01 -0.18958831923E+04  0.21305573124E+04  0.00000000000E+00 0. -1.
        -11    1    3    3    0    0  0.10654339084E+03  0.39038601888E+00 -0.26865048938E+03  0.28900645663E+03  0.00000000000E+00 0.  1.
         22    1    1    2    0    0 -0.10785913074E+04  0.45320528145E+01  0.55937585760E+03  0.12150230854E+04  0.00000000000E+00 0. -1.
<mgrwt>
<rscale>  0 0.32609339E+04</rscale>
<asrwt>0</asrwt>
<pdfrwt beam="1">  1        2 0.15610992E+00 0.32609339E+04</pdfrwt>
<pdfrwt beam="2">  1       -2 0.40305729E+00 0.32609339E+04</pdfrwt>
<totfact> 0.14623495E-01</totfact>
</mgrwt>
</event>
<event>
 6    1  0.9512547E-007  0.2982667E+04  0.7818608E-02  0.8248698E-01
         -2   -1    0    0    0  501 -0.00000000000E+00  0.00000000000E+00  0.20877808710E+04  0.20877808710E+04  0.00000000000E+00 0.  1.
          2   -1    0    0  501    0  0.00000000000E+00 -0.00000000000E+00 -0.10652820345E+04  0.10652820345E+04  0.00000000000E+00 0. -1.
         23    2    1    2    0    0 -0.10713915583E+04 -0.34808076221E+03  0.15428242177E+04  0.19121847525E+04  0.84284476223E+02 0.  0.
         13    1    3    3    0    0 -0.68543005188E+03 -0.22812763148E+03  0.10560039077E+04  0.12794533307E+04  0.00000000000E+00 0.  1.
        -13    1    3    3    0    0 -0.38596150640E+03 -0.11995313073E+03  0.48682030996E+03  0.63273142184E+03  0.00000000000E+00 0. -1.
         22    1    1    2    0    0  0.10713915583E+04  0.34808076221E+03 -0.52032538127E+03  0.12408781530E+04  0.00000000000E+00 0. -1.
<mgrwt>
<rscale>  0 0.29826669E+04</rscale>
<asrwt>0</asrwt>
<pdfrwt beam="1">  1        2 0.16388954E+00 0.29826669E+04</pdfrwt>
<pdfrwt beam="2">  1       -2 0.32119706E+00 0.29826669E+04</pdfrwt>
<totfact> 0.46197726E-01</totfact>
</mgrwt>
</event>
<event>
 6    1  0.9512547E-007  0.2087448E+04  0.7818608E-02  0.8566793E-01
         -2   -1    0    0    0  501 -0.00000000000E+00  0.00000000000E+00  0.49700098907E+03  0.49700098907E+03  0.00000000000E+00 0.  1.
          2   -1    0    0  501    0  0.00000000000E+00 -0.00000000000E+00 -0.21918661962E+04  0.21918661962E+04  0.00000000000E+00 0. -1.
         23    2    1    2    0    0 -0.34238718775E+03  0.27923222607E+03 -0.20642475761E+04  0.21129826857E+04  0.91532248220E+02 0.  0.
         11    1    3    3    0    0 -0.27589745853E+03  0.17654669758E+03 -0.15719738116E+04  0.16057365314E+04  0.00000000000E+00 0. -1.
        -11    1    3    3    0    0 -0.66489729221E+02  0.10268552849E+03 -0.49227376449E+03  0.50724615431E+03  0.00000000000E+00 0.  1.
         22    1    1    2    0    0  0.34238718775E+03 -0.27923222607E+03  0.36938236889E+03  0.57588449958E+03  0.00000000000E+00 0.  1.
<mgrwt>
<rscale>  0 0.20874479E+04</rscale>
<asrwt>0</asrwt>
<pdfrwt beam="1">  1        2 0.33721019E+00 0.20874479E+04</pdfrwt>
<pdfrwt beam="2">  1       -2 0.76461689E-01 0.20874479E+04</pdfrwt>
<totfact> 0.73637096E+00</totfact>
</mgrwt>
</event>
<event>
 6    1  0.9512547E-007  0.9425976E+03  0.7818608E-02  0.9373845E-01
         -1   -1    0    0    0  501 -0.00000000000E+00  0.00000000000E+00  0.18144102670E+03  0.18144102670E+03  0.00000000000E+00 0.  1.
          1   -1    0    0  501    0  0.00000000000E+00 -0.00000000000E+00 -0.12242134094E+04  0.12242134094E+04  0.00000000000E+00 0. -1.
         23    2    1    2    0    0 -0.24655634908E+03 -0.35131442221E+03 -0.25130705731E+03  0.50530493849E+03  0.89252379703E+02 0.  0.
         11    1    3    3    0    0 -0.60830514677E+02 -0.16257668824E+03 -0.98713363691E+02  0.19968940694E+03  0.00000000000E+00 0.  1.
        -11    1    3    3    0    0 -0.18572583440E+03 -0.18873773398E+03 -0.15259369362E+03  0.30561553155E+03  0.00000000000E+00 0. -1.
         22    1    1    2    0    0  0.24655634908E+03  0.35131442221E+03 -0.79146532536E+03  0.90034949757E+03  0.00000000000E+00 0.  1.
<mgrwt>
<rscale>  0 0.94259756E+03</rscale>
<asrwt>0</asrwt>
<pdfrwt beam="1">  1        1 0.18834052E+00 0.94259756E+03</pdfrwt>
<pdfrwt beam="2">  1       -1 0.27914005E-01 0.94259756E+03</pdfrwt>
<totfact> 0.11930380E+02</totfact>
</mgrwt>
</event>
<event>
 6    1  0.9512547E-007  0.9172299E+03  0.7818608E-02  0.9404296E-01
         -1   -1    0    0    0  501 -0.00000000000E+00  0.00000000000E+00  0.13909420087E+03  0.13909420087E+03  0.00000000000E+00 0.  1.
          1   -1    0    0  501    0  0.00000000000E+00 -0.00000000000E+00 -0.15121240030E+04  0.15121240030E+04  0.00000000000E+00 0. -1.
         23    2    1    2    0    0 -0.35486128467E+03  0.27712587291E+03 -0.76424075383E+03  0.89401982423E+03  0.11172392543E+03 0.  0.
         13    1    3    3    0    0 -0.18363163150E+03  0.81023737762E+02 -0.38241329416E+03  0.43188580634E+03  0.00000000000E+00 0.  1.
        -13    1    3    3    0    0 -0.17122965316E+03  0.19610213515E+03 -0.38182745967E+03  0.46213401789E+03  0.00000000000E+00 0. -1.
         22    1    1    2    0    0  0.35486128467E+03 -0.27712587291E+03 -0.60878904833E+03  0.75719837966E+03  0.00000000000E+00 0.  1.
<mgrwt>
<rscale>  0 0.91722992E+03</rscale>
<asrwt>0</asrwt>
<pdfrwt beam="1">  1        1 0.23263445E+00 0.91722992E+03</pdfrwt>
<pdfrwt beam="2">  1       -1 0.21399109E-01 0.91722992E+03</pdfrwt>
<totfact> 0.11804520E+02</totfact>
</mgrwt>
</event>
<event>
 6    1  0.9512547E-007  0.2005261E+04  0.7818608E-02  0.8604165E-01
          1   -1    0    0  501    0  0.00000000000E+00  0.00000000000E+00  0.11298504784E+04  0.11298504784E+04  0.00000000000E+00 0. -1.
         -1   -1    0    0    0  501 -0.00000000000E+00 -0.00000000000E+00 -0.88973552727E+03  0.88973552727E+03  0.00000000000E+00 0.  1.
         23    2    1    2    0    0  0.29671406696E+03 -0.58808905838E+03  0.87826552080E+03  0.11024578098E+04  0.10087080425E+03 0.  0.
         11    1    3    3    0    0  0.22513758245E+03 -0.51496567311E+03  0.77225326619E+03  0.95511867465E+03  0.00000000000E+00 0.  1.
        -11    1    3    3    0    0  0.71576484511E+02 -0.73123385268E+02  0.10601225461E+03  0.14733913511E+03  0.00000000000E+00 0. -1.
         22    1    1    2    0    0 -0.29671406696E+03  0.58808905838E+03 -0.63815056968E+03  0.91712819589E+03  0.00000000000E+00 0.  1.
<mgrwt>
<rscale>  0 0.20052612E+04</rscale>
<asrwt>0</asrwt>
<pdfrwt beam="1">  1        1 0.17382315E+00 0.20052612E+04</pdfrwt>
<pdfrwt beam="2">  1       -1 0.13688239E+00 0.20052612E+04</pdfrwt>
<totfact> 0.49633699E+00</totfact>
</mgrwt>
</event>
<event>
 6    1  0.9512547E-007  0.5876019E+03  0.7818608E-02  0.9931467E-01
         -1   -1    0    0    0  501 -0.00000000000E+00  0.00000000000E+00  0.14478645123E+03  0.14478645123E+03  0.00000000000E+00 0.  1.
          1   -1    0    0  501    0  0.00000000000E+00 -0.00000000000E+00 -0.59618144682E+03  0.59618144682E+03  0.00000000000E+00 0. -1.
         23    2    1    2    0    0 -0.26601391644E+03  0.53282962525E+02 -0.11415489159E+03  0.30814765178E+03  0.91220382527E+02 0.  0.
         13    1    3    3    0    0 -0.38386458535E+02  0.70258791208E+01  0.15665693056E+02  0.42051125017E+02  0.00000000000E+00 0.  1.
        -13    1    3    3    0    0 -0.22762745790E+03  0.46257083404E+02 -0.12982058465E+03  0.26609652676E+03  0.00000000000E+00 0. -1.
         22    1    1    2    0    0  0.26601391644E+03 -0.53282962525E+02 -0.33724010400E+03  0.43282024627E+03  0.00000000000E+00 0. -1.
<mgrwt>
<rscale>  0 0.58760189E+03</rscale>
<asrwt>0</asrwt>
<pdfrwt beam="1">  1        1 0.91720223E-01 0.58760189E+03</pdfrwt>
<pdfrwt beam="2">  1       -1 0.22274838E-01 0.58760189E+03</pdfrwt>
<totfact> 0.59504703E+02</totfact>
</mgrwt>
</event>
<event>
 6    1  0.9512547E-007  0.3336676E+04  0.7818608E-02  0.8153625E-01
          1   -1    0    0  501    0  0.00000000000E+00  0.00000000000E+00  0.25782796180E+04  0.25782796180E+04  0.00000000000E+00 0. -1.
         -1   -1    0    0    0  501 -0.00000000000E+00 -0.00000000000E+00 -0.10795381593E+04  0.10795381593E+04  0.00000000000E+00 0.  1.
         23    2    1    2    0    0  0.16584289194E+04 -0.13609200835E+03  0.63784448363E+03  0.17843047358E+04  0.89388419089E+02 0.  0.
         11    1    3    3    0    0  0.15374735182E+04 -0.11804036789E+03  0.61378385001E+03  0.16596653163E+04  0.00000000000E+00 0. -1.
        -11    1    3    3    0    0  0.12095540113E+03 -0.18051640457E+02  0.24060633624E+02  0.12463941944E+03  0.00000000000E+00 0.  1.
         22    1    1    2    0    0 -0.16584289194E+04  0.13609200835E+03  0.86089697501E+03  0.18735130416E+04  0.00000000000E+00 0. -1.
<mgrwt>
<rscale>  0 0.33366757E+04</rscale>
<asrwt>0</asrwt>
<pdfrwt beam="1">  1        1 0.39665840E+00 0.33366757E+04</pdfrwt>
<pdfrwt beam="2">  1       -1 0.16608279E+00 0.33366757E+04</pdfrwt>
<totfact> 0.25988164E-01</totfact>
</mgrwt>
</event>
<event>
 6    1  0.9512547E-007  0.2702007E+04  0.7818608E-02  0.8334354E-01
         -2   -1    0    0    0  501 -0.00000000000E+00  0.00000000000E+00  0.67200034783E+03  0.67200034783E+03  0.00000000000E+00 0.  1.
          2   -1    0    0  501    0  0.00000000000E+00 -0.00000000000E+00 -0.27160851266E+04  0.27160851266E+04  0.00000000000E+00 0. -1.
         23    2    1    2    0    0 -0.48757318287E+03  0.42718298833E+03  0.46095973017E+03  0.80052660438E+03  0.90255511278E+02 0.  0.
         13    1    3    3    0    0 -0.44923205890E+03  0.42092933512E+03  0.43510767783E+03  0.75386314356E+03  0.00000000000E+00 0.  1.
        -13    1    3    3    0    0 -0.38341123974E+02  0.62536532027E+01  0.25852052340E+02  0.46663460825E+02  0.00000000000E+00 0. -1.
         22    1    1    2    0    0  0.48757318287E+03 -0.42718298833E+03 -0.25050445089E+04  0.25875588700E+04  0.00000000000E+00 0. -1.
<mgrwt>
<rscale>  0 0.27020068E+04</rscale>
<asrwt>0</asrwt>
<pdfrwt beam="1">  1        2 0.41785925E+00 0.27020068E+04</pdfrwt>
<pdfrwt beam="2">  1       -2 0.10338467E+00 0.27020068E+04</pdfrwt>
<totfact> 0.17377094E+00</totfact>
</mgrwt>
</event>
<event>
 6    1  0.9512547E-007  0.3560054E+04  0.7818608E-02  0.8099704E-01
          2   -1    0    0  501    0  0.00000000000E+00  0.00000000000E+00  0.29922340770E+04  0.29922340770E+04  0.00000000000E+00 0. -1.
         -2   -1    0    0    0  501 -0.00000000000E+00 -0.00000000000E+00 -0.10589064351E+04  0.10589064351E+04  0.00000000000E+00 0.  1.
         23    2    1    2    0    0 -0.60441813323E+03 -0.12235255284E+04 -0.33115409357E+03  0.14072393172E+04  0.91233018059E+02 0.  0.
         13    1    3    3    0    0 -0.53532794069E+03 -0.10207090578E+04 -0.26066472266E+03  0.11816806178E+04  0.00000000000E+00 0. -1.
        -13    1    3    3    0    0 -0.69090192547E+02 -0.20281647061E+03 -0.70489370919E+02  0.22555869938E+03  0.00000000000E+00 0.  1.
         22    1    1    2    0    0  0.60441813323E+03  0.12235255284E+04  0.22644817355E+04  0.26439011950E+04  0.00000000000E+00 0. -1.
<mgrwt>
<rscale>  0 0.35600539E+04</rscale>
<asrwt>0</asrwt>
<pdfrwt beam="1">  1        2 0.46034370E+00 0.35600539E+04</pdfrwt>
<pdfrwt beam="2">  1       -2 0.16290868E+00 0.35600539E+04</pdfrwt>
<totfact> 0.34499652E-01</totfact>
</mgrwt>
</event>
<event>
 6    1  0.9512547E-007  0.1178317E+04  0.7818608E-02  0.9132050E-01
         -2   -1    0    0    0  501 -0.00000000000E+00  0.00000000000E+00  0.14718200621E+04  0.14718200621E+04  0.00000000000E+00 0.  1.
          2   -1    0    0  501    0  0.00000000000E+00 -0.00000000000E+00 -0.23583559169E+03  0.23583559169E+03  0.00000000000E+00 0. -1.
         23    2    1    2    0    0 -0.12911944569E+01  0.36414097379E+03  0.12866025831E+04  0.13400111118E+04  0.87654188546E+02 0.  0.
         13    1    3    3    0    0 -0.34657695112E+02  0.25471712173E+03  0.80700820582E+03  0.84696175368E+03  0.00000000000E+00 0. -1.
        -13    1    3    3    0    0  0.33366500655E+02  0.10942385206E+03  0.47959437729E+03  0.49304935807E+03  0.00000000000E+00 0.  1.
         22    1    1    2    0    0  0.12911944569E+01 -0.36414097379E+03 -0.50618112679E+02  0.36764454206E+03  0.00000000000E+00 0. -1.
<mgrwt>
<rscale>  0 0.11783167E+04</rscale>
<asrwt>0</asrwt>
<pdfrwt beam="1">  1        2 0.36282400E-01 0.11783167E+04</pdfrwt>
<pdfrwt beam="2">  1       -2 0.22643385E+00 0.11783167E+04</pdfrwt>
<totfact> 0.12794626E+01</totfact>
</mgrwt>
</event>
<event>
 6    1  0.9512547E-007  0.3928755E+03  0.7818608E-02  0.1046275E+00
         -1   -1    0    0    0  501 -0.00000000000E+00  0.00000000000E+00  0.29047349150E+03  0.29047349150E+03  0.00000000000E+00 0.  1.
          1   -1    0    0  501    0  0.00000000000E+00 -0.00000000000E+00 -0.13284444122E+03  0.13284444122E+03  0.00000000000E+00 0. -1.
         23    2    1    2    0    0 -0.14626814424E+03  0.83809099266E+02  0.16666196826E+03  0.25449871360E+03  0.92601557339E+02 0.  0.
         13    1    3    3    0    0 -0.47658599971E+02  0.75273057358E+02  0.52524814514E+02  0.10342258677E+03  0.00000000000E+00 0.  1.
        -13    1    3    3    0    0 -0.98609544267E+02  0.85360419081E+01  0.11413715374E+03  0.15107612683E+03  0.00000000000E+00 0. -1.
         22    1    1    2    0    0  0.14626814424E+03 -0.83809099266E+02 -0.90329179751E+01  0.16881921912E+03  0.00000000000E+00 0. -1.
<mgrwt>
<rscale>  0 0.39287550E+03</rscale>
<asrwt>0</asrwt>
<pdfrwt beam="1">  1        1 0.20437606E-01 0.39287550E+03</pdfrwt>
<pdfrwt beam="2">  1       -1 0.44688229E-01 0.39287550E+03</pdfrwt>
<totfact> 0.12603950E+03</totfact>
</mgrwt>
</event>
<event>
 6    1  0.9512547E-007  0.3139879E+04  0.7818608E-02  0.8204878E-01
         -1   -1    0    0    0  501 -0.00000000000E+00  0.00000000000E+00  0.15723826473E+04  0.15723826473E+04  0.00000000000E+00 0.  1.
          1   -1    0    0  501    0  0.00000000000E+00 -0.00000000000E+00 -0.15675004270E+04  0.15675004270E+04  0.00000000000E+00 0. -1.
         23    2    1    2    0    0  0.13070232850E+04  0.20351535881E+03 -0.84057869284E+03  0.15700001090E+04  0.92733137689E+02 0.  0.
         11    1    3    3    0    0  0.10574111146E+04  0.19957354788E+03 -0.66919580989E+03  0.12671901587E+04  0.00000000000E+00 0. -1.
        -11    1    3    3    0    0  0.24961217040E+03  0.39418109300E+01 -0.17138288295E+03  0.30280995039E+03  0.00000000000E+00 0.  1.
         22    1    1    2    0    0 -0.13070232850E+04 -0.20351535881E+03  0.84546091314E+03  0.15698829652E+04  0.00000000000E+00 0.  1.
<mgrwt>
<rscale>  0 0.31398793E+04</rscale>
<asrwt>0</asrwt>
<pdfrwt beam="1">  1        1 0.24115391E+00 0.31398793E+04</pdfrwt>
<pdfrwt beam="2">  1       -1 0.24190502E+00 0.31398793E+04</pdfrwt>
<totfact> 0.38918773E-01</totfact>
</mgrwt>
</event>
<event>
 6    1  0.9512547E-007  0.6800700E+03  0.7818608E-02  0.9751935E-01
         -2   -1    0    0    0  501 -0.00000000000E+00  0.00000000000E+00  0.12115641342E+03  0.12115641342E+03  0.00000000000E+00 0.  1.
          2   -1    0    0  501    0  0.00000000000E+00 -0.00000000000E+00 -0.95433505790E+03  0.95433505790E+03  0.00000000000E+00 0. -1.
         23    2    1    2    0    0  0.12307758768E+03 -0.69851330050E+02 -0.90250485080E+03  0.91790522897E+03  0.89485768386E+02 0.  0.
         13    1    3    3    0    0  0.11214378183E+03 -0.58780924078E+02 -0.52398031564E+03  0.53906103181E+03  0.00000000000E+00 0. -1.
        -13    1    3    3    0    0  0.10933805848E+02 -0.11070405972E+02 -0.37852453517E+03  0.37884419716E+03  0.00000000000E+00 0.  1.
         22    1    1    2    0    0 -0.12307758768E+03  0.69851330050E+02  0.69326206326E+02  0.15758624236E+03  0.00000000000E+00 0.  1.
<mgrwt>
<rscale>  0 0.68007003E+03</rscale>
<asrwt>0</asrwt>
<pdfrwt beam="1">  1        2 0.14682078E+00 0.68007003E+03</pdfrwt>
<pdfrwt beam="2">  1       -2 0.18639448E-01 0.68007003E+03</pdfrwt>
<totfact> 0.65547094E+02</totfact>
</mgrwt>
</event>
<event>
 6    1  0.9512547E-007  0.1853651E+04  0.7818608E-02  0.8678277E-01
          2   -1    0    0  501    0  0.00000000000E+00  0.00000000000E+00  0.11040662415E+04  0.11040662415E+04  0.00000000000E+00 0. -1.
         -2   -1    0    0    0  501 -0.00000000000E+00 -0.00000000000E+00 -0.77803804226E+03  0.77803804226E+03  0.00000000000E+00 0.  1.
         23    2    1    2    0    0  0.20932893909E+03  0.61564978229E+03 -0.50395334325E+03  0.82772644824E+03  0.91207684803E+02 0.  0.
         11    1    3    3    0    0  0.52938261099E+02  0.28793946549E+03 -0.24466604581E+03  0.38154039006E+03  0.00000000000E+00 0.  1.
        -11    1    3    3    0    0  0.15639067799E+03  0.32771031680E+03 -0.25928729744E+03  0.44618605818E+03  0.00000000000E+00 0. -1.
         22    1    1    2    0    0 -0.20932893909E+03 -0.61564978229E+03  0.82998154253E+03  0.10543778356E+04  0.00000000000E+00 0. -1.
<mgrwt>
<rscale>  0 0.18536510E+04</rscale>
<asrwt>0</asrwt>
<pdfrwt beam="1">  1        2 0.16985635E+00 0.18536510E+04</pdfrwt>
<pdfrwt beam="2">  1       -2 0.11969816E+00 0.18536510E+04</pdfrwt>
<totfact> 0.10881379E+01</totfact>
</mgrwt>
</event>
<event>
 6    1  0.9512547E-007  0.6604786E+03  0.7818608E-02  0.9787313E-01
         -2   -1    0    0    0  501 -0.00000000000E+00  0.00000000000E+00  0.33375587007E+03  0.33375587007E+03  0.00000000000E+00 0.  1.
          2   -1    0    0  501    0  0.00000000000E+00 -0.00000000000E+00 -0.32675976938E+03  0.32675976938E+03  0.00000000000E+00 0. -1.
         23    2    1    2    0    0  0.16101106737E+03 -0.11953229912E+03  0.25742595798E+03  0.33969224914E+03  0.94393675270E+02 0.  0.
         13    1    3    3    0    0  0.11467241786E+03 -0.13046887538E+03  0.19427962300E+03  0.26060787167E+03  0.00000000000E+00 0. -1.
        -13    1    3    3    0    0  0.46338649512E+02  0.10936576254E+02  0.63146334980E+02  0.79084377472E+02  0.00000000000E+00 0.  1.
         22    1    1    2    0    0 -0.16101106737E+03  0.11953229912E+03 -0.25042985728E+03  0.32082339031E+03  0.00000000000E+00 0. -1.
<mgrwt>
<rscale>  0 0.66047859E+03</rscale>
<asrwt>0</asrwt>
<pdfrwt beam="1">  1        2 0.50270734E-01 0.66047859E+03</pdfrwt>
<pdfrwt beam="2">  1       -2 0.51347057E-01 0.66047859E+03</pdfrwt>
<totfact> 0.36103763E+02</totfact>
</mgrwt>
</event>
<event>
 6    1  0.9512547E-007  0.2383894E+04  0.7818608E-02  0.8445558E-01
         -1   -1    0    0    0  501 -0.00000000000E+00  0.00000000000E+00  0.55849512053E+03  0.55849512053E+03  0.00000000000E+00 0.  1.
          1   -1    0    0  501    0  0.00000000000E+00 -0.00000000000E+00 -0.25438672952E+04  0.25438672952E+04  0.00000000000E+00 0. -1.
         23    2    1    2    0    0 -0.50793643647E+03  0.48704826208E+03  0.25526910247E+03  0.75381206159E+03  0.88627740775E+02 0.  0.
         13    1    3    3    0    0 -0.37492374300E+03  0.40953634002E+03  0.20473798276E+03  0.59178160536E+03  0.00000000000E+00 0.  1.
        -13    1    3    3    0    0 -0.13301269348E+03  0.77511922058E+02  0.50531119719E+02  0.16203045623E+03  0.00000000000E+00 0. -1.
         22    1    1    2    0    0  0.50793643647E+03 -0.48704826208E+03 -0.22406412771E+04  0.23485503541E+04  0.00000000000E+00 0. -1.
<mgrwt>
<rscale>  0 0.23838938E+04</rscale>
<asrwt>0</asrwt>
<pdfrwt beam="1">  1        1 0.39136420E+00 0.23838938E+04</pdfrwt>
<pdfrwt beam="2">  1       -1 0.85922325E-01 0.23838938E+04</pdfrwt>
<totfact> 0.15152045E+00</totfact>
</mgrwt>
</event>
<event>
 6    1  0.9512547E-007  0.6278832E+03  0.7818608E-02  0.9849188E-01
          2   -1    0    0  501    0  0.00000000000E+00  0.00000000000E+00  0.71544357236E+03  0.71544357236E+03  0.00000000000E+00 0. -1.
         -2   -1    0    0    0  501 -0.00000000000E+00 -0.00000000000E+00 -0.13775976295E+03  0.13775976295E+03  0.00000000000E+00 0.  1.
         23    2    1    2    0    0 -0.17296345079E+03 -0.14032694443E+03  0.58274900345E+03  0.63041719832E+03  0.90672136158E+02 0.  0.
         11    1    3    3    0    0 -0.84013054304E+02 -0.86910814496E+02  0.42298261484E+03  0.43991587313E+03  0.00000000000E+00 0. -1.
        -11    1    3    3    0    0 -0.88950396486E+02 -0.53416129934E+02  0.15976638860E+03  0.19050132519E+03  0.00000000000E+00 0.  1.
         22    1    1    2    0    0  0.17296345079E+03  0.14032694443E+03 -0.50651940423E+01  0.22278613699E+03  0.00000000000E+00 0.  1.
<mgrwt>
<rscale>  0 0.62788323E+03</rscale>
<asrwt>0</asrwt>
<pdfrwt beam="1">  1        2 0.11006824E+00 0.62788323E+03</pdfrwt>
<pdfrwt beam="2">  1       -2 0.21193810E-01 0.62788323E+03</pdfrwt>
<totfact> 0.77189926E+02</totfact>
</mgrwt>
</event>
<event>
 6    1  0.9512547E-007  0.2183604E+04  0.7818608E-02  0.8525284E-01
         -1   -1    0    0    0  501 -0.00000000000E+00  0.00000000000E+00  0.10124618585E+04  0.10124618585E+04  0.00000000000E+00 0.  1.
          1   -1    0    0  501    0  0.00000000000E+00 -0.00000000000E+00 -0.11773596168E+04  0.11773596168E+04  0.00000000000E+00 0. -1.
         23    2    1    2    0    0  0.10373238496E+03 -0.69491575360E+03 -0.91830763479E+03  0.11596298649E+04  0.88228108943E+02 0.  0.
         13    1    3    3    0    0  0.11866797803E+02 -0.22004285627E+03 -0.23161836654E+03  0.31969789991E+03  0.00000000000E+00 0. -1.
        -13    1    3    3    0    0  0.91865587156E+02 -0.47487289733E+03 -0.68668926825E+03  0.83993196502E+03  0.00000000000E+00 0.  1.
         22    1    1    2    0    0 -0.10373238496E+03  0.69491575360E+03  0.75340987649E+03  0.10301916105E+04  0.00000000000E+00 0.  1.
<mgrwt>
<rscale>  0 0.21836041E+04</rscale>
<asrwt>0</asrwt>
<pdfrwt beam="1">  1        1 0.18113225E+00 0.21836041E+04</pdfrwt>
<pdfrwt beam="2">  1       -1 0.15576336E+00 0.21836041E+04</pdfrwt>
<totfact> 0.31918150E+00</totfact>
</mgrwt>
</event>
<event>
 6    1  0.9512547E-007  0.2815017E+04  0.7818608E-02  0.8298621E-01
         -1   -1    0    0    0  501 -0.00000000000E+00  0.00000000000E+00  0.17051291054E+04  0.17051291054E+04  0.00000000000E+00 0.  1.
          1   -1    0    0  501    0  0.00000000000E+00 -0.00000000000E+00 -0.11618359943E+04  0.11618359943E+04  0.00000000000E+00 0. -1.
         23    2    1    2    0    0  0.27697626791E+03 -0.11833791776E+04  0.99197510351E+03  0.15714275042E+04  0.90926696933E+02 0.  0.
         11    1    3    3    0    0  0.13675347360E+03 -0.55077571444E+03  0.52098930415E+03  0.77037994210E+03  0.00000000000E+00 0.  1.
        -11    1    3    3    0    0  0.14022279431E+03 -0.63260346314E+03  0.47098579936E+03  0.80104756214E+03  0.00000000000E+00 0. -1.
         22    1    1    2    0    0 -0.27697626791E+03  0.11833791776E+04 -0.44868199243E+03  0.12955375955E+04  0.00000000000E+00 0. -1.
<mgrwt>
<rscale>  0 0.28150171E+04</rscale>
<asrwt>0</asrwt>
<pdfrwt beam="1">  1        1 0.17874400E+00 0.28150171E+04</pdfrwt>
<pdfrwt beam="2">  1       -1 0.26232756E+00 0.28150171E+04</pdfrwt>
<totfact> 0.57112304E-01</totfact>
</mgrwt>
</event>
<event>
 6    1  0.9512547E-007  0.3206939E+04  0.7818608E-02  0.8186987E-01
          1   -1    0    0  501    0  0.00000000000E+00  0.00000000000E+00  0.20861215835E+04  0.20861215835E+04  0.00000000000E+00 0. -1.
         -1   -1    0    0    0  501 -0.00000000000E+00 -0.00000000000E+00 -0.12324853118E+04  0.12324853118E+04  0.00000000000E+00 0.  1.
         23    2    1    2    0    0 -0.10205545325E+04 -0.44160263337E+03 -0.76636583359E+03  0.13536765504E+04  0.92623822452E+02 0.  0.
         13    1    3    3    0    0 -0.30699488380E+03 -0.96794929511E+02 -0.25312564811E+03  0.40949689961E+03  0.00000000000E+00 0.  1.
        -13    1    3    3    0    0 -0.71355964869E+03 -0.34480770386E+03 -0.51324018548E+03  0.94417965074E+03  0.00000000000E+00 0. -1.
         22    1    1    2    0    0  0.10205545325E+04  0.44160263337E+03  0.16200021053E+04  0.19649303450E+04  0.00000000000E+00 0. -1.
<mgrwt>
<rscale>  0 0.32069389E+04</rscale>
<asrwt>0</asrwt>
<pdfrwt beam="1">  1        1 0.32094178E+00 0.32069389E+04</pdfrwt>
<pdfrwt beam="2">  1       -1 0.18961312E+00 0.32069389E+04</pdfrwt>
<totfact> 0.38721904E-01</totfact>
</mgrwt>
</event>
<event>
 6    1  0.9512547E-007  0.7368138E+04  0.7818608E-02  0.7540617E-01
         -2   -1    0    0    0  501 -0.00000000000E+00  0.00000000000E+00  0.48170507865E+04  0.48170507865E+04  0.00000000000E+00 0.  1.
          2   -1    0    0  501    0  0.00000000000E+00 -0.00000000000E+00 -0.28175668861E+04  0.28175668861E+04  0.00000000000E+00 0. -1.
         23    2    1    2    0    0  0.30529698726E+04  0.29235449672E+03 -0.11140686614E+04  0.32642280160E+04  0.89103106763E+02 0.  0.
         11    1    3    3    0    0  0.38025875574E+03  0.32408333629E+02 -0.10795817455E+03  0.39661314761E+03  0.00000000000E+00 0. -1.
        -11    1    3    3    0    0  0.26727111169E+04  0.25994616309E+03 -0.10061104868E+04  0.28676148684E+04  0.00000000000E+00 0.  1.
         22    1    1    2    0    0 -0.30529698726E+04 -0.29235449672E+03  0.31135525618E+04  0.43703896566E+04  0.00000000000E+00 0.  1.
<mgrwt>
<rscale>  0 0.73681376E+04</rscale>
<asrwt>0</asrwt>
<pdfrwt beam="1">  1        2 0.43347183E+00 0.73681376E+04</pdfrwt>
<pdfrwt beam="2">  1       -2 0.74108474E+00 0.73681376E+04</pdfrwt>
<totfact> 0.21964672E-04</totfact>
</mgrwt>
</event>
<event>
 6    1  0.9512547E-007  0.1546045E+04  0.7818608E-02  0.8854398E-01
         -2   -1    0    0    0  501 -0.00000000000E+00  0.00000000000E+00  0.42999716015E+03  0.42999716015E+03  0.00000000000E+00 0.  1.
          2   -1    0    0  501    0  0.00000000000E+00 -0.00000000000E+00 -0.13896931891E+04  0.13896931891E+04  0.00000000000E+00 0. -1.
         23    2    1    2    0    0 -0.50761874169E+03  0.35674853020E+03  0.56269120970E+02  0.62925703041E+03  0.88610922788E+02 0.  0.
         11    1    3    3    0    0 -0.29087122375E+03  0.22064084412E+03  0.74716635357E+02  0.37265403057E+03  0.00000000000E+00 0.  1.
        -11    1    3    3    0    0 -0.21674751794E+03  0.13610768607E+03 -0.18447514387E+02  0.25660299984E+03  0.00000000000E+00 0. -1.
         22    1    1    2    0    0  0.50761874169E+03 -0.35674853020E+03 -0.10159651499E+04  0.11904333188E+04  0.00000000000E+00 0. -1.
<mgrwt>
<rscale>  0 0.15460454E+04</rscale>
<asrwt>0</asrwt>
<pdfrwt beam="1">  1        2 0.21379895E+00 0.15460454E+04</pdfrwt>
<pdfrwt beam="2">  1       -2 0.66153409E-01 0.15460454E+04</pdfrwt>
<totfact> 0.29685923E+01</totfact>
</mgrwt>
</event>
<event>
 6    1  0.9512547E-007  0.1067794E+04  0.7818608E-02  0.9237163E-01
          1   -1    0    0  501    0  0.00000000000E+00  0.00000000000E+00  0.10178764111E+04  0.10178764111E+04  0.00000000000E+00 0. -1.
         -1   -1    0    0    0  501 -0.00000000000E+00 -0.00000000000E+00 -0.28003997887E+03  0.28003997887E+03  0.00000000000E+00 0.  1.
         23    2    1    2    0    0 -0.39308860961E+03 -0.30718985591E+03  0.15450158715E+03  0.53034632538E+03  0.92261702945E+02 0.  0.
         11    1    3    3    0    0 -0.28279995176E+03 -0.25471228250E+03  0.14693319674E+03  0.40797490594E+03  0.00000000000E+00 0.  1.
        -11    1    3    3    0    0 -0.11028865785E+03 -0.52477573405E+02  0.75683904061E+01  0.12237141944E+03  0.00000000000E+00 0. -1.
         22    1    1    2    0    0  0.39308860961E+03  0.30718985591E+03  0.58333484512E+03  0.76757006462E+03  0.00000000000E+00 0. -1.
<mgrwt>
<rscale>  0 0.10677942E+04</rscale>
<asrwt>0</asrwt>
<pdfrwt beam="1">  1        1 0.15659637E+00 0.10677942E+04</pdfrwt>
<pdfrwt beam="2">  1       -1 0.43083074E-01 0.10677942E+04</pdfrwt>
<totfact> 0.77656914E+01</totfact>
</mgrwt>
</event>
<event>
 6    1  0.9512547E-007  0.2062661E+04  0.7818608E-02  0.8577872E-01
          2   -1    0    0  501    0  0.00000000000E+00  0.00000000000E+00  0.11984779494E+04  0.11984779494E+04  0.00000000000E+00 0. -1.
         -2   -1    0    0    0  501 -0.00000000000E+00 -0.00000000000E+00 -0.88749454775E+03  0.88749454775E+03  0.00000000000E+00 0.  1.
         23    2    1    2    0    0  0.31164544939E+03 -0.96642707562E+03  0.32782629218E+03  0.10703998205E+04  0.84743845355E+02 0.  0.
         11    1    3    3    0    0  0.22834894615E+03 -0.76706369991E+03  0.28876719969E+03  0.85083280176E+03  0.00000000000E+00 0. -1.
        -11    1    3    3    0    0  0.83296503240E+02 -0.19936337571E+03  0.39059092493E+02  0.21956701877E+03  0.00000000000E+00 0.  1.
         22    1    1    2    0    0 -0.31164544939E+03  0.96642707562E+03 -0.16842890504E+02  0.10155726767E+04  0.00000000000E+00 0.  1.
<mgrwt>
<rscale>  0 0.20626610E+04</rscale>
<asrwt>0</asrwt>
<pdfrwt beam="1">  1        2 0.18438122E+00 0.20626610E+04</pdfrwt>
<pdfrwt beam="2">  1       -2 0.13653762E+00 0.20626610E+04</pdfrwt>
<totfact> 0.67245543E+00</totfact>
</mgrwt>
</event>
<event>
 6    1  0.9512547E-007  0.9697922E+03  0.7818608E-02  0.9342311E-01
          1   -1    0    0  501    0  0.00000000000E+00  0.00000000000E+00  0.99928031095E+03  0.99928031095E+03  0.00000000000E+00 0. -1.
         -1   -1    0    0    0  501 -0.00000000000E+00 -0.00000000000E+00 -0.23529356640E+03  0.23529356640E+03  0.00000000000E+00 0.  1.
         23    2    1    2    0    0  0.18746851847E+03  0.29870336898E+02  0.94774528926E+03  0.97036962833E+03  0.85786944330E+02 0.  0.
         13    1    3    3    0    0  0.88213111078E+02  0.53246669590E+02  0.56238825043E+03  0.57174933757E+03  0.00000000000E+00 0.  1.
        -13    1    3    3    0    0  0.99255407394E+02 -0.23376332693E+02  0.38535703883E+03  0.39862029075E+03  0.00000000000E+00 0. -1.
         22    1    1    2    0    0 -0.18746851847E+03 -0.29870336898E+02 -0.18375854471E+03  0.26420424902E+03  0.00000000000E+00 0.  1.
<mgrwt>
<rscale>  0 0.96979220E+03</rscale>
<asrwt>0</asrwt>
<pdfrwt beam="1">  1        1 0.15373543E+00 0.96979220E+03</pdfrwt>
<pdfrwt beam="2">  1       -1 0.36199011E-01 0.96979220E+03</pdfrwt>
<totfact> 0.11099438E+02</totfact>
</mgrwt>
</event>
<event>
 6    1  0.9512547E-007  0.2138069E+04  0.7818608E-02  0.8544657E-01
         -1   -1    0    0    0  501 -0.00000000000E+00  0.00000000000E+00  0.76925964441E+03  0.76925964441E+03  0.00000000000E+00 0.  1.
          1   -1    0    0  501    0  0.00000000000E+00 -0.00000000000E+00 -0.14856293117E+04  0.14856293117E+04  0.00000000000E+00 0. -1.
         23    2    1    2    0    0 -0.62819797081E+03  0.16252019215E+03  0.53463671832E+03  0.84561166607E+03  0.90427682883E+02 0.  0.
         11    1    3    3    0    0 -0.11766170486E+03  0.37053005549E+02  0.14995994862E+03  0.19417823822E+03  0.00000000000E+00 0. -1.
        -11    1    3    3    0    0 -0.51053626596E+03  0.12546718660E+03  0.38467676970E+03  0.65143342785E+03  0.00000000000E+00 0.  1.
         22    1    1    2    0    0  0.62819797081E+03 -0.16252019215E+03 -0.12510063856E+04  0.14092772901E+04  0.00000000000E+00 0. -1.
<mgrwt>
<rscale>  0 0.21380689E+04</rscale>
<asrwt>0</asrwt>
<pdfrwt beam="1">  1        1 0.22855835E+00 0.21380689E+04</pdfrwt>
<pdfrwt beam="2">  1       -1 0.11834764E+00 0.21380689E+04</pdfrwt>
<totfact> 0.39296857E+00</totfact>
</mgrwt>
</event>
<event>
 6    1  0.9512547E-007  0.1612325E+04  0.7818608E-02  0.8813012E-01
          2   -1    0    0  501    0  0.00000000000E+00  0.00000000000E+00  0.11377062800E+04  0.11377062800E+04  0.00000000000E+00 0. -1.
         -2   -1    0    0    0  501 -0.00000000000E+00 -0.00000000000E+00 -0.57123564167E+03  0.57123564167E+03  0.00000000000E+00 0.  1.
         23    2    1    2    0    0 -0.41345935433E+01  0.78703526855E+03  0.45575131302E+03  0.91414611279E+03  0.92261841491E+02 0.  0.
         11    1    3    3    0    0 -0.43989830925E+02  0.29370090406E+03  0.18696626978E+03  0.35092978259E+03  0.00000000000E+00 0.  1.
        -11    1    3    3    0    0  0.39855237382E+02  0.49333436449E+03  0.26878504324E+03  0.56321633020E+03  0.00000000000E+00 0. -1.
         22    1    1    2    0    0  0.41345935433E+01 -0.78703526855E+03  0.11071932530E+03  0.79479580887E+03  0.00000000000E+00 0. -1.
<mgrwt>
<rscale>  0 0.16123255E+04</rscale>
<asrwt>0</asrwt>
<pdfrwt beam="1">  1        2 0.17503173E+00 0.16123255E+04</pdfrwt>
<pdfrwt beam="2">  1       -2 0.87882407E-01 0.16123255E+04</pdfrwt>
<totfact> 0.22095419E+01</totfact>
</mgrwt>
</event>
<event>
 6    1  0.9512547E-007  0.1687065E+04  0.7818608E-02  0.8768776E-01
         -1   -1    0    0    0  501 -0.00000000000E+00  0.00000000000E+00  0.34887569316E+03  0.34887569316E+03  0.00000000000E+00 0.  1.
          1   -1    0    0  501    0  0.00000000000E+00 -0.00000000000E+00 -0.20395424599E+04  0.20395424599E+04  0.00000000000E+00 0. -1.
         23    2    1    2    0    0 -0.47921653228E+03  0.39656543692E+03 -0.46427804683E+02  0.63045501496E+03  0.91680719199E+02 0.  0.
         13    1    3    3    0    0 -0.34973586545E+03  0.26081696440E+03 -0.68271344801E+02  0.44158990140E+03  0.00000000000E+00 0.  1.
        -13    1    3    3    0    0 -0.12948066683E+03  0.13574847252E+03  0.21843540118E+02  0.18886511356E+03  0.00000000000E+00 0. -1.
         22    1    1    2    0    0  0.47921653228E+03 -0.39656543692E+03 -0.16442389620E+04  0.17579631381E+04  0.00000000000E+00 0. -1.
<mgrwt>
<rscale>  0 0.16870647E+04</rscale>
<asrwt>0</asrwt>
<pdfrwt beam="1">  1        1 0.31377576E+00 0.16870647E+04</pdfrwt>
<pdfrwt beam="2">  1       -1 0.53673184E-01 0.16870647E+04</pdfrwt>
<totfact> 0.93517985E+00</totfact>
</mgrwt>
</event>
<event>
 6    1  0.1923382E-006  0.4016474E+04  0.7818608E-02  0.8001231E-01
         -2   -1    0    0    0  501 -0.00000000000E+00  0.00000000000E+00  0.25233332211E+04  0.25233332211E+04  0.00000000000E+00 0.  1.
          2   -1    0    0  501    0  0.00000000000E+00 -0.00000000000E+00 -0.15982889098E+04  0.15982889098E+04  0.00000000000E+00 0. -1.
         23    2    1    2    0    0 -0.29168395655E+03  0.18836615820E+04  0.11084028213E+04  0.22067119948E+04  0.88093857400E+02 0.  0.
         11    1    3    3    0    0 -0.14543045438E+03  0.91534564543E+03  0.58972235342E+03  0.10985354440E+04  0.00000000000E+00 0. -1.
        -11    1    3    3    0    0 -0.14625350217E+03  0.96831593657E+03  0.51868046789E+03  0.11081765508E+04  0.00000000000E+00 0.  1.
         22    1    1    2    0    0  0.29168395655E+03 -0.18836615820E+04 -0.18335850996E+03  0.19149101361E+04  0.00000000000E+00 0. -1.
<mgrwt>
<rscale>  0 0.40164738E+04</rscale>
<asrwt>0</asrwt>
<pdfrwt beam="1">  1        2 0.24589060E+00 0.40164738E+04</pdfrwt>
<pdfrwt beam="2">  1       -2 0.38820511E+00 0.40164738E+04</pdfrwt>
<totfact> 0.77976816E-02</totfact>
</mgrwt>
</event>
<event>
 6    1  0.9512547E-007  0.3236893E+04  0.7818608E-02  0.8179141E-01
         -1   -1    0    0    0  501 -0.00000000000E+00  0.00000000000E+00  0.15909042423E+04  0.15909042423E+04  0.00000000000E+00 0.  1.
          1   -1    0    0  501    0  0.00000000000E+00 -0.00000000000E+00 -0.16464655029E+04  0.16464655029E+04  0.00000000000E+00 0. -1.
         23    2    1    2    0    0  0.51794786391E+03 -0.85473397023E+03  0.12435986457E+04  0.15982673654E+04  0.95293389013E+02 0.  0.
         13    1    3    3    0    0  0.41689614978E+03 -0.75185719020E+03  0.10597195770E+04  0.13645868298E+04  0.00000000000E+00 0.  1.
        -13    1    3    3    0    0  0.10105171412E+03 -0.10287678002E+03  0.18387906872E+03  0.23368053558E+03  0.00000000000E+00 0. -1.
         22    1    1    2    0    0 -0.51794786391E+03  0.85473397023E+03 -0.12991599063E+04  0.16391023799E+04  0.00000000000E+00 0. -1.
<mgrwt>
<rscale>  0 0.32368929E+04</rscale>
<asrwt>0</asrwt>
<pdfrwt beam="1">  1        1 0.25330238E+00 0.32368929E+04</pdfrwt>
<pdfrwt beam="2">  1       -1 0.24475450E+00 0.32368929E+04</pdfrwt>
<totfact> 0.32631241E-01</totfact>
</mgrwt>
</event>
<event>
 6    1  0.9512547E-007  0.1530521E+04  0.7818608E-02  0.8864406E-01
          2   -1    0    0  501    0  0.00000000000E+00  0.00000000000E+00  0.20679629269E+04  0.20679629269E+04  0.00000000000E+00 0. -1.
         -2   -1    0    0    0  501 -0.00000000000E+00 -0.00000000000E+00 -0.28318880473E+03  0.28318880473E+03  0.00000000000E+00 0.  1.
         23    2    1    2    0    0 -0.70259649027E+03 -0.88393088264E+02  0.13299262248E+04  0.15095213045E+04  0.92171791453E+02 0.  0.
         11    1    3    3    0    0 -0.37498051853E+03 -0.86684234263E+02  0.66752870815E+03  0.77053171379E+03  0.00000000000E+00 0. -1.
        -11    1    3    3    0    0 -0.32761597174E+03 -0.17088540007E+01  0.66239751661E+03  0.73898959068E+03  0.00000000000E+00 0.  1.
         22    1    1    2    0    0  0.70259649027E+03  0.88393088264E+02  0.45484789746E+03  0.84163042722E+03  0.00000000000E+00 0.  1.
<mgrwt>
<rscale>  0 0.15305214E+04</rscale>
<asrwt>0</asrwt>
<pdfrwt beam="1">  1        2 0.31814813E+00 0.15305214E+04</pdfrwt>
<pdfrwt beam="2">  1       -2 0.43567510E-01 0.15305214E+04</pdfrwt>
<totfact> 0.29502461E+01</totfact>
</mgrwt>
</event>
<event>
 6    1  0.9512547E-007  0.2908176E+04  0.7818608E-02  0.8270449E-01
         -2   -1    0    0    0  501 -0.00000000000E+00  0.00000000000E+00  0.10510672857E+04  0.10510672857E+04  0.00000000000E+00 0.  1.
          2   -1    0    0  501    0  0.00000000000E+00 -0.00000000000E+00 -0.20116432172E+04  0.20116432172E+04  0.00000000000E+00 0. -1.
         23    2    1    2    0    0 -0.14159843802E+04 -0.13080622990E+03 -0.79332250852E+03  0.16308949623E+04  0.91300278984E+02 0.  0.
         13    1    3    3    0    0 -0.57290123711E+03 -0.95874938963E+01 -0.30544467634E+03  0.64931055576E+03  0.00000000000E+00 0.  1.
        -13    1    3    3    0    0 -0.84308314307E+03 -0.12121873600E+03 -0.48787783218E+03  0.98158440657E+03  0.00000000000E+00 0. -1.
         22    1    1    2    0    0  0.14159843802E+04  0.13080622990E+03 -0.16725342294E+03  0.14318155406E+04  0.00000000000E+00 0.  1.
<mgrwt>
<rscale>  0 0.29081763E+04</rscale>
<asrwt>0</asrwt>
<pdfrwt beam="1">  1        2 0.30948357E+00 0.29081763E+04</pdfrwt>
<pdfrwt beam="2">  1       -2 0.16170266E+00 0.29081763E+04</pdfrwt>
<totfact> 0.13893677E+00</totfact>
</mgrwt>
</event>
<event>
 6    1  0.9512547E-007  0.2662162E+04  0.7818608E-02  0.8347388E-01
         -2   -1    0    0    0  501 -0.00000000000E+00  0.00000000000E+00  0.54511326437E+03  0.54511326437E+03  0.00000000000E+00 0.  1.
          2   -1    0    0  501    0  0.00000000000E+00 -0.00000000000E+00 -0.32502903231E+04  0.32502903231E+04  0.00000000000E+00 0. -1.
         23    2    1    2    0    0  0.94009754822E+03  0.31186251969E+03 -0.89809688175E+02  0.99876487030E+03  0.91781559648E+02 0.  0.
         11    1    3    3    0    0  0.37005634884E+02 -0.56542517336E+01 -0.34556559303E+01  0.37594269959E+02  0.00000000000E+00 0.  1.
        -11    1    3    3    0    0  0.90309191334E+03  0.31751677143E+03 -0.86354032245E+02  0.96117060034E+03  0.00000000000E+00 0. -1.
         22    1    1    2    0    0 -0.94009754822E+03 -0.31186251969E+03 -0.26153673706E+04  0.27966387172E+04  0.00000000000E+00 0. -1.
<mgrwt>
<rscale>  0 0.26621618E+04</rscale>
<asrwt>0</asrwt>
<pdfrwt beam="1">  1        2 0.50004467E+00 0.26621618E+04</pdfrwt>
<pdfrwt beam="2">  1       -2 0.83863579E-01 0.26621618E+04</pdfrwt>
<totfact> 0.13139850E+00</totfact>
</mgrwt>
</event>
<event>
 6    1  0.9512547E-007  0.1875721E+04  0.7818608E-02  0.8667037E-01
          2   -1    0    0  501    0  0.00000000000E+00  0.00000000000E+00  0.22344424996E+04  0.22344424996E+04  0.00000000000E+00 0. -1.
         -2   -1    0    0    0  501 -0.00000000000E+00 -0.00000000000E+00 -0.39364733981E+03  0.39364733981E+03  0.00000000000E+00 0.  1.
         23    2    1    2    0    0 -0.23695966025E+03 -0.32617493325E+02  0.21899817601E+04  0.22048345224E+04  0.89785189495E+02 0.  0.
         13    1    3    3    0    0 -0.99865159055E+02 -0.24144146931E+02  0.58219820380E+03  0.59119433212E+03  0.00000000000E+00 0.  1.
        -13    1    3    3    0    0 -0.13709450119E+03 -0.84733463943E+01  0.16077835563E+04  0.16136401903E+04  0.00000000000E+00 0. -1.
         22    1    1    2    0    0  0.23695966025E+03  0.32617493325E+02 -0.34918660036E+03  0.42325531695E+03  0.00000000000E+00 0.  1.
<mgrwt>
<rscale>  0 0.18757210E+04</rscale>
<asrwt>0</asrwt>
<pdfrwt beam="1">  1        2 0.34376038E+00 0.18757210E+04</pdfrwt>
<pdfrwt beam="2">  1       -2 0.60561130E-01 0.18757210E+04</pdfrwt>
<totfact> 0.11769429E+01</totfact>
</mgrwt>
</event>
<event>
 6    1  0.9512547E-007  0.1687302E+04  0.7818608E-02  0.8768640E-01
          2   -1    0    0  501    0  0.00000000000E+00  0.00000000000E+00  0.24814665775E+04  0.24814665775E+04  0.00000000000E+00 0. -1.
         -2   -1    0    0    0  501 -0.00000000000E+00 -0.00000000000E+00 -0.28682500972E+03  0.28682500972E+03  0.00000000000E+00 0.  1.
         23    2    1    2    0    0  0.32227837508E+03 -0.67193129464E+03  0.17407551396E+04  0.18957276037E+04  0.90552059352E+02 0.  0.
         13    1    3    3    0    0  0.28072307696E+03 -0.50842125772E+03  0.13021752315E+04  0.14258183456E+04  0.00000000000E+00 0.  1.
        -13    1    3    3    0    0  0.41555298116E+02 -0.16351003692E+03  0.43857990812E+03  0.46990925803E+03  0.00000000000E+00 0. -1.
         22    1    1    2    0    0 -0.32227837508E+03  0.67193129464E+03  0.45388642818E+03  0.87256398358E+03  0.00000000000E+00 0.  1.
<mgrwt>
<rscale>  0 0.16873016E+04</rscale>
<asrwt>0</asrwt>
<pdfrwt beam="1">  1        2 0.38176407E+00 0.16873016E+04</pdfrwt>
<pdfrwt beam="2">  1       -2 0.44126926E-01 0.16873016E+04</pdfrwt>
<totfact> 0.16579493E+01</totfact>
</mgrwt>
</event>
<event>
 6    1  0.9512547E-007  0.2055263E+04  0.7818608E-02  0.8581210E-01
         -2   -1    0    0    0  501 -0.00000000000E+00  0.00000000000E+00  0.16419784825E+04  0.16419784825E+04  0.00000000000E+00 0.  1.
          2   -1    0    0  501    0  0.00000000000E+00 -0.00000000000E+00 -0.64314292858E+03  0.64314292858E+03  0.00000000000E+00 0. -1.
         23    2    1    2    0    0  0.67300059740E+03  0.32173402036E+02 -0.35927128619E+03  0.76906761222E+03  0.91783458135E+02 0.  0.
         11    1    3    3    0    0  0.53712441564E+03  0.45357213764E+02 -0.32064201158E+03  0.62719312361E+03  0.00000000000E+00 0.  1.
        -11    1    3    3    0    0  0.13587618176E+03 -0.13183811728E+02 -0.38629274615E+02  0.14187448861E+03  0.00000000000E+00 0. -1.
         22    1    1    2    0    0 -0.67300059740E+03 -0.32173402036E+02  0.13581068401E+04  0.15160537989E+04  0.00000000000E+00 0.  1.
<mgrwt>
<rscale>  0 0.20552633E+04</rscale>
<asrwt>0</asrwt>
<pdfrwt beam="1">  1        2 0.98945066E-01 0.20552633E+04</pdfrwt>
<pdfrwt beam="2">  1       -2 0.25261207E+00 0.20552633E+04</pdfrwt>
<totfact> 0.26089635E+00</totfact>
</mgrwt>
</event>
<event>
 6    1  0.2268657E-006  0.3727207E+04  0.7818608E-02  0.8061959E-01
         -2   -1    0    0    0  501 -0.00000000000E+00  0.00000000000E+00  0.10468575260E+04  0.10468575260E+04  0.00000000000E+00 0.  1.
          2   -1    0    0  501    0  0.00000000000E+00 -0.00000000000E+00 -0.33175649590E+04  0.33175649590E+04  0.00000000000E+00 0. -1.
         23    2    1    2    0    0 -0.11291204082E+03  0.18295992619E+04 -0.75016338752E+03  0.19827766712E+04  0.92063195064E+02 0.  0.
         13    1    3    3    0    0 -0.85291963486E+01  0.88427503722E+03 -0.35923091077E+03  0.95449564477E+03  0.00000000000E+00 0.  1.
        -13    1    3    3    0    0 -0.10438284448E+03  0.94532422464E+03 -0.39093247675E+03  0.10282810264E+04  0.00000000000E+00 0. -1.
         22    1    1    2    0    0  0.11291204082E+03 -0.18295992619E+04 -0.15205440455E+04  0.23816458137E+04  0.00000000000E+00 0. -1.
<mgrwt>
<rscale>  0 0.37272069E+04</rscale>
<asrwt>0</asrwt>
<pdfrwt beam="1">  1        2 0.51039461E+00 0.37272069E+04</pdfrwt>
<pdfrwt beam="2">  1       -2 0.16105500E+00 0.37272069E+04</pdfrwt>
<totfact> 0.21607030E-01</totfact>
</mgrwt>
</event>
<event>
 6    1  0.9512547E-007  0.2318652E+04  0.7818608E-02  0.8470603E-01
          2   -1    0    0  501    0  0.00000000000E+00  0.00000000000E+00  0.14921521705E+04  0.14921521705E+04  0.00000000000E+00 0. -1.
         -2   -1    0    0    0  501 -0.00000000000E+00 -0.00000000000E+00 -0.90073681827E+03  0.90073681827E+03  0.00000000000E+00 0.  1.
         23    2    1    2    0    0  0.88709747491E+03 -0.55651613355E+03 -0.21279831130E+03  0.10725058044E+04  0.91287689798E+02 0.  0.
         11    1    3    3    0    0  0.55983792257E+03 -0.37591039964E+03 -0.97546649381E+02  0.68135341557E+03  0.00000000000E+00 0. -1.
        -11    1    3    3    0    0  0.32725955234E+03 -0.18060573390E+03 -0.11525166192E+03  0.39115238884E+03  0.00000000000E+00 0.  1.
         22    1    1    2    0    0 -0.88709747491E+03  0.55651613355E+03  0.80421366350E+03  0.13203831843E+04  0.00000000000E+00 0.  1.
<mgrwt>
<rscale>  0 0.23186517E+04</rscale>
<asrwt>0</asrwt>
<pdfrwt beam="1">  1        2 0.22956187E+00 0.23186517E+04</pdfrwt>
<pdfrwt beam="2">  1       -2 0.13857490E+00 0.23186517E+04</pdfrwt>
<totfact> 0.42825025E+00</totfact>
</mgrwt>
</event>
<event>
 6    1  0.9512547E-007  0.2030352E+04  0.7818608E-02  0.8592560E-01
         -1   -1    0    0    0  501 -0.00000000000E+00  0.00000000000E+00  0.45634955437E+03  0.45634955437E+03  0.00000000000E+00 0.  1.
          1   -1    0    0  501    0  0.00000000000E+00 -0.00000000000E+00 -0.22583176872E+04  0.22583176872E+04  0.00000000000E+00 0. -1.
         23    2    1    2    0    0 -0.38906461208E+03 -0.89614884522E+03 -0.54415486264E+03  0.11220127756E+04  0.91400924464E+02 0.  0.
         13    1    3    3    0    0 -0.31181918053E+03 -0.66859538936E+03 -0.37061243149E+03  0.82559346556E+03  0.00000000000E+00 0. -1.
        -13    1    3    3    0    0 -0.77245431555E+02 -0.22755345586E+03 -0.17354243116E+03  0.29641931007E+03  0.00000000000E+00 0.  1.
         22    1    1    2    0    0  0.38906461208E+03  0.89614884522E+03 -0.12578132701E+04  0.15926544659E+04  0.00000000000E+00 0. -1.
<mgrwt>
<rscale>  0 0.20303520E+04</rscale>
<asrwt>0</asrwt>
<pdfrwt beam="1">  1        1 0.34743350E+00 0.20303520E+04</pdfrwt>
<pdfrwt beam="2">  1       -1 0.70207622E-01 0.20303520E+04</pdfrwt>
<totfact> 0.37714597E+00</totfact>
</mgrwt>
</event>
<event>
 6    1  0.9512547E-007  0.2994029E+04  0.7818608E-02  0.8245438E-01
          1   -1    0    0  501    0  0.00000000000E+00  0.00000000000E+00  0.20197126666E+04  0.20197126666E+04  0.00000000000E+00 0. -1.
         -1   -1    0    0    0  501 -0.00000000000E+00 -0.00000000000E+00 -0.11095895191E+04  0.11095895191E+04  0.00000000000E+00 0.  1.
         23    2    1    2    0    0  0.69578050157E+03  0.13233964914E+04  0.41568728164E+03  0.15545147063E+04  0.90726381124E+02 0.  0.
         13    1    3    3    0    0  0.13042333929E+03  0.18737514582E+03  0.80382172435E+02  0.24203509322E+03  0.00000000000E+00 0.  1.
        -13    1    3    3    0    0  0.56535716228E+03  0.11360213456E+04  0.33530510920E+03  0.13124796131E+04  0.00000000000E+00 0. -1.
         22    1    1    2    0    0 -0.69578050157E+03 -0.13233964914E+04  0.49443586591E+03  0.15747874794E+04  0.00000000000E+00 0. -1.
<mgrwt>
<rscale>  0 0.29940287E+04</rscale>
<asrwt>0</asrwt>
<pdfrwt beam="1">  1        1 0.31072502E+00 0.29940287E+04</pdfrwt>
<pdfrwt beam="2">  1       -1 0.17070608E+00 0.29940287E+04</pdfrwt>
<totfact> 0.59821053E-01</totfact>
</mgrwt>
</event>
<event>
 6    1  0.9512547E-007  0.2820051E+04  0.7818608E-02  0.8297070E-01
          2   -1    0    0  501    0  0.00000000000E+00  0.00000000000E+00  0.18066419261E+04  0.18066419261E+04  0.00000000000E+00 0. -1.
         -2   -1    0    0    0  501 -0.00000000000E+00 -0.00000000000E+00 -0.11004794688E+04  0.11004794688E+04  0.00000000000E+00 0.  1.
         23    2    1    2    0    0  0.36807779204E+03 -0.12937245107E+04  0.78442871291E+03  0.15597795758E+04  0.91539875431E+02 0.  0.
         13    1    3    3    0    0  0.57017965692E+02 -0.34395094419E+03  0.19382580548E+03  0.39890066846E+03  0.00000000000E+00 0. -1.
        -13    1    3    3    0    0  0.31105982635E+03 -0.94977356653E+03  0.59060290743E+03  0.11608789073E+04  0.00000000000E+00 0.  1.
         22    1    1    2    0    0 -0.36807779204E+03  0.12937245107E+04 -0.78266255679E+02  0.13473418191E+04  0.00000000000E+00 0. -1.
<mgrwt>
<rscale>  0 0.28200513E+04</rscale>
<asrwt>0</asrwt>
<pdfrwt beam="1">  1        2 0.27794491E+00 0.28200513E+04</pdfrwt>
<pdfrwt beam="2">  1       -2 0.16930453E+00 0.28200513E+04</pdfrwt>
<totfact> 0.16025752E+00</totfact>
</mgrwt>
</event>
<event>
 6    1  0.9512547E-007  0.2011574E+04  0.7818608E-02  0.8601228E-01
          2   -1    0    0  501    0  0.00000000000E+00  0.00000000000E+00  0.82622136030E+03  0.82622136030E+03  0.00000000000E+00 0. -1.
         -2   -1    0    0    0  501 -0.00000000000E+00 -0.00000000000E+00 -0.12243786738E+04  0.12243786738E+04  0.00000000000E+00 0.  1.
         23    2    1    2    0    0 -0.43603743422E+03  0.62005141022E+02  0.71993277023E+03  0.84889344892E+03  0.91343376369E+02 0.  0.
         13    1    3    3    0    0 -0.36066454741E+02  0.28710265476E+02  0.10368196191E+03  0.11346813529E+03  0.00000000000E+00 0.  1.
        -13    1    3    3    0    0 -0.39997097948E+03  0.33294875546E+02  0.61625080832E+03  0.73542531363E+03  0.00000000000E+00 0. -1.
         22    1    1    2    0    0  0.43603743422E+03 -0.62005141022E+02 -0.11180900837E+04  0.12017065852E+04  0.00000000000E+00 0.  1.
<mgrwt>
<rscale>  0 0.20115743E+04</rscale>
<asrwt>0</asrwt>
<pdfrwt beam="1">  1        2 0.12711098E+00 0.20115743E+04</pdfrwt>
<pdfrwt beam="2">  1       -2 0.18836595E+00 0.20115743E+04</pdfrwt>
<totfact> 0.48652392E+00</totfact>
</mgrwt>
</event>
<event>
 6    1  0.9512547E-007  0.4518520E+04  0.7818608E-02  0.7907402E-01
         -2   -1    0    0    0  501 -0.00000000000E+00  0.00000000000E+00  0.99518634500E+03  0.99518634500E+03  0.00000000000E+00 0.  1.
          2   -1    0    0  501    0  0.00000000000E+00 -0.00000000000E+00 -0.51289455144E+04  0.51289455144E+04  0.00000000000E+00 0. -1.
         23    2    1    2    0    0  0.11483797629E+04  0.52425627652E+03 -0.46057193063E+04  0.47764052202E+04  0.88180359240E+02 0.  0.
         11    1    3    3    0    0  0.68244588650E+03  0.35775704556E+03 -0.28392476763E+04  0.29419466105E+04  0.00000000000E+00 0. -1.
        -11    1    3    3    0    0  0.46593387642E+03  0.16649923096E+03 -0.17664716300E+04  0.18344586097E+04  0.00000000000E+00 0.  1.
         22    1    1    2    0    0 -0.11483797629E+04 -0.52425627652E+03  0.47196013686E+03  0.13477266392E+04  0.00000000000E+00 0.  1.
<mgrwt>
<rscale>  0 0.45185204E+04</rscale>
<asrwt>0</asrwt>
<pdfrwt beam="1">  1        2 0.78906853E+00 0.45185204E+04</pdfrwt>
<pdfrwt beam="2">  1       -2 0.15310559E+00 0.45185204E+04</pdfrwt>
<totfact> 0.48982094E-03</totfact>
</mgrwt>
</event>
<event>
 6    1  0.9512547E-007  0.4923958E+04  0.7818608E-02  0.7840346E-01
          2   -1    0    0  501    0  0.00000000000E+00  0.00000000000E+00  0.28712606838E+04  0.28712606838E+04  0.00000000000E+00 0. -1.
         -2   -1    0    0    0  501 -0.00000000000E+00 -0.00000000000E+00 -0.21110377488E+04  0.21110377488E+04  0.00000000000E+00 0.  1.
         23    2    1    2    0    0  0.64361055481E+03  0.17451744866E+04  0.20109715046E+04  0.27408166639E+04  0.90559691804E+02 0.  0.
         11    1    3    3    0    0  0.52835003734E+03  0.14057732113E+04  0.16729125213E+04  0.22481077348E+04  0.00000000000E+00 0.  1.
        -11    1    3    3    0    0  0.11526051748E+03  0.33940127533E+03  0.33805898334E+03  0.49270892909E+03  0.00000000000E+00 0. -1.
         22    1    1    2    0    0 -0.64361055481E+03 -0.17451744866E+04 -0.12507485697E+04  0.22414817687E+04  0.00000000000E+00 0.  1.
<mgrwt>
<rscale>  0 0.49239576E+04</rscale>
<asrwt>0</asrwt>
<pdfrwt beam="1">  1        2 0.44173241E+00 0.49239576E+04</pdfrwt>
<pdfrwt beam="2">  1       -2 0.32477504E+00 0.49239576E+04</pdfrwt>
<totfact> 0.34271985E-02</totfact>
</mgrwt>
</event>
<event>
 6    1  0.9512547E-007  0.6269099E+03  0.7818608E-02  0.9851097E-01
          2   -1    0    0  501    0  0.00000000000E+00  0.00000000000E+00  0.13514033824E+04  0.13514033824E+04  0.00000000000E+00 0. -1.
         -2   -1    0    0    0  501 -0.00000000000E+00 -0.00000000000E+00 -0.72705171980E+02  0.72705171980E+02  0.00000000000E+00 0.  1.
         23    2    1    2    0    0 -0.79193948509E+02 -0.24235055989E+03  0.26445675696E+03  0.37831163276E+03  0.90425880245E+02 0.  0.
         13    1    3    3    0    0 -0.13483011295E+02 -0.86057341579E+02  0.15094665464E+03  0.17427722221E+03  0.00000000000E+00 0. -1.
        -13    1    3    3    0    0 -0.65710937214E+02 -0.15629321831E+03  0.11351010232E+03  0.20403441055E+03  0.00000000000E+00 0.  1.
         22    1    1    2    0    0  0.79193948509E+02  0.24235055989E+03  0.10142414535E+04  0.10457969216E+04  0.00000000000E+00 0. -1.
<mgrwt>
<rscale>  0 0.62690993E+03</rscale>
<asrwt>0</asrwt>
<pdfrwt beam="1">  1        2 0.20790819E+00 0.62690993E+03</pdfrwt>
<pdfrwt beam="2">  1       -2 0.11185412E-01 0.62690993E+03</pdfrwt>
<totfact> 0.89471715E+02</totfact>
</mgrwt>
</event>
<event>
 6    1  0.9512547E-007  0.3441066E+04  0.7818608E-02  0.8127900E-01
          1   -1    0    0  501    0  0.00000000000E+00  0.00000000000E+00  0.21334661396E+04  0.21334661396E+04  0.00000000000E+00 0. -1.
         -1   -1    0    0    0  501 -0.00000000000E+00 -0.00000000000E+00 -0.13875228480E+04  0.13875228480E+04  0.00000000000E+00 0.  1.
         23    2    1    2    0    0 -0.12703667105E+04 -0.94924868016E+03 -0.30625790046E+03  0.16178253097E+04  0.93060169106E+02 0.  0.
         13    1    3    3    0    0 -0.31600900750E+03 -0.19460943808E+03 -0.93121220554E+02  0.38263048484E+03  0.00000000000E+00 0. -1.
        -13    1    3    3    0    0 -0.95435770305E+03 -0.75463924208E+03 -0.21313667991E+03  0.12351948249E+04  0.00000000000E+00 0.  1.
         22    1    1    2    0    0  0.12703667105E+04  0.94924868016E+03  0.10522011921E+04  0.19031636778E+04  0.00000000000E+00 0. -1.
<mgrwt>
<rscale>  0 0.34410655E+04</rscale>
<asrwt>0</asrwt>
<pdfrwt beam="1">  1        1 0.32822556E+00 0.34410655E+04</pdfrwt>
<pdfrwt beam="2">  1       -1 0.21346505E+00 0.34410655E+04</pdfrwt>
<totfact> 0.24147950E-01</totfact>
</mgrwt>
</event>
<event>
 6    1  0.9512547E-007  0.2367674E+04  0.7818608E-02  0.8451706E-01
         -1   -1    0    0    0  501 -0.00000000000E+00  0.00000000000E+00  0.76440143248E+03  0.76440143248E+03  0.00000000000E+00 0.  1.
          1   -1    0    0  501    0  0.00000000000E+00 -0.00000000000E+00 -0.18334214432E+04  0.18334214432E+04  0.00000000000E+00 0. -1.
         23    2    1    2    0    0  0.42964449614E+03  0.90644603076E+03  0.15091382849E+03  0.10184314195E+04  0.90491838863E+02 0.  0.
         13    1    3    3    0    0  0.32175664769E+03  0.58289092614E+03  0.11192436829E+03  0.67514164168E+03  0.00000000000E+00 0. -1.
        -13    1    3    3    0    0  0.10788784846E+03  0.32355510461E+03  0.38989460202E+02  0.34328977785E+03  0.00000000000E+00 0.  1.
         22    1    1    2    0    0 -0.42964449614E+03 -0.90644603076E+03 -0.12199338392E+04  0.15793914562E+04  0.00000000000E+00 0. -1.
<mgrwt>
<rscale>  0 0.23676739E+04</rscale>
<asrwt>0</asrwt>
<pdfrwt beam="1">  1        1 0.28206484E+00 0.23676739E+04</pdfrwt>
<pdfrwt beam="2">  1       -1 0.11760022E+00 0.23676739E+04</pdfrwt>
<totfact> 0.22593847E+00</totfact>
</mgrwt>
</event>
<event>
 6    1  0.9512547E-007  0.3771207E+04  0.7818608E-02  0.8052362E-01
          3   -1    0    0  501    0  0.00000000000E+00  0.00000000000E+00  0.10315645897E+04  0.10315645897E+04  0.00000000000E+00 0. -1.
         -3   -1    0    0    0  501 -0.00000000000E+00 -0.00000000000E+00 -0.34467062390E+04  0.34467062390E+04  0.00000000000E+00 0.  1.
         23    2    1    2    0    0  0.16057605436E+04 -0.98431183106E+03 -0.11320716247E+04  0.21993225204E+04  0.89981559539E+02 0.  0.
         13    1    3    3    0    0  0.46586933780E+03 -0.29635206261E+03 -0.28579337463E+03  0.62172070731E+03  0.00000000000E+00 0. -1.
        -13    1    3    3    0    0  0.11398912058E+04 -0.68795976845E+03 -0.84627825005E+03  0.15776018131E+04  0.00000000000E+00 0.  1.
         22    1    1    2    0    0 -0.16057605436E+04  0.98431183106E+03 -0.12830700246E+04  0.22789483084E+04  0.00000000000E+00 0.  1.
<mgrwt>
<rscale>  0 0.37712068E+04</rscale>
<asrwt>0</asrwt>
<pdfrwt beam="1">  1        3 0.15870225E+00 0.37712068E+04</pdfrwt>
<pdfrwt beam="2">  1       -3 0.53026249E+00 0.37712068E+04</pdfrwt>
<totfact> 0.12188608E-03</totfact>
</mgrwt>
</event>
<event>
 6    1  0.9512547E-007  0.1205526E+04  0.7818608E-02  0.9108033E-01
         -1   -1    0    0    0  501 -0.00000000000E+00  0.00000000000E+00  0.68483665306E+03  0.68483665306E+03  0.00000000000E+00 0.  1.
          1   -1    0    0  501    0  0.00000000000E+00 -0.00000000000E+00 -0.53052582088E+03  0.53052582088E+03  0.00000000000E+00 0. -1.
         23    2    1    2    0    0 -0.35444119911E+03  0.24587055574E+03  0.49715199049E+03  0.66434436750E+03  0.90069102188E+02 0.  0.
         13    1    3    3    0    0 -0.25273203349E+03  0.12450853348E+03  0.33458664662E+03  0.43740608107E+03  0.00000000000E+00 0.  1.
        -13    1    3    3    0    0 -0.10170916563E+03  0.12136202226E+03  0.16256534387E+03  0.22693828643E+03  0.00000000000E+00 0. -1.
         22    1    1    2    0    0  0.35444119911E+03 -0.24587055574E+03 -0.34284115830E+03  0.55101810645E+03  0.00000000000E+00 0. -1.
<mgrwt>
<rscale>  0 0.12055265E+04</rscale>
<asrwt>0</asrwt>
<pdfrwt beam="1">  1        1 0.81619357E-01 0.12055265E+04</pdfrwt>
<pdfrwt beam="2">  1       -1 0.10535948E+00 0.12055265E+04</pdfrwt>
<totfact> 0.34119588E+01</totfact>
</mgrwt>
</event>
<event>
 6    1  0.9512547E-007  0.1740962E+04  0.7818608E-02  0.8738341E-01
         -2   -1    0    0    0  501 -0.00000000000E+00  0.00000000000E+00  0.99844446402E+03  0.99844446402E+03  0.00000000000E+00 0.  1.
          2   -1    0    0  501    0  0.00000000000E+00 -0.00000000000E+00 -0.75891731630E+03  0.75891731630E+03  0.00000000000E+00 0. -1.
         23    2    1    2    0    0 -0.85057284743E+03  0.22078629548E+02  0.29323202372E+03  0.90480923158E+03  0.93451009341E+02 0.  0.
         13    1    3    3    0    0 -0.48701932029E+03 -0.14967571375E+02  0.20662706469E+03  0.52925097108E+03  0.00000000000E+00 0. -1.
        -13    1    3    3    0    0 -0.36355352714E+03  0.37046200923E+02  0.86604959028E+02  0.37555826049E+03  0.00000000000E+00 0.  1.
         22    1    1    2    0    0  0.85057284743E+03 -0.22078629548E+02 -0.53704876000E+02  0.85255254875E+03  0.00000000000E+00 0. -1.
<mgrwt>
<rscale>  0 0.17409616E+04</rscale>
<asrwt>0</asrwt>
<pdfrwt beam="1">  1        2 0.11675651E+00 0.17409616E+04</pdfrwt>
<pdfrwt beam="2">  1       -2 0.15360684E+00 0.17409616E+04</pdfrwt>
<totfact> 0.98457390E+00</totfact>
</mgrwt>
</event>
<event>
 6    1  0.9512547E-007  0.2147363E+04  0.7818608E-02  0.8540662E-01
         -1   -1    0    0    0  501 -0.00000000000E+00  0.00000000000E+00  0.78256893018E+03  0.78256893018E+03  0.00000000000E+00 0.  1.
          1   -1    0    0  501    0  0.00000000000E+00 -0.00000000000E+00 -0.14730865480E+04  0.14730865480E+04  0.00000000000E+00 0. -1.
         23    2    1    2    0    0 -0.90285183515E+03  0.38959825254E+03  0.10172669838E+03  0.99288895536E+03  0.92476601908E+02 0.  0.
         11    1    3    3    0    0 -0.52095395542E+03  0.24955588310E+03  0.19963270233E+02  0.57798762497E+03  0.00000000000E+00 0. -1.
        -11    1    3    3    0    0 -0.38189787973E+03  0.14004236944E+03  0.81763428149E+02  0.41490133039E+03  0.00000000000E+00 0.  1.
         22    1    1    2    0    0  0.90285183515E+03 -0.38959825254E+03 -0.79224431621E+03  0.12627665228E+04  0.00000000000E+00 0. -1.
<mgrwt>
<rscale>  0 0.21473628E+04</rscale>
<asrwt>0</asrwt>
<pdfrwt beam="1">  1        1 0.22662870E+00 0.21473628E+04</pdfrwt>
<pdfrwt beam="2">  1       -1 0.12039522E+00 0.21473628E+04</pdfrwt>
<totfact> 0.38414062E+00</totfact>
</mgrwt>
</event>
<event>
 6    1  0.9512547E-007  0.5229490E+04  0.7818608E-02  0.7794049E-01
         -2   -1    0    0    0  501 -0.00000000000E+00  0.00000000000E+00  0.20150479556E+04  0.20150479556E+04  0.00000000000E+00 0.  1.
          2   -1    0    0  501    0  0.00000000000E+00 -0.00000000000E+00 -0.33929179299E+04  0.33929179299E+04  0.00000000000E+00 0. -1.
         23    2    1    2    0    0 -0.24804211704E+04  0.70290176633E+03 -0.24306120863E+03  0.25911678788E+04  0.92261309981E+02 0.  0.
         13    1    3    3    0    0 -0.15972885919E+04  0.49488127372E+03 -0.17463742611E+03  0.16812901449E+04  0.00000000000E+00 0.  1.
        -13    1    3    3    0    0 -0.88313257854E+03  0.20802049261E+03 -0.68423782527E+02  0.90987773389E+03  0.00000000000E+00 0. -1.
         22    1    1    2    0    0  0.24804211704E+04 -0.70290176633E+03 -0.11348087657E+04  0.28167980067E+04  0.00000000000E+00 0.  1.
<mgrwt>
<rscale>  0 0.52294904E+04</rscale>
<asrwt>0</asrwt>
<pdfrwt beam="1">  1        2 0.52198737E+00 0.52294904E+04</pdfrwt>
<pdfrwt beam="2">  1       -2 0.31000738E+00 0.52294904E+04</pdfrwt>
<totfact> 0.18987373E-02</totfact>
</mgrwt>
</event>
<event>
 6    1  0.9512547E-007  0.5566827E+04  0.7818608E-02  0.7746560E-01
         -2   -1    0    0    0  501 -0.00000000000E+00  0.00000000000E+00  0.14900707177E+04  0.14900707177E+04  0.00000000000E+00 0.  1.
          2   -1    0    0  501    0  0.00000000000E+00 -0.00000000000E+00 -0.51993442435E+04  0.51993442435E+04  0.00000000000E+00 0. -1.
         23    2    1    2    0    0  0.16368333565E+04  0.19042644135E+04 -0.32960694857E+04  0.41445801979E+04  0.89579960179E+02 0.  0.
         11    1    3    3    0    0  0.51660006270E+03  0.54640937374E+03 -0.10204222057E+04  0.12675568257E+04  0.00000000000E+00 0.  1.
        -11    1    3    3    0    0  0.11202332938E+04  0.13578550398E+04 -0.22756472799E+04  0.28770233722E+04  0.00000000000E+00 0. -1.
         22    1    1    2    0    0 -0.16368333565E+04 -0.19042644135E+04 -0.41320404023E+03  0.25448347633E+04  0.00000000000E+00 0.  1.
<mgrwt>
<rscale>  0 0.55668270E+04</rscale>
<asrwt>0</asrwt>
<pdfrwt beam="1">  1        2 0.79989912E+00 0.55668270E+04</pdfrwt>
<pdfrwt beam="2">  1       -2 0.22924165E+00 0.55668270E+04</pdfrwt>
<totfact> 0.10847230E-03</totfact>
</mgrwt>
</event>
<event>
 6    1  0.9512547E-007  0.7804532E+03  0.7818608E-02  0.9588749E-01
          1   -1    0    0  501    0  0.00000000000E+00  0.00000000000E+00  0.13437732644E+04  0.13437732644E+04  0.00000000000E+00 0. -1.
         -1   -1    0    0    0  501 -0.00000000000E+00 -0.00000000000E+00 -0.11332029936E+03  0.11332029936E+03  0.00000000000E+00 0.  1.
         23    2    1    2    0    0  0.98058153980E+02  0.21538686744E+03  0.11911616754E+04  0.12171962739E+04  0.81815206907E+02 0.  0.
         11    1    3    3    0    0  0.97678965459E+02  0.11923494792E+03  0.71577067602E+03  0.73217881269E+03  0.00000000000E+00 0. -1.
        -11    1    3    3    0    0  0.37918852114E+00  0.96151919515E+02  0.47539099934E+03  0.48501746120E+03  0.00000000000E+00 0.  1.
         22    1    1    2    0    0 -0.98058153980E+02 -0.21538686744E+03  0.39291289627E+02  0.23989728983E+03  0.00000000000E+00 0.  1.
<mgrwt>
<rscale>  0 0.78045317E+03</rscale>
<asrwt>0</asrwt>
<pdfrwt beam="1">  1        1 0.20673434E+00 0.78045317E+03</pdfrwt>
<pdfrwt beam="2">  1       -1 0.17433893E-01 0.78045317E+03</pdfrwt>
<totfact> 0.21938721E+02</totfact>
</mgrwt>
</event>
<event>
 6    1  0.9512547E-007  0.1718597E+04  0.7818608E-02  0.8750828E-01
         -3   -1    0    0    0  501 -0.00000000000E+00  0.00000000000E+00  0.16693150256E+04  0.16693150256E+04  0.00000000000E+00 0.  1.
          3   -1    0    0  501    0  0.00000000000E+00 -0.00000000000E+00 -0.44233349825E+03  0.44233349825E+03  0.00000000000E+00 0. -1.
         23    2    1    2    0    0 -0.22687855812E+03  0.56013507099E+03 -0.13123940918E+03  0.62504525119E+03  0.90733707226E+02 0.  0.
         13    1    3    3    0    0 -0.62051168436E+02  0.15148033411E+03  0.51461744104E+01  0.16377766098E+03  0.00000000000E+00 0. -1.
        -13    1    3    3    0    0 -0.16482738969E+03  0.40865473688E+03 -0.13638558359E+03  0.46126759021E+03  0.00000000000E+00 0.  1.
         22    1    1    2    0    0  0.22687855812E+03 -0.56013507099E+03  0.13582209366E+04  0.14866032727E+04  0.00000000000E+00 0.  1.
<mgrwt>
<rscale>  0 0.17185970E+04</rscale>
<asrwt>0</asrwt>
<pdfrwt beam="1">  1        3 0.68051308E-01 0.17185970E+04</pdfrwt>
<pdfrwt beam="2">  1       -3 0.25681769E+00 0.17185970E+04</pdfrwt>
<totfact> 0.34490647E-01</totfact>
</mgrwt>
</event>
<event>
 6    1  0.9512547E-007  0.2712330E+04  0.7818608E-02  0.8331016E-01
          2   -1    0    0  501    0  0.00000000000E+00  0.00000000000E+00  0.22093872352E+04  0.22093872352E+04  0.00000000000E+00 0. -1.
         -2   -1    0    0    0  501 -0.00000000000E+00 -0.00000000000E+00 -0.83244026134E+03  0.83244026134E+03  0.00000000000E+00 0.  1.
         23    2    1    2    0    0 -0.82960155765E+02  0.92867932124E+03  0.17913487406E+04  0.20215057368E+04  0.90705371104E+02 0.  0.
         11    1    3    3    0    0 -0.40199843478E+02  0.19190056596E+03  0.31650556331E+03  0.37231388134E+03  0.00000000000E+00 0.  1.
        -11    1    3    3    0    0 -0.42760312287E+02  0.73677875528E+03  0.14748431773E+04  0.16491918555E+04  0.00000000000E+00 0. -1.
         22    1    1    2    0    0  0.82960155765E+02 -0.92867932124E+03 -0.41440176673E+03  0.10203217597E+04  0.00000000000E+00 0.  1.
<mgrwt>
<rscale>  0 0.27123295E+04</rscale>
<asrwt>0</asrwt>
<pdfrwt beam="1">  1        2 0.33990573E+00 0.27123295E+04</pdfrwt>
<pdfrwt beam="2">  1       -2 0.12806773E+00 0.27123295E+04</pdfrwt>
<totfact> 0.20165389E+00</totfact>
</mgrwt>
</event>
<event>
 6    1  0.9871983E-007  0.3702942E+04  0.7818608E-02  0.8067310E-01
          1   -1    0    0  501    0  0.00000000000E+00  0.00000000000E+00  0.30036973468E+04  0.30036973468E+04  0.00000000000E+00 0. -1.
         -1   -1    0    0    0  501 -0.00000000000E+00 -0.00000000000E+00 -0.11412417977E+04  0.11412417977E+04  0.00000000000E+00 0.  1.
         23    2    1    2    0    0 -0.27826152394E+03 -0.12122597195E+04  0.24653456774E+04  0.27627381426E+04  0.88258893790E+02 0.  0.
         11    1    3    3    0    0 -0.14141666138E+03 -0.54467433905E+03  0.12062167144E+04  0.13310250072E+04  0.00000000000E+00 0. -1.
        -11    1    3    3    0    0 -0.13684486256E+03 -0.66758538040E+03  0.12591289630E+04  0.14317131353E+04  0.00000000000E+00 0.  1.
         22    1    1    2    0    0  0.27826152394E+03  0.12122597195E+04 -0.60289012820E+03  0.13822010020E+04  0.00000000000E+00 0.  1.
<mgrwt>
<rscale>  0 0.37029421E+04</rscale>
<asrwt>0</asrwt>
<pdfrwt beam="1">  1        1 0.46210728E+00 0.37029421E+04</pdfrwt>
<pdfrwt beam="2">  1       -1 0.17557566E+00 0.37029421E+04</pdfrwt>
<totfact> 0.10667146E-01</totfact>
</mgrwt>
</event>
<event>
 6    1  0.9512547E-007  0.1375037E+04  0.7818608E-02  0.8972089E-01
          2   -1    0    0  501    0  0.00000000000E+00  0.00000000000E+00  0.64697501814E+03  0.64697501814E+03  0.00000000000E+00 0. -1.
         -2   -1    0    0    0  501 -0.00000000000E+00 -0.00000000000E+00 -0.73060231163E+03  0.73060231163E+03  0.00000000000E+00 0.  1.
         23    2    1    2    0    0  0.19924347851E+03  0.63131939545E+03  0.13219602872E+03  0.68127147082E+03  0.91612685524E+02 0.  0.
         13    1    3    3    0    0  0.74285080574E+02  0.11382859659E+03  0.29700138498E+02  0.13913058910E+03  0.00000000000E+00 0.  1.
        -13    1    3    3    0    0  0.12495839794E+03  0.51749079886E+03  0.10249589022E+03  0.54214088172E+03  0.00000000000E+00 0. -1.
         22    1    1    2    0    0 -0.19924347851E+03 -0.63131939545E+03 -0.21582332221E+03  0.69630585895E+03  0.00000000000E+00 0.  1.
<mgrwt>
<rscale>  0 0.13750366E+04</rscale>
<asrwt>0</asrwt>
<pdfrwt beam="1">  1        2 0.99534618E-01 0.13750366E+04</pdfrwt>
<pdfrwt beam="2">  1       -2 0.11240036E+00 0.13750366E+04</pdfrwt>
<totfact> 0.27491052E+01</totfact>
</mgrwt>
</event>
<event>
 6    1  0.9512547E-007  0.2451003E+04  0.7818608E-02  0.8420652E-01
         -1   -1    0    0    0  501 -0.00000000000E+00  0.00000000000E+00  0.64760088425E+03  0.64760088425E+03  0.00000000000E+00 0.  1.
          1   -1    0    0  501    0  0.00000000000E+00 -0.00000000000E+00 -0.23191037388E+04  0.23191037388E+04  0.00000000000E+00 0. -1.
         23    2    1    2    0    0  0.63269741167E+03  0.43184832586E+03 -0.19920743309E+04  0.21363040795E+04  0.92930021750E+02 0.  0.
         11    1    3    3    0    0  0.17543085028E+03  0.16750938994E+03 -0.67598610466E+03  0.71818701787E+03  0.00000000000E+00 0.  1.
        -11    1    3    3    0    0  0.45726656139E+03  0.26433893593E+03 -0.13160882263E+04  0.14181170617E+04  0.00000000000E+00 0. -1.
         22    1    1    2    0    0 -0.63269741167E+03 -0.43184832586E+03  0.32057147635E+03  0.83040054355E+03  0.00000000000E+00 0. -1.
<mgrwt>
<rscale>  0 0.24510028E+04</rscale>
<asrwt>0</asrwt>
<pdfrwt beam="1">  1        1 0.35678520E+00 0.24510028E+04</pdfrwt>
<pdfrwt beam="2">  1       -1 0.99630904E-01 0.24510028E+04</pdfrwt>
<totfact> 0.15482337E+00</totfact>
</mgrwt>
</event>
<event>
 6    1  0.9512547E-007  0.1983589E+04  0.7818608E-02  0.8614332E-01
         -2   -1    0    0    0  501 -0.00000000000E+00  0.00000000000E+00  0.10077237491E+04  0.10077237491E+04  0.00000000000E+00 0.  1.
          2   -1    0    0  501    0  0.00000000000E+00 -0.00000000000E+00 -0.97611706722E+03  0.97611706722E+03  0.00000000000E+00 0. -1.
         23    2    1    2    0    0  0.21656907844E+03 -0.84520218778E+03 -0.45147849968E+03  0.98652431859E+03  0.90158147377E+02 0.  0.
         13    1    3    3    0    0  0.19162523914E+03 -0.59383380379E+03 -0.33727454610E+03  0.70930454548E+03  0.00000000000E+00 0.  1.
        -13    1    3    3    0    0  0.24943839303E+02 -0.25136838399E+03 -0.11420395358E+03  0.27721977311E+03  0.00000000000E+00 0. -1.
         22    1    1    2    0    0 -0.21656907844E+03  0.84520218778E+03  0.48308518151E+03  0.99731649769E+03  0.00000000000E+00 0.  1.
<mgrwt>
<rscale>  0 0.19835890E+04</rscale>
<asrwt>0</asrwt>
<pdfrwt beam="1">  1        2 0.15017186E+00 0.19835890E+04</pdfrwt>
<pdfrwt beam="2">  1       -2 0.15503442E+00 0.19835890E+04</pdfrwt>
<totfact> 0.66608610E+00</totfact>
</mgrwt>
</event>
<event>
 6    1  0.9512547E-007  0.3884418E+04  0.7818608E-02  0.8028278E-01
         -2   -1    0    0    0  501 -0.00000000000E+00  0.00000000000E+00  0.35266539224E+04  0.35266539224E+04  0.00000000000E+00 0.  1.
          2   -1    0    0  501    0  0.00000000000E+00 -0.00000000000E+00 -0.10696188223E+04  0.10696188223E+04  0.00000000000E+00 0. -1.
         23    2    1    2    0    0 -0.43580236929E+03 -0.59099439133E+03  0.33553957965E+04  0.34359925991E+04  0.90366555613E+02 0.  0.
         11    1    3    3    0    0 -0.35466237335E+03 -0.50153316679E+03  0.26439365996E+04  0.27143547408E+04  0.00000000000E+00 0. -1.
        -11    1    3    3    0    0 -0.81139995938E+02 -0.89461224540E+02  0.71145919687E+03  0.72163785824E+03  0.00000000000E+00 0.  1.
         22    1    1    2    0    0  0.43580236929E+03  0.59099439133E+03 -0.89836069629E+03  0.11602801456E+04  0.00000000000E+00 0. -1.
<mgrwt>
<rscale>  0 0.38844178E+04</rscale>
<asrwt>0</asrwt>
<pdfrwt beam="1">  1        2 0.16455674E+00 0.38844178E+04</pdfrwt>
<pdfrwt beam="2">  1       -2 0.54256214E+00 0.38844178E+04</pdfrwt>
<totfact> 0.16923180E-02</totfact>
</mgrwt>
</event>
<event>
 6    1  0.9512547E-007  0.4353843E+04  0.7818608E-02  0.7936736E-01
         -1   -1    0    0    0  501 -0.00000000000E+00  0.00000000000E+00  0.24355190603E+04  0.24355190603E+04  0.00000000000E+00 0.  1.
          1   -1    0    0  501    0  0.00000000000E+00 -0.00000000000E+00 -0.19457809099E+04  0.19457809099E+04  0.00000000000E+00 0. -1.
         23    2    1    2    0    0 -0.56799733382E+03  0.15712936150E+04  0.16472379989E+04  0.23487177468E+04  0.10722608538E+03 0.  0.
         13    1    3    3    0    0 -0.40475059473E+03  0.11754710454E+04  0.12839415774E+04  0.17871936652E+04  0.00000000000E+00 0. -1.
        -13    1    3    3    0    0 -0.16324673910E+03  0.39582256956E+03  0.36329642148E+03  0.56152408164E+03  0.00000000000E+00 0.  1.
         22    1    1    2    0    0  0.56799733382E+03 -0.15712936150E+04 -0.11574998485E+04  0.20325822234E+04  0.00000000000E+00 0. -1.
<mgrwt>
<rscale>  0 0.43538427E+04</rscale>
<asrwt>0</asrwt>
<pdfrwt beam="1">  1        1 0.29935091E+00 0.43538427E+04</pdfrwt>
<pdfrwt beam="2">  1       -1 0.37469524E+00 0.43538427E+04</pdfrwt>
<totfact> 0.26197418E-02</totfact>
</mgrwt>
</event>
<event>
 6    1  0.9512547E-007  0.2744450E+04  0.7818608E-02  0.8320725E-01
         -2   -1    0    0    0  501 -0.00000000000E+00  0.00000000000E+00  0.12193544358E+04  0.12193544358E+04  0.00000000000E+00 0.  1.
          2   -1    0    0  501    0  0.00000000000E+00 -0.00000000000E+00 -0.15442606427E+04  0.15442606427E+04  0.00000000000E+00 0. -1.
         23    2    1    2    0    0  0.12612991681E+04 -0.27628661100E+03  0.30025216979E+03  0.13290305118E+04  0.94661782417E+02 0.  0.
         11    1    3    3    0    0  0.47046151338E+03 -0.12683987193E+03  0.72759396102E+02  0.49266247919E+03  0.00000000000E+00 0.  1.
        -11    1    3    3    0    0  0.79083765471E+03 -0.14944673907E+03  0.22749277369E+03  0.83636803263E+03  0.00000000000E+00 0. -1.
         22    1    1    2    0    0 -0.12612991681E+04  0.27628661100E+03 -0.62515837676E+03  0.14345845667E+04  0.00000000000E+00 0. -1.
<mgrwt>
<rscale>  0 0.27444497E+04</rscale>
<asrwt>0</asrwt>
<pdfrwt beam="1">  1        2 0.23757856E+00 0.27444497E+04</pdfrwt>
<pdfrwt beam="2">  1       -2 0.18759299E+00 0.27444497E+04</pdfrwt>
<totfact> 0.16858353E+00</totfact>
</mgrwt>
</event>
<event>
 6    1  0.9512547E-007  0.2856796E+04  0.7818608E-02  0.8285849E-01
          1   -1    0    0  501    0  0.00000000000E+00  0.00000000000E+00  0.22430960311E+04  0.22430960311E+04  0.00000000000E+00 0. -1.
         -1   -1    0    0    0  501 -0.00000000000E+00 -0.00000000000E+00 -0.90960018526E+03  0.90960018526E+03  0.00000000000E+00 0.  1.
         23    2    1    2    0    0  0.56530464032E+03 -0.79880205660E+03  0.18135795437E+04  0.20626804280E+04  0.89026539457E+02 0.  0.
         13    1    3    3    0    0  0.43433650193E+03 -0.67323902729E+03  0.14738448760E+04  0.16775332197E+04  0.00000000000E+00 0. -1.
        -13    1    3    3    0    0  0.13096813839E+03 -0.12556302931E+03  0.33973466776E+03  0.38514720832E+03  0.00000000000E+00 0.  1.
         22    1    1    2    0    0 -0.56530464032E+03  0.79880205660E+03 -0.48008369785E+03  0.10900157884E+04  0.00000000000E+00 0.  1.
<mgrwt>
<rscale>  0 0.28567958E+04</rscale>
<asrwt>0</asrwt>
<pdfrwt beam="1">  1        1 0.34509170E+00 0.28567958E+04</pdfrwt>
<pdfrwt beam="2">  1       -1 0.13993849E+00 0.28567958E+04</pdfrwt>
<totfact> 0.73583805E-01</totfact>
</mgrwt>
</event>
<event>
 6    1  0.9512547E-007  0.1332711E+04  0.7818608E-02  0.9004020E-01
          1   -1    0    0  501    0  0.00000000000E+00  0.00000000000E+00  0.10120872619E+04  0.10120872619E+04  0.00000000000E+00 0. -1.
         -1   -1    0    0    0  501 -0.00000000000E+00 -0.00000000000E+00 -0.43872646694E+03  0.43872646694E+03  0.00000000000E+00 0.  1.
         23    2    1    2    0    0 -0.63543081204E+03  0.12307117335E+03  0.13048398602E+03  0.66655694789E+03  0.91396190083E+02 0.  0.
         13    1    3    3    0    0 -0.16294391676E+03  0.59913066677E+02  0.65055434772E+02  0.18539823398E+03  0.00000000000E+00 0.  1.
        -13    1    3    3    0    0 -0.47248689528E+03  0.63158106678E+02  0.65428551249E+02  0.48115871391E+03  0.00000000000E+00 0. -1.
         22    1    1    2    0    0  0.63543081204E+03 -0.12307117335E+03  0.44287680898E+03  0.78425678100E+03  0.00000000000E+00 0. -1.
<mgrwt>
<rscale>  0 0.13327107E+04</rscale>
<asrwt>0</asrwt>
<pdfrwt beam="1">  1        1 0.15570573E+00 0.13327107E+04</pdfrwt>
<pdfrwt beam="2">  1       -1 0.67496380E-01 0.13327107E+04</pdfrwt>
<totfact> 0.32262975E+01</totfact>
</mgrwt>
</event>
<event>
 6    1  0.9512547E-007  0.2102301E+04  0.7818608E-02  0.8560230E-01
         -2   -1    0    0    0  501 -0.00000000000E+00  0.00000000000E+00  0.44594237944E+03  0.44594237944E+03  0.00000000000E+00 0.  1.
          2   -1    0    0  501    0  0.00000000000E+00 -0.00000000000E+00 -0.24777141294E+04  0.24777141294E+04  0.00000000000E+00 0. -1.
         23    2    1    2    0    0  0.26552817787E+03  0.79284135782E+03 -0.18992141720E+04  0.20770904197E+04  0.90484851121E+02 0.  0.
         11    1    3    3    0    0  0.14687316451E+03  0.56048192167E+03 -0.13480662458E+04  0.14673085272E+04  0.00000000000E+00 0.  1.
        -11    1    3    3    0    0  0.11865501337E+03  0.23235943615E+03 -0.55114792626E+03  0.60978189247E+03  0.00000000000E+00 0. -1.
         22    1    1    2    0    0 -0.26552817787E+03 -0.79284135782E+03 -0.13255757794E+03  0.84656608920E+03  0.00000000000E+00 0.  1.
<mgrwt>
<rscale>  0 0.21023013E+04</rscale>
<asrwt>0</asrwt>
<pdfrwt beam="1">  1        2 0.38118678E+00 0.21023013E+04</pdfrwt>
<pdfrwt beam="2">  1       -2 0.68606521E-01 0.21023013E+04</pdfrwt>
<totfact> 0.64194053E+00</totfact>
</mgrwt>
</event>
<event>
 6    1  0.9512547E-007  0.2229634E+04  0.7818608E-02  0.8506194E-01
         -4   -1    0    0    0  501 -0.00000000000E+00  0.00000000000E+00  0.19367771335E+04  0.19367771335E+04  0.00000000000E+00 0.  1.
          4   -1    0    0  501    0  0.00000000000E+00 -0.00000000000E+00 -0.64169309925E+03  0.64169309925E+03  0.00000000000E+00 0. -1.
         23    2    1    2    0    0  0.67702016039E+03  0.27489213264E+03 -0.32212980961E+03  0.80384277918E+03  0.92052252784E+02 0.  0.
         11    1    3    3    0    0  0.62405059399E+03  0.27849349760E+03 -0.29777147243E+03  0.74542982356E+03  0.00000000000E+00 0.  1.
        -11    1    3    3    0    0  0.52969566402E+02 -0.36013649553E+01 -0.24358337185E+02  0.58412955624E+02  0.00000000000E+00 0. -1.
         22    1    1    2    0    0 -0.67702016039E+03 -0.27489213264E+03  0.16172138439E+04  0.17746274536E+04  0.00000000000E+00 0.  1.
<mgrwt>
<rscale>  0 0.22296336E+04</rscale>
<asrwt>0</asrwt>
<pdfrwt beam="1">  1        4 0.98722016E-01 0.22296336E+04</pdfrwt>
<pdfrwt beam="2">  1       -4 0.29796571E+00 0.22296336E+04</pdfrwt>
<totfact> 0.49380255E-02</totfact>
</mgrwt>
</event>
<event>
 6    1  0.9512547E-007  0.2607860E+04  0.7818608E-02  0.8365536E-01
          1   -1    0    0  501    0  0.00000000000E+00  0.00000000000E+00  0.34229426766E+04  0.34229426766E+04  0.00000000000E+00 0. -1.
         -1   -1    0    0    0  501 -0.00000000000E+00 -0.00000000000E+00 -0.49671685654E+03  0.49671685654E+03  0.00000000000E+00 0.  1.
         23    2    1    2    0    0  0.16078872599E+03 -0.96274405838E+03  0.27606954960E+04  0.29296446724E+04  0.93000798761E+02 0.  0.
         11    1    3    3    0    0  0.23069887183E+02 -0.30998829178E+03  0.97800076432E+03  0.10262117012E+04  0.00000000000E+00 0.  1.
        -11    1    3    3    0    0  0.13771883880E+03 -0.65275576660E+03  0.17826947317E+04  0.19034329712E+04  0.00000000000E+00 0. -1.
         22    1    1    2    0    0 -0.16078872599E+03  0.96274405838E+03  0.16553032410E+03  0.99001486077E+03  0.00000000000E+00 0.  1.
<mgrwt>
<rscale>  0 0.26078599E+04</rscale>
<asrwt>0</asrwt>
<pdfrwt beam="1">  1        1 0.52660655E+00 0.26078599E+04</pdfrwt>
<pdfrwt beam="2">  1       -1 0.76417980E-01 0.26078599E+04</pdfrwt>
<totfact> 0.43456614E-01</totfact>
</mgrwt>
</event>
<event>
 6    1  0.9512547E-007  0.2242183E+04  0.7818608E-02  0.8501073E-01
         -1   -1    0    0    0  501 -0.00000000000E+00  0.00000000000E+00  0.64903694997E+03  0.64903694997E+03  0.00000000000E+00 0.  1.
          1   -1    0    0  501    0  0.00000000000E+00 -0.00000000000E+00 -0.19364790985E+04  0.19364790985E+04  0.00000000000E+00 0. -1.
         23    2    1    2    0    0  0.25958363703E+03  0.10851147677E+04 -0.74552611780E+03  0.13451408198E+04  0.93471435082E+02 0.  0.
         13    1    3    3    0    0  0.56888075341E+02  0.15732756121E+03 -0.14613253158E+03  0.22213268876E+03  0.00000000000E+00 0. -1.
        -13    1    3    3    0    0  0.20269556169E+03  0.92778720644E+03 -0.59939358622E+03  0.11230081310E+04  0.00000000000E+00 0.  1.
         22    1    1    2    0    0 -0.25958363703E+03 -0.10851147677E+04 -0.54191603078E+03  0.12403752287E+04  0.00000000000E+00 0. -1.
<mgrwt>
<rscale>  0 0.22421833E+04</rscale>
<asrwt>0</asrwt>
<pdfrwt beam="1">  1        1 0.29791986E+00 0.22421833E+04</pdfrwt>
<pdfrwt beam="2">  1       -1 0.99851840E-01 0.22421833E+04</pdfrwt>
<totfact> 0.28586311E+00</totfact>
</mgrwt>
</event>
<event>
 6    1  0.9512547E-007  0.2869537E+04  0.7818608E-02  0.8281999E-01
          1   -1    0    0  501    0  0.00000000000E+00  0.00000000000E+00  0.12677645655E+04  0.12677645655E+04  0.00000000000E+00 0. -1.
         -1   -1    0    0    0  501 -0.00000000000E+00 -0.00000000000E+00 -0.16237723149E+04  0.16237723149E+04  0.00000000000E+00 0.  1.
         23    2    1    2    0    0  0.47664139519E+03  0.13371482769E+04  0.20973273375E+02  0.14227730378E+04  0.93223950436E+02 0.  0.
         13    1    3    3    0    0  0.26173719306E+03  0.64422873991E+03  0.45733737124E+02  0.69687057785E+03  0.00000000000E+00 0.  1.
        -13    1    3    3    0    0  0.21490420213E+03  0.69291953696E+03 -0.24760463750E+02  0.72590245995E+03  0.00000000000E+00 0. -1.
         22    1    1    2    0    0 -0.47664139519E+03 -0.13371482769E+04 -0.37698102278E+03  0.14687638427E+04  0.00000000000E+00 0. -1.
<mgrwt>
<rscale>  0 0.28695372E+04</rscale>
<asrwt>0</asrwt>
<pdfrwt beam="1">  1        1 0.19504070E+00 0.28695372E+04</pdfrwt>
<pdfrwt beam="2">  1       -1 0.24981113E+00 0.28695372E+04</pdfrwt>
<totfact> 0.57406440E-01</totfact>
</mgrwt>
</event>
<event>
 6    1  0.9512547E-007  0.6822277E+04  0.7818608E-02  0.7596047E-01
          2   -1    0    0  501    0  0.00000000000E+00  0.00000000000E+00  0.37698414805E+04  0.37698414805E+04  0.00000000000E+00 0. -1.
         -2   -1    0    0    0  501 -0.00000000000E+00 -0.00000000000E+00 -0.30865666536E+04  0.30865666536E+04  0.00000000000E+00 0.  1.
         23    2    1    2    0    0  0.22812884486E+04  0.96640022566E+03  0.26972462858E+04  0.36635587141E+04  0.91206050542E+02 0.  0.
         13    1    3    3    0    0  0.10637949466E+04  0.40767931740E+03  0.12065927878E+04  0.16594361301E+04  0.00000000000E+00 0. -1.
        -13    1    3    3    0    0  0.12174935019E+04  0.55872090826E+03  0.14906534980E+04  0.20041225840E+04  0.00000000000E+00 0.  1.
         22    1    1    2    0    0 -0.22812884486E+04 -0.96640022566E+03 -0.20139714589E+04  0.31928494200E+04  0.00000000000E+00 0.  1.
<mgrwt>
<rscale>  0 0.68222773E+04</rscale>
<asrwt>0</asrwt>
<pdfrwt beam="1">  1        2 0.57997561E+00 0.68222773E+04</pdfrwt>
<pdfrwt beam="2">  1       -2 0.47485641E+00 0.68222773E+04</pdfrwt>
<totfact> 0.78450225E-04</totfact>
</mgrwt>
</event>
<event>
 6    1  0.9512547E-007  0.1735609E+04  0.7818608E-02  0.8741312E-01
         -1   -1    0    0    0  501 -0.00000000000E+00  0.00000000000E+00  0.50744756747E+03  0.50744756747E+03  0.00000000000E+00 0.  1.
          1   -1    0    0  501    0  0.00000000000E+00 -0.00000000000E+00 -0.14840643057E+04  0.14840643057E+04  0.00000000000E+00 0. -1.
         23    2    1    2    0    0 -0.26568630302E+03  0.23400539857E+02  0.45504748514E+03  0.53521545920E+03  0.90832687690E+02 0.  0.
         13    1    3    3    0    0 -0.12406390644E+03  0.30562690868E+02  0.29442262126E+03  0.32095266140E+03  0.00000000000E+00 0. -1.
        -13    1    3    3    0    0 -0.14162239659E+03 -0.71621510113E+01  0.16062486388E+03  0.21426279780E+03  0.00000000000E+00 0.  1.
         22    1    1    2    0    0  0.26568630302E+03 -0.23400539857E+02 -0.14316642234E+04  0.14562964140E+04  0.00000000000E+00 0. -1.
<mgrwt>
<rscale>  0 0.17356092E+04</rscale>
<asrwt>0</asrwt>
<pdfrwt beam="1">  1        1 0.22831759E+00 0.17356092E+04</pdfrwt>
<pdfrwt beam="2">  1       -1 0.78068857E-01 0.17356092E+04</pdfrwt>
<totfact> 0.10460588E+01</totfact>
</mgrwt>
</event>
<event>
 6    1  0.1109859E-006  0.3479384E+04  0.7818608E-02  0.8118693E-01
          2   -1    0    0  501    0  0.00000000000E+00  0.00000000000E+00  0.25477657158E+04  0.25477657158E+04  0.00000000000E+00 0. -1.
         -2   -1    0    0    0  501 -0.00000000000E+00 -0.00000000000E+00 -0.11879149133E+04  0.11879149133E+04  0.00000000000E+00 0.  1.
         23    2    1    2    0    0 -0.54517755536E+03 -0.15060965313E+04 -0.45264276223E+02  0.16049779955E+04  0.91434036851E+02 0.  0.
         13    1    3    3    0    0 -0.13910172418E+03 -0.27873427710E+03 -0.12675245451E+02  0.31177355364E+03  0.00000000000E+00 0.  1.
        -13    1    3    3    0    0 -0.40607583118E+03 -0.12273622542E+04 -0.32589030772E+02  0.12932044419E+04  0.00000000000E+00 0. -1.
         22    1    1    2    0    0  0.54517755536E+03  0.15060965313E+04  0.14051150787E+04  0.21307026336E+04  0.00000000000E+00 0. -1.
<mgrwt>
<rscale>  0 0.34793844E+04</rscale>
<asrwt>0</asrwt>
<pdfrwt beam="1">  1        2 0.39196396E+00 0.34793844E+04</pdfrwt>
<pdfrwt beam="2">  1       -2 0.18275614E+00 0.34793844E+04</pdfrwt>
<totfact> 0.46643400E-01</totfact>
</mgrwt>
</event>
<event>
 6    1  0.9512547E-007  0.3705454E+04  0.7818608E-02  0.8066754E-01
          2   -1    0    0  501    0  0.00000000000E+00  0.00000000000E+00  0.40539479164E+04  0.40539479164E+04  0.00000000000E+00 0. -1.
         -2   -1    0    0    0  501 -0.00000000000E+00 -0.00000000000E+00 -0.84672947627E+03  0.84672947627E+03  0.00000000000E+00 0.  1.
         23    2    1    2    0    0  0.12035195330E+04  0.10000079388E+04  0.29138540581E+04  0.33086542129E+04  0.90399585689E+02 0.  0.
         11    1    3    3    0    0  0.43230302591E+03  0.41159473417E+03  0.11469086838E+04  0.12929407026E+04  0.00000000000E+00 0.  1.
        -11    1    3    3    0    0  0.77121650713E+03  0.58841320460E+03  0.17669453742E+04  0.20157135103E+04  0.00000000000E+00 0. -1.
         22    1    1    2    0    0 -0.12035195330E+04 -0.10000079388E+04  0.29336438202E+03  0.15920231797E+04  0.00000000000E+00 0.  1.
<mgrwt>
<rscale>  0 0.37054539E+04</rscale>
<asrwt>0</asrwt>
<pdfrwt beam="1">  1        2 0.62368428E+00 0.37054539E+04</pdfrwt>
<pdfrwt beam="2">  1       -2 0.13026608E+00 0.37054539E+04</pdfrwt>
<totfact> 0.10754138E-01</totfact>
</mgrwt>
</event>
<event>
 6    1  0.9512547E-007  0.3449151E+04  0.7818608E-02  0.8125947E-01
          1   -1    0    0  501    0  0.00000000000E+00  0.00000000000E+00  0.26793106583E+04  0.26793106583E+04  0.00000000000E+00 0. -1.
         -1   -1    0    0    0  501 -0.00000000000E+00 -0.00000000000E+00 -0.11100472206E+04  0.11100472206E+04  0.00000000000E+00 0.  1.
         23    2    1    2    0    0 -0.81888569266E+03 -0.14214079689E+04  0.20572866036E+03  0.16562377509E+04  0.99120200872E+02 0.  0.
         11    1    3    3    0    0 -0.34982416218E+03 -0.56881704760E+03  0.38668703876E+02  0.66889838298E+03  0.00000000000E+00 0. -1.
        -11    1    3    3    0    0 -0.46906153048E+03 -0.85259092126E+03  0.16705995648E+03  0.98733936792E+03  0.00000000000E+00 0.  1.
         22    1    1    2    0    0  0.81888569266E+03  0.14214079689E+04  0.13635347773E+04  0.21331201280E+04  0.00000000000E+00 0.  1.
<mgrwt>
<rscale>  0 0.34491514E+04</rscale>
<asrwt>0</asrwt>
<pdfrwt beam="1">  1        1 0.41220164E+00 0.34491514E+04</pdfrwt>
<pdfrwt beam="2">  1       -1 0.17077650E+00 0.34491514E+04</pdfrwt>
<totfact> 0.20186764E-01</totfact>
</mgrwt>
</event>
<event>
 6    1  0.9512547E-007  0.1650632E+04  0.7818608E-02  0.8790033E-01
          1   -1    0    0  501    0  0.00000000000E+00  0.00000000000E+00  0.24645442917E+04  0.24645442917E+04  0.00000000000E+00 0. -1.
         -1   -1    0    0    0  501 -0.00000000000E+00 -0.00000000000E+00 -0.27637817611E+03  0.27637817611E+03  0.00000000000E+00 0.  1.
         23    2    1    2    0    0 -0.11067526569E+03  0.81783160703E+01  0.24512057134E+04  0.24554303852E+04  0.91722558263E+02 0.  0.
         11    1    3    3    0    0 -0.11872982769E+03 -0.11035311312E+02  0.18334369298E+04  0.18373104053E+04  0.00000000000E+00 0.  1.
        -11    1    3    3    0    0  0.80545620012E+01  0.19213627382E+02  0.61776878363E+03  0.61811997983E+03  0.00000000000E+00 0. -1.
         22    1    1    2    0    0  0.11067526569E+03 -0.81783160703E+01 -0.26303959776E+03  0.28549208269E+03  0.00000000000E+00 0.  1.
<mgrwt>
<rscale>  0 0.16506317E+04</rscale>
<asrwt>0</asrwt>
<pdfrwt beam="1">  1        1 0.37916064E+00 0.16506317E+04</pdfrwt>
<pdfrwt beam="2">  1       -1 0.42519721E-01 0.16506317E+04</pdfrwt>
<totfact> 0.74677426E+00</totfact>
</mgrwt>
</event>
<event>
 6    1  0.9512547E-007  0.1752363E+04  0.7818608E-02  0.8732051E-01
         -1   -1    0    0    0  501 -0.00000000000E+00  0.00000000000E+00  0.58689368014E+03  0.58689368014E+03  0.00000000000E+00 0.  1.
          1   -1    0    0  501    0  0.00000000000E+00 -0.00000000000E+00 -0.13080631043E+04  0.13080631043E+04  0.00000000000E+00 0. -1.
         23    2    1    2    0    0  0.97581591264E+02 -0.65156406865E+03 -0.98223801943E+03  0.11862856943E+04  0.91784090025E+02 0.  0.
         11    1    3    3    0    0  0.79469913531E+01 -0.26954552246E+03 -0.45748545687E+03  0.53104697212E+03  0.00000000000E+00 0. -1.
        -11    1    3    3    0    0  0.89634599911E+02 -0.38201854619E+03 -0.52475256256E+03  0.65523872218E+03  0.00000000000E+00 0.  1.
         22    1    1    2    0    0 -0.97581591264E+02  0.65156406865E+03  0.26106859529E+03  0.70867109011E+03  0.00000000000E+00 0.  1.
<mgrwt>
<rscale>  0 0.17523629E+04</rscale>
<asrwt>0</asrwt>
<pdfrwt beam="1">  1        1 0.20124048E+00 0.17523629E+04</pdfrwt>
<pdfrwt beam="2">  1       -1 0.90291335E-01 0.17523629E+04</pdfrwt>
<totfact> 0.10143360E+01</totfact>
</mgrwt>
</event>
<event>
 6    1  0.9512547E-007  0.1528557E+04  0.7818608E-02  0.8865682E-01
         -2   -1    0    0    0  501 -0.00000000000E+00  0.00000000000E+00  0.69003221316E+03  0.69003221316E+03  0.00000000000E+00 0.  1.
          2   -1    0    0  501    0  0.00000000000E+00 -0.00000000000E+00 -0.84651404036E+03  0.84651404036E+03  0.00000000000E+00 0. -1.
         23    2    1    2    0    0  0.65842489412E+03 -0.26665472220E+03 -0.35455020901E+03  0.79907817560E+03  0.90509656637E+02 0.  0.
         11    1    3    3    0    0  0.21187004203E+03 -0.13152511445E+03 -0.13223361924E+03  0.28226494734E+03  0.00000000000E+00 0. -1.
        -11    1    3    3    0    0  0.44655485209E+03 -0.13512960775E+03 -0.22231658977E+03  0.51681322826E+03  0.00000000000E+00 0.  1.
         22    1    1    2    0    0 -0.65842489412E+03  0.26665472220E+03  0.19806838181E+03  0.73746807791E+03  0.00000000000E+00 0.  1.
<mgrwt>
<rscale>  0 0.15285574E+04</rscale>
<asrwt>0</asrwt>
<pdfrwt beam="1">  1        2 0.13023293E+00 0.15285574E+04</pdfrwt>
<pdfrwt beam="2">  1       -2 0.10615880E+00 0.15285574E+04</pdfrwt>
<totfact> 0.22034296E+01</totfact>
</mgrwt>
</event>
<event>
 6    1  0.9512547E-007  0.7083454E+03  0.7818608E-02  0.9703066E-01
         -2   -1    0    0    0  501 -0.00000000000E+00  0.00000000000E+00  0.20210499790E+03  0.20210499790E+03  0.00000000000E+00 0.  1.
          2   -1    0    0  501    0  0.00000000000E+00 -0.00000000000E+00 -0.62065906020E+03  0.62065906020E+03  0.00000000000E+00 0. -1.
         23    2    1    2    0    0  0.24426499151E+03 -0.22144259260E+03 -0.34260298488E+03  0.48442875982E+03  0.92694175656E+02 0.  0.
         11    1    3    3    0    0  0.15554131608E+03 -0.84874161906E+02 -0.14962350977E+03  0.23191360254E+03  0.00000000000E+00 0.  1.
        -11    1    3    3    0    0  0.88723675429E+02 -0.13656843070E+03 -0.19297947511E+03  0.25251515728E+03  0.00000000000E+00 0. -1.
         22    1    1    2    0    0 -0.24426499151E+03  0.22144259260E+03 -0.75951077420E+02  0.33833529827E+03  0.00000000000E+00 0.  1.
<mgrwt>
<rscale>  0 0.70834539E+03</rscale>
<asrwt>0</asrwt>
<pdfrwt beam="1">  1        2 0.95486009E-01 0.70834539E+03</pdfrwt>
<pdfrwt beam="2">  1       -2 0.31093077E-01 0.70834539E+03</pdfrwt>
<totfact> 0.45920783E+02</totfact>
</mgrwt>
</event>
<event>
 6    1  0.9512547E-007  0.2049284E+04  0.7818608E-02  0.8583919E-01
          1   -1    0    0  501    0  0.00000000000E+00  0.00000000000E+00  0.25150323942E+04  0.25150323942E+04  0.00000000000E+00 0. -1.
         -1   -1    0    0    0  501 -0.00000000000E+00 -0.00000000000E+00 -0.41744643050E+03  0.41744643050E+03  0.00000000000E+00 0.  1.
         23    2    1    2    0    0  0.11279637835E+03  0.79342897846E+03  0.14611651219E+03  0.82286142172E+03  0.11618225937E+03 0.  0.
         13    1    3    3    0    0 -0.17180665257E+02  0.18751665204E+03  0.11112322921E+02  0.18862967362E+03  0.00000000000E+00 0.  1.
        -13    1    3    3    0    0  0.12997704361E+03  0.60591232642E+03  0.13500418927E+03  0.63423174810E+03  0.00000000000E+00 0. -1.
         22    1    1    2    0    0 -0.11279637835E+03 -0.79342897846E+03  0.19514694515E+04  0.21096174030E+04  0.00000000000E+00 0. -1.
<mgrwt>
<rscale>  0 0.20492841E+04</rscale>
<asrwt>0</asrwt>
<pdfrwt beam="1">  1        1 0.38692805E+00 0.20492841E+04</pdfrwt>
<pdfrwt beam="2">  1       -1 0.64222529E-01 0.20492841E+04</pdfrwt>
<totfact> 0.30048022E+00</totfact>
</mgrwt>
</event>
<event>
 6    1  0.9512547E-007  0.7051859E+04  0.7818608E-02  0.7572111E-01
         -1   -1    0    0    0  501 -0.00000000000E+00  0.00000000000E+00  0.29653935890E+04  0.29653935890E+04  0.00000000000E+00 0.  1.
          1   -1    0    0  501    0  0.00000000000E+00 -0.00000000000E+00 -0.41924212900E+04  0.41924212900E+04  0.00000000000E+00 0. -1.
         23    2    1    2    0    0 -0.22347881289E+04 -0.15058246348E+04 -0.29206921775E+04  0.39750039875E+04  0.91804645798E+02 0.  0.
         11    1    3    3    0    0 -0.15898963599E+04 -0.10263230235E+04 -0.20214968097E+04  0.27690357050E+04  0.00000000000E+00 0.  1.
        -11    1    3    3    0    0 -0.64489176905E+03 -0.47950161130E+03 -0.89919536775E+03  0.12059682825E+04  0.00000000000E+00 0. -1.
         22    1    1    2    0    0  0.22347881289E+04  0.15058246348E+04  0.16936644765E+04  0.31828108915E+04  0.00000000000E+00 0.  1.
<mgrwt>
<rscale>  0 0.70518591E+04</rscale>
<asrwt>0</asrwt>
<pdfrwt beam="1">  1        1 0.64498789E+00 0.70518591E+04</pdfrwt>
<pdfrwt beam="2">  1       -1 0.45621440E+00 0.70518591E+04</pdfrwt>
<totfact> 0.11641996E-04</totfact>
</mgrwt>
</event>
<event>
 6    1  0.9512547E-007  0.3215872E+04  0.7818608E-02  0.8184638E-01
         -1   -1    0    0    0  501 -0.00000000000E+00  0.00000000000E+00  0.83024604254E+03  0.83024604254E+03  0.00000000000E+00 0.  1.
          1   -1    0    0  501    0  0.00000000000E+00 -0.00000000000E+00 -0.31140873983E+04  0.31140873983E+04  0.00000000000E+00 0. -1.
         23    2    1    2    0    0  0.72296313140E+03 -0.18475995587E+03  0.60255558306E+03  0.96304190542E+03  0.86974423025E+02 0.  0.
         11    1    3    3    0    0  0.49312861424E+03 -0.11725283625E+03  0.35685447205E+03  0.61989448458E+03  0.00000000000E+00 0. -1.
        -11    1    3    3    0    0  0.22983451716E+03 -0.67507119615E+02  0.24570111101E+03  0.34314742084E+03  0.00000000000E+00 0.  1.
         22    1    1    2    0    0 -0.72296313140E+03  0.18475995587E+03 -0.28863969388E+04  0.29812915354E+04  0.00000000000E+00 0. -1.
<mgrwt>
<rscale>  0 0.32158723E+04</rscale>
<asrwt>0</asrwt>
<pdfrwt beam="1">  1        1 0.47909037E+00 0.32158723E+04</pdfrwt>
<pdfrwt beam="2">  1       -1 0.12773016E+00 0.32158723E+04</pdfrwt>
<totfact> 0.21803359E-01</totfact>
</mgrwt>
</event>
<event>
 6    1  0.9512547E-007  0.2479670E+04  0.7818608E-02  0.8410264E-01
          2   -1    0    0  501    0  0.00000000000E+00  0.00000000000E+00  0.19357179582E+04  0.19357179582E+04  0.00000000000E+00 0. -1.
         -2   -1    0    0    0  501 -0.00000000000E+00 -0.00000000000E+00 -0.79411938188E+03  0.79411938188E+03  0.00000000000E+00 0.  1.
         23    2    1    2    0    0  0.29809360344E+03 -0.12778537682E+03  0.18869047586E+04  0.19170211220E+04  0.96806586286E+02 0.  0.
         13    1    3    3    0    0  0.27560697602E+03 -0.12567941841E+03  0.15475997089E+04  0.15769652439E+04  0.00000000000E+00 0.  1.
        -13    1    3    3    0    0  0.22486627422E+02 -0.21059584125E+01  0.33930504967E+03  0.34005587806E+03  0.00000000000E+00 0. -1.
         22    1    1    2    0    0 -0.29809360344E+03  0.12778537682E+03 -0.74530618232E+03  0.81281621806E+03  0.00000000000E+00 0.  1.
<mgrwt>
<rscale>  0 0.24796703E+04</rscale>
<asrwt>0</asrwt>
<pdfrwt beam="1">  1        2 0.29780276E+00 0.24796703E+04</pdfrwt>
<pdfrwt beam="2">  1       -2 0.12217221E+00 0.24796703E+04</pdfrwt>
<totfact> 0.32909250E+00</totfact>
</mgrwt>
</event>
<event>
 6    1  0.9512547E-007  0.1781209E+04  0.7818608E-02  0.8716356E-01
          1   -1    0    0  501    0  0.00000000000E+00  0.00000000000E+00  0.12953177283E+04  0.12953177283E+04  0.00000000000E+00 0. -1.
         -1   -1    0    0    0  501 -0.00000000000E+00 -0.00000000000E+00 -0.61234140616E+03  0.61234140616E+03  0.00000000000E+00 0.  1.
         23    2    1    2    0    0  0.46739149571E+03 -0.30456300332E+03  0.10825960247E+04  0.12214307906E+04  0.93089151275E+02 0.  0.
         13    1    3    3    0    0  0.21400454675E+03 -0.10729813891E+03  0.54444623934E+03  0.59475418803E+03  0.00000000000E+00 0.  1.
        -13    1    3    3    0    0  0.25338694896E+03 -0.19726486441E+03  0.53814978540E+03  0.62667660253E+03  0.00000000000E+00 0. -1.
         22    1    1    2    0    0 -0.46739149571E+03  0.30456300332E+03 -0.39961970260E+03  0.68622834390E+03  0.00000000000E+00 0.  1.
<mgrwt>
<rscale>  0 0.17812093E+04</rscale>
<asrwt>0</asrwt>
<pdfrwt beam="1">  1        1 0.19927965E+00 0.17812093E+04</pdfrwt>
<pdfrwt beam="2">  1       -1 0.94206370E-01 0.17812093E+04</pdfrwt>
<totfact> 0.94010576E+00</totfact>
</mgrwt>
</event>
<event>
 6    1  0.9512547E-007  0.1232728E+04  0.7818608E-02  0.9084682E-01
         -3   -1    0    0    0  501 -0.00000000000E+00  0.00000000000E+00  0.31011274006E+04  0.31011274006E+04  0.00000000000E+00 0.  1.
          3   -1    0    0  501    0  0.00000000000E+00 -0.00000000000E+00 -0.12250537874E+03  0.12250537874E+03  0.00000000000E+00 0. -1.
         23    2    1    2    0    0 -0.60512007804E+03 -0.54237529758E+01  0.17531406338E+04  0.18568832198E+04  0.91178310325E+02 0.  0.
         11    1    3    3    0    0 -0.33843232559E+03  0.37329746498E+02  0.91488540509E+03  0.97618914839E+03  0.00000000000E+00 0. -1.
        -11    1    3    3    0    0 -0.26668775245E+03 -0.42753499473E+02  0.83825522872E+03  0.88069407145E+03  0.00000000000E+00 0.  1.
         22    1    1    2    0    0  0.60512007804E+03  0.54237529758E+01  0.12254813881E+04  0.13667495595E+04  0.00000000000E+00 0. -1.
<mgrwt>
<rscale>  0 0.12327283E+04</rscale>
<asrwt>0</asrwt>
<pdfrwt beam="1">  1        3 0.18846984E-01 0.12327283E+04</pdfrwt>
<pdfrwt beam="2">  1       -3 0.47709646E+00 0.12327283E+04</pdfrwt>
<totfact> 0.27169285E-01</totfact>
</mgrwt>
</event>
<event>
 6    1  0.9512547E-007  0.3065545E+04  0.7818608E-02  0.8225258E-01
         -2   -1    0    0    0  501 -0.00000000000E+00  0.00000000000E+00  0.69041590586E+03  0.69041590586E+03  0.00000000000E+00 0.  1.
          2   -1    0    0  501    0  0.00000000000E+00 -0.00000000000E+00 -0.34028635480E+04  0.34028635480E+04  0.00000000000E+00 0. -1.
         23    2    1    2    0    0  0.93615395455E+03 -0.97773075290E+03 -0.40055664218E+03  0.14142532040E+04  0.85585335274E+02 0.  0.
         13    1    3    3    0    0  0.85290315815E+03 -0.91101872343E+03 -0.34944920583E+03  0.12959605160E+04  0.00000000000E+00 0. -1.
        -13    1    3    3    0    0  0.83250796406E+02 -0.66712029476E+02 -0.51107436354E+02  0.11829268798E+03  0.00000000000E+00 0.  1.
         22    1    1    2    0    0 -0.93615395455E+03  0.97773075290E+03 -0.23118910000E+04  0.26790262499E+04  0.00000000000E+00 0.  1.
<mgrwt>
<rscale>  0 0.30655447E+04</rscale>
<asrwt>0</asrwt>
<pdfrwt beam="1">  1        2 0.52351747E+00 0.30655447E+04</pdfrwt>
<pdfrwt beam="2">  1       -2 0.10621783E+00 0.30655447E+04</pdfrwt>
<totfact> 0.57722913E-01</totfact>
</mgrwt>
</event>
<event>
 6    1  0.9512547E-007  0.2934472E+04  0.7818608E-02  0.8262694E-01
          2   -1    0    0  501    0  0.00000000000E+00  0.00000000000E+00  0.14789833088E+04  0.14789833088E+04  0.00000000000E+00 0. -1.
         -2   -1    0    0    0  501 -0.00000000000E+00 -0.00000000000E+00 -0.14555815206E+04  0.14555815206E+04  0.00000000000E+00 0.  1.
         23    2    1    2    0    0 -0.59486715557E+03 -0.12917209536E+04  0.36713974305E+03  0.14714975936E+04  0.90020120341E+02 0.  0.
         13    1    3    3    0    0 -0.37045293035E+03 -0.83007149391E+03  0.19119283154E+03  0.92887499559E+03  0.00000000000E+00 0. -1.
        -13    1    3    3    0    0 -0.22441422521E+03 -0.46164945974E+03  0.17594691151E+03  0.54262259797E+03  0.00000000000E+00 0.  1.
         22    1    1    2    0    0  0.59486715557E+03  0.12917209536E+04 -0.34373795484E+03  0.14630672358E+04  0.00000000000E+00 0.  1.
<mgrwt>
<rscale>  0 0.29344715E+04</rscale>
<asrwt>0</asrwt>
<pdfrwt beam="1">  1        2 0.22753589E+00 0.29344715E+04</pdfrwt>
<pdfrwt beam="2">  1       -2 0.22393562E+00 0.29344715E+04</pdfrwt>
<totfact> 0.10480126E+00</totfact>
</mgrwt>
</event>
<event>
 6    1  0.9512547E-007  0.1775380E+04  0.7818608E-02  0.8719503E-01
         -2   -1    0    0    0  501 -0.00000000000E+00  0.00000000000E+00  0.12744770967E+04  0.12744770967E+04  0.00000000000E+00 0.  1.
          2   -1    0    0  501    0  0.00000000000E+00 -0.00000000000E+00 -0.61828785058E+03  0.61828785058E+03  0.00000000000E+00 0. -1.
         23    2    1    2    0    0 -0.80373064659E+03  0.72172788865E+02 -0.59441706112E+02  0.81419203667E+03  0.90462657678E+02 0.  0.
         11    1    3    3    0    0 -0.16107592219E+03 -0.15412161040E+02 -0.32461401307E+02  0.16503554160E+03  0.00000000000E+00 0.  1.
        -11    1    3    3    0    0 -0.64265472440E+03  0.87584949905E+02 -0.26980304805E+02  0.64915649507E+03  0.00000000000E+00 0. -1.
         22    1    1    2    0    0  0.80373064659E+03 -0.72172788865E+02  0.71563095227E+03  0.10785729106E+04  0.00000000000E+00 0. -1.
<mgrwt>
<rscale>  0 0.17753802E+04</rscale>
<asrwt>0</asrwt>
<pdfrwt beam="1">  1        2 0.95121208E-01 0.17753802E+04</pdfrwt>
<pdfrwt beam="2">  1       -2 0.19607340E+00 0.17753802E+04</pdfrwt>
<totfact> 0.63803415E+00</totfact>
</mgrwt>
</event>
<event>
 6    1  0.9512547E-007  0.1107032E+04  0.7818608E-02  0.9198365E-01
          2   -1    0    0  501    0  0.00000000000E+00  0.00000000000E+00  0.12164782467E+04  0.12164782467E+04  0.00000000000E+00 0. -1.
         -2   -1    0    0    0  501 -0.00000000000E+00 -0.00000000000E+00 -0.25185825603E+03  0.25185825603E+03  0.00000000000E+00 0.  1.
         23    2    1    2    0    0  0.32889899831E+03  0.36693469929E+03  0.15985205866E+03  0.52469088650E+03  0.83259960843E+02 0.  0.
         13    1    3    3    0    0  0.12040269722E+03  0.13001868074E+03  0.99990381746E+02  0.20346926865E+03  0.00000000000E+00 0.  1.
        -13    1    3    3    0    0  0.20849630109E+03  0.23691601855E+03  0.59861676910E+02  0.32122161785E+03  0.00000000000E+00 0. -1.
         22    1    1    2    0    0 -0.32889899831E+03 -0.36693469929E+03  0.80476793205E+03  0.94364561626E+03  0.00000000000E+00 0. -1.
<mgrwt>
<rscale>  0 0.11070322E+04</rscale>
<asrwt>0</asrwt>
<pdfrwt beam="1">  1        2 0.18715050E+00 0.11070322E+04</pdfrwt>
<pdfrwt beam="2">  1       -2 0.38747424E-01 0.11070322E+04</pdfrwt>
<totfact> 0.11556199E+02</totfact>
</mgrwt>
</event>
<event>
 6    1  0.9512547E-007  0.5308206E+04  0.7818608E-02  0.7782646E-01
         -3   -1    0    0    0  501 -0.00000000000E+00  0.00000000000E+00  0.30478537051E+04  0.30478537051E+04  0.00000000000E+00 0.  1.
          3   -1    0    0  501    0  0.00000000000E+00 -0.00000000000E+00 -0.23112209483E+04  0.23112209483E+04  0.00000000000E+00 0. -1.
         23    2    1    2    0    0  0.20350592111E+04  0.15443481535E+04 -0.35536998927E+03  0.25807753157E+04  0.87385290703E+02 0.  0.
         13    1    3    3    0    0  0.12872230927E+04  0.98042673519E+03 -0.26744467906E+03  0.16400324783E+04  0.00000000000E+00 0.  1.
        -13    1    3    3    0    0  0.74783611834E+03  0.56392141835E+03 -0.87925310213E+02  0.94074283741E+03  0.00000000000E+00 0. -1.
         22    1    1    2    0    0 -0.20350592111E+04 -0.15443481535E+04  0.10920027461E+04  0.27782993376E+04  0.00000000000E+00 0.  1.
<mgrwt>
<rscale>  0 0.53082062E+04</rscale>
<asrwt>0</asrwt>
<pdfrwt beam="1">  1        3 0.35557245E+00 0.53082062E+04</pdfrwt>
<pdfrwt beam="2">  1       -3 0.46890057E+00 0.53082062E+04</pdfrwt>
<totfact> 0.15578054E-04</totfact>
</mgrwt>
</event>
<event>
 6    1  0.9512547E-007  0.1862363E+04  0.7818608E-02  0.8673821E-01
          2   -1    0    0  501    0  0.00000000000E+00  0.00000000000E+00  0.28702219249E+04  0.28702219249E+04  0.00000000000E+00 0. -1.
         -2   -1    0    0    0  501 -0.00000000000E+00 -0.00000000000E+00 -0.30210178519E+03  0.30210178519E+03  0.00000000000E+00 0.  1.
         23    2    1    2    0    0  0.13210170908E+03  0.89478351094E+03  0.91896496121E+03  0.12914193543E+04  0.71964961062E+02 0.  0.
         13    1    3    3    0    0  0.10361261332E+03  0.47254412863E+03  0.50857292210E+03  0.70191163563E+03  0.00000000000E+00 0. -1.
        -13    1    3    3    0    0  0.28489095752E+02  0.42223938232E+03  0.41039203911E+03  0.58950771863E+03  0.00000000000E+00 0.  1.
         22    1    1    2    0    0 -0.13210170908E+03 -0.89478351094E+03  0.16491551785E+04  0.18809043558E+04  0.00000000000E+00 0. -1.
<mgrwt>
<rscale>  0 0.18623632E+04</rscale>
<asrwt>0</asrwt>
<pdfrwt beam="1">  1        2 0.44157258E+00 0.18623632E+04</pdfrwt>
<pdfrwt beam="2">  1       -2 0.46477200E-01 0.18623632E+04</pdfrwt>
<totfact> 0.86617933E+00</totfact>
</mgrwt>
</event>
<event>
 6    1  0.9512547E-007  0.2345494E+04  0.7818608E-02  0.8460196E-01
          1   -1    0    0  501    0  0.00000000000E+00  0.00000000000E+00  0.13686628599E+04  0.13686628599E+04  0.00000000000E+00 0. -1.
         -1   -1    0    0    0  501 -0.00000000000E+00 -0.00000000000E+00 -0.10048757112E+04  0.10048757112E+04  0.00000000000E+00 0.  1.
         23    2    1    2    0    0  0.71576678617E+03  0.26317679810E+03  0.10811885623E+04  0.13265195132E+04  0.95400170180E+02 0.  0.
         11    1    3    3    0    0  0.16983187255E+03  0.73665929710E+02  0.19794029517E+03  0.27101641018E+03  0.00000000000E+00 0.  1.
        -11    1    3    3    0    0  0.54593491362E+03  0.18951086839E+03  0.88324826713E+03  0.10555031030E+04  0.00000000000E+00 0. -1.
         22    1    1    2    0    0 -0.71576678617E+03 -0.26317679810E+03 -0.71740141358E+03  0.10470190578E+04  0.00000000000E+00 0.  1.
<mgrwt>
<rscale>  0 0.23454945E+04</rscale>
<asrwt>0</asrwt>
<pdfrwt beam="1">  1        1 0.21056352E+00 0.23454945E+04</pdfrwt>
<pdfrwt beam="2">  1       -1 0.15459626E+00 0.23454945E+04</pdfrwt>
<totfact> 0.23394735E+00</totfact>
</mgrwt>
</event>
<event>
 6    1  0.9512547E-007  0.5062327E+04  0.7818608E-02  0.7818964E-01
         -2   -1    0    0    0  501 -0.00000000000E+00  0.00000000000E+00  0.30320999155E+04  0.30320999155E+04  0.00000000000E+00 0.  1.
          2   -1    0    0  501    0  0.00000000000E+00 -0.00000000000E+00 -0.21129872877E+04  0.21129872877E+04  0.00000000000E+00 0. -1.
         23    2    1    2    0    0 -0.20592714760E+04 -0.24872852345E+03 -0.10132211294E+04  0.23102364771E+04  0.90059052211E+02 0.  0.
         13    1    3    3    0    0 -0.85569172799E+03 -0.14778206261E+03 -0.42966411341E+03  0.96884421954E+03  0.00000000000E+00 0.  1.
        -13    1    3    3    0    0 -0.12035797480E+04 -0.10094646084E+03 -0.58355701597E+03  0.13413922575E+04  0.00000000000E+00 0. -1.
         22    1    1    2    0    0  0.20592714760E+04  0.24872852345E+03  0.19323337572E+04  0.28348507261E+04  0.00000000000E+00 0.  1.
<mgrwt>
<rscale>  0 0.50623270E+04</rscale>
<asrwt>0</asrwt>
<pdfrwt beam="1">  1        2 0.32507497E+00 0.50623270E+04</pdfrwt>
<pdfrwt beam="2">  1       -2 0.46647691E+00 0.50623270E+04</pdfrwt>
<totfact> 0.11364354E-02</totfact>
</mgrwt>
</event>
<event>
 6    1  0.9512547E-007  0.1542493E+04  0.7818608E-02  0.8856677E-01
         -4   -1    0    0    0  501 -0.00000000000E+00  0.00000000000E+00  0.21556838028E+04  0.21556838028E+04  0.00000000000E+00 0.  1.
          4   -1    0    0  501    0  0.00000000000E+00 -0.00000000000E+00 -0.27593146722E+03  0.27593146722E+03  0.00000000000E+00 0. -1.
         23    2    1    2    0    0 -0.32450033091E+03  0.51607171150E+03  0.20544912184E+03  0.64978426577E+03  0.91541106630E+02 0.  0.
         11    1    3    3    0    0 -0.21151953625E+03  0.25154813954E+03  0.10242432654E+03  0.34424950746E+03  0.00000000000E+00 0. -1.
        -11    1    3    3    0    0 -0.11298079466E+03  0.26452357196E+03  0.10302479531E+03  0.30553475831E+03  0.00000000000E+00 0.  1.
         22    1    1    2    0    0  0.32450033091E+03 -0.51607171150E+03  0.16743032137E+04  0.17818310043E+04  0.00000000000E+00 0.  1.
<mgrwt>
<rscale>  0 0.15424928E+04</rscale>
<asrwt>0</asrwt>
<pdfrwt beam="1">  1        4 0.42450996E-01 0.15424928E+04</pdfrwt>
<pdfrwt beam="2">  1       -4 0.33164365E+00 0.15424928E+04</pdfrwt>
<totfact> 0.20476648E-01</totfact>
</mgrwt>
</event>
<event>
 6    1  0.9512547E-007  0.5779520E+03  0.7818608E-02  0.9952235E-01
          2   -1    0    0  501    0  0.00000000000E+00  0.00000000000E+00  0.50694001886E+03  0.50694001886E+03  0.00000000000E+00 0. -1.
         -2   -1    0    0    0  501 -0.00000000000E+00 -0.00000000000E+00 -0.16472780415E+03  0.16472780415E+03  0.00000000000E+00 0.  1.
         23    2    1    2    0    0  0.25222449638E+02 -0.28063949640E+03  0.16744778715E+03  0.34009987515E+03  0.90743951595E+02 0.  0.
         13    1    3    3    0    0  0.97539409953E+01 -0.26272836038E+03  0.17432727932E+03  0.31545416629E+03  0.00000000000E+00 0. -1.
        -13    1    3    3    0    0  0.15468508642E+02 -0.17911136015E+02 -0.68794921630E+01  0.24645708863E+02  0.00000000000E+00 0.  1.
         22    1    1    2    0    0 -0.25222449638E+02  0.28063949640E+03  0.17476442756E+03  0.33156794785E+03  0.00000000000E+00 0. -1.
<mgrwt>
<rscale>  0 0.57795196E+03</rscale>
<asrwt>0</asrwt>
<pdfrwt beam="1">  1        2 0.77990772E-01 0.57795196E+03</pdfrwt>
<pdfrwt beam="2">  1       -2 0.25342739E-01 0.57795196E+03</pdfrwt>
<totfact> 0.85095459E+02</totfact>
</mgrwt>
</event>
<event>
 6    1  0.9512547E-007  0.2450185E+04  0.7818608E-02  0.8420951E-01
         -2   -1    0    0    0  501 -0.00000000000E+00  0.00000000000E+00  0.17277863691E+04  0.17277863691E+04  0.00000000000E+00 0.  1.
          2   -1    0    0  501    0  0.00000000000E+00 -0.00000000000E+00 -0.86865563837E+03  0.86865563837E+03  0.00000000000E+00 0. -1.
         23    2    1    2    0    0  0.49953363747E+03  0.11167467843E+04  0.42897635124E+03  0.12996420902E+04  0.91605772403E+02 0.  0.
         13    1    3    3    0    0  0.19816319276E+03  0.40253073368E+03  0.11416674661E+03  0.46296186511E+03  0.00000000000E+00 0.  1.
        -13    1    3    3    0    0  0.30137044471E+03  0.71421605061E+03  0.31480960463E+03  0.83668022510E+03  0.00000000000E+00 0. -1.
         22    1    1    2    0    0 -0.49953363747E+03 -0.11167467843E+04  0.43015437948E+03  0.12967999172E+04  0.00000000000E+00 0.  1.
<mgrwt>
<rscale>  0 0.24501848E+04</rscale>
<asrwt>0</asrwt>
<pdfrwt beam="1">  1        2 0.13363933E+00 0.24501848E+04</pdfrwt>
<pdfrwt beam="2">  1       -2 0.26581329E+00 0.24501848E+04</pdfrwt>
<totfact> 0.14181444E+00</totfact>
</mgrwt>
</event>
<event>
 6    1  0.9512547E-007  0.1183609E+04  0.7818608E-02  0.9127325E-01
         -3   -1    0    0    0  501 -0.00000000000E+00  0.00000000000E+00  0.11112328828E+04  0.11112328828E+04  0.00000000000E+00 0.  1.
          3   -1    0    0  501    0  0.00000000000E+00 -0.00000000000E+00 -0.31517500598E+03  0.31517500598E+03  0.00000000000E+00 0. -1.
         23    2    1    2    0    0  0.15879546723E+03  0.18772473788E+03  0.10444507088E+04  0.10769002686E+04  0.91544130121E+02 0.  0.
         13    1    3    3    0    0  0.12285723959E+03  0.16070870995E+03  0.67317921290E+03  0.70291638440E+03  0.00000000000E+00 0. -1.
        -13    1    3    3    0    0  0.35938227641E+02  0.27016027931E+02  0.37127149589E+03  0.37398388419E+03  0.00000000000E+00 0.  1.
         22    1    1    2    0    0 -0.15879546723E+03 -0.18772473788E+03 -0.24839283195E+03  0.34950762022E+03  0.00000000000E+00 0. -1.
<mgrwt>
<rscale>  0 0.11836094E+04</rscale>
<asrwt>0</asrwt>
<pdfrwt beam="1">  1        3 0.48488463E-01 0.11836094E+04</pdfrwt>
<pdfrwt beam="2">  1       -3 0.17095890E+00 0.11836094E+04</pdfrwt>
<totfact> 0.24917597E+00</totfact>
</mgrwt>
</event>
<event>
 6    1  0.9512547E-007  0.4792505E+04  0.7818608E-02  0.7861338E-01
         -1   -1    0    0    0  501 -0.00000000000E+00  0.00000000000E+00  0.15281853282E+04  0.15281853282E+04  0.00000000000E+00 0.  1.
          1   -1    0    0  501    0  0.00000000000E+00 -0.00000000000E+00 -0.37574139531E+04  0.37574139531E+04  0.00000000000E+00 0. -1.
         23    2    1    2    0    0 -0.17225149148E+04 -0.14555678804E+04 -0.22446407692E+03  0.22681804541E+04  0.92319902115E+02 0.  0.
         11    1    3    3    0    0 -0.33871660441E+03 -0.29902204918E+03 -0.92472724470E+01  0.45191662511E+03  0.00000000000E+00 0. -1.
        -11    1    3    3    0    0 -0.13837983104E+04 -0.11565458312E+04 -0.21521680447E+03  0.18162638290E+04  0.00000000000E+00 0.  1.
         22    1    1    2    0    0  0.17225149148E+04  0.14555678804E+04 -0.20047645479E+04  0.30174188272E+04  0.00000000000E+00 0. -1.
<mgrwt>
<rscale>  0 0.47925045E+04</rscale>
<asrwt>0</asrwt>
<pdfrwt beam="1">  1        1 0.57806368E+00 0.47925045E+04</pdfrwt>
<pdfrwt beam="2">  1       -1 0.23510544E+00 0.47925045E+04</pdfrwt>
<totfact> 0.98917376E-03</totfact>
</mgrwt>
</event>
<event>
 6    1  0.9512547E-007  0.7456987E+03  0.7818608E-02  0.9642123E-01
          2   -1    0    0  501    0  0.00000000000E+00  0.00000000000E+00  0.48811988496E+03  0.48811988496E+03  0.00000000000E+00 0. -1.
         -2   -1    0    0    0  501 -0.00000000000E+00 -0.00000000000E+00 -0.28480020853E+03  0.28480020853E+03  0.00000000000E+00 0.  1.
         23    2    1    2    0    0  0.26621807802E+03  0.71313371591E+02  0.35439592981E+03  0.45862453773E+03  0.93714083822E+02 0.  0.
         11    1    3    3    0    0  0.95763132429E+02 -0.12441387340E+02  0.82759142817E+02  0.12717877721E+03  0.00000000000E+00 0.  1.
        -11    1    3    3    0    0  0.17045494560E+03  0.83754758931E+02  0.27163678699E+03  0.33144576052E+03  0.00000000000E+00 0. -1.
         22    1    1    2    0    0 -0.26621807802E+03 -0.71313371591E+02 -0.15107625338E+03  0.31429555576E+03  0.00000000000E+00 0.  1.
<mgrwt>
<rscale>  0 0.74569872E+03</rscale>
<asrwt>0</asrwt>
<pdfrwt beam="1">  1        2 0.75095367E-01 0.74569872E+03</pdfrwt>
<pdfrwt beam="2">  1       -2 0.43815417E-01 0.74569872E+03</pdfrwt>
<totfact> 0.31524869E+02</totfact>
</mgrwt>
</event>
<event>
 6    1  0.9512547E-007  0.1755225E+04  0.7818608E-02  0.8730479E-01
         -2   -1    0    0    0  501 -0.00000000000E+00  0.00000000000E+00  0.63302941939E+03  0.63302941939E+03  0.00000000000E+00 0.  1.
          2   -1    0    0  501    0  0.00000000000E+00 -0.00000000000E+00 -0.12166952975E+04  0.12166952975E+04  0.00000000000E+00 0. -1.
         23    2    1    2    0    0 -0.77538380619E+03  0.39950511508E+03 -0.36945409215E+03  0.95155375702E+03  0.90187817446E+02 0.  0.
         11    1    3    3    0    0 -0.56007365446E+03  0.25350706475E+03 -0.22999884158E+03  0.65638997359E+03  0.00000000000E+00 0. -1.
        -11    1    3    3    0    0 -0.21531015173E+03  0.14599805033E+03 -0.13945525057E+03  0.29516378343E+03  0.00000000000E+00 0.  1.
         22    1    1    2    0    0  0.77538380619E+03 -0.39950511508E+03 -0.21421178595E+03  0.89817095985E+03  0.00000000000E+00 0.  1.
<mgrwt>
<rscale>  0 0.17552252E+04</rscale>
<asrwt>0</asrwt>
<pdfrwt beam="1">  1        2 0.18718389E+00 0.17552252E+04</pdfrwt>
<pdfrwt beam="2">  1       -2 0.97389141E-01 0.17552252E+04</pdfrwt>
<totfact> 0.15422710E+01</totfact>
</mgrwt>
</event>
<event>
 6    1  0.9512547E-007  0.1482572E+04  0.7818608E-02  0.8896126E-01
          2   -1    0    0  501    0  0.00000000000E+00  0.00000000000E+00  0.92671806468E+03  0.92671806468E+03  0.00000000000E+00 0. -1.
         -2   -1    0    0    0  501 -0.00000000000E+00 -0.00000000000E+00 -0.59295777918E+03  0.59295777918E+03  0.00000000000E+00 0.  1.
         23    2    1    2    0    0  0.65633252948E+03  0.61524501890E+02 -0.17387739468E+03  0.68765801477E+03  0.89902966084E+02 0.  0.
         13    1    3    3    0    0  0.16322151309E+03 -0.17424343924E+02 -0.64910384782E+02  0.17651693446E+03  0.00000000000E+00 0.  1.
        -13    1    3    3    0    0  0.49311101639E+03  0.78948845814E+02 -0.10896700990E+03  0.51114108031E+03  0.00000000000E+00 0. -1.
         22    1    1    2    0    0 -0.65633252948E+03 -0.61524501890E+02  0.50763768018E+03  0.83201782909E+03  0.00000000000E+00 0. -1.
<mgrwt>
<rscale>  0 0.14825717E+04</rscale>
<asrwt>0</asrwt>
<pdfrwt beam="1">  1        2 0.14257201E+00 0.14825717E+04</pdfrwt>
<pdfrwt beam="2">  1       -2 0.91224273E-01 0.14825717E+04</pdfrwt>
<totfact> 0.27885672E+01</totfact>
</mgrwt>
</event>
<event>
 6    1  0.9512547E-007  0.3637718E+04  0.7818608E-02  0.8081906E-01
          2   -1    0    0  501    0  0.00000000000E+00  0.00000000000E+00  0.18824127099E+04  0.18824127099E+04  0.00000000000E+00 0. -1.
         -2   -1    0    0    0  501 -0.00000000000E+00 -0.00000000000E+00 -0.17574510643E+04  0.17574510643E+04  0.00000000000E+00 0.  1.
         23    2    1    2    0    0  0.72159656313E+02 -0.11551998182E+04 -0.13392878488E+04  0.17733911068E+04  0.10737988535E+03 0.  0.
         11    1    3    3    0    0  0.21567076530E+02 -0.79298771994E+02 -0.64305068219E+02  0.10434833889E+03  0.00000000000E+00 0.  1.
        -11    1    3    3    0    0  0.50592579784E+02 -0.10759010462E+04 -0.12749827806E+04  0.16690427680E+04  0.00000000000E+00 0. -1.
         22    1    1    2    0    0 -0.72159656313E+02  0.11551998182E+04  0.14642494945E+04  0.18664726674E+04  0.00000000000E+00 0. -1.
<mgrwt>
<rscale>  0 0.36377181E+04</rscale>
<asrwt>0</asrwt>
<pdfrwt beam="1">  1        2 0.28960196E+00 0.36377181E+04</pdfrwt>
<pdfrwt beam="2">  1       -2 0.27037709E+00 0.36377181E+04</pdfrwt>
<totfact> 0.30422862E-01</totfact>
</mgrwt>
</event>
<event>
 6    1  0.9512547E-007  0.2263157E+04  0.7818608E-02  0.8492591E-01
          1   -1    0    0  501    0  0.00000000000E+00  0.00000000000E+00  0.18611415443E+04  0.18611415443E+04  0.00000000000E+00 0. -1.
         -1   -1    0    0    0  501 -0.00000000000E+00 -0.00000000000E+00 -0.68800229788E+03  0.68800229788E+03  0.00000000000E+00 0.  1.
         23    2    1    2    0    0 -0.47019859509E+03  0.98313646354E+03  0.25059209058E+03  0.11213002655E+04  0.82908773431E+02 0.  0.
         13    1    3    3    0    0 -0.14571856087E+03  0.22241789752E+03  0.59168256419E+02  0.27240503425E+03  0.00000000000E+00 0. -1.
        -13    1    3    3    0    0 -0.32448003423E+03  0.76071856602E+03  0.19142383416E+03  0.84889523122E+03  0.00000000000E+00 0.  1.
         22    1    1    2    0    0  0.47019859509E+03 -0.98313646354E+03  0.92254715580E+03  0.14278435767E+04  0.00000000000E+00 0.  1.
<mgrwt>
<rscale>  0 0.22631568E+04</rscale>
<asrwt>0</asrwt>
<pdfrwt beam="1">  1        1 0.28632947E+00 0.22631568E+04</pdfrwt>
<pdfrwt beam="2">  1       -1 0.10584651E+00 0.22631568E+04</pdfrwt>
<totfact> 0.28045828E+00</totfact>
</mgrwt>
</event>
<event>
 6    1  0.9512547E-007  0.6006017E+04  0.7818608E-02  0.7689656E-01
          2   -1    0    0  501    0  0.00000000000E+00  0.00000000000E+00  0.27894930146E+04  0.27894930146E+04  0.00000000000E+00 0. -1.
         -2   -1    0    0    0  501 -0.00000000000E+00 -0.00000000000E+00 -0.32328667386E+04  0.32328667386E+04  0.00000000000E+00 0.  1.
         23    2    1    2    0    0  0.15304940034E+04  0.22175350796E+04 -0.15497533781E+04  0.31096377166E+04  0.90760518716E+02 0.  0.
         11    1    3    3    0    0  0.86614308594E+03  0.12318493011E+04 -0.91572768728E+03  0.17624453873E+04  0.00000000000E+00 0. -1.
        -11    1    3    3    0    0  0.66435091747E+03  0.98568577856E+03 -0.63402569080E+03  0.13471923293E+04  0.00000000000E+00 0.  1.
         22    1    1    2    0    0 -0.15304940034E+04 -0.22175350796E+04  0.11063796540E+04  0.29127220366E+04  0.00000000000E+00 0. -1.
<mgrwt>
<rscale>  0 0.60060167E+04</rscale>
<asrwt>0</asrwt>
<pdfrwt beam="1">  1        2 0.42915277E+00 0.60060167E+04</pdfrwt>
<pdfrwt beam="2">  1       -2 0.49736411E+00 0.60060167E+04</pdfrwt>
<totfact> 0.27341658E-03</totfact>
</mgrwt>
</event>
<event>
 6    1  0.9512547E-007  0.2623306E+04  0.7818608E-02  0.8360328E-01
          2   -1    0    0  501    0  0.00000000000E+00  0.00000000000E+00  0.91590473021E+03  0.91590473021E+03  0.00000000000E+00 0. -1.
         -2   -1    0    0    0  501 -0.00000000000E+00 -0.00000000000E+00 -0.18783978588E+04  0.18783978588E+04  0.00000000000E+00 0.  1.
         23    2    1    2    0    0 -0.83668116657E+03 -0.77899230085E+03 -0.11634492277E+04  0.16335925765E+04  0.90256420102E+02 0.  0.
         13    1    3    3    0    0 -0.25912592305E+03 -0.29321992113E+03 -0.36956602134E+03  0.53824084783E+03  0.00000000000E+00 0. -1.
        -13    1    3    3    0    0 -0.57755524353E+03 -0.48577237971E+03 -0.79388320631E+03  0.10953517287E+04  0.00000000000E+00 0.  1.
         22    1    1    2    0    0  0.83668116657E+03  0.77899230085E+03  0.20095609911E+03  0.11607100125E+04  0.00000000000E+00 0. -1.
<mgrwt>
<rscale>  0 0.26233059E+04</rscale>
<asrwt>0</asrwt>
<pdfrwt beam="1">  1        2 0.14090842E+00 0.26233059E+04</pdfrwt>
<pdfrwt beam="2">  1       -2 0.28898429E+00 0.26233059E+04</pdfrwt>
<totfact> 0.93740320E-01</totfact>
</mgrwt>
</event>
<event>
 6    1  0.9512547E-007  0.1093005E+04  0.7818608E-02  0.9212037E-01
         -3   -1    0    0    0  501 -0.00000000000E+00  0.00000000000E+00  0.11649901200E+03  0.11649901200E+03  0.00000000000E+00 0.  1.
          3   -1    0    0  501    0  0.00000000000E+00 -0.00000000000E+00 -0.25636692348E+04  0.25636692348E+04  0.00000000000E+00 0. -1.
         23    2    1    2    0    0 -0.68915462609E+02 -0.40952856197E+03 -0.20885559311E+04  0.21314723435E+04  0.92981126521E+02 0.  0.
         13    1    3    3    0    0  0.79268341557E+01 -0.20950165491E+03 -0.11263714038E+04  0.11457165083E+04  0.00000000000E+00 0.  1.
        -13    1    3    3    0    0 -0.76842296765E+02 -0.20002690706E+03 -0.96218452727E+03  0.98575583520E+03  0.00000000000E+00 0. -1.
         22    1    1    2    0    0  0.68915462609E+02  0.40952856197E+03 -0.35861429172E+03  0.54869590328E+03  0.00000000000E+00 0.  1.
<mgrwt>
<rscale>  0 0.10930049E+04</rscale>
<asrwt>0</asrwt>
<pdfrwt beam="1">  1        3 0.39441063E+00 0.10930049E+04</pdfrwt>
<pdfrwt beam="2">  1       -3 0.17922926E-01 0.10930049E+04</pdfrwt>
<totfact> 0.88736381E-01</totfact>
</mgrwt>
</event>
<event>
 6    1  0.9512547E-007  0.2752303E+04  0.7818608E-02  0.8318231E-01
         -2   -1    0    0    0  501 -0.00000000000E+00  0.00000000000E+00  0.92319427000E+03  0.92319427000E+03  0.00000000000E+00 0.  1.
          2   -1    0    0  501    0  0.00000000000E+00 -0.00000000000E+00 -0.20513481272E+04  0.20513481272E+04  0.00000000000E+00 0. -1.
         23    2    1    2    0    0  0.10850123401E+04 -0.68851624741E+03 -0.10935385522E+04  0.16890445868E+04  0.75753877794E+02 0.  0.
         13    1    3    3    0    0  0.35376864965E+02 -0.29851658611E+02 -0.57526580747E+02  0.73837331947E+02  0.00000000000E+00 0.  1.
        -13    1    3    3    0    0  0.10496354752E+04 -0.65866458880E+03 -0.10360119714E+04  0.16152072549E+04  0.00000000000E+00 0. -1.
         22    1    1    2    0    0 -0.10850123401E+04  0.68851624741E+03 -0.34615305019E+02  0.12854978104E+04  0.00000000000E+00 0.  1.
<mgrwt>
<rscale>  0 0.27523029E+04</rscale>
<asrwt>0</asrwt>
<pdfrwt beam="1">  1        2 0.31559202E+00 0.27523029E+04</pdfrwt>
<pdfrwt beam="2">  1       -2 0.14202989E+00 0.27523029E+04</pdfrwt>
<totfact> 0.18903587E+00</totfact>
</mgrwt>
</event>
<event>
 6    1  0.9512547E-007  0.1720928E+04  0.7818608E-02  0.8749518E-01
          2   -1    0    0  501    0  0.00000000000E+00  0.00000000000E+00  0.20288994753E+04  0.20288994753E+04  0.00000000000E+00 0. -1.
         -2   -1    0    0    0  501 -0.00000000000E+00 -0.00000000000E+00 -0.36492600655E+03  0.36492600655E+03  0.00000000000E+00 0.  1.
         23    2    1    2    0    0  0.61165058830E+03 -0.13924410334E+03  0.19967014830E+02  0.63420547087E+03  0.91173105256E+02 0.  0.
         13    1    3    3    0    0  0.35881230323E+03 -0.67876744257E+02 -0.31363410159E+02  0.36652037441E+03  0.00000000000E+00 0. -1.
        -13    1    3    3    0    0  0.25283828507E+03 -0.71367359083E+02  0.51330424989E+02  0.26768509646E+03  0.00000000000E+00 0.  1.
         22    1    1    2    0    0 -0.61165058830E+03  0.13924410334E+03  0.16440064539E+04  0.17596200110E+04  0.00000000000E+00 0.  1.
<mgrwt>
<rscale>  0 0.17209279E+04</rscale>
<asrwt>0</asrwt>
<pdfrwt beam="1">  1        2 0.31213837E+00 0.17209279E+04</pdfrwt>
<pdfrwt beam="2">  1       -2 0.56142464E-01 0.17209279E+04</pdfrwt>
<totfact> 0.18219058E+01</totfact>
</mgrwt>
</event>
<event>
 6    1  0.9512547E-007  0.3811524E+04  0.7818608E-02  0.8043686E-01
          2   -1    0    0  501    0  0.00000000000E+00  0.00000000000E+00  0.26112804629E+04  0.26112804629E+04  0.00000000000E+00 0. -1.
         -2   -1    0    0    0  501 -0.00000000000E+00 -0.00000000000E+00 -0.13908614698E+04  0.13908614698E+04  0.00000000000E+00 0.  1.
         23    2    1    2    0    0  0.12585609471E+04  0.66122293049E+03  0.19414774125E+04  0.24080538971E+04  0.90540634667E+02 0.  0.
         13    1    3    3    0    0  0.88721867726E+03  0.43352048393E+03  0.12954679442E+04  0.16289058247E+04  0.00000000000E+00 0.  1.
        -13    1    3    3    0    0  0.37134226985E+03  0.22770244656E+03  0.64600946835E+03  0.77914807242E+03  0.00000000000E+00 0. -1.
         22    1    1    2    0    0 -0.12585609471E+04 -0.66122293049E+03 -0.72105841941E+03  0.15940880357E+04  0.00000000000E+00 0.  1.
<mgrwt>
<rscale>  0 0.38115243E+04</rscale>
<asrwt>0</asrwt>
<pdfrwt beam="1">  1        2 0.40173546E+00 0.38115243E+04</pdfrwt>
<pdfrwt beam="2">  1       -2 0.21397869E+00 0.38115243E+04</pdfrwt>
<totfact> 0.25917207E-01</totfact>
</mgrwt>
</event>
<event>
 6    1  0.9512547E-007  0.4196305E+04  0.7818608E-02  0.7966075E-01
         -1   -1    0    0    0  501 -0.00000000000E+00  0.00000000000E+00  0.16980887779E+04  0.16980887779E+04  0.00000000000E+00 0.  1.
          1   -1    0    0  501    0  0.00000000000E+00 -0.00000000000E+00 -0.25924698323E+04  0.25924698323E+04  0.00000000000E+00 0. -1.
         23    2    1    2    0    0 -0.17988696018E+04 -0.58977269311E+03 -0.13704271333E+04  0.23385382356E+04  0.83227867124E+02 0.  0.
         13    1    3    3    0    0 -0.13552505853E+04 -0.46038900913E+03 -0.99550489604E+03  0.17434713037E+04  0.00000000000E+00 0.  1.
        -13    1    3    3    0    0 -0.44361901642E+03 -0.12938368398E+03 -0.37492223730E+03  0.59506693190E+03  0.00000000000E+00 0. -1.
         22    1    1    2    0    0  0.17988696018E+04  0.58977269311E+03  0.47604607893E+03  0.19520203746E+04  0.00000000000E+00 0.  1.
<mgrwt>
<rscale>  0 0.41963050E+04</rscale>
<asrwt>0</asrwt>
<pdfrwt beam="1">  1        1 0.39884151E+00 0.41963050E+04</pdfrwt>
<pdfrwt beam="2">  1       -1 0.26124443E+00 0.41963050E+04</pdfrwt>
<totfact> 0.52979366E-02</totfact>
</mgrwt>
</event>
<event>
 6    1  0.9512547E-007  0.2164434E+04  0.7818608E-02  0.8533379E-01
         -1   -1    0    0    0  501 -0.00000000000E+00  0.00000000000E+00  0.10734565367E+04  0.10734565367E+04  0.00000000000E+00 0.  1.
          1   -1    0    0  501    0  0.00000000000E+00 -0.00000000000E+00 -0.10910493914E+04  0.10910493914E+04  0.00000000000E+00 0. -1.
         23    2    1    2    0    0 -0.40502611694E+03  0.51182146842E+03 -0.86952587008E+03  0.10912877613E+04  0.93948753773E+02 0.  0.
         11    1    3    3    0    0 -0.19322130974E+03  0.31283160683E+03 -0.51691415822E+03  0.63434874930E+03  0.00000000000E+00 0.  1.
        -11    1    3    3    0    0 -0.21180480720E+03  0.19898986159E+03 -0.35261171187E+03  0.45693901203E+03  0.00000000000E+00 0. -1.
         22    1    1    2    0    0  0.40502611694E+03 -0.51182146842E+03  0.85193301532E+03  0.10732181668E+04  0.00000000000E+00 0.  1.
<mgrwt>
<rscale>  0 0.21644344E+04</rscale>
<asrwt>0</asrwt>
<pdfrwt beam="1">  1        1 0.16785375E+00 0.21644344E+04</pdfrwt>
<pdfrwt beam="2">  1       -1 0.16514716E+00 0.21644344E+04</pdfrwt>
<totfact> 0.31483465E+00</totfact>
</mgrwt>
</event>
<event>
 6    1  0.9512547E-007  0.1296680E+04  0.7818608E-02  0.9032202E-01
         -1   -1    0    0    0  501 -0.00000000000E+00  0.00000000000E+00  0.85001400251E+03  0.85001400251E+03  0.00000000000E+00 0.  1.
          1   -1    0    0  501    0  0.00000000000E+00 -0.00000000000E+00 -0.49451539018E+03  0.49451539018E+03  0.00000000000E+00 0. -1.
         23    2    1    2    0    0 -0.61397876568E+02 -0.64210534634E+03  0.16481619806E+03  0.67190114607E+03  0.90652059510E+02 0.  0.
         13    1    3    3    0    0  0.86743267876E+01 -0.37450398349E+03  0.10180849753E+03  0.38819253955E+03  0.00000000000E+00 0.  1.
        -13    1    3    3    0    0 -0.70072203356E+02 -0.26760136285E+03  0.63007700528E+02  0.28370860651E+03  0.00000000000E+00 0. -1.
         22    1    1    2    0    0  0.61397876568E+02  0.64210534634E+03  0.19068241426E+03  0.67262824663E+03  0.00000000000E+00 0. -1.
<mgrwt>
<rscale>  0 0.12966804E+04</rscale>
<asrwt>0</asrwt>
<pdfrwt beam="1">  1        1 0.76079291E-01 0.12966804E+04</pdfrwt>
<pdfrwt beam="2">  1       -1 0.13077138E+00 0.12966804E+04</pdfrwt>
<totfact> 0.22102411E+01</totfact>
</mgrwt>
</event>
<event>
 6    1  0.9512547E-007  0.1321462E+04  0.7818608E-02  0.9012717E-01
          2   -1    0    0  501    0  0.00000000000E+00  0.00000000000E+00  0.17248923858E+04  0.17248923858E+04  0.00000000000E+00 0. -1.
         -2   -1    0    0    0  501 -0.00000000000E+00 -0.00000000000E+00 -0.25309705718E+03  0.25309705718E+03  0.00000000000E+00 0.  1.
         23    2    1    2    0    0 -0.22817837930E+03 -0.22291345049E+03 -0.12156295468E+03  0.35301362834E+03  0.89918244285E+02 0.  0.
         13    1    3    3    0    0 -0.18252257090E+03 -0.21025437617E+03 -0.79235756914E+02  0.28948177276E+03  0.00000000000E+00 0. -1.
        -13    1    3    3    0    0 -0.45655808398E+02 -0.12659074322E+02 -0.42327197762E+02  0.63531855581E+02  0.00000000000E+00 0.  1.
         22    1    1    2    0    0  0.22817837930E+03  0.22291345049E+03  0.15933582833E+04  0.16249758146E+04  0.00000000000E+00 0. -1.
<mgrwt>
<rscale>  0 0.13214616E+04</rscale>
<asrwt>0</asrwt>
<pdfrwt beam="1">  1        2 0.26536805E+00 0.13214616E+04</pdfrwt>
<pdfrwt beam="2">  1       -2 0.38938010E-01 0.13214616E+04</pdfrwt>
<totfact> 0.57950122E+01</totfact>
</mgrwt>
</event>
<event>
 6    1  0.9512547E-007  0.3521711E+04  0.7818608E-02  0.8108664E-01
          1   -1    0    0  501    0  0.00000000000E+00  0.00000000000E+00  0.11955581558E+04  0.11955581558E+04  0.00000000000E+00 0. -1.
         -1   -1    0    0    0  501 -0.00000000000E+00 -0.00000000000E+00 -0.25934436842E+04  0.25934436842E+04  0.00000000000E+00 0.  1.
         23    2    1    2    0    0  0.91964280936E+03  0.12525254363E+04  0.18904418109E+03  0.15679865838E+04  0.91001974598E+02 0.  0.
         13    1    3    3    0    0  0.42425967983E+03  0.55524006403E+03  0.41460358187E+02  0.70000483280E+03  0.00000000000E+00 0. -1.
        -13    1    3    3    0    0  0.49538312953E+03  0.69728537224E+03  0.14758382291E+03  0.86798175104E+03  0.00000000000E+00 0.  1.
         22    1    1    2    0    0 -0.91964280936E+03 -0.12525254363E+04 -0.15869297095E+04  0.22210152562E+04  0.00000000000E+00 0.  1.
<mgrwt>
<rscale>  0 0.35217114E+04</rscale>
<asrwt>0</asrwt>
<pdfrwt beam="1">  1        1 0.18393203E+00 0.35217114E+04</pdfrwt>
<pdfrwt beam="2">  1       -1 0.39899133E+00 0.35217114E+04</pdfrwt>
<totfact> 0.63669077E-02</totfact>
</mgrwt>
</event>
<event>
 6    1  0.9512547E-007  0.2234173E+04  0.7818608E-02  0.8504338E-01
         -1   -1    0    0    0  501 -0.00000000000E+00  0.00000000000E+00  0.71843855432E+03  0.71843855432E+03  0.00000000000E+00 0.  1.
          1   -1    0    0  501    0  0.00000000000E+00 -0.00000000000E+00 -0.17369372990E+04  0.17369372990E+04  0.00000000000E+00 0. -1.
         23    2    1    2    0    0  0.39316034908E+03 -0.79972776038E+03  0.22699196475E+03  0.92391032708E+03  0.89136914964E+02 0.  0.
         13    1    3    3    0    0  0.37967002791E+03 -0.74960313698E+03  0.19390384215E+03  0.86235311391E+03  0.00000000000E+00 0. -1.
        -13    1    3    3    0    0  0.13490321168E+02 -0.50124623397E+02  0.33088122598E+02  0.61557213168E+02  0.00000000000E+00 0.  1.
         22    1    1    2    0    0 -0.39316034908E+03  0.79972776038E+03 -0.12454907095E+04  0.15314655263E+04  0.00000000000E+00 0. -1.
<mgrwt>
<rscale>  0 0.22341734E+04</rscale>
<asrwt>0</asrwt>
<pdfrwt beam="1">  1        1 0.26722112E+00 0.22341734E+04</pdfrwt>
<pdfrwt beam="2">  1       -1 0.11052901E+00 0.22341734E+04</pdfrwt>
<totfact> 0.30844143E+00</totfact>
</mgrwt>
</event>
<event>
 6    1  0.9512547E-007  0.1251075E+04  0.7818608E-02  0.9069289E-01
         -2   -1    0    0    0  501 -0.00000000000E+00  0.00000000000E+00  0.61159157157E+03  0.61159157157E+03  0.00000000000E+00 0.  1.
          2   -1    0    0  501    0  0.00000000000E+00 -0.00000000000E+00 -0.63980148703E+03  0.63980148703E+03  0.00000000000E+00 0. -1.
         23    2    1    2    0    0  0.42162477532E+03 -0.29155512225E+03 -0.36691596044E+03  0.63698795985E+03  0.91402945809E+02 0.  0.
         11    1    3    3    0    0  0.14519401331E+03 -0.94949486356E+02 -0.73247355092E+02  0.18831325362E+03  0.00000000000E+00 0. -1.
        -11    1    3    3    0    0  0.27643076201E+03 -0.19660563589E+03 -0.29366860535E+03  0.44867470624E+03  0.00000000000E+00 0.  1.
         22    1    1    2    0    0 -0.42162477532E+03  0.29155512225E+03  0.33870604498E+03  0.61440509875E+03  0.00000000000E+00 0.  1.
<mgrwt>
<rscale>  0 0.12510751E+04</rscale>
<asrwt>0</asrwt>
<pdfrwt beam="1">  1        2 0.98430998E-01 0.12510751E+04</pdfrwt>
<pdfrwt beam="2">  1       -2 0.94091011E-01 0.12510751E+04</pdfrwt>
<totfact> 0.42994790E+01</totfact>
</mgrwt>
</event>
<event>
 6    1  0.9512547E-007  0.4486904E+03  0.7818608E-02  0.1028113E+00
          1   -1    0    0  501    0  0.00000000000E+00  0.00000000000E+00  0.18651950803E+03  0.18651950803E+03  0.00000000000E+00 0. -1.
         -1   -1    0    0    0  501 -0.00000000000E+00 -0.00000000000E+00 -0.26984188761E+03  0.26984188761E+03  0.00000000000E+00 0.  1.
         23    2    1    2    0    0  0.10684039293E+03 -0.11180452104E+03  0.10836497433E+03  0.21007058757E+03  0.92041097420E+02 0.  0.
         11    1    3    3    0    0  0.61482518460E+01 -0.19827141399E+02  0.63022452131E+02  0.66353191403E+02  0.00000000000E+00 0. -1.
        -11    1    3    3    0    0  0.10069214109E+03 -0.91977379643E+02  0.45342522202E+02  0.14371739617E+03  0.00000000000E+00 0.  1.
         22    1    1    2    0    0 -0.10684039293E+03  0.11180452104E+03 -0.19168735392E+03  0.24629080807E+03  0.00000000000E+00 0.  1.
<mgrwt>
<rscale>  0 0.44869043E+03</rscale>
<asrwt>0</asrwt>
<pdfrwt beam="1">  1        1 0.28695309E-01 0.44869043E+03</pdfrwt>
<pdfrwt beam="2">  1       -1 0.41514136E-01 0.44869043E+03</pdfrwt>
<totfact> 0.92955073E+02</totfact>
</mgrwt>
</event>
<event>
 6    1  0.9512547E-007  0.4382726E+04  0.7818608E-02  0.7931496E-01
          2   -1    0    0  501    0  0.00000000000E+00  0.00000000000E+00  0.29993279860E+04  0.29993279860E+04  0.00000000000E+00 0. -1.
         -2   -1    0    0    0  501 -0.00000000000E+00 -0.00000000000E+00 -0.16010489607E+04  0.16010489607E+04  0.00000000000E+00 0.  1.
         23    2    1    2    0    0  0.15686264043E+04  0.15014819062E+04  0.39737753326E+03  0.22093854143E+04  0.91860186915E+02 0.  0.
         13    1    3    3    0    0  0.70945557670E+03  0.62250674499E+03  0.15221714533E+03  0.95603970744E+03  0.00000000000E+00 0. -1.
        -13    1    3    3    0    0  0.85917082764E+03  0.87897516124E+03  0.24516038794E+03  0.12533457069E+04  0.00000000000E+00 0.  1.
         22    1    1    2    0    0 -0.15686264043E+04 -0.15014819062E+04  0.10009014920E+04  0.23909915323E+04  0.00000000000E+00 0. -1.
<mgrwt>
<rscale>  0 0.43827256E+04</rscale>
<asrwt>0</asrwt>
<pdfrwt beam="1">  1        2 0.46143507E+00 0.43827256E+04</pdfrwt>
<pdfrwt beam="2">  1       -2 0.24631522E+00 0.43827256E+04</pdfrwt>
<totfact> 0.90217322E-02</totfact>
</mgrwt>
</event>
<event>
 6    1  0.9512547E-007  0.2458701E+04  0.7818608E-02  0.8417848E-01
          2   -1    0    0  501    0  0.00000000000E+00  0.00000000000E+00  0.77145539666E+03  0.77145539666E+03  0.00000000000E+00 0. -1.
         -2   -1    0    0    0  501 -0.00000000000E+00 -0.00000000000E+00 -0.19590285592E+04  0.19590285592E+04  0.00000000000E+00 0.  1.
         23    2    1    2    0    0  0.11842045747E+04 -0.77226379935E+02 -0.24528666559E+03  0.12151594920E+04  0.90236656182E+02 0.  0.
         11    1    3    3    0    0  0.10679343479E+04 -0.66246608708E+02 -0.19322771046E+03  0.10872945014E+04  0.00000000000E+00 0. -1.
        -11    1    3    3    0    0  0.11627022678E+03 -0.10979771228E+02 -0.52058955125E+02  0.12786499060E+03  0.00000000000E+00 0.  1.
         22    1    1    2    0    0 -0.11842045747E+04  0.77226379935E+02 -0.94228649691E+03  0.15153244639E+04  0.00000000000E+00 0. -1.
<mgrwt>
<rscale>  0 0.24587014E+04</rscale>
<asrwt>0</asrwt>
<pdfrwt beam="1">  1        2 0.11868544E+00 0.24587014E+04</pdfrwt>
<pdfrwt beam="2">  1       -2 0.30138901E+00 0.24587014E+04</pdfrwt>
<totfact> 0.10083313E+00</totfact>
</mgrwt>
</event>
<event>
 6    1  0.9512547E-007  0.2861662E+04  0.7818608E-02  0.8284376E-01
         -2   -1    0    0    0  501 -0.00000000000E+00  0.00000000000E+00  0.53256597537E+03  0.53256597537E+03  0.00000000000E+00 0.  1.
          2   -1    0    0  501    0  0.00000000000E+00 -0.00000000000E+00 -0.38441765481E+04  0.38441765481E+04  0.00000000000E+00 0. -1.
         23    2    1    2    0    0 -0.53741988052E+03  0.11582320248E+04 -0.67457980218E+03  0.14468529631E+04  0.89465278091E+02 0.  0.
         13    1    3    3    0    0 -0.20650723163E+03  0.50873419419E+03 -0.25010549679E+03  0.60333115002E+03  0.00000000000E+00 0. -1.
        -13    1    3    3    0    0 -0.33091264889E+03  0.64949783061E+03 -0.42447430539E+03  0.84352181306E+03  0.00000000000E+00 0.  1.
         22    1    1    2    0    0  0.53741988052E+03 -0.11582320248E+04 -0.26370307705E+04  0.29298895604E+04  0.00000000000E+00 0. -1.
<mgrwt>
<rscale>  0 0.28616622E+04</rscale>
<asrwt>0</asrwt>
<pdfrwt beam="1">  1        2 0.59141179E+00 0.28616622E+04</pdfrwt>
<pdfrwt beam="2">  1       -2 0.81933226E-01 0.28616622E+04</pdfrwt>
<totfact> 0.51517715E-01</totfact>
</mgrwt>
</event>
<event>
 6    1  0.9512547E-007  0.1252525E+04  0.7818608E-02  0.9068085E-01
          1   -1    0    0  501    0  0.00000000000E+00  0.00000000000E+00  0.88844560797E+03  0.88844560797E+03  0.00000000000E+00 0. -1.
         -1   -1    0    0    0  501 -0.00000000000E+00 -0.00000000000E+00 -0.44145026817E+03  0.44145026817E+03  0.00000000000E+00 0.  1.
         23    2    1    2    0    0  0.16744212168E+03  0.19250176359E+03 -0.37785454390E+03  0.46648917954E+03  0.98713247220E+02 0.  0.
         13    1    3    3    0    0  0.55637172810E+02  0.58138254651E+02 -0.49414453524E+02  0.94431667725E+02  0.00000000000E+00 0. -1.
        -13    1    3    3    0    0  0.11180494887E+03  0.13436350894E+03 -0.32844009038E+03  0.37205751181E+03  0.00000000000E+00 0.  1.
         22    1    1    2    0    0 -0.16744212168E+03 -0.19250176359E+03  0.82484988371E+03  0.86340669661E+03  0.00000000000E+00 0. -1.
<mgrwt>
<rscale>  0 0.12525247E+04</rscale>
<asrwt>0</asrwt>
<pdfrwt beam="1">  1        1 0.13668394E+00 0.12525247E+04</pdfrwt>
<pdfrwt beam="2">  1       -1 0.67915426E-01 0.12525247E+04</pdfrwt>
<totfact> 0.40265134E+01</totfact>
</mgrwt>
</event>
<event>
 6    1  0.9512547E-007  0.1683733E+04  0.7818608E-02  0.8770697E-01
          1   -1    0    0  501    0  0.00000000000E+00  0.00000000000E+00  0.24259655885E+04  0.24259655885E+04  0.00000000000E+00 0. -1.
         -1   -1    0    0    0  501 -0.00000000000E+00 -0.00000000000E+00 -0.29214726500E+03  0.29214726500E+03  0.00000000000E+00 0.  1.
         23    2    1    2    0    0 -0.23005397772E+03  0.78445614595E+03  0.76166246918E+03  0.11208940313E+04  0.89316486546E+02 0.  0.
         11    1    3    3    0    0 -0.22693723691E+03  0.68604206658E+03  0.64895891868E+03  0.97123730609E+03  0.00000000000E+00 0.  1.
        -11    1    3    3    0    0 -0.31167408064E+01  0.98414079374E+02  0.11270355050E+03  0.14965672516E+03  0.00000000000E+00 0. -1.
         22    1    1    2    0    0  0.23005397772E+03 -0.78445614595E+03  0.13721558543E+04  0.15972188222E+04  0.00000000000E+00 0.  1.
<mgrwt>
<rscale>  0 0.16837330E+04</rscale>
<asrwt>0</asrwt>
<pdfrwt beam="1">  1        1 0.37322546E+00 0.16837330E+04</pdfrwt>
<pdfrwt beam="2">  1       -1 0.44945735E-01 0.16837330E+04</pdfrwt>
<totfact> 0.71401088E+00</totfact>
</mgrwt>
</event>
<event>
 6    1  0.9512547E-007  0.9794909E+03  0.7818608E-02  0.9331329E-01
          2   -1    0    0  501    0  0.00000000000E+00  0.00000000000E+00  0.12519952719E+04  0.12519952719E+04  0.00000000000E+00 0. -1.
         -2   -1    0    0    0  501 -0.00000000000E+00 -0.00000000000E+00 -0.19157470640E+03  0.19157470640E+03  0.00000000000E+00 0.  1.
         23    2    1    2    0    0  0.34934534506E+03  0.17804163179E+03  0.11260446400E+03  0.41785249525E+03  0.90443074436E+02 0.  0.
         11    1    3    3    0    0  0.19442316027E+03  0.11764337295E+03  0.10776492974E+03  0.25150270084E+03  0.00000000000E+00 0.  1.
        -11    1    3    3    0    0  0.15492218478E+03  0.60398258839E+02  0.48395342679E+01  0.16634979441E+03  0.00000000000E+00 0. -1.
         22    1    1    2    0    0 -0.34934534506E+03 -0.17804163179E+03  0.94781610145E+03  0.10257174830E+04  0.00000000000E+00 0. -1.
<mgrwt>
<rscale>  0 0.97949094E+03</rscale>
<asrwt>0</asrwt>
<pdfrwt beam="1">  1        2 0.19261465E+00 0.97949094E+03</pdfrwt>
<pdfrwt beam="2">  1       -2 0.29473033E-01 0.97949094E+03</pdfrwt>
<totfact> 0.18657363E+02</totfact>
</mgrwt>
</event>
<event>
 6    1  0.9512547E-007  0.1496570E+04  0.7818608E-02  0.8886737E-01
          1   -1    0    0  501    0  0.00000000000E+00  0.00000000000E+00  0.47757967223E+03  0.47757967223E+03  0.00000000000E+00 0. -1.
         -1   -1    0    0    0  501 -0.00000000000E+00 -0.00000000000E+00 -0.11724335981E+04  0.11724335981E+04  0.00000000000E+00 0.  1.
         23    2    1    2    0    0 -0.50185533799E+03 -0.46204618324E+03 -0.68027528316E+03  0.96769516814E+03  0.91181258227E+02 0.  0.
         11    1    3    3    0    0 -0.24467588202E+03 -0.28631763132E+03 -0.38147119777E+03  0.53606375365E+03  0.00000000000E+00 0.  1.
        -11    1    3    3    0    0 -0.25717945597E+03 -0.17572855192E+03 -0.29880408539E+03  0.43163141450E+03  0.00000000000E+00 0. -1.
         22    1    1    2    0    0  0.50185533799E+03  0.46204618324E+03 -0.14578642684E+02  0.68231810216E+03  0.00000000000E+00 0. -1.
<mgrwt>
<rscale>  0 0.14965700E+04</rscale>
<asrwt>0</asrwt>
<pdfrwt beam="1">  1        1 0.73473796E-01 0.14965700E+04</pdfrwt>
<pdfrwt beam="2">  1       -1 0.18037440E+00 0.14965700E+04</pdfrwt>
<totfact> 0.94473478E+00</totfact>
</mgrwt>
</event>
<event>
 6    1  0.9512547E-007  0.2167779E+04  0.7818608E-02  0.8531960E-01
         -2   -1    0    0    0  501 -0.00000000000E+00  0.00000000000E+00  0.71795573895E+03  0.71795573895E+03  0.00000000000E+00 0.  1.
          2   -1    0    0  501    0  0.00000000000E+00 -0.00000000000E+00 -0.16363351706E+04  0.16363351706E+04  0.00000000000E+00 0. -1.
         23    2    1    2    0    0  0.48198487511E+03 -0.91224061904E+03 -0.10651696227E+03  0.10414264702E+04  0.93439085977E+02 0.  0.
         13    1    3    3    0    0  0.78567754332E+02 -0.15988753842E+03  0.16547190062E+02  0.17891541706E+03  0.00000000000E+00 0. -1.
        -13    1    3    3    0    0  0.40341712078E+03 -0.75235308062E+03 -0.12306415233E+03  0.86251105317E+03  0.00000000000E+00 0.  1.
         22    1    1    2    0    0 -0.48198487511E+03  0.91224061904E+03 -0.81186246939E+03  0.13128644393E+04  0.00000000000E+00 0. -1.
<mgrwt>
<rscale>  0 0.21677788E+04</rscale>
<asrwt>0</asrwt>
<pdfrwt beam="1">  1        2 0.25174387E+00 0.21677788E+04</pdfrwt>
<pdfrwt beam="2">  1       -2 0.11045473E+00 0.21677788E+04</pdfrwt>
<totfact> 0.63448500E+00</totfact>
</mgrwt>
</event>
<event>
 6    1  0.9512547E-007  0.4156200E+04  0.7818608E-02  0.7973757E-01
         -2   -1    0    0    0  501 -0.00000000000E+00  0.00000000000E+00  0.22508648671E+04  0.22508648671E+04  0.00000000000E+00 0.  1.
          2   -1    0    0  501    0  0.00000000000E+00 -0.00000000000E+00 -0.19185957622E+04  0.19185957622E+04  0.00000000000E+00 0. -1.
         23    2    1    2    0    0  0.88387008190E+03 -0.37211666037E+03  0.20145984650E+04  0.22329872352E+04  0.89038681093E+02 0.  0.
         11    1    3    3    0    0  0.39591722698E+03 -0.19265889545E+03  0.10109023730E+04  0.11026293613E+04  0.00000000000E+00 0.  1.
        -11    1    3    3    0    0  0.48795285492E+03 -0.17945776492E+03  0.10036960920E+04  0.11303578739E+04  0.00000000000E+00 0. -1.
         22    1    1    2    0    0 -0.88387008190E+03  0.37211666037E+03 -0.16823293600E+04  0.19364733941E+04  0.00000000000E+00 0. -1.
<mgrwt>
<rscale>  0 0.41562001E+04</rscale>
<asrwt>0</asrwt>
<pdfrwt beam="1">  1        2 0.29516858E+00 0.41562001E+04</pdfrwt>
<pdfrwt beam="2">  1       -2 0.34628690E+00 0.41562001E+04</pdfrwt>
<totfact> 0.94828073E-02</totfact>
</mgrwt>
</event>
<event>
 6    1  0.9512547E-007  0.7460636E+03  0.7818608E-02  0.9641546E-01
          2   -1    0    0  501    0  0.00000000000E+00  0.00000000000E+00  0.15440756839E+04  0.15440756839E+04  0.00000000000E+00 0. -1.
         -2   -1    0    0    0  501 -0.00000000000E+00 -0.00000000000E+00 -0.90120407942E+02  0.90120407942E+02  0.00000000000E+00 0.  1.
         23    2    1    2    0    0  0.26569393010E+03 -0.24771621562E+03  0.61146004136E+03  0.71672412590E+03  0.88619989217E+02 0.  0.
         11    1    3    3    0    0  0.43427548709E+02 -0.67314848527E+02  0.20030387667E+03  0.21572872741E+03  0.00000000000E+00 0. -1.
        -11    1    3    3    0    0  0.22226638140E+03 -0.18040136709E+03  0.41115616469E+03  0.50099539849E+03  0.00000000000E+00 0.  1.
         22    1    1    2    0    0 -0.26569393010E+03  0.24771621562E+03  0.84249523461E+03  0.91747196595E+03  0.00000000000E+00 0. -1.
<mgrwt>
<rscale>  0 0.74606362E+03</rscale>
<asrwt>0</asrwt>
<pdfrwt beam="1">  1        2 0.23755009E+00 0.74606362E+03</pdfrwt>
<pdfrwt beam="2">  1       -2 0.13864679E-01 0.74606362E+03</pdfrwt>
<totfact> 0.48605881E+02</totfact>
</mgrwt>
</event>
<event>
 6    1  0.9512547E-007  0.1243025E+04  0.7818608E-02  0.9076008E-01
          2   -1    0    0  501    0  0.00000000000E+00  0.00000000000E+00  0.21225263845E+04  0.21225263845E+04  0.00000000000E+00 0. -1.
         -2   -1    0    0    0  501 -0.00000000000E+00 -0.00000000000E+00 -0.18198974284E+03  0.18198974284E+03  0.00000000000E+00 0.  1.
         23    2    1    2    0    0  0.40114723306E+03  0.23499929952E+03  0.17307943235E+04  0.17944812134E+04  0.91488041419E+02 0.  0.
         13    1    3    3    0    0  0.36812451873E+03  0.24042927886E+03  0.16309637126E+04  0.16891904958E+04  0.00000000000E+00 0.  1.
        -13    1    3    3    0    0  0.33022714333E+02 -0.54299793392E+01  0.99830610896E+02  0.10529071758E+03  0.00000000000E+00 0. -1.
         22    1    1    2    0    0 -0.40114723306E+03 -0.23499929952E+03  0.20974231815E+03  0.51003491389E+03  0.00000000000E+00 0.  1.
<mgrwt>
<rscale>  0 0.12430254E+04</rscale>
<asrwt>0</asrwt>
<pdfrwt beam="1">  1        2 0.32654250E+00 0.12430254E+04</pdfrwt>
<pdfrwt beam="2">  1       -2 0.27998423E-01 0.12430254E+04</pdfrwt>
<totfact> 0.65602482E+01</totfact>
</mgrwt>
</event>
<event>
 6    1  0.9512547E-007  0.2334164E+04  0.7818608E-02  0.8464571E-01
          1   -1    0    0  501    0  0.00000000000E+00  0.00000000000E+00  0.12312526202E+04  0.12312526202E+04  0.00000000000E+00 0. -1.
         -1   -1    0    0    0  501 -0.00000000000E+00 -0.00000000000E+00 -0.11062559765E+04  0.11062559765E+04  0.00000000000E+00 0.  1.
         23    2    1    2    0    0 -0.10811864493E+04 -0.25634270867E+03 -0.28797438145E+03  0.11520885066E+04  0.98503604447E+02 0.  0.
         11    1    3    3    0    0 -0.10343822102E+04 -0.24864941495E+03 -0.25401719547E+03  0.10937540052E+04  0.00000000000E+00 0. -1.
        -11    1    3    3    0    0 -0.46804239189E+02 -0.76932937168E+01 -0.33957185986E+02  0.58334501407E+02  0.00000000000E+00 0.  1.
         22    1    1    2    0    0  0.10811864493E+04  0.25634270867E+03  0.41297102520E+03  0.11854200902E+04  0.00000000000E+00 0. -1.
<mgrwt>
<rscale>  0 0.23341641E+04</rscale>
<asrwt>0</asrwt>
<pdfrwt beam="1">  1        1 0.18942348E+00 0.23341641E+04</pdfrwt>
<pdfrwt beam="2">  1       -1 0.17019323E+00 0.23341641E+04</pdfrwt>
<totfact> 0.22412663E+00</totfact>
</mgrwt>
</event>
<event>
 6    1  0.9512547E-007  0.4754489E+04  0.7818608E-02  0.7867537E-01
          2   -1    0    0  501    0  0.00000000000E+00  0.00000000000E+00  0.25783247062E+04  0.25783247062E+04  0.00000000000E+00 0. -1.
         -2   -1    0    0    0  501 -0.00000000000E+00 -0.00000000000E+00 -0.21918465253E+04  0.21918465253E+04  0.00000000000E+00 0.  1.
         23    2    1    2    0    0 -0.22608481224E+04 -0.68998003164E+03  0.44024174295E+03  0.24057691513E+04  0.80035870748E+02 0.  0.
         13    1    3    3    0    0 -0.80372793799E+03 -0.20551218141E+03  0.15098886673E+03  0.84321497430E+03  0.00000000000E+00 0. -1.
        -13    1    3    3    0    0 -0.14571201844E+04 -0.48446785023E+03  0.28925287622E+03  0.15625541770E+04  0.00000000000E+00 0.  1.
         22    1    1    2    0    0  0.22608481224E+04  0.68998003164E+03 -0.53763562079E+02  0.23644020802E+04  0.00000000000E+00 0.  1.
<mgrwt>
<rscale>  0 0.47544893E+04</rscale>
<asrwt>0</asrwt>
<pdfrwt beam="1">  1        2 0.39666534E+00 0.47544893E+04</pdfrwt>
<pdfrwt beam="2">  1       -2 0.33720716E+00 0.47544893E+04</pdfrwt>
<totfact> 0.43544875E-02</totfact>
</mgrwt>
</event>
<event>
 6    1  0.9512547E-007  0.1741461E+04  0.7818608E-02  0.8738065E-01
          2   -1    0    0  501    0  0.00000000000E+00  0.00000000000E+00  0.16745086258E+04  0.16745086258E+04  0.00000000000E+00 0. -1.
         -2   -1    0    0    0  501 -0.00000000000E+00 -0.00000000000E+00 -0.45277253232E+03  0.45277253232E+03  0.00000000000E+00 0.  1.
         23    2    1    2    0    0  0.28661184342E+03  0.81879813807E+03  0.55694559722E+03  0.10343387334E+04  0.84210910952E+02 0.  0.
         13    1    3    3    0    0  0.17659058087E+03  0.48185645285E+03  0.28063893539E+03  0.58491716206E+03  0.00000000000E+00 0. -1.
        -13    1    3    3    0    0  0.11002126254E+03  0.33694168522E+03  0.27630666183E+03  0.44942157138E+03  0.00000000000E+00 0.  1.
         22    1    1    2    0    0 -0.28661184342E+03 -0.81879813807E+03  0.66479049622E+03  0.10929424246E+04  0.00000000000E+00 0.  1.
<mgrwt>
<rscale>  0 0.17414609E+04</rscale>
<asrwt>0</asrwt>
<pdfrwt beam="1">  1        2 0.25761671E+00 0.17414609E+04</pdfrwt>
<pdfrwt beam="2">  1       -2 0.69657314E-01 0.17414609E+04</pdfrwt>
<totfact> 0.18056110E+01</totfact>
</mgrwt>
</event>
<event>
 6    1  0.9512547E-007  0.1246124E+04  0.7818608E-02  0.9073416E-01
          2   -1    0    0  501    0  0.00000000000E+00  0.00000000000E+00  0.20701557686E+04  0.20701557686E+04  0.00000000000E+00 0. -1.
         -2   -1    0    0    0  501 -0.00000000000E+00 -0.00000000000E+00 -0.18752504453E+03  0.18752504453E+03  0.00000000000E+00 0.  1.
         23    2    1    2    0    0 -0.18652029746E+03 -0.55171806106E+03  0.56466478879E+03  0.81677247225E+03  0.95332614930E+02 0.  0.
         13    1    3    3    0    0 -0.36344307733E+02 -0.22759694146E+03  0.25820094929E+03  0.34610548490E+03  0.00000000000E+00 0. -1.
        -13    1    3    3    0    0 -0.15017598972E+03 -0.32412111960E+03  0.30646383950E+03  0.47066698735E+03  0.00000000000E+00 0.  1.
         22    1    1    2    0    0  0.18652029746E+03  0.55171806106E+03  0.13179659353E+04  0.14409083409E+04  0.00000000000E+00 0. -1.
<mgrwt>
<rscale>  0 0.12461237E+04</rscale>
<asrwt>0</asrwt>
<pdfrwt beam="1">  1        2 0.31848549E+00 0.12461237E+04</pdfrwt>
<pdfrwt beam="2">  1       -2 0.28850008E-01 0.12461237E+04</pdfrwt>
<totfact> 0.66349426E+01</totfact>
</mgrwt>
</event>
<event>
 6    1  0.9512547E-007  0.7054099E+04  0.7818608E-02  0.7571882E-01
         -2   -1    0    0    0  501 -0.00000000000E+00  0.00000000000E+00  0.36386751104E+04  0.36386751104E+04  0.00000000000E+00 0.  1.
          2   -1    0    0  501    0  0.00000000000E+00 -0.00000000000E+00 -0.34188487642E+04  0.34188487642E+04  0.00000000000E+00 0. -1.
         23    2    1    2    0    0  0.30918215936E+04 -0.16498526891E+04 -0.28323793457E+03  0.35171215905E+04  0.92443993979E+02 0.  0.
         13    1    3    3    0    0  0.24769309047E+04 -0.13481011229E+04 -0.19942709824E+03  0.28270717203E+04  0.00000000000E+00 0.  1.
        -13    1    3    3    0    0  0.61489068894E+03 -0.30175156624E+03 -0.83810836336E+02  0.69004987020E+03  0.00000000000E+00 0. -1.
         22    1    1    2    0    0 -0.30918215936E+04  0.16498526891E+04  0.50306428079E+03  0.35404022841E+04  0.00000000000E+00 0. -1.
<mgrwt>
<rscale>  0 0.70540995E+04</rscale>
<asrwt>0</asrwt>
<pdfrwt beam="1">  1        2 0.52597673E+00 0.70540995E+04</pdfrwt>
<pdfrwt beam="2">  1       -2 0.55979617E+00 0.70540995E+04</pdfrwt>
<totfact> 0.44897112E-04</totfact>
</mgrwt>
</event>
<event>
 6    1  0.9512547E-007  0.1824284E+04  0.7818608E-02  0.8693491E-01
         -1   -1    0    0    0  501 -0.00000000000E+00  0.00000000000E+00  0.38120678176E+03  0.38120678176E+03  0.00000000000E+00 0.  1.
          1   -1    0    0  501    0  0.00000000000E+00 -0.00000000000E+00 -0.21825497758E+04  0.21825497758E+04  0.00000000000E+00 0. -1.
         23    2    1    2    0    0  0.63920989154E+03  0.14919182007E+03 -0.17875036171E+04  0.19072209431E+04  0.10712170687E+03 0.  0.
         11    1    3    3    0    0  0.57322419670E+03  0.13149780729E+03 -0.16787911516E+04  0.17788247198E+04  0.00000000000E+00 0. -1.
        -11    1    3    3    0    0  0.65985694844E+02  0.17694012785E+02 -0.10871246553E+03  0.12839622337E+03  0.00000000000E+00 0.  1.
         22    1    1    2    0    0 -0.63920989154E+03 -0.14919182007E+03 -0.13839376887E+02  0.65653561440E+03  0.00000000000E+00 0.  1.
<mgrwt>
<rscale>  0 0.18242837E+04</rscale>
<asrwt>0</asrwt>
<pdfrwt beam="1">  1        1 0.33577688E+00 0.18242837E+04</pdfrwt>
<pdfrwt beam="2">  1       -1 0.58647198E-01 0.18242837E+04</pdfrwt>
<totfact> 0.62143352E+00</totfact>
</mgrwt>
</event>
<event>
 6    1  0.9512547E-007  0.4379557E+04  0.7818608E-02  0.7932069E-01
         -1   -1    0    0    0  501 -0.00000000000E+00  0.00000000000E+00  0.24255588790E+04  0.24255588790E+04  0.00000000000E+00 0.  1.
          1   -1    0    0  501    0  0.00000000000E+00 -0.00000000000E+00 -0.19769178261E+04  0.19769178261E+04  0.00000000000E+00 0. -1.
         23    2    1    2    0    0 -0.97507335192E+03 -0.18946284323E+04  0.72766897075E+03  0.22534672782E+04  0.90706698240E+02 0.  0.
         11    1    3    3    0    0 -0.76085824089E+03 -0.14999656467E+04  0.61166045211E+03  0.17896733536E+04  0.00000000000E+00 0.  1.
        -11    1    3    3    0    0 -0.21421511103E+03 -0.39466278557E+03  0.11600851863E+03  0.46379392461E+03  0.00000000000E+00 0. -1.
         22    1    1    2    0    0  0.97507335192E+03  0.18946284323E+04 -0.27902791780E+03  0.21490094269E+04  0.00000000000E+00 0. -1.
<mgrwt>
<rscale>  0 0.43795573E+04</rscale>
<asrwt>0</asrwt>
<pdfrwt beam="1">  1        1 0.30414120E+00 0.43795573E+04</pdfrwt>
<pdfrwt beam="2">  1       -1 0.37316290E+00 0.43795573E+04</pdfrwt>
<totfact> 0.25500206E-02</totfact>
</mgrwt>
</event>
<event>
 6    1  0.9512547E-007  0.1018385E+04  0.7818608E-02  0.9288607E-01
          3   -1    0    0  501    0  0.00000000000E+00  0.00000000000E+00  0.33110039774E+03  0.33110039774E+03  0.00000000000E+00 0. -1.
         -3   -1    0    0    0  501 -0.00000000000E+00 -0.00000000000E+00 -0.78307687229E+03  0.78307687229E+03  0.00000000000E+00 0.  1.
         23    2    1    2    0    0  0.21792628914E+03  0.21446766587E+03  0.21207192094E+03  0.38311741012E+03  0.91193218409E+02 0.  0.
         13    1    3    3    0    0  0.19649423211E+03  0.18903298836E+03  0.14633912886E+03  0.30944885616E+03  0.00000000000E+00 0.  1.
        -13    1    3    3    0    0  0.21432057032E+02  0.25434677508E+02  0.65732792081E+02  0.73668553965E+02  0.00000000000E+00 0. -1.
         22    1    1    2    0    0 -0.21792628914E+03 -0.21446766587E+03 -0.66404839550E+03  0.73105985990E+03  0.00000000000E+00 0.  1.
<mgrwt>
<rscale>  0 0.10183851E+04</rscale>
<asrwt>0</asrwt>
<pdfrwt beam="1">  1        3 0.50938523E-01 0.10183851E+04</pdfrwt>
<pdfrwt beam="2">  1       -3 0.12047336E+00 0.10183851E+04</pdfrwt>
<totfact> 0.55891619E+00</totfact>
</mgrwt>
</event>
<event>
 6    1  0.9512547E-007  0.2465996E+04  0.7818608E-02  0.8415201E-01
          1   -1    0    0  501    0  0.00000000000E+00  0.00000000000E+00  0.19527799464E+04  0.19527799464E+04  0.00000000000E+00 0. -1.
         -1   -1    0    0    0  501 -0.00000000000E+00 -0.00000000000E+00 -0.77852310637E+03  0.77852310637E+03  0.00000000000E+00 0.  1.
         23    2    1    2    0    0  0.65396166564E+03  0.90736960896E+03  0.17394328682E+02  0.11221677764E+04  0.89288792262E+02 0.  0.
         13    1    3    3    0    0  0.19071812764E+03  0.23904482200E+03 -0.32129045185E+02  0.30748675855E+03  0.00000000000E+00 0. -1.
        -13    1    3    3    0    0  0.46324353800E+03  0.66832478695E+03  0.49523373867E+02  0.81468101789E+03  0.00000000000E+00 0.  1.
         22    1    1    2    0    0 -0.65396166564E+03 -0.90736960896E+03  0.11568625113E+04  0.16091352763E+04  0.00000000000E+00 0. -1.
<mgrwt>
<rscale>  0 0.24659962E+04</rscale>
<asrwt>0</asrwt>
<pdfrwt beam="1">  1        1 0.30042768E+00 0.24659962E+04</pdfrwt>
<pdfrwt beam="2">  1       -1 0.11977279E+00 0.24659962E+04</pdfrwt>
<totfact> 0.17776922E+00</totfact>
</mgrwt>
</event>
<event>
 6    1  0.9512547E-007  0.2391606E+04  0.7818608E-02  0.8442653E-01
         -2   -1    0    0    0  501 -0.00000000000E+00  0.00000000000E+00  0.88676996169E+03  0.88676996169E+03  0.00000000000E+00 0.  1.
          2   -1    0    0  501    0  0.00000000000E+00 -0.00000000000E+00 -0.16125323156E+04  0.16125323156E+04  0.00000000000E+00 0. -1.
         23    2    1    2    0    0 -0.10999787310E+04  0.32902416554E+03 -0.70794586455E+03  0.13510307339E+04  0.76724095594E+02 0.  0.
         11    1    3    3    0    0 -0.30458201563E+03  0.63453389367E+02 -0.21704104251E+03  0.37934595160E+03  0.00000000000E+00 0.  1.
        -11    1    3    3    0    0 -0.79539671533E+03  0.26557077617E+03 -0.49090482204E+03  0.97168478233E+03  0.00000000000E+00 0. -1.
         22    1    1    2    0    0  0.10999787310E+04 -0.32902416554E+03 -0.17816489398E+02  0.11482715434E+04  0.00000000000E+00 0.  1.
<mgrwt>
<rscale>  0 0.23916063E+04</rscale>
<asrwt>0</asrwt>
<pdfrwt beam="1">  1        2 0.24808189E+00 0.23916063E+04</pdfrwt>
<pdfrwt beam="2">  1       -2 0.13642615E+00 0.23916063E+04</pdfrwt>
<totfact> 0.37927061E+00</totfact>
</mgrwt>
</event>
<event>
 6    1  0.9512547E-007  0.2106959E+04  0.7818608E-02  0.8558184E-01
          1   -1    0    0  501    0  0.00000000000E+00  0.00000000000E+00  0.13950527885E+04  0.13950527885E+04  0.00000000000E+00 0. -1.
         -1   -1    0    0    0  501 -0.00000000000E+00 -0.00000000000E+00 -0.79553938004E+03  0.79553938004E+03  0.00000000000E+00 0.  1.
         23    2    1    2    0    0 -0.88515774900E+03 -0.46115530220E+03 -0.44104806958E+02  0.10029841269E+04  0.88676217264E+02 0.  0.
         11    1    3    3    0    0 -0.51897252950E+03 -0.24119225120E+03 -0.60692132518E+02  0.57549085429E+03  0.00000000000E+00 0. -1.
        -11    1    3    3    0    0 -0.36618521949E+03 -0.21996305100E+03  0.16587325560E+02  0.42749327264E+03  0.00000000000E+00 0.  1.
         22    1    1    2    0    0  0.88515774900E+03  0.46115530220E+03  0.64361821545E+03  0.11876080417E+04  0.00000000000E+00 0. -1.
<mgrwt>
<rscale>  0 0.21069594E+04</rscale>
<asrwt>0</asrwt>
<pdfrwt beam="1">  1        1 0.21462350E+00 0.21069594E+04</pdfrwt>
<pdfrwt beam="2">  1       -1 0.12239067E+00 0.21069594E+04</pdfrwt>
<totfact> 0.41979346E+00</totfact>
</mgrwt>
</event>
<event>
 6    1  0.9512547E-007  0.1448301E+04  0.7818608E-02  0.8919579E-01
         -2   -1    0    0    0  501 -0.00000000000E+00  0.00000000000E+00  0.72742582591E+03  0.72742582591E+03  0.00000000000E+00 0.  1.
          2   -1    0    0  501    0  0.00000000000E+00 -0.00000000000E+00 -0.72089014733E+03  0.72089014733E+03  0.00000000000E+00 0. -1.
         23    2    1    2    0    0  0.33017147516E+03  0.39165852379E+03 -0.50474138493E+03  0.72456612838E+03  0.88445500022E+02 0.  0.
         11    1    3    3    0    0  0.18713490488E+03  0.23665002902E+03 -0.23658732026E+03  0.38340092458E+03  0.00000000000E+00 0. -1.
        -11    1    3    3    0    0  0.14303657028E+03  0.15500849477E+03 -0.26815406467E+03  0.34116520380E+03  0.00000000000E+00 0.  1.
         22    1    1    2    0    0 -0.33017147516E+03 -0.39165852379E+03  0.51127706351E+03  0.72374984486E+03  0.00000000000E+00 0.  1.
<mgrwt>
<rscale>  0 0.14483012E+04</rscale>
<asrwt>0</asrwt>
<pdfrwt beam="1">  1        2 0.11090618E+00 0.14483012E+04</pdfrwt>
<pdfrwt beam="2">  1       -2 0.11191167E+00 0.14483012E+04</pdfrwt>
<totfact> 0.24119530E+01</totfact>
</mgrwt>
</event>
<event>
 6    1  0.9512547E-007  0.1304779E+04  0.7818608E-02  0.9025784E-01
          2   -1    0    0  501    0  0.00000000000E+00  0.00000000000E+00  0.35868897590E+04  0.35868897590E+04  0.00000000000E+00 0. -1.
         -2   -1    0    0    0  501 -0.00000000000E+00 -0.00000000000E+00 -0.11865762436E+03  0.11865762436E+03  0.00000000000E+00 0.  1.
         23    2    1    2    0    0  0.15411927016E+02  0.24411481334E+03  0.34503690570E+04  0.34602951476E+04  0.93628571191E+02 0.  0.
         11    1    3    3    0    0 -0.21226597599E+01  0.17238704961E+03  0.28816696275E+04  0.28868220663E+04  0.00000000000E+00 0. -1.
        -11    1    3    3    0    0  0.17534586776E+02  0.71727763727E+02  0.56869942948E+03  0.57347308125E+03  0.00000000000E+00 0.  1.
         22    1    1    2    0    0 -0.15411927016E+02 -0.24411481334E+03  0.17863077601E+02  0.24525223573E+03  0.00000000000E+00 0.  1.
<mgrwt>
<rscale>  0 0.13047786E+04</rscale>
<asrwt>0</asrwt>
<pdfrwt beam="1">  1        2 0.55182911E+00 0.13047786E+04</pdfrwt>
<pdfrwt beam="2">  1       -2 0.18255022E-01 0.13047786E+04</pdfrwt>
<totfact> 0.17730660E+01</totfact>
</mgrwt>
</event>
<event>
 6    1  0.9512547E-007  0.1905837E+04  0.7818608E-02  0.8651956E-01
          2   -1    0    0  501    0  0.00000000000E+00  0.00000000000E+00  0.89493527098E+03  0.89493527098E+03  0.00000000000E+00 0. -1.
         -2   -1    0    0    0  501 -0.00000000000E+00 -0.00000000000E+00 -0.10146582342E+04  0.10146582342E+04  0.00000000000E+00 0.  1.
         23    2    1    2    0    0  0.86656270082E+03  0.16206278152E+03  0.29671167921E+03  0.93459962265E+03  0.90793031006E+02 0.  0.
         13    1    3    3    0    0  0.64245533420E+03  0.13204690710E+03  0.17994983659E+03  0.68012291963E+03  0.00000000000E+00 0. -1.
        -13    1    3    3    0    0  0.22410736662E+03  0.30015874416E+02  0.11676184262E+03  0.25447670303E+03  0.00000000000E+00 0.  1.
         22    1    1    2    0    0 -0.86656270082E+03 -0.16206278152E+03 -0.41643464246E+03  0.97499388257E+03  0.00000000000E+00 0. -1.
<mgrwt>
<rscale>  0 0.19058368E+04</rscale>
<asrwt>0</asrwt>
<pdfrwt beam="1">  1        2 0.13768235E+00 0.19058368E+04</pdfrwt>
<pdfrwt beam="2">  1       -2 0.15610127E+00 0.19058368E+04</pdfrwt>
<totfact> 0.74494788E+00</totfact>
</mgrwt>
</event>
<event>
 6    1  0.9512547E-007  0.1591422E+04  0.7818608E-02  0.8825835E-01
          2   -1    0    0  501    0  0.00000000000E+00  0.00000000000E+00  0.51151815824E+03  0.51151815824E+03  0.00000000000E+00 0. -1.
         -2   -1    0    0    0  501 -0.00000000000E+00 -0.00000000000E+00 -0.12377972325E+04  0.12377972325E+04  0.00000000000E+00 0.  1.
         23    2    1    2    0    0  0.62560888297E+03  0.15243051963E+03 -0.87304820808E+03  0.10888892280E+04  0.94048070395E+02 0.  0.
         11    1    3    3    0    0  0.38154373359E+03  0.12871658751E+03 -0.59113925870E+03  0.71525464257E+03  0.00000000000E+00 0.  1.
        -11    1    3    3    0    0  0.24406514938E+03  0.23713932119E+02 -0.28190894938E+03  0.37363458547E+03  0.00000000000E+00 0. -1.
         22    1    1    2    0    0 -0.62560888297E+03 -0.15243051963E+03  0.14676913381E+03  0.66042616272E+03  0.00000000000E+00 0. -1.
<mgrwt>
<rscale>  0 0.15914217E+04</rscale>
<asrwt>0</asrwt>
<pdfrwt beam="1">  1        2 0.78695101E-01 0.15914217E+04</pdfrwt>
<pdfrwt beam="2">  1       -2 0.19043034E+00 0.15914217E+04</pdfrwt>
<totfact> 0.88502627E+00</totfact>
</mgrwt>
</event>
<event>
 6    1  0.9512547E-007  0.2403675E+04  0.7818608E-02  0.8438129E-01
         -2   -1    0    0    0  501 -0.00000000000E+00  0.00000000000E+00  0.14398866754E+04  0.14398866754E+04  0.00000000000E+00 0.  1.
          2   -1    0    0  501    0  0.00000000000E+00 -0.00000000000E+00 -0.10031439980E+04  0.10031439980E+04  0.00000000000E+00 0. -1.
         23    2    1    2    0    0  0.67493613197E+03 -0.82190626364E+03  0.78352591724E+03  0.13244032538E+04  0.95196781007E+02 0.  0.
         13    1    3    3    0    0  0.11523025306E+03 -0.11416018571E+03  0.15824102618E+03  0.22660710842E+03  0.00000000000E+00 0. -1.
        -13    1    3    3    0    0  0.55970587891E+03 -0.70774607793E+03  0.62528489106E+03  0.10977961453E+04  0.00000000000E+00 0.  1.
         22    1    1    2    0    0 -0.67493613197E+03  0.82190626364E+03 -0.34678323986E+03  0.11186274196E+04  0.00000000000E+00 0.  1.
<mgrwt>
<rscale>  0 0.24036752E+04</rscale>
<asrwt>0</asrwt>
<pdfrwt beam="1">  1        2 0.15432985E+00 0.24036752E+04</pdfrwt>
<pdfrwt beam="2">  1       -2 0.22152103E+00 0.24036752E+04</pdfrwt>
<totfact> 0.21782903E+00</totfact>
</mgrwt>
</event>
<event>
 6    1  0.9512547E-007  0.1432173E+04  0.7818608E-02  0.8930854E-01
         -2   -1    0    0    0  501 -0.00000000000E+00  0.00000000000E+00  0.34594048829E+03  0.34594048829E+03  0.00000000000E+00 0.  1.
          2   -1    0    0  501    0  0.00000000000E+00 -0.00000000000E+00 -0.14822784586E+04  0.14822784586E+04  0.00000000000E+00 0. -1.
         23    2    1    2    0    0  0.33763122605E+03 -0.13195962627E+03  0.21412173660E+03  0.42995230288E+03  0.87193330535E+02 0.  0.
         13    1    3    3    0    0  0.21020578794E+02 -0.24001016206E+02  0.44881981327E+02  0.55066375944E+02  0.00000000000E+00 0. -1.
        -13    1    3    3    0    0  0.31661064726E+03 -0.10795861007E+03  0.16923975528E+03  0.37488592693E+03  0.00000000000E+00 0.  1.
         22    1    1    2    0    0 -0.33763122605E+03  0.13195962627E+03 -0.13504597069E+04  0.13982666440E+04  0.00000000000E+00 0. -1.
<mgrwt>
<rscale>  0 0.14321734E+04</rscale>
<asrwt>0</asrwt>
<pdfrwt beam="1">  1        2 0.22804284E+00 0.14321734E+04</pdfrwt>
<pdfrwt beam="2">  1       -2 0.53221614E-01 0.14321734E+04</pdfrwt>
<totfact> 0.41977003E+01</totfact>
</mgrwt>
</event>
<event>
 6    1  0.9512547E-007  0.1658778E+04  0.7818608E-02  0.8785230E-01
         -2   -1    0    0    0  501 -0.00000000000E+00  0.00000000000E+00  0.92935620692E+03  0.92935620692E+03  0.00000000000E+00 0.  1.
          2   -1    0    0  501    0  0.00000000000E+00 -0.00000000000E+00 -0.74017520507E+03  0.74017520507E+03  0.00000000000E+00 0. -1.
         23    2    1    2    0    0  0.32634629198E+03 -0.60951923383E+03 -0.36134857634E+03  0.78573368899E+03  0.93749867712E+02 0.  0.
         13    1    3    3    0    0  0.28065081687E+03 -0.47653216040E+03 -0.25271281525E+03  0.60803910063E+03  0.00000000000E+00 0. -1.
        -13    1    3    3    0    0  0.45695475112E+02 -0.13298707343E+03 -0.10863576109E+03  0.17769458836E+03  0.00000000000E+00 0.  1.
         22    1    1    2    0    0 -0.32634629198E+03  0.60951923383E+03  0.55052957820E+03  0.88379772299E+03  0.00000000000E+00 0.  1.
<mgrwt>
<rscale>  0 0.16587784E+04</rscale>
<asrwt>0</asrwt>
<pdfrwt beam="1">  1        2 0.11387311E+00 0.16587784E+04</pdfrwt>
<pdfrwt beam="2">  1       -2 0.14297788E+00 0.16587784E+04</pdfrwt>
<totfact> 0.12374799E+01</totfact>
</mgrwt>
</event>
<event>
 6    1  0.9512547E-007  0.1924544E+04  0.7818608E-02  0.8642735E-01
          1   -1    0    0  501    0  0.00000000000E+00  0.00000000000E+00  0.27517840252E+04  0.27517840252E+04  0.00000000000E+00 0. -1.
         -1   -1    0    0    0  501 -0.00000000000E+00 -0.00000000000E+00 -0.33649710390E+03  0.33649710390E+03  0.00000000000E+00 0.  1.
         23    2    1    2    0    0 -0.20439552561E+03 -0.93042645453E+03  0.14017665292E+04  0.16973481676E+04  0.92576895279E+02 0.  0.
         13    1    3    3    0    0 -0.17206633837E+03 -0.63324849975E+03  0.91161956406E+03  0.11232367145E+04  0.00000000000E+00 0.  1.
        -13    1    3    3    0    0 -0.32329187237E+02 -0.29717795478E+03  0.49014696513E+03  0.57411145310E+03  0.00000000000E+00 0. -1.
         22    1    1    2    0    0  0.20439552561E+03  0.93042645453E+03  0.10135203921E+04  0.13909329615E+04  0.00000000000E+00 0.  1.
<mgrwt>
<rscale>  0 0.19245440E+04</rscale>
<asrwt>0</asrwt>
<pdfrwt beam="1">  1        1 0.42335137E+00 0.19245440E+04</pdfrwt>
<pdfrwt beam="2">  1       -1 0.51768787E-01 0.19245440E+04</pdfrwt>
<totfact> 0.31668873E+00</totfact>
</mgrwt>
</event>
<event>
 6    1  0.9512547E-007  0.2048862E+04  0.7818608E-02  0.8584111E-01
          2   -1    0    0  501    0  0.00000000000E+00  0.00000000000E+00  0.54842898934E+03  0.54842898934E+03  0.00000000000E+00 0. -1.
         -2   -1    0    0    0  501 -0.00000000000E+00 -0.00000000000E+00 -0.19135730169E+04  0.19135730169E+04  0.00000000000E+00 0.  1.
         23    2    1    2    0    0 -0.73469174776E+03 -0.34022942010E+03  0.66250473970E+02  0.81749045519E+03  0.91506811194E+02 0.  0.
         11    1    3    3    0    0 -0.43164350127E+03 -0.22954953729E+03  0.75773033549E+02  0.49472280609E+03  0.00000000000E+00 0. -1.
        -11    1    3    3    0    0 -0.30304824649E+03 -0.11067988281E+03 -0.95225595789E+01  0.32276764910E+03  0.00000000000E+00 0.  1.
         22    1    1    2    0    0  0.73469174776E+03  0.34022942010E+03 -0.14313945015E+04  0.16445115511E+04  0.00000000000E+00 0.  1.
<mgrwt>
<rscale>  0 0.20488620E+04</rscale>
<asrwt>0</asrwt>
<pdfrwt beam="1">  1        2 0.84373688E-01 0.20488620E+04</pdfrwt>
<pdfrwt beam="2">  1       -2 0.29439586E+00 0.20488620E+04</pdfrwt>
<totfact> 0.17595113E+00</totfact>
</mgrwt>
</event>
<event>
 6    1  0.9512547E-007  0.3402893E+04  0.7818608E-02  0.8137197E-01
         -1   -1    0    0    0  501 -0.00000000000E+00  0.00000000000E+00  0.10207514107E+04  0.10207514107E+04  0.00000000000E+00 0.  1.
          1   -1    0    0  501    0  0.00000000000E+00 -0.00000000000E+00 -0.28360675800E+04  0.28360675800E+04  0.00000000000E+00 0. -1.
         23    2    1    2    0    0  0.78925818234E+03 -0.53521904633E+03  0.68712038822E+03  0.11788390374E+04  0.90217195391E+02 0.  0.
         11    1    3    3    0    0  0.33087520769E+03 -0.25685699713E+03  0.25751302517E+03  0.49169795421E+03  0.00000000000E+00 0. -1.
        -11    1    3    3    0    0  0.45838297465E+03 -0.27836204920E+03  0.42960736305E+03  0.68714108323E+03  0.00000000000E+00 0.  1.
         22    1    1    2    0    0 -0.78925818234E+03  0.53521904633E+03 -0.25024365574E+04  0.26779799532E+04  0.00000000000E+00 0. -1.
<mgrwt>
<rscale>  0 0.34028929E+04</rscale>
<asrwt>0</asrwt>
<pdfrwt beam="1">  1        1 0.43631808E+00 0.34028929E+04</pdfrwt>
<pdfrwt beam="2">  1       -1 0.15703868E+00 0.34028929E+04</pdfrwt>
<totfact> 0.19872336E-01</totfact>
</mgrwt>
</event>
<event>
 6    1  0.9512547E-007  0.6692761E+04  0.7818608E-02  0.7609978E-01
         -1   -1    0    0    0  501 -0.00000000000E+00  0.00000000000E+00  0.38137464486E+04  0.38137464486E+04  0.00000000000E+00 0.  1.
          1   -1    0    0  501    0  0.00000000000E+00 -0.00000000000E+00 -0.29362894012E+04  0.29362894012E+04  0.00000000000E+00 0. -1.
         23    2    1    2    0    0 -0.19578613483E+04  0.26604826961E+04 -0.97311106137E+02  0.33059739763E+04  0.92764462164E+02 0.  0.
         13    1    3    3    0    0 -0.10873587485E+04  0.14412144522E+04 -0.12318279003E+02  0.18054362036E+04  0.00000000000E+00 0. -1.
        -13    1    3    3    0    0 -0.87050259980E+03  0.12192682438E+04 -0.84992827134E+02  0.15005377727E+04  0.00000000000E+00 0.  1.
         22    1    1    2    0    0  0.19578613483E+04 -0.26604826961E+04  0.97476815357E+03  0.34440618735E+04  0.00000000000E+00 0. -1.
<mgrwt>
<rscale>  0 0.66927612E+04</rscale>
<asrwt>0</asrwt>
<pdfrwt beam="1">  1        1 0.45173683E+00 0.66927612E+04</pdfrwt>
<pdfrwt beam="2">  1       -1 0.58673022E+00 0.66927612E+04</pdfrwt>
<totfact> 0.21644570E-04</totfact>
</mgrwt>
</event>
<event>
 6    1  0.9512547E-007  0.3502867E+04  0.7818608E-02  0.8113111E-01
          2   -1    0    0  501    0  0.00000000000E+00  0.00000000000E+00  0.17749247705E+04  0.17749247705E+04  0.00000000000E+00 0. -1.
         -2   -1    0    0    0  501 -0.00000000000E+00 -0.00000000000E+00 -0.17282530171E+04  0.17282530171E+04  0.00000000000E+00 0.  1.
         23    2    1    2    0    0 -0.26188454333E+03  0.78287154371E+03 -0.15201302792E+04  0.17322063092E+04  0.90946488600E+02 0.  0.
         13    1    3    3    0    0 -0.12500089687E+03  0.50376258517E+03 -0.98230601604E+03  0.11110027343E+04  0.00000000000E+00 0.  1.
        -13    1    3    3    0    0 -0.13688364646E+03  0.27910895854E+03 -0.53782426320E+03  0.62120357492E+03  0.00000000000E+00 0. -1.
         22    1    1    2    0    0  0.26188454333E+03 -0.78287154371E+03  0.15668020326E+04  0.17709714784E+04  0.00000000000E+00 0. -1.
<mgrwt>
<rscale>  0 0.35028669E+04</rscale>
<asrwt>0</asrwt>
<pdfrwt beam="1">  1        2 0.27306535E+00 0.35028669E+04</pdfrwt>
<pdfrwt beam="2">  1       -2 0.26588508E+00 0.35028669E+04</pdfrwt>
<totfact> 0.37592373E-01</totfact>
</mgrwt>
</event>
<event>
 6    1  0.9512547E-007  0.1571750E+04  0.7818608E-02  0.8838093E-01
          2   -1    0    0  501    0  0.00000000000E+00  0.00000000000E+00  0.21251847276E+04  0.21251847276E+04  0.00000000000E+00 0. -1.
         -2   -1    0    0    0  501 -0.00000000000E+00 -0.00000000000E+00 -0.29060991832E+03  0.29060991832E+03  0.00000000000E+00 0.  1.
         23    2    1    2    0    0  0.13300811646E+03 -0.72302203417E+03  0.13356603190E+04  0.15273309778E+04  0.91101081704E+02 0.  0.
         13    1    3    3    0    0  0.36115331980E+02 -0.23475787649E+03  0.52167643520E+03  0.57320317587E+03  0.00000000000E+00 0.  1.
        -13    1    3    3    0    0  0.96892784477E+02 -0.48826415768E+03  0.81398388380E+03  0.95412780195E+03  0.00000000000E+00 0. -1.
         22    1    1    2    0    0 -0.13300811646E+03  0.72302203417E+03  0.49891449027E+03  0.88846366810E+03  0.00000000000E+00 0.  1.
<mgrwt>
<rscale>  0 0.15717503E+04</rscale>
<asrwt>0</asrwt>
<pdfrwt beam="1">  1        2 0.32695149E+00 0.15717503E+04</pdfrwt>
<pdfrwt beam="2">  1       -2 0.44709220E-01 0.15717503E+04</pdfrwt>
<totfact> 0.25949765E+01</totfact>
</mgrwt>
</event>
<event>
 6    1  0.9512547E-007  0.2378336E+04  0.7818608E-02  0.8447659E-01
         -2   -1    0    0    0  501 -0.00000000000E+00  0.00000000000E+00  0.52222382744E+03  0.52222382744E+03  0.00000000000E+00 0.  1.
          2   -1    0    0  501    0  0.00000000000E+00 -0.00000000000E+00 -0.27078825785E+04  0.27078825785E+04  0.00000000000E+00 0. -1.
         23    2    1    2    0    0  0.11230946707E+04  0.38143503629E+03 -0.11635498353E+04  0.16643666568E+04  0.97127869320E+02 0.  0.
         13    1    3    3    0    0  0.93097254320E+03  0.34982583381E+03 -0.94939869657E+03  0.13749348622E+04  0.00000000000E+00 0.  1.
        -13    1    3    3    0    0  0.19212212749E+03  0.31609202482E+02 -0.21415113868E+03  0.28943179464E+03  0.00000000000E+00 0. -1.
         22    1    1    2    0    0 -0.11230946707E+04 -0.38143503629E+03 -0.10221089158E+04  0.15657397491E+04  0.00000000000E+00 0. -1.
<mgrwt>
<rscale>  0 0.23783362E+04</rscale>
<asrwt>0</asrwt>
<pdfrwt beam="1">  1        2 0.41659732E+00 0.23783362E+04</pdfrwt>
<pdfrwt beam="2">  1       -2 0.80342127E-01 0.23783362E+04</pdfrwt>
<totfact> 0.32400015E+00</totfact>
</mgrwt>
</event>
<event>
 6    1  0.9512547E-007  0.5002397E+04  0.7818608E-02  0.7828138E-01
          1   -1    0    0  501    0  0.00000000000E+00  0.00000000000E+00  0.25936572059E+04  0.25936572059E+04  0.00000000000E+00 0. -1.
         -1   -1    0    0    0  501 -0.00000000000E+00 -0.00000000000E+00 -0.24120360033E+04  0.24120360033E+04  0.00000000000E+00 0.  1.
         23    2    1    2    0    0 -0.12562128240E+04 -0.16805762999E+04 -0.12695160709E+04  0.24545744849E+04  0.10419927250E+03 0.  0.
         11    1    3    3    0    0 -0.11022857428E+04 -0.14962908945E+04 -0.10875133060E+04  0.21532778480E+04  0.00000000000E+00 0.  1.
        -11    1    3    3    0    0 -0.15392708123E+03 -0.18428540540E+03 -0.18200276491E+03  0.30129663691E+03  0.00000000000E+00 0. -1.
         22    1    1    2    0    0  0.12562128240E+04  0.16805762999E+04  0.14511372734E+04  0.25511187243E+04  0.00000000000E+00 0. -1.
<mgrwt>
<rscale>  0 0.50023972E+04</rscale>
<asrwt>0</asrwt>
<pdfrwt beam="1">  1        1 0.39902419E+00 0.50023972E+04</pdfrwt>
<pdfrwt beam="2">  1       -1 0.37108246E+00 0.50023972E+04</pdfrwt>
<totfact> 0.94564888E-03</totfact>
</mgrwt>
</event>
<event>
 6    1  0.9512547E-007  0.7125346E+03  0.7818608E-02  0.9696033E-01
         -2   -1    0    0    0  501 -0.00000000000E+00  0.00000000000E+00  0.56803185693E+03  0.56803185693E+03  0.00000000000E+00 0.  1.
          2   -1    0    0  501    0  0.00000000000E+00 -0.00000000000E+00 -0.22344944452E+03  0.22344944452E+03  0.00000000000E+00 0. -1.
         23    2    1    2    0    0  0.11635379425E+03 -0.32365137516E+02  0.54062760309E+03  0.56122182966E+03  0.90033489924E+02 0.  0.
         13    1    3    3    0    0  0.52777718974E+02 -0.30628424807E+02  0.42410324094E+03  0.42847070729E+03  0.00000000000E+00 0. -1.
        -13    1    3    3    0    0  0.63576075276E+02 -0.17367127088E+01  0.11652436214E+03  0.13275112237E+03  0.00000000000E+00 0.  1.
         22    1    1    2    0    0 -0.11635379425E+03  0.32365137516E+02 -0.19604519068E+03  0.23025947179E+03  0.00000000000E+00 0. -1.
<mgrwt>
<rscale>  0 0.71253464E+03</rscale>
<asrwt>0</asrwt>
<pdfrwt beam="1">  1        2 0.34376838E-01 0.71253464E+03</pdfrwt>
<pdfrwt beam="2">  1       -2 0.87389516E-01 0.71253464E+03</pdfrwt>
<totfact> 0.17429729E+02</totfact>
</mgrwt>
</event>
<event>
 6    1  0.9512547E-007  0.2406545E+04  0.7818608E-02  0.8437057E-01
         -1   -1    0    0    0  501 -0.00000000000E+00  0.00000000000E+00  0.68251749365E+03  0.68251749365E+03  0.00000000000E+00 0.  1.
          1   -1    0    0  501    0  0.00000000000E+00 -0.00000000000E+00 -0.21213589996E+04  0.21213589996E+04  0.00000000000E+00 0. -1.
         23    2    1    2    0    0 -0.14911308602E+03  0.16628524688E+03 -0.20959346595E+04  0.21098614298E+04  0.93207619153E+02 0.  0.
         13    1    3    3    0    0 -0.27955105766E+02  0.16308215810E+02 -0.69121424337E+03  0.69197151392E+03  0.00000000000E+00 0.  1.
        -13    1    3    3    0    0 -0.12115798025E+03  0.14997703107E+03 -0.14047204161E+04  0.14178899159E+04  0.00000000000E+00 0. -1.
         22    1    1    2    0    0  0.14911308602E+03 -0.16628524688E+03  0.65709315359E+03  0.69401506341E+03  0.00000000000E+00 0.  1.
<mgrwt>
<rscale>  0 0.24065449E+04</rscale>
<asrwt>0</asrwt>
<pdfrwt beam="1">  1        1 0.32636293E+00 0.24065449E+04</pdfrwt>
<pdfrwt beam="2">  1       -1 0.10500269E+00 0.24065449E+04</pdfrwt>
<totfact> 0.18786871E+00</totfact>
</mgrwt>
</event>
<event>
 6    1  0.9512547E-007  0.4492258E+04  0.7818608E-02  0.7911994E-01
         -2   -1    0    0    0  501 -0.00000000000E+00  0.00000000000E+00  0.43428506741E+04  0.43428506741E+04  0.00000000000E+00 0.  1.
          2   -1    0    0  501    0  0.00000000000E+00 -0.00000000000E+00 -0.11617011312E+04  0.11617011312E+04  0.00000000000E+00 0. -1.
         23    2    1    2    0    0 -0.65619661466E+03  0.13734634294E+04  0.36138135318E+04  0.39220872982E+04  0.78260736640E+02 0.  0.
         11    1    3    3    0    0 -0.11712320310E+03  0.30506816713E+03  0.72699707166E+03  0.79706284162E+03  0.00000000000E+00 0. -1.
        -11    1    3    3    0    0 -0.53907341156E+03  0.10683952623E+04  0.28868164601E+04  0.31250244565E+04  0.00000000000E+00 0.  1.
         22    1    1    2    0    0  0.65619661466E+03 -0.13734634294E+04 -0.43266398894E+03  0.15824645071E+04  0.00000000000E+00 0. -1.
<mgrwt>
<rscale>  0 0.44922576E+04</rscale>
<asrwt>0</asrwt>
<pdfrwt beam="1">  1        2 0.17872325E+00 0.44922576E+04</pdfrwt>
<pdfrwt beam="2">  1       -2 0.66813086E+00 0.44922576E+04</pdfrwt>
<totfact> 0.44469537E-03</totfact>
</mgrwt>
</event>
<event>
 6    1  0.9512547E-007  0.1628593E+04  0.7818608E-02  0.8803172E-01
          3   -1    0    0  501    0  0.00000000000E+00  0.00000000000E+00  0.45613074486E+03  0.45613074486E+03  0.00000000000E+00 0. -1.
         -3   -1    0    0    0  501 -0.00000000000E+00 -0.00000000000E+00 -0.14537040672E+04  0.14537040672E+04  0.00000000000E+00 0.  1.
         23    2    1    2    0    0  0.42395773005E+03 -0.21765585185E+03 -0.12709192639E+04  0.13604422107E+04  0.91940232556E+02 0.  0.
         13    1    3    3    0    0  0.16298266539E+03 -0.99531664677E+02 -0.63245130607E+03  0.66065464204E+03  0.00000000000E+00 0. -1.
        -13    1    3    3    0    0  0.26097506466E+03 -0.11812418718E+03 -0.63846795787E+03  0.69978756862E+03  0.00000000000E+00 0.  1.
         22    1    1    2    0    0 -0.42395773005E+03  0.21765585185E+03  0.27334594158E+03  0.54939260142E+03  0.00000000000E+00 0. -1.
<mgrwt>
<rscale>  0 0.16285934E+04</rscale>
<asrwt>0</asrwt>
<pdfrwt beam="1">  1        3 0.70173960E-01 0.16285934E+04</pdfrwt>
<pdfrwt beam="2">  1       -3 0.22364678E+00 0.16285934E+04</pdfrwt>
<totfact> 0.50910134E-01</totfact>
</mgrwt>
</event>
<event>
 6    1  0.9512547E-007  0.4028245E+04  0.7818608E-02  0.7998873E-01
         -2   -1    0    0    0  501 -0.00000000000E+00  0.00000000000E+00  0.96590324228E+03  0.96590324228E+03  0.00000000000E+00 0.  1.
          2   -1    0    0  501    0  0.00000000000E+00 -0.00000000000E+00 -0.41998918153E+04  0.41998918153E+04  0.00000000000E+00 0. -1.
         23    2    1    2    0    0 -0.18022638092E+04 -0.80841181412E+03 -0.11200500019E+04  0.22726271085E+04  0.92937981200E+02 0.  0.
         13    1    3    3    0    0 -0.33446676466E+03 -0.11889566298E+03 -0.17664033944E+03  0.39649212458E+03  0.00000000000E+00 0.  1.
        -13    1    3    3    0    0 -0.14677970445E+04 -0.68951615113E+03 -0.94340966244E+03  0.18761349839E+04  0.00000000000E+00 0. -1.
         22    1    1    2    0    0  0.18022638092E+04  0.80841181412E+03 -0.21139385711E+04  0.28931679491E+04  0.00000000000E+00 0. -1.
<mgrwt>
<rscale>  0 0.40282448E+04</rscale>
<asrwt>0</asrwt>
<pdfrwt beam="1">  1        2 0.64613720E+00 0.40282448E+04</pdfrwt>
<pdfrwt beam="2">  1       -2 0.14860050E+00 0.40282448E+04</pdfrwt>
<totfact> 0.55954670E-02</totfact>
</mgrwt>
</event>
<event>
 6    1  0.9512547E-007  0.9974771E+03  0.7818608E-02  0.9311316E-01
         -1   -1    0    0    0  501 -0.00000000000E+00  0.00000000000E+00  0.38014650558E+03  0.38014650558E+03  0.00000000000E+00 0.  1.
          1   -1    0    0  501    0  0.00000000000E+00 -0.00000000000E+00 -0.65432704518E+03  0.65432704518E+03  0.00000000000E+00 0. -1.
         23    2    1    2    0    0 -0.38488405006E+03 -0.19547685624E+02 -0.45963527368E+03  0.60679224138E+03  0.91730013555E+02 0.  0.
         11    1    3    3    0    0 -0.19869516396E+03 -0.29090060965E+02 -0.30188068037E+03  0.36257129645E+03  0.00000000000E+00 0. -1.
        -11    1    3    3    0    0 -0.18618888609E+03  0.95423753411E+01 -0.15775459331E+03  0.24422094493E+03  0.00000000000E+00 0.  1.
         22    1    1    2    0    0  0.38488405006E+03  0.19547685624E+02  0.18545473408E+03  0.42768130938E+03  0.00000000000E+00 0.  1.
<mgrwt>
<rscale>  0 0.99747710E+03</rscale>
<asrwt>0</asrwt>
<pdfrwt beam="1">  1        1 0.10066570E+00 0.99747710E+03</pdfrwt>
<pdfrwt beam="2">  1       -1 0.58484079E-01 0.99747710E+03</pdfrwt>
<totfact> 0.89602047E+01</totfact>
</mgrwt>
</event>
<event>
 6    1  0.9512547E-007  0.2399936E+04  0.7818608E-02  0.8439527E-01
         -2   -1    0    0    0  501 -0.00000000000E+00  0.00000000000E+00  0.16575491963E+04  0.16575491963E+04  0.00000000000E+00 0.  1.
          2   -1    0    0  501    0  0.00000000000E+00 -0.00000000000E+00 -0.86870646901E+03  0.86870646901E+03  0.00000000000E+00 0. -1.
         23    2    1    2    0    0  0.88759861418E+03  0.63026066769E+03  0.92190653255E+03  0.14295488744E+04  0.92943640635E+02 0.  0.
         13    1    3    3    0    0  0.16638347168E+03  0.16335057911E+03  0.18468385469E+03  0.29744747020E+03  0.00000000000E+00 0.  1.
        -13    1    3    3    0    0  0.72121514249E+03  0.46691008859E+03  0.73722267786E+03  0.11321014042E+04  0.00000000000E+00 0. -1.
         22    1    1    2    0    0 -0.88759861418E+03 -0.63026066769E+03 -0.13306380521E+03  0.10967067910E+04  0.00000000000E+00 0. -1.
<mgrwt>
<rscale>  0 0.23999364E+04</rscale>
<asrwt>0</asrwt>
<pdfrwt beam="1">  1        2 0.13364715E+00 0.23999364E+04</pdfrwt>
<pdfrwt beam="2">  1       -2 0.25500757E+00 0.23999364E+04</pdfrwt>
<totfact> 0.16580110E+00</totfact>
</mgrwt>
</event>
<event>
 6    1  0.9512547E-007  0.2217510E+04  0.7818608E-02  0.8511175E-01
          2   -1    0    0  501    0  0.00000000000E+00  0.00000000000E+00  0.32624514786E+04  0.32624514786E+04  0.00000000000E+00 0. -1.
         -2   -1    0    0    0  501 -0.00000000000E+00 -0.00000000000E+00 -0.37681419727E+03  0.37681419727E+03  0.00000000000E+00 0.  1.
         23    2    1    2    0    0  0.17410181722E+03  0.10896733500E+04  0.15898713593E+04  0.19372936500E+04  0.87842441603E+02 0.  0.
         11    1    3    3    0    0  0.12248857588E+03  0.68583225643E+03  0.10730268298E+04  0.12793576172E+04  0.00000000000E+00 0.  1.
        -11    1    3    3    0    0  0.51613241341E+02  0.40384109353E+03  0.51684452954E+03  0.65793603277E+03  0.00000000000E+00 0. -1.
         22    1    1    2    0    0 -0.17410181722E+03 -0.10896733500E+04  0.12957659220E+04  0.17019720259E+04  0.00000000000E+00 0.  1.
<mgrwt>
<rscale>  0 0.22175103E+04</rscale>
<asrwt>0</asrwt>
<pdfrwt beam="1">  1        2 0.50191559E+00 0.22175103E+04</pdfrwt>
<pdfrwt beam="2">  1       -2 0.57971417E-01 0.22175103E+04</pdfrwt>
<totfact> 0.30051976E+00</totfact>
</mgrwt>
</event>
<event>
 6    1  0.9512547E-007  0.2026859E+04  0.7818608E-02  0.8594165E-01
          2   -1    0    0  501    0  0.00000000000E+00  0.00000000000E+00  0.10488919912E+04  0.10488919912E+04  0.00000000000E+00 0. -1.
         -2   -1    0    0    0  501 -0.00000000000E+00 -0.00000000000E+00 -0.97916573005E+03  0.97916573005E+03  0.00000000000E+00 0.  1.
         23    2    1    2    0    0  0.11286336017E+03  0.65008808306E+03  0.80265123903E+03  0.10418875143E+04  0.76993032994E+02 0.  0.
         11    1    3    3    0    0  0.72436403572E+02  0.53966124418E+03  0.69079997949E+03  0.87959416932E+03  0.00000000000E+00 0. -1.
        -11    1    3    3    0    0  0.40426956594E+02  0.11042683888E+03  0.11185125953E+03  0.16229334498E+03  0.00000000000E+00 0.  1.
         22    1    1    2    0    0 -0.11286336017E+03 -0.65008808306E+03 -0.73292497791E+03  0.98617020693E+03  0.00000000000E+00 0.  1.
<mgrwt>
<rscale>  0 0.20268587E+04</rscale>
<asrwt>0</asrwt>
<pdfrwt beam="1">  1        2 0.16136800E+00 0.20268587E+04</pdfrwt>
<pdfrwt beam="2">  1       -2 0.15064088E+00 0.20268587E+04</pdfrwt>
<totfact> 0.64386781E+00</totfact>
</mgrwt>
</event>
<event>
 6    1  0.9512547E-007  0.1185487E+04  0.7818608E-02  0.9125656E-01
         -4   -1    0    0    0  501 -0.00000000000E+00  0.00000000000E+00  0.25124107335E+03  0.25124107335E+03  0.00000000000E+00 0.  1.
          4   -1    0    0  501    0  0.00000000000E+00 -0.00000000000E+00 -0.13984362150E+04  0.13984362150E+04  0.00000000000E+00 0. -1.
         23    2    1    2    0    0  0.53304216948E+02 -0.29875520054E+03 -0.12798026928E+04  0.13184964132E+04  0.91879539636E+02 0.  0.
         13    1    3    3    0    0  0.65326083905E+02 -0.21869625898E+03 -0.80045083663E+03  0.83235634964E+03  0.00000000000E+00 0. -1.
        -13    1    3    3    0    0 -0.12021866957E+02 -0.80058941561E+02 -0.47935185616E+03  0.48614006357E+03  0.00000000000E+00 0.  1.
         22    1    1    2    0    0 -0.53304216948E+02  0.29875520054E+03  0.13260755118E+03  0.33118087509E+03  0.00000000000E+00 0.  1.
<mgrwt>
<rscale>  0 0.11854866E+04</rscale>
<asrwt>0</asrwt>
<pdfrwt beam="1">  1        4 0.21514403E+00 0.11854866E+04</pdfrwt>
<pdfrwt beam="2">  1       -4 0.38652473E-01 0.11854866E+04</pdfrwt>
<totfact> 0.13529863E+00</totfact>
</mgrwt>
</event>
<event>
 6    1  0.9512547E-007  0.7392432E+03  0.7818608E-02  0.9652379E-01
         -2   -1    0    0    0  501 -0.00000000000E+00  0.00000000000E+00  0.33448798966E+03  0.33448798966E+03  0.00000000000E+00 0.  1.
          2   -1    0    0  501    0  0.00000000000E+00 -0.00000000000E+00 -0.40844553518E+03  0.40844553518E+03  0.00000000000E+00 0. -1.
         23    2    1    2    0    0 -0.38860837364E+02  0.20814656189E+03 -0.33513325203E+03  0.40670755086E+03  0.90893230766E+02 0.  0.
         11    1    3    3    0    0 -0.11585726288E+02  0.87789756955E+01  0.13995516811E+01  0.14603363064E+02  0.00000000000E+00 0.  1.
        -11    1    3    3    0    0 -0.27275111076E+02  0.19936758619E+03 -0.33653280372E+03  0.39210418779E+03  0.00000000000E+00 0. -1.
         22    1    1    2    0    0  0.38860837364E+02 -0.20814656189E+03  0.26117570651E+03  0.33622597398E+03  0.00000000000E+00 0.  1.
<mgrwt>
<rscale>  0 0.73924320E+03</rscale>
<asrwt>0</asrwt>
<pdfrwt beam="1">  1        2 0.62837774E-01 0.73924320E+03</pdfrwt>
<pdfrwt beam="2">  1       -2 0.51459691E-01 0.73924320E+03</pdfrwt>
<totfact> 0.27948133E+02</totfact>
</mgrwt>
</event>
<event>
 6    1  0.9512547E-007  0.1838282E+04  0.7818608E-02  0.8686203E-01
         -1   -1    0    0    0  501 -0.00000000000E+00  0.00000000000E+00  0.15755116000E+04  0.15755116000E+04  0.00000000000E+00 0.  1.
          1   -1    0    0  501    0  0.00000000000E+00 -0.00000000000E+00 -0.53621938101E+03  0.53621938101E+03  0.00000000000E+00 0. -1.
         23    2    1    2    0    0  0.41307656607E+03 -0.58830109756E+03  0.11747438978E+04  0.13802410029E+04  0.91167810503E+02 0.  0.
         11    1    3    3    0    0  0.20629814412E+03 -0.28344633122E+03  0.48700075220E+03  0.60005873012E+03  0.00000000000E+00 0. -1.
        -11    1    3    3    0    0  0.20677842195E+03 -0.30485476635E+03  0.68774314563E+03  0.78018227275E+03  0.00000000000E+00 0.  1.
         22    1    1    2    0    0 -0.41307656607E+03  0.58830109756E+03 -0.13545167884E+03  0.73148997815E+03  0.00000000000E+00 0. -1.
<mgrwt>
<rscale>  0 0.18382816E+04</rscale>
<asrwt>0</asrwt>
<pdfrwt beam="1">  1        1 0.82495290E-01 0.18382816E+04</pdfrwt>
<pdfrwt beam="2">  1       -1 0.24238640E+00 0.18382816E+04</pdfrwt>
<totfact> 0.29569894E+00</totfact>
</mgrwt>
</event>
<event>
 6    1  0.9512547E-007  0.2023299E+04  0.7818608E-02  0.8595805E-01
         -1   -1    0    0    0  501 -0.00000000000E+00  0.00000000000E+00  0.60128484117E+03  0.60128484117E+03  0.00000000000E+00 0.  1.
          1   -1    0    0  501    0  0.00000000000E+00 -0.00000000000E+00 -0.17020794787E+04  0.17020794787E+04  0.00000000000E+00 0. -1.
         23    2    1    2    0    0  0.74745825013E+03  0.50262292617E+03 -0.10706426897E+04  0.14021247393E+04  0.91402265411E+02 0.  0.
         13    1    3    3    0    0  0.10492970964E+03  0.38395613784E+02 -0.11204248641E+03  0.15823395933E+03  0.00000000000E+00 0.  1.
        -13    1    3    3    0    0  0.64252854049E+03  0.46422731239E+03 -0.95860020327E+03  0.12438907800E+04  0.00000000000E+00 0. -1.
         22    1    1    2    0    0 -0.74745825013E+03 -0.50262292617E+03 -0.30151947875E+02  0.90123958056E+03  0.00000000000E+00 0. -1.
<mgrwt>
<rscale>  0 0.20232989E+04</rscale>
<asrwt>0</asrwt>
<pdfrwt beam="1">  1        1 0.26185838E+00 0.20232989E+04</pdfrwt>
<pdfrwt beam="2">  1       -1 0.92505359E-01 0.20232989E+04</pdfrwt>
<totfact> 0.49977692E+00</totfact>
</mgrwt>
</event>
<event>
 6    1  0.9512547E-007  0.1874544E+04  0.7818608E-02  0.8667632E-01
         -1   -1    0    0    0  501 -0.00000000000E+00  0.00000000000E+00  0.55424069266E+03  0.55424069266E+03  0.00000000000E+00 0.  1.
          1   -1    0    0  501    0  0.00000000000E+00 -0.00000000000E+00 -0.15850137701E+04  0.15850137701E+04  0.00000000000E+00 0. -1.
         23    2    1    2    0    0  0.54094234545E+03  0.38848706136E+03  0.23260116549E+03  0.71108945282E+03  0.89465578705E+02 0.  0.
         13    1    3    3    0    0  0.25429205467E+03  0.17082049593E+03  0.61022465760E+02  0.31235849953E+03  0.00000000000E+00 0. -1.
        -13    1    3    3    0    0  0.28665029078E+03  0.21766656543E+03  0.17157869973E+03  0.39873095329E+03  0.00000000000E+00 0.  1.
         22    1    1    2    0    0 -0.54094234545E+03 -0.38848706136E+03 -0.12633742430E+04  0.14281650100E+04  0.00000000000E+00 0. -1.
<mgrwt>
<rscale>  0 0.18745443E+04</rscale>
<asrwt>0</asrwt>
<pdfrwt beam="1">  1        1 0.24384827E+00 0.18745443E+04</pdfrwt>
<pdfrwt beam="2">  1       -1 0.85267799E-01 0.18745443E+04</pdfrwt>
<totfact> 0.72848358E+00</totfact>
</mgrwt>
</event>
<event>
 6    1  0.9512547E-007  0.1332644E+04  0.7818608E-02  0.9004072E-01
         -2   -1    0    0    0  501 -0.00000000000E+00  0.00000000000E+00  0.41672791977E+03  0.41672791977E+03  0.00000000000E+00 0.  1.
          2   -1    0    0  501    0  0.00000000000E+00 -0.00000000000E+00 -0.10654066851E+04  0.10654066851E+04  0.00000000000E+00 0. -1.
         23    2    1    2    0    0 -0.58207338990E+03 -0.28301340455E+03 -0.48641729273E+03  0.81487543190E+03  0.92272251872E+02 0.  0.
         11    1    3    3    0    0 -0.23720956155E+03 -0.71227717645E+02 -0.21077269897E+03  0.32521822594E+03  0.00000000000E+00 0. -1.
        -11    1    3    3    0    0 -0.34486382835E+03 -0.21178568691E+03 -0.27564459376E+03  0.48965720596E+03  0.00000000000E+00 0.  1.
         22    1    1    2    0    0  0.58207338990E+03  0.28301340455E+03 -0.16226147257E+03  0.66725917293E+03  0.00000000000E+00 0. -1.
<mgrwt>
<rscale>  0 0.13326436E+04</rscale>
<asrwt>0</asrwt>
<pdfrwt beam="1">  1        2 0.16390872E+00 0.13326436E+04</pdfrwt>
<pdfrwt beam="2">  1       -2 0.64111989E-01 0.13326436E+04</pdfrwt>
<totfact> 0.50350185E+01</totfact>
</mgrwt>
</event>
<event>
 6    1  0.9579080E-007  0.3434158E+04  0.7818608E-02  0.8129573E-01
          2   -1    0    0  501    0  0.00000000000E+00  0.00000000000E+00  0.25866597492E+04  0.25866597492E+04  0.00000000000E+00 0. -1.
         -2   -1    0    0    0  501 -0.00000000000E+00 -0.00000000000E+00 -0.11398331846E+04  0.11398331846E+04  0.00000000000E+00 0.  1.
         23    2    1    2    0    0  0.66277053973E+03 -0.25965268977E+03  0.24181533793E+04  0.25222670046E+04  0.87639997451E+02 0.  0.
         11    1    3    3    0    0  0.48215960586E+03 -0.17118723462E+03  0.16031681562E+04  0.16828342437E+04  0.00000000000E+00 0.  1.
        -11    1    3    3    0    0  0.18061093387E+03 -0.88465455144E+02  0.81498522311E+03  0.83943276091E+03  0.00000000000E+00 0. -1.
         22    1    1    2    0    0 -0.66277053973E+03  0.25965268977E+03 -0.97132681470E+03  0.12042259292E+04  0.00000000000E+00 0.  1.
<mgrwt>
<rscale>  0 0.34341582E+04</rscale>
<asrwt>0</asrwt>
<pdfrwt beam="1">  1        2 0.39794765E+00 0.34341582E+04</pdfrwt>
<pdfrwt beam="2">  1       -2 0.17535895E+00 0.34341582E+04</pdfrwt>
<totfact> 0.49994710E-01</totfact>
</mgrwt>
</event>
<event>
 6    1  0.9512547E-007  0.4829980E+04  0.7818608E-02  0.7855283E-01
         -2   -1    0    0    0  501 -0.00000000000E+00  0.00000000000E+00  0.12079292604E+04  0.12079292604E+04  0.00000000000E+00 0.  1.
          2   -1    0    0  501    0  0.00000000000E+00 -0.00000000000E+00 -0.48282431486E+04  0.48282431486E+04  0.00000000000E+00 0. -1.
         23    2    1    2    0    0  0.13076284373E+04 -0.11909948274E+04 -0.38637421160E+04  0.42507822245E+04  0.11084030179E+03 0.  0.
         11    1    3    3    0    0  0.33150787000E+03 -0.36866463206E+03 -0.10658991615E+04  0.11755645883E+04  0.00000000000E+00 0. -1.
        -11    1    3    3    0    0  0.97612056727E+03 -0.82233019536E+03 -0.27978429544E+04  0.30752176362E+04  0.00000000000E+00 0.  1.
         22    1    1    2    0    0 -0.13076284373E+04  0.11909948274E+04  0.24342822775E+03  0.17853901845E+04  0.00000000000E+00 0.  1.
<mgrwt>
<rscale>  0 0.48299798E+04</rscale>
<asrwt>0</asrwt>
<pdfrwt beam="1">  1        2 0.74280664E+00 0.48299798E+04</pdfrwt>
<pdfrwt beam="2">  1       -2 0.18583527E+00 0.48299798E+04</pdfrwt>
<totfact> 0.66521786E-03</totfact>
</mgrwt>
</event>
<event>
 6    1  0.9512547E-007  0.2842416E+04  0.7818608E-02  0.8290220E-01
         -2   -1    0    0    0  501 -0.00000000000E+00  0.00000000000E+00  0.48637694098E+03  0.48637694098E+03  0.00000000000E+00 0.  1.
          2   -1    0    0  501    0  0.00000000000E+00 -0.00000000000E+00 -0.41528128990E+04  0.41528128990E+04  0.00000000000E+00 0. -1.
         23    2    1    2    0    0  0.99208130467E+03 -0.97504825111E+03 -0.22989130356E+04  0.26885326813E+04  0.90897890177E+02 0.  0.
         13    1    3    3    0    0  0.60639942801E+03 -0.65116757880E+03 -0.15042322635E+04  0.17476996838E+04  0.00000000000E+00 0. -1.
        -13    1    3    3    0    0  0.38568187666E+03 -0.32388067231E+03 -0.79468077203E+03  0.94083299757E+03  0.00000000000E+00 0.  1.
         22    1    1    2    0    0 -0.99208130467E+03  0.97504825111E+03 -0.13675229224E+04  0.19506571586E+04  0.00000000000E+00 0. -1.
<mgrwt>
<rscale>  0 0.28424162E+04</rscale>
<asrwt>0</asrwt>
<pdfrwt beam="1">  1        2 0.63889426E+00 0.28424162E+04</pdfrwt>
<pdfrwt beam="2">  1       -2 0.74827226E-01 0.28424162E+04</pdfrwt>
<totfact> 0.35559042E-01</totfact>
</mgrwt>
</event>
<event>
 6    1  0.9512547E-007  0.1769706E+04  0.7818608E-02  0.8722577E-01
          1   -1    0    0  501    0  0.00000000000E+00  0.00000000000E+00  0.75994533128E+03  0.75994533128E+03  0.00000000000E+00 0. -1.
         -1   -1    0    0    0  501 -0.00000000000E+00 -0.00000000000E+00 -0.10302909372E+04  0.10302909372E+04  0.00000000000E+00 0.  1.
         23    2    1    2    0    0 -0.21080354073E+03  0.85517542619E+03 -0.19091445207E+03  0.90588766613E+03  0.91765970261E+02 0.  0.
         11    1    3    3    0    0 -0.11287959195E+02  0.17812092501E+03 -0.19563518400E+02  0.17954724504E+03  0.00000000000E+00 0. -1.
        -11    1    3    3    0    0 -0.19951558153E+03  0.67705450118E+03 -0.17135093367E+03  0.72634042109E+03  0.00000000000E+00 0.  1.
         22    1    1    2    0    0  0.21080354073E+03 -0.85517542619E+03 -0.79431153898E+02  0.88434860239E+03  0.00000000000E+00 0. -1.
<mgrwt>
<rscale>  0 0.17697060E+04</rscale>
<asrwt>0</asrwt>
<pdfrwt beam="1">  1        1 0.11691467E+00 0.17697060E+04</pdfrwt>
<pdfrwt beam="2">  1       -1 0.15850630E+00 0.17697060E+04</pdfrwt>
<totfact> 0.68089588E+00</totfact>
</mgrwt>
</event>
<event>
 6    1  0.9512547E-007  0.3980393E+04  0.7818608E-02  0.8008514E-01
         -1   -1    0    0    0  501 -0.00000000000E+00  0.00000000000E+00  0.19606112296E+04  0.19606112296E+04  0.00000000000E+00 0.  1.
          1   -1    0    0  501    0  0.00000000000E+00 -0.00000000000E+00 -0.20202283120E+04  0.20202283120E+04  0.00000000000E+00 0. -1.
         23    2    1    2    0    0 -0.84482184325E+03 -0.15502829569E+04  0.88644927655E+03  0.19778061547E+04  0.93934405318E+02 0.  0.
         13    1    3    3    0    0 -0.23373110352E+03 -0.34560416353E+03  0.20972386646E+03  0.46696527361E+03  0.00000000000E+00 0. -1.
        -13    1    3    3    0    0 -0.61109073974E+03 -0.12046787933E+04  0.67672541009E+03  0.15108408811E+04  0.00000000000E+00 0.  1.
         22    1    1    2    0    0  0.84482184325E+03  0.15502829569E+04 -0.94606635897E+03  0.20030333868E+04  0.00000000000E+00 0. -1.
<mgrwt>
<rscale>  0 0.39803931E+04</rscale>
<asrwt>0</asrwt>
<pdfrwt beam="1">  1        1 0.31080436E+00 0.39803931E+04</pdfrwt>
<pdfrwt beam="2">  1       -1 0.30163250E+00 0.39803931E+04</pdfrwt>
<totfact> 0.72943718E-02</totfact>
</mgrwt>
</event>
<event>
 6    1  0.9512547E-007  0.1553792E+04  0.7818608E-02  0.8849449E-01
          2   -1    0    0  501    0  0.00000000000E+00  0.00000000000E+00  0.11743484989E+04  0.11743484989E+04  0.00000000000E+00 0. -1.
         -2   -1    0    0    0  501 -0.00000000000E+00 -0.00000000000E+00 -0.51395919863E+03  0.51395919863E+03  0.00000000000E+00 0.  1.
         23    2    1    2    0    0 -0.51314428449E+03  0.56236558667E+03  0.17826144514E+03  0.78718651898E+03  0.91177645673E+02 0.  0.
         13    1    3    3    0    0 -0.17753733322E+03  0.13384921861E+03  0.45921501051E+02  0.22703282200E+03  0.00000000000E+00 0.  1.
        -13    1    3    3    0    0 -0.33560695127E+03  0.42851636806E+03  0.13233994409E+03  0.56015369698E+03  0.00000000000E+00 0. -1.
         22    1    1    2    0    0  0.51314428449E+03 -0.56236558667E+03  0.48212785518E+03  0.90112117859E+03  0.00000000000E+00 0.  1.
<mgrwt>
<rscale>  0 0.15537918E+04</rscale>
<asrwt>0</asrwt>
<pdfrwt beam="1">  1        2 0.18066900E+00 0.15537918E+04</pdfrwt>
<pdfrwt beam="2">  1       -2 0.79070646E-01 0.15537918E+04</pdfrwt>
<totfact> 0.26803611E+01</totfact>
</mgrwt>
</event>
<event>
 6    1  0.9512547E-007  0.2791005E+04  0.7818608E-02  0.8306066E-01
         -2   -1    0    0    0  501 -0.00000000000E+00  0.00000000000E+00  0.12708235157E+04  0.12708235157E+04  0.00000000000E+00 0.  1.
          2   -1    0    0  501    0  0.00000000000E+00 -0.00000000000E+00 -0.15324132565E+04  0.15324132565E+04  0.00000000000E+00 0. -1.
         23    2    1    2    0    0  0.80624529382E+03 -0.10722655634E+04 -0.51132648345E+03  0.14386293734E+04  0.91732159306E+02 0.  0.
         13    1    3    3    0    0  0.58436942122E+02 -0.10602427191E+03 -0.25214382719E+02  0.12365996739E+03  0.00000000000E+00 0. -1.
        -13    1    3    3    0    0  0.74780835169E+03 -0.96624129147E+03 -0.48611210073E+03  0.13149694060E+04  0.00000000000E+00 0.  1.
         22    1    1    2    0    0 -0.80624529382E+03  0.10722655634E+04  0.24973674271E+03  0.13646073988E+04  0.00000000000E+00 0. -1.
<mgrwt>
<rscale>  0 0.27910047E+04</rscale>
<asrwt>0</asrwt>
<pdfrwt beam="1">  1        2 0.23575589E+00 0.27910047E+04</pdfrwt>
<pdfrwt beam="2">  1       -2 0.19551131E+00 0.27910047E+04</pdfrwt>
<totfact> 0.15093144E+00</totfact>
</mgrwt>
</event>
<event>
 6    1  0.9512547E-007  0.1625557E+04  0.7818608E-02  0.8804999E-01
          2   -1    0    0  501    0  0.00000000000E+00  0.00000000000E+00  0.24725194195E+04  0.24725194195E+04  0.00000000000E+00 0. -1.
         -2   -1    0    0    0  501 -0.00000000000E+00 -0.00000000000E+00 -0.26718060522E+03  0.26718060522E+03  0.00000000000E+00 0.  1.
         23    2    1    2    0    0 -0.59085808279E+02  0.80719973428E+03  0.10779578977E+04  0.13518778910E+04  0.10255758983E+03 0.  0.
         13    1    3    3    0    0 -0.19110142820E+02  0.26130898766E+03  0.43156570150E+03  0.50487279517E+03  0.00000000000E+00 0.  1.
        -13    1    3    3    0    0 -0.39975665459E+02  0.54589074662E+03  0.64639219618E+03  0.84700509583E+03  0.00000000000E+00 0. -1.
         22    1    1    2    0    0  0.59085808279E+02 -0.80719973428E+03  0.11273809166E+04  0.13878221338E+04  0.00000000000E+00 0. -1.
<mgrwt>
<rscale>  0 0.16255574E+04</rscale>
<asrwt>0</asrwt>
<pdfrwt beam="1">  1        2 0.38038759E+00 0.16255574E+04</pdfrwt>
<pdfrwt beam="2">  1       -2 0.41104710E-01 0.16255574E+04</pdfrwt>
<totfact> 0.19410191E+01</totfact>
</mgrwt>
</event>
<event>
 6    1  0.9512547E-007  0.8938921E+03  0.7818608E-02  0.9433249E-01
         -1   -1    0    0    0  501 -0.00000000000E+00  0.00000000000E+00  0.84334677358E+03  0.84334677358E+03  0.00000000000E+00 0.  1.
          1   -1    0    0  501    0  0.00000000000E+00 -0.00000000000E+00 -0.23686671967E+03  0.23686671967E+03  0.00000000000E+00 0. -1.
         23    2    1    2    0    0 -0.38188214208E+03  0.43559871530E+02  0.57091262696E+03  0.69421287834E+03  0.90878270139E+02 0.  0.
         13    1    3    3    0    0 -0.16487904822E+03  0.47922400741E+02  0.19230825714E+03  0.25780636687E+03  0.00000000000E+00 0.  1.
        -13    1    3    3    0    0 -0.21700309386E+03 -0.43625292112E+01  0.37860436983E+03  0.43640651148E+03  0.00000000000E+00 0. -1.
         22    1    1    2    0    0  0.38188214208E+03 -0.43559871530E+02  0.35567426945E+02  0.38600061491E+03  0.00000000000E+00 0. -1.
<mgrwt>
<rscale>  0 0.89389213E+03</rscale>
<asrwt>0</asrwt>
<pdfrwt beam="1">  1        1 0.36441034E-01 0.89389213E+03</pdfrwt>
<pdfrwt beam="2">  1       -1 0.12974566E+00 0.89389213E+03</pdfrwt>
<totfact> 0.61344823E+01</totfact>
</mgrwt>
</event>
<event>
 6    1  0.9512547E-007  0.2098288E+04  0.7818608E-02  0.8561998E-01
          2   -1    0    0  501    0  0.00000000000E+00  0.00000000000E+00  0.52741404019E+03  0.52741404019E+03  0.00000000000E+00 0. -1.
         -2   -1    0    0    0  501 -0.00000000000E+00 -0.00000000000E+00 -0.20869807958E+04  0.20869807958E+04  0.00000000000E+00 0.  1.
         23    2    1    2    0    0 -0.65528418636E+03 -0.10854727909E+03  0.22742604988E+03  0.70795229462E+03  0.91071217155E+02 0.  0.
         11    1    3    3    0    0 -0.33784149189E+03 -0.10082880858E+03  0.10864920789E+03  0.36892814023E+03  0.00000000000E+00 0.  1.
        -11    1    3    3    0    0 -0.31744269447E+03 -0.77184705123E+01  0.11877684199E+03  0.33902415438E+03  0.00000000000E+00 0. -1.
         22    1    1    2    0    0  0.65528418636E+03  0.10854727909E+03 -0.17869928055E+04  0.19064425414E+04  0.00000000000E+00 0.  1.
<mgrwt>
<rscale>  0 0.20982878E+04</rscale>
<asrwt>0</asrwt>
<pdfrwt beam="1">  1        2 0.81140621E-01 0.20982878E+04</pdfrwt>
<pdfrwt beam="2">  1       -2 0.32107397E+00 0.20982878E+04</pdfrwt>
<totfact> 0.12588967E+00</totfact>
</mgrwt>
</event>
<event>
 6    1  0.9512547E-007  0.3519697E+04  0.7818608E-02  0.8109138E-01
         -1   -1    0    0    0  501 -0.00000000000E+00  0.00000000000E+00  0.20931580898E+04  0.20931580898E+04  0.00000000000E+00 0.  1.
          1   -1    0    0  501    0  0.00000000000E+00 -0.00000000000E+00 -0.14796146985E+04  0.14796146985E+04  0.00000000000E+00 0. -1.
         23    2    1    2    0    0 -0.92992536476E+03 -0.76505275830E+03 -0.99403214101E+03  0.15641996632E+04  0.92486658592E+02 0.  0.
         13    1    3    3    0    0 -0.41181126891E+03 -0.28096565987E+03 -0.42185471857E+03  0.65306326402E+03  0.00000000000E+00 0.  1.
        -13    1    3    3    0    0 -0.51811409584E+03 -0.48408709843E+03 -0.57217742245E+03  0.91113639919E+03  0.00000000000E+00 0. -1.
         22    1    1    2    0    0  0.92992536476E+03  0.76505275830E+03  0.16075755322E+04  0.20085731251E+04  0.00000000000E+00 0.  1.
<mgrwt>
<rscale>  0 0.35196974E+04</rscale>
<asrwt>0</asrwt>
<pdfrwt beam="1">  1        1 0.22763303E+00 0.35196974E+04</pdfrwt>
<pdfrwt beam="2">  1       -1 0.32202432E+00 0.35196974E+04</pdfrwt>
<totfact> 0.13065809E-01</totfact>
</mgrwt>
</event>
<event>
 6    1  0.9512547E-007  0.1810236E+04  0.7818608E-02  0.8700875E-01
         -2   -1    0    0    0  501 -0.00000000000E+00  0.00000000000E+00  0.58669246351E+03  0.58669246351E+03  0.00000000000E+00 0.  1.
          2   -1    0    0  501    0  0.00000000000E+00 -0.00000000000E+00 -0.13963682801E+04  0.13963682801E+04  0.00000000000E+00 0. -1.
         23    2    1    2    0    0  0.10521255672E+03 -0.60113237574E+01 -0.13880691008E+04  0.13951452655E+04  0.92675051412E+02 0.  0.
         11    1    3    3    0    0 -0.97433922295E+01 -0.71522636106E+01 -0.43497608427E+03  0.43514397900E+03  0.00000000000E+00 0.  1.
        -11    1    3    3    0    0  0.11495594895E+03  0.11409398531E+01 -0.95309301655E+03  0.96000128653E+03  0.00000000000E+00 0. -1.
         22    1    1    2    0    0 -0.10521255672E+03  0.60113237574E+01  0.57839328424E+03  0.58791547807E+03  0.00000000000E+00 0.  1.
<mgrwt>
<rscale>  0 0.18102362E+04</rscale>
<asrwt>0</asrwt>
<pdfrwt beam="1">  1        2 0.21482589E+00 0.18102362E+04</pdfrwt>
<pdfrwt beam="2">  1       -2 0.90260379E-01 0.18102362E+04</pdfrwt>
<totfact> 0.14399757E+01</totfact>
</mgrwt>
</event>
<event>
 6    1  0.9512547E-007  0.2620092E+04  0.7818608E-02  0.8361408E-01
         -2   -1    0    0    0  501 -0.00000000000E+00  0.00000000000E+00  0.74175303225E+03  0.74175303225E+03  0.00000000000E+00 0.  1.
          2   -1    0    0  501    0  0.00000000000E+00 -0.00000000000E+00 -0.23137354770E+04  0.23137354770E+04  0.00000000000E+00 0. -1.
         23    2    1    2    0    0  0.12981288831E+04 -0.16309232017E+03 -0.81010505082E+03  0.15414888840E+04  0.90443817149E+02 0.  0.
         11    1    3    3    0    0  0.46298913130E+03 -0.94743145456E+02 -0.32032706524E+03  0.57091560501E+03  0.00000000000E+00 0. -1.
        -11    1    3    3    0    0  0.83513975176E+03 -0.68349174717E+02 -0.48977798558E+03  0.97057327895E+03  0.00000000000E+00 0.  1.
         22    1    1    2    0    0 -0.12981288831E+04  0.16309232017E+03 -0.76187739390E+03  0.15139996253E+04  0.00000000000E+00 0.  1.
<mgrwt>
<rscale>  0 0.26200918E+04</rscale>
<asrwt>0</asrwt>
<pdfrwt beam="1">  1        2 0.35595931E+00 0.26200918E+04</pdfrwt>
<pdfrwt beam="2">  1       -2 0.11411585E+00 0.26200918E+04</pdfrwt>
<totfact> 0.23624294E+00</totfact>
</mgrwt>
</event>
<event>
 6    1  0.9512547E-007  0.9341013E+03  0.7818608E-02  0.9383929E-01
         -1   -1    0    0    0  501 -0.00000000000E+00  0.00000000000E+00  0.17898278938E+03  0.17898278938E+03  0.00000000000E+00 0.  1.
          1   -1    0    0  501    0  0.00000000000E+00 -0.00000000000E+00 -0.12187558548E+04  0.12187558548E+04  0.00000000000E+00 0. -1.
         23    2    1    2    0    0  0.45861047029E+03 -0.53855342439E+02 -0.47948643174E+03  0.67169107464E+03  0.89653221719E+02 0.  0.
         13    1    3    3    0    0  0.21285945560E+03  0.17626298360E+02 -0.19797424284E+03  0.29122780613E+03  0.00000000000E+00 0.  1.
        -13    1    3    3    0    0  0.24575101469E+03 -0.71481640800E+02 -0.28151218890E+03  0.38046326852E+03  0.00000000000E+00 0. -1.
         22    1    1    2    0    0 -0.45861047029E+03  0.53855342439E+02 -0.56028663371E+03  0.72604756958E+03  0.00000000000E+00 0. -1.
<mgrwt>
<rscale>  0 0.93410133E+03</rscale>
<asrwt>0</asrwt>
<pdfrwt beam="1">  1        1 0.18750090E+00 0.93410133E+03</pdfrwt>
<pdfrwt beam="2">  1       -1 0.27535814E-01 0.93410133E+03</pdfrwt>
<totfact> 0.12334391E+02</totfact>
</mgrwt>
</event>
<event>
 6    1  0.9512547E-007  0.1957669E+04  0.7818608E-02  0.8626672E-01
          2   -1    0    0  501    0  0.00000000000E+00  0.00000000000E+00  0.12785898365E+04  0.12785898365E+04  0.00000000000E+00 0. -1.
         -2   -1    0    0    0  501 -0.00000000000E+00 -0.00000000000E+00 -0.74935409992E+03  0.74935409992E+03  0.00000000000E+00 0.  1.
         23    2    1    2    0    0  0.77852577043E+03  0.56094522099E+03  0.75897066907E+02  0.96668154399E+03  0.89167968188E+02 0.  0.
         13    1    3    3    0    0  0.45541094657E+03  0.34711466147E+03  0.86291629139E+02  0.57908027399E+03  0.00000000000E+00 0. -1.
        -13    1    3    3    0    0  0.32311482386E+03  0.21383055952E+03 -0.10394562232E+02  0.38760127000E+03  0.00000000000E+00 0.  1.
         22    1    1    2    0    0 -0.77852577043E+03 -0.56094522099E+03  0.45333866969E+03  0.10612623924E+04  0.00000000000E+00 0.  1.
<mgrwt>
<rscale>  0 0.19576685E+04</rscale>
<asrwt>0</asrwt>
<pdfrwt beam="1">  1        2 0.19670613E+00 0.19576685E+04</pdfrwt>
<pdfrwt beam="2">  1       -2 0.11528525E+00 0.19576685E+04</pdfrwt>
<totfact> 0.92984248E+00</totfact>
</mgrwt>
</event>
<event>
 6    1  0.9512547E-007  0.1466001E+04  0.7818608E-02  0.8907382E-01
         -2   -1    0    0    0  501 -0.00000000000E+00  0.00000000000E+00  0.39130123833E+03  0.39130123833E+03  0.00000000000E+00 0.  1.
          2   -1    0    0  501    0  0.00000000000E+00 -0.00000000000E+00 -0.13730843733E+04  0.13730843733E+04  0.00000000000E+00 0. -1.
         23    2    1    2    0    0  0.88091479568E+02  0.65540312230E+03 -0.12024665421E+03  0.67831081256E+03  0.91284933604E+02 0.  0.
         13    1    3    3    0    0  0.40721380312E+02  0.23528576519E+03 -0.73387803162E-01  0.23878364161E+03  0.00000000000E+00 0. -1.
        -13    1    3    3    0    0  0.47370099257E+02  0.42011735711E+03 -0.12017326641E+03  0.43952717095E+03  0.00000000000E+00 0.  1.
         22    1    1    2    0    0 -0.88091479568E+02 -0.65540312230E+03 -0.86153648073E+03  0.10860747990E+04  0.00000000000E+00 0. -1.
<mgrwt>
<rscale>  0 0.14660008E+04</rscale>
<asrwt>0</asrwt>
<pdfrwt beam="1">  1        2 0.21124375E+00 0.14660008E+04</pdfrwt>
<pdfrwt beam="2">  1       -2 0.60200189E-01 0.14660008E+04</pdfrwt>
<totfact> 0.37350159E+01</totfact>
</mgrwt>
</event>
<event>
 6    1  0.9512547E-007  0.1127760E+04  0.7818608E-02  0.9178549E-01
         -1   -1    0    0    0  501 -0.00000000000E+00  0.00000000000E+00  0.71380102562E+03  0.71380102562E+03  0.00000000000E+00 0.  1.
          1   -1    0    0  501    0  0.00000000000E+00 -0.00000000000E+00 -0.44544750593E+03  0.44544750593E+03  0.00000000000E+00 0. -1.
         23    2    1    2    0    0  0.33246010109E+03 -0.44869220440E+03  0.83676462123E+02  0.57106486237E+03  0.85199258287E+02 0.  0.
         13    1    3    3    0    0  0.12897952345E+03 -0.13472424974E+03  0.61024369627E+02  0.19624045104E+03  0.00000000000E+00 0. -1.
        -13    1    3    3    0    0  0.20348057763E+03 -0.31396795466E+03  0.22652092496E+02  0.37482441132E+03  0.00000000000E+00 0.  1.
         22    1    1    2    0    0 -0.33246010109E+03  0.44869220440E+03  0.18467705756E+03  0.58818366918E+03  0.00000000000E+00 0. -1.
<mgrwt>
<rscale>  0 0.11277604E+04</rscale>
<asrwt>0</asrwt>
<pdfrwt beam="1">  1        1 0.68530386E-01 0.11277604E+04</pdfrwt>
<pdfrwt beam="2">  1       -1 0.10981554E+00 0.11277604E+04</pdfrwt>
<totfact> 0.39585744E+01</totfact>
</mgrwt>
</event>
<event>
 6    1  0.9512547E-007  0.3738263E+04  0.7818608E-02  0.8059535E-01
          1   -1    0    0  501    0  0.00000000000E+00  0.00000000000E+00  0.16159536671E+04  0.16159536671E+04  0.00000000000E+00 0. -1.
         -1   -1    0    0    0  501 -0.00000000000E+00 -0.00000000000E+00 -0.21619756480E+04  0.21619756480E+04  0.00000000000E+00 0.  1.
         23    2    1    2    0    0 -0.92395589480E+03 -0.43097648563E+03 -0.18550583958E+04  0.21187091482E+04  0.90838186649E+02 0.  0.
         13    1    3    3    0    0 -0.62232630244E+03 -0.28935264919E+03 -0.11579947366E+04  0.13460931589E+04  0.00000000000E+00 0.  1.
        -13    1    3    3    0    0 -0.30162959236E+03 -0.14162383645E+03 -0.69706365917E+03  0.77261598934E+03  0.00000000000E+00 0. -1.
         22    1    1    2    0    0  0.92395589480E+03  0.43097648563E+03  0.13090364149E+04  0.16592201669E+04  0.00000000000E+00 0. -1.
<mgrwt>
<rscale>  0 0.37382630E+04</rscale>
<asrwt>0</asrwt>
<pdfrwt beam="1">  1        1 0.24860826E+00 0.37382630E+04</pdfrwt>
<pdfrwt beam="2">  1       -1 0.33261164E+00 0.37382630E+04</pdfrwt>
<totfact> 0.88036575E-02</totfact>
</mgrwt>
</event>
<event>
 6    1  0.9512547E-007  0.3194595E+04  0.7818608E-02  0.8190246E-01
          2   -1    0    0  501    0  0.00000000000E+00  0.00000000000E+00  0.82883205238E+03  0.82883205238E+03  0.00000000000E+00 0. -1.
         -2   -1    0    0    0  501 -0.00000000000E+00 -0.00000000000E+00 -0.30782594447E+04  0.30782594447E+04  0.00000000000E+00 0.  1.
         23    2    1    2    0    0  0.12949771451E+03  0.72354455597E+03  0.60697276987E+03  0.95763251804E+03  0.91420532217E+02 0.  0.
         13    1    3    3    0    0 -0.43235083158E+01  0.92833820519E+02  0.49503156485E+02  0.10529659756E+03  0.00000000000E+00 0. -1.
        -13    1    3    3    0    0  0.13382122283E+03  0.63071073545E+03  0.55746961338E+03  0.85233592048E+03  0.00000000000E+00 0.  1.
         22    1    1    2    0    0 -0.12949771451E+03 -0.72354455597E+03 -0.28564001622E+04  0.29494589790E+04  0.00000000000E+00 0.  1.
<mgrwt>
<rscale>  0 0.31945955E+04</rscale>
<asrwt>0</asrwt>
<pdfrwt beam="1">  1        2 0.12751262E+00 0.31945955E+04</pdfrwt>
<pdfrwt beam="2">  1       -2 0.47357837E+00 0.31945955E+04</pdfrwt>
<totfact> 0.67116824E-02</totfact>
</mgrwt>
</event>
<event>
 6    1  0.9512547E-007  0.2432320E+04  0.7818608E-02  0.8427502E-01
          2   -1    0    0  501    0  0.00000000000E+00  0.00000000000E+00  0.59952351166E+03  0.59952351166E+03  0.00000000000E+00 0. -1.
         -2   -1    0    0    0  501 -0.00000000000E+00 -0.00000000000E+00 -0.24670346196E+04  0.24670346196E+04  0.00000000000E+00 0.  1.
         23    2    1    2    0    0  0.69824616581E+03  0.69670755045E+03 -0.18285014639E+04  0.20794052195E+04  0.86944490394E+02 0.  0.
         13    1    3    3    0    0  0.28201255380E+03  0.27233110396E+03 -0.81643382041E+03  0.90568178395E+03  0.00000000000E+00 0. -1.
        -13    1    3    3    0    0  0.41623361201E+03  0.42437644650E+03 -0.10120676435E+04  0.11737234355E+04  0.00000000000E+00 0.  1.
         22    1    1    2    0    0 -0.69824616581E+03 -0.69670755045E+03 -0.39009644055E+02  0.98715291179E+03  0.00000000000E+00 0. -1.
<mgrwt>
<rscale>  0 0.24323201E+04</rscale>
<asrwt>0</asrwt>
<pdfrwt beam="1">  1        2 0.92234386E-01 0.24323201E+04</pdfrwt>
<pdfrwt beam="2">  1       -2 0.37954379E+00 0.24323201E+04</pdfrwt>
<totfact> 0.44912946E-01</totfact>
</mgrwt>
</event>
<event>
 6    1  0.9512547E-007  0.3109331E+04  0.7818608E-02  0.8213182E-01
          2   -1    0    0  501    0  0.00000000000E+00  0.00000000000E+00  0.23458539878E+04  0.23458539878E+04  0.00000000000E+00 0. -1.
         -2   -1    0    0    0  501 -0.00000000000E+00 -0.00000000000E+00 -0.10303222275E+04  0.10303222275E+04  0.00000000000E+00 0.  1.
         23    2    1    2    0    0  0.78199406460E+03 -0.11290364278E+04  0.14462120386E+04  0.19965692758E+04  0.92312730854E+02 0.  0.
         13    1    3    3    0    0  0.21453863899E+03 -0.24450244056E+03  0.36011337717E+03  0.48527303189E+03  0.00000000000E+00 0.  1.
        -13    1    3    3    0    0  0.56745542560E+03 -0.88453398722E+03  0.10860986614E+04  0.15112962439E+04  0.00000000000E+00 0. -1.
         22    1    1    2    0    0 -0.78199406460E+03  0.11290364278E+04 -0.13068027830E+03  0.13796069395E+04  0.00000000000E+00 0.  1.
<mgrwt>
<rscale>  0 0.31093314E+04</rscale>
<asrwt>0</asrwt>
<pdfrwt beam="1">  1        2 0.36090061E+00 0.31093314E+04</pdfrwt>
<pdfrwt beam="2">  1       -2 0.15851111E+00 0.31093314E+04</pdfrwt>
<totfact> 0.93575019E-01</totfact>
</mgrwt>
</event>
<event>
 6    1  0.9512547E-007  0.2827093E+04  0.7818608E-02  0.8294906E-01
          2   -1    0    0  501    0  0.00000000000E+00  0.00000000000E+00  0.89270950271E+03  0.89270950271E+03  0.00000000000E+00 0. -1.
         -2   -1    0    0    0  501 -0.00000000000E+00 -0.00000000000E+00 -0.22382576665E+04  0.22382576665E+04  0.00000000000E+00 0.  1.
         23    2    1    2    0    0 -0.81202503793E+03 -0.39215719629E+03  0.53041347604E+03  0.10495243996E+04  0.83612684767E+02 0.  0.
         11    1    3    3    0    0 -0.65192770493E+03 -0.33882957269E+03  0.40226296808E+03  0.83763399363E+03  0.00000000000E+00 0. -1.
        -11    1    3    3    0    0 -0.16009733300E+03 -0.53327623599E+02  0.12815050797E+03  0.21189040602E+03  0.00000000000E+00 0.  1.
         22    1    1    2    0    0  0.81202503793E+03  0.39215719629E+03 -0.18759616399E+04  0.20814427696E+04  0.00000000000E+00 0.  1.
<mgrwt>
<rscale>  0 0.28270931E+04</rscale>
<asrwt>0</asrwt>
<pdfrwt beam="1">  1        2 0.13733993E+00 0.28270931E+04</pdfrwt>
<pdfrwt beam="2">  1       -2 0.34434733E+00 0.28270931E+04</pdfrwt>
<totfact> 0.43479886E-01</totfact>
</mgrwt>
</event>
<event>
 6    1  0.9512547E-007  0.3786976E+04  0.7818608E-02  0.8048956E-01
         -2   -1    0    0    0  501 -0.00000000000E+00  0.00000000000E+00  0.99761544021E+03  0.99761544021E+03  0.00000000000E+00 0.  1.
          2   -1    0    0  501    0  0.00000000000E+00 -0.00000000000E+00 -0.35938672253E+04  0.35938672253E+04  0.00000000000E+00 0. -1.
         23    2    1    2    0    0 -0.11008498957E+04 -0.57444931971E+03 -0.30297634416E+04  0.32762660027E+04  0.11220469885E+03 0.  0.
         11    1    3    3    0    0 -0.77040754253E+03 -0.44766649977E+03 -0.20867178414E+04  0.22689919405E+04  0.00000000000E+00 0. -1.
        -11    1    3    3    0    0 -0.33044235321E+03 -0.12678281994E+03 -0.94304560015E+03  0.10072740621E+04  0.00000000000E+00 0.  1.
         22    1    1    2    0    0  0.11008498957E+04  0.57444931971E+03  0.43351165650E+03  0.13152166628E+04  0.00000000000E+00 0.  1.
<mgrwt>
<rscale>  0 0.37869763E+04</rscale>
<asrwt>0</asrwt>
<pdfrwt beam="1">  1        2 0.55290265E+00 0.37869763E+04</pdfrwt>
<pdfrwt beam="2">  1       -2 0.15347930E+00 0.37869763E+04</pdfrwt>
<totfact> 0.15747309E-01</totfact>
</mgrwt>
</event>
<event>
 6    1  0.9512547E-007  0.1711961E+04  0.7818608E-02  0.8754572E-01
          2   -1    0    0  501    0  0.00000000000E+00  0.00000000000E+00  0.21188786783E+04  0.21188786783E+04  0.00000000000E+00 0. -1.
         -2   -1    0    0    0  501 -0.00000000000E+00 -0.00000000000E+00 -0.34579722265E+03  0.34579722265E+03  0.00000000000E+00 0.  1.
         23    2    1    2    0    0 -0.23840135477E+02 -0.50052346083E+03 -0.10513166722E+03  0.52076833581E+03  0.95157265787E+02 0.  0.
         11    1    3    3    0    0 -0.82693799630E+01 -0.12086726502E+03  0.15422250906E+02  0.12212749167E+03  0.00000000000E+00 0.  1.
        -11    1    3    3    0    0 -0.15570755514E+02 -0.37965619581E+03 -0.12055391813E+03  0.39864084415E+03  0.00000000000E+00 0. -1.
         22    1    1    2    0    0  0.23840135477E+02  0.50052346083E+03  0.18782131229E+04  0.19439075652E+04  0.00000000000E+00 0. -1.
<mgrwt>
<rscale>  0 0.17119607E+04</rscale>
<asrwt>0</asrwt>
<pdfrwt beam="1">  1        2 0.32598133E+00 0.17119607E+04</pdfrwt>
<pdfrwt beam="2">  1       -2 0.53199574E-01 0.17119607E+04</pdfrwt>
<totfact> 0.18166490E+01</totfact>
</mgrwt>
</event>
<event>
 6    1  0.9512547E-007  0.2500611E+04  0.7818608E-02  0.8402768E-01
         -2   -1    0    0    0  501 -0.00000000000E+00  0.00000000000E+00  0.74431432180E+03  0.74431432180E+03  0.00000000000E+00 0.  1.
          2   -1    0    0  501    0  0.00000000000E+00 -0.00000000000E+00 -0.21002733205E+04  0.21002733205E+04  0.00000000000E+00 0. -1.
         23    2    1    2    0    0 -0.90160037268E+03  0.81190354180E+03 -0.10128892896E+04  0.15837278490E+04  0.10088901529E+03 0.  0.
         11    1    3    3    0    0 -0.43333832980E+03  0.45734005317E+03 -0.51461205803E+03  0.81349099723E+03  0.00000000000E+00 0.  1.
        -11    1    3    3    0    0 -0.46826204287E+03  0.35456348863E+03 -0.49827723159E+03  0.77023685175E+03  0.00000000000E+00 0. -1.
         22    1    1    2    0    0  0.90160037268E+03 -0.81190354180E+03 -0.34306970912E+03  0.12608597934E+04  0.00000000000E+00 0.  1.
<mgrwt>
<rscale>  0 0.25006107E+04</rscale>
<asrwt>0</asrwt>
<pdfrwt beam="1">  1        2 0.32311898E+00 0.25006107E+04</pdfrwt>
<pdfrwt beam="2">  1       -2 0.11450989E+00 0.25006107E+04</pdfrwt>
<totfact> 0.31210514E+00</totfact>
</mgrwt>
</event>
<event>
 6    1  0.9512547E-007  0.8059503E+03  0.7818608E-02  0.9551444E-01
         -1   -1    0    0    0  501 -0.00000000000E+00  0.00000000000E+00  0.12274250311E+03  0.12274250311E+03  0.00000000000E+00 0.  1.
          1   -1    0    0  501    0  0.00000000000E+00 -0.00000000000E+00 -0.13230052578E+04  0.13230052578E+04  0.00000000000E+00 0. -1.
         23    2    1    2    0    0  0.34358512172E+03 -0.19845451086E+03 -0.66612844386E+03  0.78036487057E+03  0.88358920081E+02 0.  0.
         13    1    3    3    0    0  0.47658177231E+02 -0.46812386630E+02 -0.17444566547E+03  0.18679933512E+03  0.00000000000E+00 0.  1.
        -13    1    3    3    0    0  0.29592694449E+03 -0.15164212423E+03 -0.49168277839E+03  0.59356553545E+03  0.00000000000E+00 0. -1.
         22    1    1    2    0    0 -0.34358512172E+03  0.19845451086E+03 -0.53413431081E+03  0.66538289033E+03  0.00000000000E+00 0.  1.
<mgrwt>
<rscale>  0 0.80595031E+03</rscale>
<asrwt>0</asrwt>
<pdfrwt beam="1">  1        1 0.20353927E+00 0.80595031E+03</pdfrwt>
<pdfrwt beam="2">  1       -1 0.18883462E-01 0.80595031E+03</pdfrwt>
<totfact> 0.19848816E+02</totfact>
</mgrwt>
</event>
<event>
 6    1  0.9512547E-007  0.2005720E+04  0.7818608E-02  0.8603951E-01
          2   -1    0    0  501    0  0.00000000000E+00  0.00000000000E+00  0.22009943605E+04  0.22009943605E+04  0.00000000000E+00 0. -1.
         -2   -1    0    0    0  501 -0.00000000000E+00 -0.00000000000E+00 -0.45694274425E+03  0.45694274425E+03  0.00000000000E+00 0.  1.
         23    2    1    2    0    0  0.37913960108E+03 -0.92027916713E+03  0.73592572969E+03  0.12412584589E+04  0.92061390001E+02 0.  0.
         13    1    3    3    0    0  0.24551971940E+03 -0.51491392984E+03  0.46231388583E+03  0.73426862714E+03  0.00000000000E+00 0.  1.
        -13    1    3    3    0    0  0.13361988168E+03 -0.40536523728E+03  0.27361184385E+03  0.50698983173E+03  0.00000000000E+00 0. -1.
         22    1    1    2    0    0 -0.37913960108E+03  0.92027916713E+03  0.10081258865E+04  0.14166786459E+04  0.00000000000E+00 0. -1.
<mgrwt>
<rscale>  0 0.20057202E+04</rscale>
<asrwt>0</asrwt>
<pdfrwt beam="1">  1        2 0.33861451E+00 0.20057202E+04</pdfrwt>
<pdfrwt beam="2">  1       -2 0.70298885E-01 0.20057202E+04</pdfrwt>
<totfact> 0.88201645E+00</totfact>
</mgrwt>
</event>
<event>
 6    1  0.9512547E-007  0.7842762E+03  0.7818608E-02  0.9583060E-01
         -1   -1    0    0    0  501 -0.00000000000E+00  0.00000000000E+00  0.28123229842E+03  0.28123229842E+03  0.00000000000E+00 0.  1.
          1   -1    0    0  501    0  0.00000000000E+00 -0.00000000000E+00 -0.54678031356E+03  0.54678031356E+03  0.00000000000E+00 0. -1.
         23    2    1    2    0    0  0.34778033133E+03 -0.63033710349E+02  0.31223187480E+02  0.36649603135E+03  0.91760808934E+02 0.  0.
         11    1    3    3    0    0  0.92500992493E+02 -0.59242771971E+02  0.10645013486E+02  0.11036057247E+03  0.00000000000E+00 0. -1.
        -11    1    3    3    0    0  0.25527933884E+03 -0.37909383774E+01  0.20578173994E+02  0.25613545888E+03  0.00000000000E+00 0.  1.
         22    1    1    2    0    0 -0.34778033133E+03  0.63033710349E+02 -0.29677120261E+03  0.46151658063E+03  0.00000000000E+00 0. -1.
<mgrwt>
<rscale>  0 0.78427619E+03</rscale>
<asrwt>0</asrwt>
<pdfrwt beam="1">  1        1 0.84120049E-01 0.78427619E+03</pdfrwt>
<pdfrwt beam="2">  1       -1 0.43266507E-01 0.78427619E+03</pdfrwt>
<totfact> 0.20846288E+02</totfact>
</mgrwt>
</event>
<event>
 6    1  0.9512547E-007  0.1731267E+04  0.7818608E-02  0.8743730E-01
          1   -1    0    0  501    0  0.00000000000E+00  0.00000000000E+00  0.18829623394E+04  0.18829623394E+04  0.00000000000E+00 0. -1.
         -1   -1    0    0    0  501 -0.00000000000E+00 -0.00000000000E+00 -0.39794834188E+03  0.39794834188E+03  0.00000000000E+00 0.  1.
         23    2    1    2    0    0 -0.57315139623E+03 -0.12468695207E+03  0.15789389360E+04  0.16868810077E+04  0.92032665367E+02 0.  0.
         11    1    3    3    0    0 -0.77407576165E+02 -0.50352184921E+02  0.23434886960E+03  0.25188622046E+03  0.00000000000E+00 0.  1.
        -11    1    3    3    0    0 -0.49574382006E+03 -0.74334767147E+02  0.13445900664E+04  0.14349947873E+04  0.00000000000E+00 0. -1.
         22    1    1    2    0    0  0.57315139623E+03  0.12468695207E+03 -0.93924938487E+02  0.59402967357E+03  0.00000000000E+00 0.  1.
<mgrwt>
<rscale>  0 0.17312674E+04</rscale>
<asrwt>0</asrwt>
<pdfrwt beam="1">  1        1 0.28968651E+00 0.17312674E+04</pdfrwt>
<pdfrwt beam="2">  1       -1 0.61222823E-01 0.17312674E+04</pdfrwt>
<totfact> 0.91899805E+00</totfact>
</mgrwt>
</event>
<event>
 6    1  0.9512547E-007  0.5255190E+04  0.7818608E-02  0.7790304E-01
          2   -1    0    0  501    0  0.00000000000E+00  0.00000000000E+00  0.37662839706E+04  0.37662839706E+04  0.00000000000E+00 0. -1.
         -2   -1    0    0    0  501 -0.00000000000E+00 -0.00000000000E+00 -0.18331741363E+04  0.18331741363E+04  0.00000000000E+00 0.  1.
         23    2    1    2    0    0  0.14039183692E+04 -0.22123791665E+04  0.11645889110E+04  0.28688477772E+04  0.91716265914E+02 0.  0.
         11    1    3    3    0    0  0.98728181667E+03 -0.14799605164E+04  0.80503421817E+03  0.19527131402E+04  0.00000000000E+00 0. -1.
        -11    1    3    3    0    0  0.41663655248E+03 -0.73241865012E+03  0.35955469281E+03  0.91613463695E+03  0.00000000000E+00 0.  1.
         22    1    1    2    0    0 -0.14039183692E+04  0.22123791665E+04  0.76852092331E+03  0.27306103298E+04  0.00000000000E+00 0. -1.
<mgrwt>
<rscale>  0 0.52551896E+04</rscale>
<asrwt>0</asrwt>
<pdfrwt beam="1">  1        2 0.57942830E+00 0.52551896E+04</pdfrwt>
<pdfrwt beam="2">  1       -2 0.28202679E+00 0.52551896E+04</pdfrwt>
<totfact> 0.15159534E-02</totfact>
</mgrwt>
</event>
<event>
 6    1  0.9512547E-007  0.3955519E+04  0.7818608E-02  0.8013580E-01
         -2   -1    0    0    0  501 -0.00000000000E+00  0.00000000000E+00  0.13548210577E+04  0.13548210577E+04  0.00000000000E+00 0.  1.
          2   -1    0    0  501    0  0.00000000000E+00 -0.00000000000E+00 -0.28871218851E+04  0.28871218851E+04  0.00000000000E+00 0. -1.
         23    2    1    2    0    0 -0.18901463986E+04  0.23619659386E+03 -0.20053635508E+03  0.19177142860E+04  0.94715437808E+02 0.  0.
         13    1    3    3    0    0 -0.11602944253E+04  0.11334345159E+03 -0.88615161066E+02  0.11691802848E+04  0.00000000000E+00 0. -1.
        -13    1    3    3    0    0 -0.72985197322E+03  0.12285314227E+03 -0.11192119401E+03  0.74853400126E+03  0.00000000000E+00 0.  1.
         22    1    1    2    0    0  0.18901463986E+04 -0.23619659386E+03 -0.13317644724E+04  0.23242286567E+04  0.00000000000E+00 0. -1.
<mgrwt>
<rscale>  0 0.39555194E+04</rscale>
<asrwt>0</asrwt>
<pdfrwt beam="1">  1        2 0.44417259E+00 0.39555194E+04</pdfrwt>
<pdfrwt beam="2">  1       -2 0.20843401E+00 0.39555194E+04</pdfrwt>
<totfact> 0.18977518E-01</totfact>
</mgrwt>
</event>
<event>
 6    1  0.9512547E-007  0.4719788E+04  0.7818608E-02  0.7873249E-01
          2   -1    0    0  501    0  0.00000000000E+00  0.00000000000E+00  0.36349583202E+04  0.36349583202E+04  0.00000000000E+00 0. -1.
         -2   -1    0    0    0  501 -0.00000000000E+00 -0.00000000000E+00 -0.15320946141E+04  0.15320946141E+04  0.00000000000E+00 0.  1.
         23    2    1    2    0    0  0.12194616483E+04  0.14840442892E+03 -0.11528734349E+04  0.16872634410E+04  0.92898741422E+02 0.  0.
         13    1    3    3    0    0  0.91732527825E+03  0.71145061796E+02 -0.86598118387E+03  0.12635152143E+04  0.00000000000E+00 0.  1.
        -13    1    3    3    0    0  0.30213637000E+03  0.77259367121E+02 -0.28689225108E+03  0.42374822668E+03  0.00000000000E+00 0. -1.
         22    1    1    2    0    0 -0.12194616483E+04 -0.14840442892E+03  0.32557371411E+04  0.34797894933E+04  0.00000000000E+00 0. -1.
<mgrwt>
<rscale>  0 0.47197882E+04</rscale>
<asrwt>0</asrwt>
<pdfrwt beam="1">  1        2 0.55922435E+00 0.47197882E+04</pdfrwt>
<pdfrwt beam="2">  1       -2 0.23570686E+00 0.47197882E+04</pdfrwt>
<totfact> 0.38096208E-02</totfact>
</mgrwt>
</event>
<event>
 6    1  0.9512547E-007  0.3650479E+04  0.7818608E-02  0.8079026E-01
          1   -1    0    0  501    0  0.00000000000E+00  0.00000000000E+00  0.35753138441E+04  0.35753138441E+04  0.00000000000E+00 0. -1.
         -1   -1    0    0    0  501 -0.00000000000E+00 -0.00000000000E+00 -0.93180584064E+03  0.93180584064E+03  0.00000000000E+00 0.  1.
         23    2    1    2    0    0 -0.27387408279E+03  0.51195995181E+03 -0.81219350120E+03  0.10029817173E+04  0.95937669332E+02 0.  0.
         11    1    3    3    0    0 -0.92136796405E+02  0.20548757003E+03 -0.39177292767E+03  0.45188533672E+03  0.00000000000E+00 0. -1.
        -11    1    3    3    0    0 -0.18173728639E+03  0.30647238178E+03 -0.42042057353E+03  0.55109638059E+03  0.00000000000E+00 0.  1.
         22    1    1    2    0    0  0.27387408279E+03 -0.51195995181E+03  0.34557015047E+04  0.35041379675E+04  0.00000000000E+00 0. -1.
<mgrwt>
<rscale>  0 0.36504785E+04</rscale>
<asrwt>0</asrwt>
<pdfrwt beam="1">  1        1 0.55004828E+00 0.36504785E+04</pdfrwt>
<pdfrwt beam="2">  1       -1 0.14335475E+00 0.36504785E+04</pdfrwt>
<totfact> 0.68960768E-02</totfact>
</mgrwt>
</event>
<event>
 6    1  0.9512547E-007  0.1756244E+04  0.7818608E-02  0.8729921E-01
          3   -1    0    0  501    0  0.00000000000E+00  0.00000000000E+00  0.16991989587E+04  0.16991989587E+04  0.00000000000E+00 0. -1.
         -3   -1    0    0    0  501 -0.00000000000E+00 -0.00000000000E+00 -0.45380091942E+03  0.45380091942E+03  0.00000000000E+00 0.  1.
         23    2    1    2    0    0  0.79869869597E+03  0.86073756287E+02  0.10519582610E+04  0.13267146693E+04  0.90704643547E+02 0.  0.
         11    1    3    3    0    0  0.60666770351E+03  0.71024463645E+02  0.73335739198E+03  0.95441251108E+03  0.00000000000E+00 0.  1.
        -11    1    3    3    0    0  0.19203099246E+03  0.15049292643E+02  0.31860086902E+03  0.37230215822E+03  0.00000000000E+00 0. -1.
         22    1    1    2    0    0 -0.79869869597E+03 -0.86073756287E+02  0.19343977823E+03  0.82628520879E+03  0.00000000000E+00 0.  1.
<mgrwt>
<rscale>  0 0.17562438E+04</rscale>
<asrwt>0</asrwt>
<pdfrwt beam="1">  1        3 0.26141522E+00 0.17562438E+04</pdfrwt>
<pdfrwt beam="2">  1       -3 0.69815527E-01 0.17562438E+04</pdfrwt>
<totfact> 0.30961992E-01</totfact>
</mgrwt>
</event>
<event>
 6    1  0.9512547E-007  0.1706032E+04  0.7818608E-02  0.8757931E-01
         -2   -1    0    0    0  501 -0.00000000000E+00  0.00000000000E+00  0.61044278237E+03  0.61044278237E+03  0.00000000000E+00 0.  1.
          2   -1    0    0  501    0  0.00000000000E+00 -0.00000000000E+00 -0.11919817325E+04  0.11919817325E+04  0.00000000000E+00 0. -1.
         23    2    1    2    0    0 -0.88976931913E+02  0.79914408003E+03  0.28920076458E+01  0.80838844940E+03  0.83278847043E+02 0.  0.
         11    1    3    3    0    0 -0.75040084056E+02  0.32280217167E+03  0.14124342884E+02  0.33171034550E+03  0.00000000000E+00 0.  1.
        -11    1    3    3    0    0 -0.13936847857E+02  0.47634190835E+03 -0.11232335238E+02  0.47667810390E+03  0.00000000000E+00 0. -1.
         22    1    1    2    0    0  0.88976931913E+02 -0.79914408003E+03 -0.58443095781E+03  0.99403606549E+03  0.00000000000E+00 0. -1.
<mgrwt>
<rscale>  0 0.17060324E+04</rscale>
<asrwt>0</asrwt>
<pdfrwt beam="1">  1        2 0.18338180E+00 0.17060324E+04</pdfrwt>
<pdfrwt beam="2">  1       -2 0.93914275E-01 0.17060324E+04</pdfrwt>
<totfact> 0.17441541E+01</totfact>
</mgrwt>
</event>
<event>
 6    1  0.9512547E-007  0.2667582E+04  0.7818608E-02  0.8345601E-01
         -2   -1    0    0    0  501 -0.00000000000E+00  0.00000000000E+00  0.13209457232E+04  0.13209457232E+04  0.00000000000E+00 0.  1.
          2   -1    0    0  501    0  0.00000000000E+00 -0.00000000000E+00 -0.13467610801E+04  0.13467610801E+04  0.00000000000E+00 0. -1.
         23    2    1    2    0    0  0.88225669410E+03 -0.31898773749E+03  0.93312475468E+03  0.13261792454E+04  0.88879311719E+02 0.  0.
         11    1    3    3    0    0  0.28041463494E+03 -0.14428259433E+03  0.32853016273E+03  0.45539203148E+03  0.00000000000E+00 0. -1.
        -11    1    3    3    0    0  0.60184205916E+03 -0.17470514316E+03  0.60459459195E+03  0.87078721387E+03  0.00000000000E+00 0.  1.
         22    1    1    2    0    0 -0.88225669410E+03  0.31898773749E+03 -0.95894011162E+03  0.13415275579E+04  0.00000000000E+00 0. -1.
<mgrwt>
<rscale>  0 0.26675819E+04</rscale>
<asrwt>0</asrwt>
<pdfrwt beam="1">  1        2 0.20719401E+00 0.26675819E+04</pdfrwt>
<pdfrwt beam="2">  1       -2 0.20322242E+00 0.26675819E+04</pdfrwt>
<totfact> 0.17306749E+00</totfact>
</mgrwt>
</event>
<event>
 6    1  0.9512547E-007  0.2194970E+04  0.7818608E-02  0.8520524E-01
         -1   -1    0    0    0  501 -0.00000000000E+00  0.00000000000E+00  0.48968321021E+03  0.48968321021E+03  0.00000000000E+00 0.  1.
          1   -1    0    0  501    0  0.00000000000E+00 -0.00000000000E+00 -0.24597000950E+04  0.24597000950E+04  0.00000000000E+00 0. -1.
         23    2    1    2    0    0 -0.38044672734E+03 -0.22569453489E+03 -0.23334785428E+04  0.23768607185E+04  0.93096886456E+02 0.  0.
         11    1    3    3    0    0 -0.12692762982E+03 -0.85001070950E+02 -0.10490133189E+04  0.10600777087E+04  0.00000000000E+00 0. -1.
        -11    1    3    3    0    0 -0.25351909752E+03 -0.14069346394E+03 -0.12844652239E+04  0.13167830099E+04  0.00000000000E+00 0.  1.
         22    1    1    2    0    0  0.38044672734E+03  0.22569453489E+03  0.36346165799E+03  0.57252258667E+03  0.00000000000E+00 0.  1.
<mgrwt>
<rscale>  0 0.21949705E+04</rscale>
<asrwt>0</asrwt>
<pdfrwt beam="1">  1        1 0.37841540E+00 0.21949705E+04</pdfrwt>
<pdfrwt beam="2">  1       -1 0.75335879E-01 0.21949705E+04</pdfrwt>
<totfact> 0.23341350E+00</totfact>
</mgrwt>
</event>
<event>
 6    1  0.9512547E-007  0.5121242E+03  0.7818608E-02  0.1010662E+00
          1   -1    0    0  501    0  0.00000000000E+00  0.00000000000E+00  0.67895209680E+03  0.67895209680E+03  0.00000000000E+00 0. -1.
         -1   -1    0    0    0  501 -0.00000000000E+00 -0.00000000000E+00 -0.96572043587E+02  0.96572043587E+02  0.00000000000E+00 0.  1.
         23    2    1    2    0    0 -0.22732960289E+03 -0.60528311504E+02  0.41934361221E+03  0.48930166409E+03  0.90689737758E+02 0.  0.
         13    1    3    3    0    0 -0.16767940697E+03 -0.61150761489E+02  0.37388488988E+03  0.41430147240E+03  0.00000000000E+00 0. -1.
        -13    1    3    3    0    0 -0.59650195925E+02  0.62244998506E+00  0.45458722335E+02  0.75000191694E+02  0.00000000000E+00 0.  1.
         22    1    1    2    0    0  0.22732960289E+03  0.60528311504E+02  0.16303644100E+03  0.28622247630E+03  0.00000000000E+00 0.  1.
<mgrwt>
<rscale>  0 0.51212417E+03</rscale>
<asrwt>0</asrwt>
<pdfrwt beam="1">  1        1 0.10445417E+00 0.51212417E+03</pdfrwt>
<pdfrwt beam="2">  1       -1 0.14857238E-01 0.51212417E+03</pdfrwt>
<totfact> 0.96027290E+02</totfact>
</mgrwt>
</event>
<event>
 6    1  0.9512547E-007  0.2243288E+04  0.7818608E-02  0.8500624E-01
          1   -1    0    0  501    0  0.00000000000E+00  0.00000000000E+00  0.83976415355E+03  0.83976415355E+03  0.00000000000E+00 0. -1.
         -1   -1    0    0    0  501 -0.00000000000E+00 -0.00000000000E+00 -0.14981408359E+04  0.14981408359E+04  0.00000000000E+00 0.  1.
         23    2    1    2    0    0  0.51550047710E+03 -0.95542160160E+03 -0.44659231458E+02  0.10908202737E+04  0.96556946483E+02 0.  0.
         11    1    3    3    0    0  0.35876968874E+03 -0.69110385714E+03  0.97979940226E+01  0.77874015666E+03  0.00000000000E+00 0.  1.
        -11    1    3    3    0    0  0.15673078836E+03 -0.26431774445E+03 -0.54457225480E+02  0.31208011706E+03  0.00000000000E+00 0. -1.
         22    1    1    2    0    0 -0.51550047710E+03  0.95542160160E+03 -0.61371745089E+03  0.12470847157E+04  0.00000000000E+00 0.  1.
<mgrwt>
<rscale>  0 0.22432877E+04</rscale>
<asrwt>0</asrwt>
<pdfrwt beam="1">  1        1 0.12919449E+00 0.22432877E+04</pdfrwt>
<pdfrwt beam="2">  1       -1 0.23048320E+00 0.22432877E+04</pdfrwt>
<totfact> 0.17387606E+00</totfact>
</mgrwt>
</event>
<event>
 6    1  0.9512547E-007  0.2839585E+04  0.7818608E-02  0.8291083E-01
         -2   -1    0    0    0  501 -0.00000000000E+00  0.00000000000E+00  0.10213011153E+04  0.10213011153E+04  0.00000000000E+00 0.  1.
          2   -1    0    0  501    0  0.00000000000E+00 -0.00000000000E+00 -0.19737674213E+04  0.19737674213E+04  0.00000000000E+00 0. -1.
         23    2    1    2    0    0  0.15321666691E+03 -0.13639366998E+04 -0.99304761618E+02  0.13789982135E+04  0.89308281389E+02 0.  0.
         13    1    3    3    0    0  0.51503030456E+02 -0.35959647145E+03 -0.64307781014E+02  0.36891418396E+03  0.00000000000E+00 0.  1.
        -13    1    3    3    0    0  0.10171363646E+03 -0.10043402284E+04 -0.34996980604E+02  0.10100840296E+04  0.00000000000E+00 0. -1.
         22    1    1    2    0    0 -0.15321666691E+03  0.13639366998E+04 -0.85316154442E+03  0.16160703230E+04  0.00000000000E+00 0. -1.
<mgrwt>
<rscale>  0 0.28395851E+04</rscale>
<asrwt>0</asrwt>
<pdfrwt beam="1">  1        2 0.30365652E+00 0.28395851E+04</pdfrwt>
<pdfrwt beam="2">  1       -2 0.15712325E+00 0.28395851E+04</pdfrwt>
<totfact> 0.15859963E+00</totfact>
</mgrwt>
</event>
<event>
 6    1  0.9512547E-007  0.2059808E+04  0.7818608E-02  0.8579158E-01
          2   -1    0    0  501    0  0.00000000000E+00  0.00000000000E+00  0.21122311879E+04  0.21122311879E+04  0.00000000000E+00 0. -1.
         -2   -1    0    0    0  501 -0.00000000000E+00 -0.00000000000E+00 -0.50217139883E+03  0.50217139883E+03  0.00000000000E+00 0.  1.
         23    2    1    2    0    0 -0.42720406152E+03  0.44072167382E+03 -0.23987429777E+03  0.66530150427E+03  0.91364702697E+02 0.  0.
         11    1    3    3    0    0 -0.12707126758E+03  0.95822783261E+02 -0.28837667337E+02  0.16174277076E+03  0.00000000000E+00 0.  1.
        -11    1    3    3    0    0 -0.30013279394E+03  0.34489889056E+03 -0.21103663043E+03  0.50355873351E+03  0.00000000000E+00 0. -1.
         22    1    1    2    0    0  0.42720406152E+03 -0.44072167382E+03  0.18499340868E+04  0.19491010824E+04  0.00000000000E+00 0. -1.
<mgrwt>
<rscale>  0 0.20598078E+04</rscale>
<asrwt>0</asrwt>
<pdfrwt beam="1">  1        2 0.32495864E+00 0.20598078E+04</pdfrwt>
<pdfrwt beam="2">  1       -2 0.77257140E-01 0.20598078E+04</pdfrwt>
<totfact> 0.79931118E+00</totfact>
</mgrwt>
</event>
<event>
 6    1  0.9512547E-007  0.4129045E+04  0.7818608E-02  0.7979008E-01
         -2   -1    0    0    0  501 -0.00000000000E+00  0.00000000000E+00  0.20935336175E+04  0.20935336175E+04  0.00000000000E+00 0.  1.
          2   -1    0    0  501    0  0.00000000000E+00 -0.00000000000E+00 -0.20359134996E+04  0.20359134996E+04  0.00000000000E+00 0. -1.
         23    2    1    2    0    0 -0.96214643474E+03 -0.17886636514E+04  0.39374198620E+03  0.20708016085E+04  0.90239293834E+02 0.  0.
         13    1    3    3    0    0 -0.76948985258E+03 -0.13602575616E+04  0.32144744192E+03  0.15955386943E+04  0.00000000000E+00 0. -1.
        -13    1    3    3    0    0 -0.19265658216E+03 -0.42840608986E+03  0.72294544280E+02  0.47526291420E+03  0.00000000000E+00 0.  1.
         22    1    1    2    0    0  0.96214643474E+03  0.17886636514E+04 -0.33612186835E+03  0.20586455086E+04  0.00000000000E+00 0. -1.
<mgrwt>
<rscale>  0 0.41290451E+04</rscale>
<asrwt>0</asrwt>
<pdfrwt beam="1">  1        2 0.31321746E+00 0.41290451E+04</pdfrwt>
<pdfrwt beam="2">  1       -2 0.32208210E+00 0.41290451E+04</pdfrwt>
<totfact> 0.11578433E-01</totfact>
</mgrwt>
</event>
<event>
 6    1  0.9512547E-007  0.2070702E+04  0.7818608E-02  0.8574260E-01
          2   -1    0    0  501    0  0.00000000000E+00  0.00000000000E+00  0.27094165873E+04  0.27094165873E+04  0.00000000000E+00 0. -1.
         -2   -1    0    0    0  501 -0.00000000000E+00 -0.00000000000E+00 -0.39563933219E+03  0.39563933219E+03  0.00000000000E+00 0.  1.
         23    2    1    2    0    0 -0.59801358816E+02  0.91544900938E+03  0.18723592505E+04  0.20869827659E+04  0.90248606589E+02 0.  0.
         11    1    3    3    0    0 -0.17047078868E+02  0.72097932069E+03  0.14159022343E+04  0.15889873885E+04  0.00000000000E+00 0.  1.
        -11    1    3    3    0    0 -0.42754279948E+02  0.19446968869E+03  0.45645701616E+03  0.49799537736E+03  0.00000000000E+00 0. -1.
         22    1    1    2    0    0  0.59801358816E+02 -0.91544900938E+03  0.44141800466E+03  0.10180731536E+04  0.00000000000E+00 0.  1.
<mgrwt>
<rscale>  0 0.20707021E+04</rscale>
<asrwt>0</asrwt>
<pdfrwt beam="1">  1        2 0.41683331E+00 0.20707021E+04</pdfrwt>
<pdfrwt beam="2">  1       -2 0.60867591E-01 0.20707021E+04</pdfrwt>
<totfact> 0.60889657E+00</totfact>
</mgrwt>
</event>
<event>
 6    1  0.9512547E-007  0.1138049E+04  0.7818608E-02  0.9168880E-01
         -1   -1    0    0    0  501 -0.00000000000E+00  0.00000000000E+00  0.76117813873E+03  0.76117813873E+03  0.00000000000E+00 0.  1.
          1   -1    0    0  501    0  0.00000000000E+00 -0.00000000000E+00 -0.42537847280E+03  0.42537847280E+03  0.00000000000E+00 0. -1.
         23    2    1    2    0    0 -0.43926083412E+03 -0.35256612051E+03  0.22016459022E+03  0.61155711548E+03  0.90976419937E+02 0.  0.
         11    1    3    3    0    0 -0.20554500425E+03 -0.21006234231E+03  0.14483873096E+03  0.32764797331E+03  0.00000000000E+00 0.  1.
        -11    1    3    3    0    0 -0.23371582987E+03 -0.14250377820E+03  0.75325859253E+02  0.28390914217E+03  0.00000000000E+00 0. -1.
         22    1    1    2    0    0  0.43926083412E+03  0.35256612051E+03  0.11563507572E+03  0.57499949605E+03  0.00000000000E+00 0. -1.
<mgrwt>
<rscale>  0 0.11380488E+04</rscale>
<asrwt>0</asrwt>
<pdfrwt beam="1">  1        1 0.65442842E-01 0.11380488E+04</pdfrwt>
<pdfrwt beam="2">  1       -1 0.11710433E+00 0.11380488E+04</pdfrwt>
<totfact> 0.36097486E+01</totfact>
</mgrwt>
</event>
<event>
 6    1  0.9512547E-007  0.1197374E+04  0.7818608E-02  0.9115159E-01
         -3   -1    0    0    0  501 -0.00000000000E+00  0.00000000000E+00  0.79699678375E+03  0.79699678375E+03  0.00000000000E+00 0.  1.
          3   -1    0    0  501    0  0.00000000000E+00 -0.00000000000E+00 -0.44972057264E+03  0.44972057264E+03  0.00000000000E+00 0. -1.
         23    2    1    2    0    0 -0.45339137651E+03 -0.30360837036E+03 -0.74274423904E+02  0.55719090968E+03  0.84871885455E+02 0.  0.
         13    1    3    3    0    0 -0.14231537410E+03 -0.13696826142E+03 -0.51515330998E+01  0.19758671168E+03  0.00000000000E+00 0. -1.
        -13    1    3    3    0    0 -0.31107600241E+03 -0.16664010894E+03 -0.69122890804E+02  0.35960419799E+03  0.00000000000E+00 0.  1.
         22    1    1    2    0    0  0.45339137651E+03  0.30360837036E+03  0.42155063501E+03  0.68952644672E+03  0.00000000000E+00 0. -1.
<mgrwt>
<rscale>  0 0.11973735E+04</rscale>
<asrwt>0</asrwt>
<pdfrwt beam="1">  1        3 0.69187780E-01 0.11973735E+04</pdfrwt>
<pdfrwt beam="2">  1       -3 0.12261489E+00 0.11973735E+04</pdfrwt>
<totfact> 0.27771206E+00</totfact>
</mgrwt>
</event>
<event>
 6    1  0.9512547E-007  0.3491608E+04  0.7818608E-02  0.8115782E-01
         -2   -1    0    0    0  501 -0.00000000000E+00  0.00000000000E+00  0.19407989494E+04  0.19407989494E+04  0.00000000000E+00 0.  1.
          2   -1    0    0  501    0  0.00000000000E+00 -0.00000000000E+00 -0.15704000711E+04  0.15704000711E+04  0.00000000000E+00 0. -1.
         23    2    1    2    0    0 -0.48771247596E+03 -0.69156349757E+03  0.17195867453E+04  0.19185812287E+04  0.88610530334E+02 0.  0.
         13    1    3    3    0    0 -0.10731755486E+03 -0.21273615986E+03  0.44008090617E+03  0.50044473748E+03  0.00000000000E+00 0.  1.
        -13    1    3    3    0    0 -0.38039492110E+03 -0.47882733770E+03  0.12795058391E+04  0.14181364912E+04  0.00000000000E+00 0. -1.
         22    1    1    2    0    0  0.48771247596E+03  0.69156349757E+03 -0.13491878670E+04  0.15926177919E+04  0.00000000000E+00 0. -1.
<mgrwt>
<rscale>  0 0.34916075E+04</rscale>
<asrwt>0</asrwt>
<pdfrwt beam="1">  1        2 0.24160001E+00 0.34916075E+04</pdfrwt>
<pdfrwt beam="2">  1       -2 0.29858445E+00 0.34916075E+04</pdfrwt>
<totfact> 0.30888042E-01</totfact>
</mgrwt>
</event>
<event>
 6    1  0.9512547E-007  0.2365784E+04  0.7818608E-02  0.8452426E-01
         -2   -1    0    0    0  501 -0.00000000000E+00  0.00000000000E+00  0.93288881151E+03  0.93288881151E+03  0.00000000000E+00 0.  1.
          2   -1    0    0  501    0  0.00000000000E+00 -0.00000000000E+00 -0.14998936363E+04  0.14998936363E+04  0.00000000000E+00 0. -1.
         23    2    1    2    0    0 -0.85274872036E+03  0.15025611966E+03  0.54186958668E+03  0.10258852440E+04  0.95187201863E+02 0.  0.
         13    1    3    3    0    0 -0.18597449316E+03  0.70045548066E+02  0.10563392224E+03  0.22505869554E+03  0.00000000000E+00 0. -1.
        -13    1    3    3    0    0 -0.66677422720E+03  0.80210571592E+02  0.43623566444E+03  0.80082654850E+03  0.00000000000E+00 0.  1.
         22    1    1    2    0    0  0.85274872036E+03 -0.15025611966E+03 -0.11088744115E+04  0.14068972038E+04  0.00000000000E+00 0. -1.
<mgrwt>
<rscale>  0 0.23657844E+04</rscale>
<asrwt>0</asrwt>
<pdfrwt beam="1">  1        2 0.23075287E+00 0.23657844E+04</pdfrwt>
<pdfrwt beam="2">  1       -2 0.14352136E+00 0.23657844E+04</pdfrwt>
<totfact> 0.38542629E+00</totfact>
</mgrwt>
</event>
<event>
 6    1  0.9512547E-007  0.4115606E+04  0.7818608E-02  0.7981623E-01
          1   -1    0    0  501    0  0.00000000000E+00  0.00000000000E+00  0.19158239219E+04  0.19158239219E+04  0.00000000000E+00 0. -1.
         -1   -1    0    0    0  501 -0.00000000000E+00 -0.00000000000E+00 -0.22103037062E+04  0.22103037062E+04  0.00000000000E+00 0.  1.
         23    2    1    2    0    0 -0.29460591744E+03  0.16970053989E+04  0.97975529129E+03  0.19836302539E+04  0.90821709143E+02 0.  0.
         11    1    3    3    0    0 -0.88783748654E+02  0.51168759205E+03  0.24800697773E+03  0.57551212575E+03  0.00000000000E+00 0. -1.
        -11    1    3    3    0    0 -0.20582216878E+03  0.11853178068E+04  0.73174831355E+03  0.14081181281E+04  0.00000000000E+00 0.  1.
         22    1    1    2    0    0  0.29460591744E+03 -0.16970053989E+04 -0.12742350757E+04  0.21424973742E+04  0.00000000000E+00 0.  1.
<mgrwt>
<rscale>  0 0.41156058E+04</rscale>
<asrwt>0</asrwt>
<pdfrwt beam="1">  1        1 0.29474214E+00 0.41156058E+04</pdfrwt>
<pdfrwt beam="2">  1       -1 0.34004672E+00 0.41156058E+04</pdfrwt>
<totfact> 0.47637045E-02</totfact>
</mgrwt>
</event>
<event>
 6    1  0.9512547E-007  0.1176086E+04  0.7818608E-02  0.9134050E-01
          2   -1    0    0  501    0  0.00000000000E+00  0.00000000000E+00  0.15262235677E+04  0.15262235677E+04  0.00000000000E+00 0. -1.
         -2   -1    0    0    0  501 -0.00000000000E+00 -0.00000000000E+00 -0.22656879941E+03  0.22656879941E+03  0.00000000000E+00 0.  1.
         23    2    1    2    0    0 -0.36976157491E+03  0.27289451768E+03  0.11538096778E+03  0.48247765232E+03  0.90977344441E+02 0.  0.
         11    1    3    3    0    0 -0.35837121570E+03  0.26636022807E+03  0.12775545120E+03  0.46443423071E+03  0.00000000000E+00 0. -1.
        -11    1    3    3    0    0 -0.11390359207E+02  0.65342896071E+01 -0.12374483418E+02  0.18043421610E+02  0.00000000000E+00 0.  1.
         22    1    1    2    0    0  0.36976157491E+03 -0.27289451768E+03  0.11842738005E+04  0.12703147148E+04  0.00000000000E+00 0. -1.
<mgrwt>
<rscale>  0 0.11760861E+04</rscale>
<asrwt>0</asrwt>
<pdfrwt beam="1">  1        2 0.23480362E+00 0.11760861E+04</pdfrwt>
<pdfrwt beam="2">  1       -2 0.34856739E-01 0.11760861E+04</pdfrwt>
<totfact> 0.93560623E+01</totfact>
</mgrwt>
</event>
<event>
 6    1  0.9512547E-007  0.3018487E+04  0.7818608E-02  0.8238472E-01
         -3   -1    0    0    0  501 -0.00000000000E+00  0.00000000000E+00  0.14136208306E+04  0.14136208306E+04  0.00000000000E+00 0.  1.
          3   -1    0    0  501    0  0.00000000000E+00 -0.00000000000E+00 -0.16113340196E+04  0.16113340196E+04  0.00000000000E+00 0. -1.
         23    2    1    2    0    0 -0.10182111898E+04  0.11118647665E+04 -0.91887237668E+02  0.15135990291E+04  0.97680450536E+02 0.  0.
         13    1    3    3    0    0 -0.38779828595E+03  0.48982095791E+03 -0.20493063838E+02  0.62508563178E+03  0.00000000000E+00 0.  1.
        -13    1    3    3    0    0 -0.63041290390E+03  0.62204380856E+03 -0.71394173831E+02  0.88851339732E+03  0.00000000000E+00 0. -1.
         22    1    1    2    0    0  0.10182111898E+04 -0.11118647665E+04 -0.10582595135E+03  0.15113558211E+04  0.00000000000E+00 0. -1.
<mgrwt>
<rscale>  0 0.30184866E+04</rscale>
<asrwt>0</asrwt>
<pdfrwt beam="1">  1        3 0.24789754E+00 0.30184866E+04</pdfrwt>
<pdfrwt beam="2">  1       -3 0.21748013E+00 0.30184866E+04</pdfrwt>
<totfact> 0.19202427E-02</totfact>
</mgrwt>
</event>
<event>
 6    1  0.9512547E-007  0.3706147E+04  0.7818608E-02  0.8066601E-01
         -2   -1    0    0    0  501 -0.00000000000E+00  0.00000000000E+00  0.95358890508E+03  0.95358890508E+03  0.00000000000E+00 0.  1.
          2   -1    0    0  501    0  0.00000000000E+00 -0.00000000000E+00 -0.36010086813E+04  0.36010086813E+04  0.00000000000E+00 0. -1.
         23    2    1    2    0    0  0.75608486128E+03 -0.14518552417E+04 -0.26148224378E+03  0.16611142412E+04  0.10667519993E+03 0.  0.
         13    1    3    3    0    0  0.19937874258E+03 -0.45110325843E+03 -0.40941145340E+02  0.49489616096E+03  0.00000000000E+00 0. -1.
        -13    1    3    3    0    0  0.55670611870E+03 -0.10007519832E+04 -0.22054109844E+03  0.11662180802E+04  0.00000000000E+00 0.  1.
         22    1    1    2    0    0 -0.75608486128E+03  0.14518552417E+04 -0.23859375325E+04  0.28934833452E+04  0.00000000000E+00 0. -1.
<mgrwt>
<rscale>  0 0.37061473E+04</rscale>
<asrwt>0</asrwt>
<pdfrwt beam="1">  1        2 0.55400134E+00 0.37061473E+04</pdfrwt>
<pdfrwt beam="2">  1       -2 0.14670598E+00 0.37061473E+04</pdfrwt>
<totfact> 0.17659974E-01</totfact>
</mgrwt>
</event>
<event>
 6    1  0.9512547E-007  0.2406551E+04  0.7818608E-02  0.8437055E-01
         -2   -1    0    0    0  501 -0.00000000000E+00  0.00000000000E+00  0.19098308852E+04  0.19098308852E+04  0.00000000000E+00 0.  1.
          2   -1    0    0  501    0  0.00000000000E+00 -0.00000000000E+00 -0.75811495388E+03  0.75811495388E+03  0.00000000000E+00 0. -1.
         23    2    1    2    0    0 -0.10338417669E+04 -0.51447930613E+03  0.20888294287E+03  0.11771568535E+04  0.92457658126E+02 0.  0.
         13    1    3    3    0    0 -0.70884317704E+03 -0.34661024822E+03  0.99111435366E+02  0.79524863434E+03  0.00000000000E+00 0. -1.
        -13    1    3    3    0    0 -0.32499858985E+03 -0.16786905791E+03  0.10977150750E+03  0.38190821917E+03  0.00000000000E+00 0.  1.
         22    1    1    2    0    0  0.10338417669E+04  0.51447930613E+03  0.94283298849E+03  0.14907889856E+04  0.00000000000E+00 0. -1.
<mgrwt>
<rscale>  0 0.24065505E+04</rscale>
<asrwt>0</asrwt>
<pdfrwt beam="1">  1        2 0.11663307E+00 0.24065505E+04</pdfrwt>
<pdfrwt beam="2">  1       -2 0.29382013E+00 0.24065505E+04</pdfrwt>
<totfact> 0.11526124E+00</totfact>
</mgrwt>
</event>
<event>
 6    1  0.9512547E-007  0.5010870E+04  0.7818608E-02  0.7826833E-01
          2   -1    0    0  501    0  0.00000000000E+00  0.00000000000E+00  0.33027105953E+04  0.33027105953E+04  0.00000000000E+00 0. -1.
         -2   -1    0    0    0  501 -0.00000000000E+00 -0.00000000000E+00 -0.19006219402E+04  0.19006219402E+04  0.00000000000E+00 0.  1.
         23    2    1    2    0    0  0.73855225853E+03  0.97976648377E+03  0.29686444409E+04  0.32134835886E+04  0.90692648573E+02 0.  0.
         11    1    3    3    0    0  0.33350587423E+03  0.46272111154E+03  0.14940756908E+04  0.15992495631E+04  0.00000000000E+00 0. -1.
        -11    1    3    3    0    0  0.40504638430E+03  0.51704537223E+03  0.14745687501E+04  0.16142340255E+04  0.00000000000E+00 0.  1.
         22    1    1    2    0    0 -0.73855225853E+03 -0.97976648377E+03 -0.15665557858E+04  0.19898489469E+04  0.00000000000E+00 0.  1.
<mgrwt>
<rscale>  0 0.50108699E+04</rscale>
<asrwt>0</asrwt>
<pdfrwt beam="1">  1        2 0.50810932E+00 0.50108699E+04</pdfrwt>
<pdfrwt beam="2">  1       -2 0.29240338E+00 0.50108699E+04</pdfrwt>
<totfact> 0.28504326E-02</totfact>
</mgrwt>
</event>
<event>
 6    1  0.9512547E-007  0.1934353E+04  0.7818608E-02  0.8637943E-01
          2   -1    0    0  501    0  0.00000000000E+00  0.00000000000E+00  0.76229029842E+03  0.76229029842E+03  0.00000000000E+00 0. -1.
         -2   -1    0    0    0  501 -0.00000000000E+00 -0.00000000000E+00 -0.12271308957E+04  0.12271308957E+04  0.00000000000E+00 0.  1.
         23    2    1    2    0    0 -0.27250483611E+03 -0.59568409774E+03  0.49555669801E+03  0.82689747616E+03  0.95312985104E+02 0.  0.
         11    1    3    3    0    0 -0.83283384986E+02 -0.22456004009E+03  0.23501635390E+03  0.33555330488E+03  0.00000000000E+00 0.  1.
        -11    1    3    3    0    0 -0.18922145112E+03 -0.37112405766E+03  0.26054034411E+03  0.49134417127E+03  0.00000000000E+00 0. -1.
         22    1    1    2    0    0  0.27250483611E+03  0.59568409774E+03 -0.96039729525E+03  0.11625237179E+04  0.00000000000E+00 0.  1.
<mgrwt>
<rscale>  0 0.19343526E+04</rscale>
<asrwt>0</asrwt>
<pdfrwt beam="1">  1        2 0.11727543E+00 0.19343526E+04</pdfrwt>
<pdfrwt beam="2">  1       -2 0.18878937E+00 0.19343526E+04</pdfrwt>
<totfact> 0.54124004E+00</totfact>
</mgrwt>
</event>
<event>
 6    1  0.9512547E-007  0.2367188E+04  0.7818608E-02  0.8451891E-01
         -2   -1    0    0    0  501 -0.00000000000E+00  0.00000000000E+00  0.12488226115E+04  0.12488226115E+04  0.00000000000E+00 0.  1.
          2   -1    0    0  501    0  0.00000000000E+00 -0.00000000000E+00 -0.11217724591E+04  0.11217724591E+04  0.00000000000E+00 0. -1.
         23    2    1    2    0    0  0.28476225485E+03 -0.84528332410E+03  0.83994536825E+03  0.12287487462E+04  0.93390683792E+02 0.  0.
         11    1    3    3    0    0  0.13851676050E+03 -0.28987751177E+03  0.33244576369E+03  0.46231596400E+03  0.00000000000E+00 0.  1.
        -11    1    3    3    0    0  0.14624549435E+03 -0.55540581233E+03  0.50749960456E+03  0.76643278219E+03  0.00000000000E+00 0. -1.
         22    1    1    2    0    0 -0.28476225485E+03  0.84528332410E+03 -0.71289521581E+03  0.11418463244E+04  0.00000000000E+00 0. -1.
<mgrwt>
<rscale>  0 0.23671880E+04</rscale>
<asrwt>0</asrwt>
<pdfrwt beam="1">  1        2 0.17258038E+00 0.23671880E+04</pdfrwt>
<pdfrwt beam="2">  1       -2 0.19212656E+00 0.23671880E+04</pdfrwt>
<totfact> 0.28566794E+00</totfact>
</mgrwt>
</event>
<event>
 6    1  0.9512547E-007  0.9749148E+03  0.7818608E-02  0.9336494E-01
          1   -1    0    0  501    0  0.00000000000E+00  0.00000000000E+00  0.54751578857E+03  0.54751578857E+03  0.00000000000E+00 0. -1.
         -1   -1    0    0    0  501 -0.00000000000E+00 -0.00000000000E+00 -0.43398698836E+03  0.43398698836E+03  0.00000000000E+00 0.  1.
         23    2    1    2    0    0 -0.69723769655E+02 -0.25815862931E+03  0.46254116573E+03  0.54182458412E+03  0.90123626334E+02 0.  0.
         13    1    3    3    0    0  0.73432454376E+01 -0.13898002272E+03  0.25278580815E+03  0.28856547744E+03  0.00000000000E+00 0. -1.
        -13    1    3    3    0    0 -0.77067015093E+02 -0.11917860659E+03  0.20975535758E+03  0.25325910669E+03  0.00000000000E+00 0.  1.
         22    1    1    2    0    0  0.69723769655E+02  0.25815862931E+03 -0.34901236552E+03  0.43967819280E+03  0.00000000000E+00 0.  1.
<mgrwt>
<rscale>  0 0.97491482E+03</rscale>
<asrwt>0</asrwt>
<pdfrwt beam="1">  1        1 0.84233198E-01 0.97491482E+03</pdfrwt>
<pdfrwt beam="2">  1       -1 0.66767229E-01 0.97491482E+03</pdfrwt>
<totfact> 0.89119423E+01</totfact>
</mgrwt>
</event>
<event>
 6    1  0.9512547E-007  0.3234553E+04  0.7818608E-02  0.8179751E-01
          1   -1    0    0  501    0  0.00000000000E+00  0.00000000000E+00  0.24471808320E+04  0.24471808320E+04  0.00000000000E+00 0. -1.
         -1   -1    0    0    0  501 -0.00000000000E+00 -0.00000000000E+00 -0.10688150178E+04  0.10688150178E+04  0.00000000000E+00 0.  1.
         23    2    1    2    0    0  0.55711241191E+03 -0.21401762137E+03  0.23221318006E+04  0.23993616131E+04  0.91990593589E+02 0.  0.
         13    1    3    3    0    0  0.45368818895E+03 -0.17930576803E+03  0.20220432270E+04  0.20800582548E+04  0.00000000000E+00 0. -1.
        -13    1    3    3    0    0  0.10342422296E+03 -0.34711853341E+02  0.30008857354E+03  0.31930335831E+03  0.00000000000E+00 0.  1.
         22    1    1    2    0    0 -0.55711241191E+03  0.21401762137E+03 -0.94376598629E+03  0.11166342367E+04  0.00000000000E+00 0.  1.
<mgrwt>
<rscale>  0 0.32345532E+04</rscale>
<asrwt>0</asrwt>
<pdfrwt beam="1">  1        1 0.37648936E+00 0.32345532E+04</pdfrwt>
<pdfrwt beam="2">  1       -1 0.16443308E+00 0.32345532E+04</pdfrwt>
<totfact> 0.33262975E-01</totfact>
</mgrwt>
</event>
<event>
 6    1  0.9512547E-007  0.1935755E+04  0.7818608E-02  0.8637261E-01
         -2   -1    0    0    0  501 -0.00000000000E+00  0.00000000000E+00  0.64230265604E+03  0.64230265604E+03  0.00000000000E+00 0.  1.
          2   -1    0    0  501    0  0.00000000000E+00 -0.00000000000E+00 -0.14584814076E+04  0.14584814076E+04  0.00000000000E+00 0. -1.
         23    2    1    2    0    0 -0.58819941439E+03  0.26078109947E+03  0.37256029439E+03  0.74908666692E+03  0.91347296971E+02 0.  0.
         13    1    3    3    0    0 -0.39988300331E+03  0.22272890122E+03  0.25980682924E+03  0.52632135459E+03  0.00000000000E+00 0.  1.
        -13    1    3    3    0    0 -0.18831641108E+03  0.38052198256E+02  0.11275346515E+03  0.22276531233E+03  0.00000000000E+00 0. -1.
         22    1    1    2    0    0  0.58819941439E+03 -0.26078109947E+03 -0.11887390459E+04  0.13516973967E+04  0.00000000000E+00 0. -1.
<mgrwt>
<rscale>  0 0.19357546E+04</rscale>
<asrwt>0</asrwt>
<pdfrwt beam="1">  1        2 0.22438175E+00 0.19357546E+04</pdfrwt>
<pdfrwt beam="2">  1       -2 0.98815794E-01 0.19357546E+04</pdfrwt>
<totfact> 0.10633770E+01</totfact>
</mgrwt>
</event>
<event>
 6    1  0.9512547E-007  0.1216781E+04  0.7818608E-02  0.9098294E-01
         -2   -1    0    0    0  501 -0.00000000000E+00  0.00000000000E+00  0.13872159482E+03  0.13872159482E+03  0.00000000000E+00 0.  1.
          2   -1    0    0  501    0  0.00000000000E+00 -0.00000000000E+00 -0.26682154572E+04  0.26682154572E+04  0.00000000000E+00 0. -1.
         23    2    1    2    0    0 -0.57556499877E+03 -0.94038164030E+02 -0.89820075735E+03  0.10745296407E+04  0.87926698099E+02 0.  0.
         13    1    3    3    0    0 -0.24347039158E+03 -0.62596608855E+02 -0.31915226947E+03  0.40626880033E+03  0.00000000000E+00 0.  1.
        -13    1    3    3    0    0 -0.33209460720E+03 -0.31441555175E+02 -0.57904848788E+03  0.66826084042E+03  0.00000000000E+00 0. -1.
         22    1    1    2    0    0  0.57556499877E+03  0.94038164030E+02 -0.16312931050E+04  0.17324074112E+04  0.00000000000E+00 0. -1.
<mgrwt>
<rscale>  0 0.12167812E+04</rscale>
<asrwt>0</asrwt>
<pdfrwt beam="1">  1        2 0.41049467E+00 0.12167812E+04</pdfrwt>
<pdfrwt beam="2">  1       -2 0.21341785E-01 0.12167812E+04</pdfrwt>
<totfact> 0.52541848E+01</totfact>
</mgrwt>
</event>
<event>
 6    1  0.9512547E-007  0.3146303E+04  0.7818608E-02  0.8203144E-01
         -2   -1    0    0    0  501 -0.00000000000E+00  0.00000000000E+00  0.98972412824E+03  0.98972412824E+03  0.00000000000E+00 0.  1.
          2   -1    0    0  501    0  0.00000000000E+00 -0.00000000000E+00 -0.25004997250E+04  0.25004997250E+04  0.00000000000E+00 0. -1.
         23    2    1    2    0    0  0.48331534051E+02 -0.69369509885E+03  0.80741351265E+03  0.10699863495E+04  0.96981340587E+02 0.  0.
         11    1    3    3    0    0 -0.26530053314E+02 -0.25204853386E+03  0.31525121700E+03  0.40449429782E+03  0.00000000000E+00 0. -1.
        -11    1    3    3    0    0  0.74861587365E+02 -0.44164656500E+03  0.49216229565E+03  0.66549205171E+03  0.00000000000E+00 0.  1.
         22    1    1    2    0    0 -0.48331534051E+02  0.69369509885E+03 -0.23181891095E+04  0.24202375038E+04  0.00000000000E+00 0. -1.
<mgrwt>
<rscale>  0 0.31463025E+04</rscale>
<asrwt>0</asrwt>
<pdfrwt beam="1">  1        2 0.38469227E+00 0.31463025E+04</pdfrwt>
<pdfrwt beam="2">  1       -2 0.15226525E+00 0.31463025E+04</pdfrwt>
<totfact> 0.84695076E-01</totfact>
</mgrwt>
</event>
<event>
 6    1  0.9512547E-007  0.4073083E+03  0.7818608E-02  0.1041278E+00
         -4   -1    0    0    0  501 -0.00000000000E+00  0.00000000000E+00  0.77862955904E+02  0.77862955904E+02  0.00000000000E+00 0.  1.
          4   -1    0    0  501    0  0.00000000000E+00 -0.00000000000E+00 -0.53266693408E+03  0.53266693408E+03  0.00000000000E+00 0. -1.
         23    2    1    2    0    0  0.71162070543E+02 -0.66596817687E+02  0.12356626052E+02  0.13331064629E+03  0.90110297951E+02 0.  0.
         13    1    3    3    0    0  0.78453306893E+02 -0.82634909793E+02  0.16708418323E+02  0.11516345307E+03  0.00000000000E+00 0. -1.
        -13    1    3    3    0    0 -0.72912363507E+01  0.16038092107E+02 -0.43517922707E+01  0.18147193224E+02  0.00000000000E+00 0.  1.
         22    1    1    2    0    0 -0.71162070543E+02  0.66596817687E+02 -0.46716060423E+03  0.47721924370E+03  0.00000000000E+00 0. -1.
<mgrwt>
<rscale>  0 0.40730835E+03</rscale>
<asrwt>0</asrwt>
<pdfrwt beam="1">  1        4 0.81948759E-01 0.40730835E+03</pdfrwt>
<pdfrwt beam="2">  1       -4 0.11978916E-01 0.40730835E+03</pdfrwt>
<totfact> 0.14546251E+02</totfact>
</mgrwt>
</event>
<event>
 6    1  0.9512547E-007  0.9261772E+03  0.7818608E-02  0.9393438E-01
         -2   -1    0    0    0  501 -0.00000000000E+00  0.00000000000E+00  0.72417208792E+02  0.72417208792E+02  0.00000000000E+00 0.  1.
          2   -1    0    0  501    0  0.00000000000E+00 -0.00000000000E+00 -0.29613270001E+04  0.29613270001E+04  0.00000000000E+00 0. -1.
         23    2    1    2    0    0  0.27698915372E+03 -0.23636500631E+03 -0.23717596208E+04  0.24012604492E+04  0.90645674111E+02 0.  0.
         13    1    3    3    0    0  0.22599435752E+03 -0.14447923185E+03 -0.18082025090E+04  0.18279890622E+04  0.00000000000E+00 0.  1.
        -13    1    3    3    0    0  0.50994796201E+02 -0.91885774459E+02 -0.56355711185E+03  0.57327138695E+03  0.00000000000E+00 0. -1.
         22    1    1    2    0    0 -0.27698915372E+03  0.23636500631E+03 -0.51715017045E+03  0.63248375970E+03  0.00000000000E+00 0.  1.
<mgrwt>
<rscale>  0 0.92617717E+03</rscale>
<asrwt>0</asrwt>
<pdfrwt beam="1">  1        2 0.45558864E+00 0.92617717E+03</pdfrwt>
<pdfrwt beam="2">  1       -2 0.11141112E-01 0.92617717E+03</pdfrwt>
<totfact> 0.10938307E+02</totfact>
</mgrwt>
</event>
<event>
 6    1  0.9512547E-007  0.1671108E+04  0.7818608E-02  0.8778016E-01
         -1   -1    0    0    0  501 -0.00000000000E+00  0.00000000000E+00  0.37627813576E+03  0.37627813576E+03  0.00000000000E+00 0.  1.
          1   -1    0    0  501    0  0.00000000000E+00 -0.00000000000E+00 -0.18554100456E+04  0.18554100456E+04  0.00000000000E+00 0. -1.
         23    2    1    2    0    0 -0.34674342254E+03 -0.64668943226E+03 -0.21523972434E+03  0.77022943086E+03  0.92124993122E+02 0.  0.
         13    1    3    3    0    0 -0.12781406904E+03 -0.33402098053E+03 -0.94989551484E+02  0.37003981755E+03  0.00000000000E+00 0.  1.
        -13    1    3    3    0    0 -0.21892935350E+03 -0.31266845172E+03 -0.12025017286E+03  0.40018961331E+03  0.00000000000E+00 0. -1.
         22    1    1    2    0    0  0.34674342254E+03  0.64668943226E+03 -0.12638921855E+04  0.14614587505E+04  0.00000000000E+00 0. -1.
<mgrwt>
<rscale>  0 0.16711077E+04</rscale>
<asrwt>0</asrwt>
<pdfrwt beam="1">  1        1 0.28544769E+00 0.16711077E+04</pdfrwt>
<pdfrwt beam="2">  1       -1 0.57888945E-01 0.16711077E+04</pdfrwt>
<totfact> 0.10773454E+01</totfact>
</mgrwt>
</event>
<event>
 6    1  0.9512547E-007  0.6219545E+03  0.7818608E-02  0.9860876E-01
          3   -1    0    0  501    0  0.00000000000E+00  0.00000000000E+00  0.97152811507E+02  0.97152811507E+02  0.00000000000E+00 0. -1.
         -3   -1    0    0    0  501 -0.00000000000E+00 -0.00000000000E+00 -0.99540961129E+03  0.99540961129E+03  0.00000000000E+00 0.  1.
         23    2    1    2    0    0 -0.97458561975E+02  0.16750171951E+03 -0.87100690198E+03  0.89686481353E+03  0.90324266469E+02 0.  0.
         13    1    3    3    0    0 -0.83397745659E+01  0.10337283411E+03 -0.44704558139E+03  0.45891747244E+03  0.00000000000E+00 0. -1.
        -13    1    3    3    0    0 -0.89118787409E+02  0.64128885406E+02 -0.42396132060E+03  0.43794734110E+03  0.00000000000E+00 0.  1.
         22    1    1    2    0    0  0.97458561975E+02 -0.16750171951E+03 -0.27249897802E+02  0.19569760926E+03  0.00000000000E+00 0. -1.
<mgrwt>
<rscale>  0 0.62195448E+03</rscale>
<asrwt>0</asrwt>
<pdfrwt beam="1">  1        3 0.14946587E-01 0.62195448E+03</pdfrwt>
<pdfrwt beam="2">  1       -3 0.15313994E+00 0.62195448E+03</pdfrwt>
<totfact> 0.31113294E+01</totfact>
</mgrwt>
</event>
<event>
 6    1  0.9512547E-007  0.3087719E+03  0.7818608E-02  0.1080936E+00
          1   -1    0    0  501    0  0.00000000000E+00  0.00000000000E+00  0.98669869413E+02  0.98669869413E+02  0.00000000000E+00 0. -1.
         -1   -1    0    0    0  501 -0.00000000000E+00 -0.00000000000E+00 -0.24156337886E+03  0.24156337886E+03  0.00000000000E+00 0.  1.
         23    2    1    2    0    0 -0.11501912550E+03  0.64544972971E+02 -0.13711126038E+03  0.20821473756E+03  0.84607484583E+02 0.  0.
         11    1    3    3    0    0 -0.28453911260E+02 -0.16133358126E+02 -0.92348119277E+01  0.33988116478E+02  0.00000000000E+00 0. -1.
        -11    1    3    3    0    0 -0.86565214245E+02  0.80678331096E+02 -0.12787644845E+03  0.17422662108E+03  0.00000000000E+00 0.  1.
         22    1    1    2    0    0  0.11501912550E+03 -0.64544972971E+02 -0.57822490751E+01  0.13201851072E+03  0.00000000000E+00 0.  1.
<mgrwt>
<rscale>  0 0.30877194E+03</rscale>
<asrwt>0</asrwt>
<pdfrwt beam="1">  1        1 0.15179980E-01 0.30877194E+03</pdfrwt>
<pdfrwt beam="2">  1       -1 0.37163597E-01 0.30877194E+03</pdfrwt>
<totfact> 0.25813626E+03</totfact>
</mgrwt>
</event>
<event>
 6    1  0.9512547E-007  0.1959111E+04  0.7818608E-02  0.8625980E-01
         -2   -1    0    0    0  501 -0.00000000000E+00  0.00000000000E+00  0.22968216705E+04  0.22968216705E+04  0.00000000000E+00 0.  1.
          2   -1    0    0  501    0  0.00000000000E+00 -0.00000000000E+00 -0.41776396203E+03  0.41776396203E+03  0.00000000000E+00 0. -1.
         23    2    1    2    0    0  0.76289344590E+03 -0.26398395800E+02  0.95802125406E+02  0.77481663608E+03  0.91975470719E+02 0.  0.
         11    1    3    3    0    0  0.30174758446E+03  0.78699243067E+00 -0.59041386508E+01  0.30180636663E+03  0.00000000000E+00 0.  1.
        -11    1    3    3    0    0  0.46114586144E+03 -0.27185388231E+02  0.10170626406E+03  0.47301026944E+03  0.00000000000E+00 0. -1.
         22    1    1    2    0    0 -0.76289344590E+03  0.26398395800E+02  0.17832555830E+04  0.19397689964E+04  0.00000000000E+00 0.  1.
<mgrwt>
<rscale>  0 0.19591114E+04</rscale>
<asrwt>0</asrwt>
<pdfrwt beam="1">  1        2 0.64271380E-01 0.19591114E+04</pdfrwt>
<pdfrwt beam="2">  1       -2 0.35335717E+00 0.19591114E+04</pdfrwt>
<totfact> 0.10483433E+00</totfact>
</mgrwt>
</event>
<event>
 6    1  0.9512547E-007  0.2699820E+03  0.7818608E-02  0.1101290E+00
         -4   -1    0    0    0  501 -0.00000000000E+00  0.00000000000E+00  0.85187801420E+03  0.85187801420E+03  0.00000000000E+00 0.  1.
          4   -1    0    0  501    0  0.00000000000E+00 -0.00000000000E+00 -0.21391049068E+02  0.21391049068E+02  0.00000000000E+00 0. -1.
         23    2    1    2    0    0 -0.46456467211E+02 -0.81416784457E+01  0.81890896671E+03  0.82470425789E+03  0.85444291539E+02 0.  0.
         13    1    3    3    0    0 -0.47257106124E+02 -0.32236457514E+02  0.31060400608E+03  0.31582791495E+03  0.00000000000E+00 0.  1.
        -13    1    3    3    0    0  0.80063891280E+00  0.24094779069E+02  0.50830496063E+03  0.50887634294E+03  0.00000000000E+00 0. -1.
         22    1    1    2    0    0  0.46456467211E+02  0.81416784457E+01  0.11577998424E+02  0.48564805376E+02  0.00000000000E+00 0. -1.
<mgrwt>
<rscale>  0 0.26998196E+03</rscale>
<asrwt>0</asrwt>
<pdfrwt beam="1">  1        4 0.32909313E-02 0.26998196E+03</pdfrwt>
<pdfrwt beam="2">  1       -4 0.13105813E+00 0.26998196E+03</pdfrwt>
<totfact> 0.38773548E+02</totfact>
</mgrwt>
</event>
<event>
 6    1  0.9512547E-007  0.1026618E+04  0.7818608E-02  0.9279822E-01
          2   -1    0    0  501    0  0.00000000000E+00  0.00000000000E+00  0.35818969702E+03  0.35818969702E+03  0.00000000000E+00 0. -1.
         -2   -1    0    0    0  501 -0.00000000000E+00 -0.00000000000E+00 -0.73560567075E+03  0.73560567075E+03  0.00000000000E+00 0.  1.
         23    2    1    2    0    0 -0.44800222180E+03 -0.71147510220E+02 -0.43664893014E+03  0.63632788032E+03  0.92102791112E+02 0.  0.
         11    1    3    3    0    0 -0.90102298450E+02  0.20427996281E+02 -0.70761938531E+02  0.11637430628E+03  0.00000000000E+00 0. -1.
        -11    1    3    3    0    0 -0.35789992335E+03 -0.91575506501E+02 -0.36588699161E+03  0.51995357404E+03  0.00000000000E+00 0.  1.
         22    1    1    2    0    0  0.44800222180E+03  0.71147510220E+02  0.59232956411E+02  0.45746748745E+03  0.00000000000E+00 0. -1.
<mgrwt>
<rscale>  0 0.10266185E+04</rscale>
<asrwt>0</asrwt>
<pdfrwt beam="1">  1        2 0.55106108E-01 0.10266185E+04</pdfrwt>
<pdfrwt beam="2">  1       -2 0.11317010E+00 0.10266185E+04</pdfrwt>
<totfact> 0.55036872E+01</totfact>
</mgrwt>
</event>
<event>
 6    1  0.9512547E-007  0.2003290E+04  0.7818608E-02  0.8605084E-01
          2   -1    0    0  501    0  0.00000000000E+00  0.00000000000E+00  0.13565742344E+04  0.13565742344E+04  0.00000000000E+00 0. -1.
         -2   -1    0    0    0  501 -0.00000000000E+00 -0.00000000000E+00 -0.73957782643E+03  0.73957782643E+03  0.00000000000E+00 0.  1.
         23    2    1    2    0    0 -0.63169851437E+03 -0.50096438051E+03  0.92701059064E+03  0.12323713496E+04  0.96861676960E+02 0.  0.
         13    1    3    3    0    0 -0.84349028196E+02 -0.73497762669E+02  0.18385070957E+03  0.21521561998E+03  0.00000000000E+00 0.  1.
        -13    1    3    3    0    0 -0.54734948617E+03 -0.42746661784E+03  0.74315988107E+03  0.10171557296E+04  0.00000000000E+00 0. -1.
         22    1    1    2    0    0  0.63169851437E+03  0.50096438051E+03 -0.31001418272E+03  0.86378071122E+03  0.00000000000E+00 0.  1.
<mgrwt>
<rscale>  0 0.20032895E+04</rscale>
<asrwt>0</asrwt>
<pdfrwt beam="1">  1        2 0.20870373E+00 0.20032895E+04</pdfrwt>
<pdfrwt beam="2">  1       -2 0.11378120E+00 0.20032895E+04</pdfrwt>
<totfact> 0.86170875E+00</totfact>
</mgrwt>
</event>
<event>
 6    1  0.1022106E-006  0.2350035E+04  0.7818608E-02  0.8458450E-01
          1   -1    0    0  501    0  0.00000000000E+00  0.00000000000E+00  0.92209539523E+03  0.92209539523E+03  0.00000000000E+00 0. -1.
         -1   -1    0    0    0  501 -0.00000000000E+00 -0.00000000000E+00 -0.14973133314E+04  0.14973133314E+04  0.00000000000E+00 0.  1.
         23    2    1    2    0    0  0.35368800692E+03 -0.60372815714E+03 -0.12575835424E+04  0.14420624653E+04  0.91896103601E+02 0.  0.
         11    1    3    3    0    0  0.18595949007E+03 -0.28669660254E+03 -0.70214542620E+03  0.78088672251E+03  0.00000000000E+00 0.  1.
        -11    1    3    3    0    0  0.16772851685E+03 -0.31703155460E+03 -0.55543811616E+03  0.66117574279E+03  0.00000000000E+00 0. -1.
         22    1    1    2    0    0 -0.35368800692E+03  0.60372815714E+03  0.68236560621E+03  0.97734626132E+03  0.00000000000E+00 0. -1.
<mgrwt>
<rscale>  0 0.23500347E+04</rscale>
<asrwt>0</asrwt>
<pdfrwt beam="1">  1        1 0.14186083E+00 0.23500347E+04</pdfrwt>
<pdfrwt beam="2">  1       -1 0.23035589E+00 0.23500347E+04</pdfrwt>
<totfact> 0.14748005E+00</totfact>
</mgrwt>
</event>
<event>
 6    1  0.9512547E-007  0.2784670E+04  0.7818608E-02  0.8308043E-01
         -2   -1    0    0    0  501 -0.00000000000E+00  0.00000000000E+00  0.81092900459E+03  0.81092900459E+03  0.00000000000E+00 0.  1.
          2   -1    0    0  501    0  0.00000000000E+00 -0.00000000000E+00 -0.23905883511E+04  0.23905883511E+04  0.00000000000E+00 0. -1.
         23    2    1    2    0    0  0.80712222999E+03  0.97893605532E+03 -0.13571235859E+03  0.12793454075E+04  0.92437723991E+02 0.  0.
         11    1    3    3    0    0  0.15120361759E+03  0.13288650860E+03 -0.31648736911E+02  0.20377193302E+03  0.00000000000E+00 0. -1.
        -11    1    3    3    0    0  0.65591861240E+03  0.84604954672E+03 -0.10406362167E+03  0.10755734745E+04  0.00000000000E+00 0.  1.
         22    1    1    2    0    0 -0.80712222999E+03 -0.97893605532E+03 -0.14439469879E+04  0.19221719482E+04  0.00000000000E+00 0. -1.
<mgrwt>
<rscale>  0 0.27846705E+04</rscale>
<asrwt>0</asrwt>
<pdfrwt beam="1">  1        2 0.36778282E+00 0.27846705E+04</pdfrwt>
<pdfrwt beam="2">  1       -2 0.12475831E+00 0.27846705E+04</pdfrwt>
<totfact> 0.16894153E+00</totfact>
</mgrwt>
</event>
<event>
 6    1  0.9512547E-007  0.6998770E+03  0.7818608E-02  0.9717443E-01
          1   -1    0    0  501    0  0.00000000000E+00  0.00000000000E+00  0.49695956521E+03  0.49695956521E+03  0.00000000000E+00 0. -1.
         -1   -1    0    0    0  501 -0.00000000000E+00 -0.00000000000E+00 -0.24641229013E+03  0.24641229013E+03  0.00000000000E+00 0.  1.
         23    2    1    2    0    0 -0.13022456498E+03 -0.26643062505E+03 -0.57306629682E+02  0.31591689634E+03  0.92605185034E+02 0.  0.
         11    1    3    3    0    0 -0.13766078038E+03 -0.24142746781E+03 -0.32310752282E+02  0.27978866557E+03  0.00000000000E+00 0.  1.
        -11    1    3    3    0    0  0.74362153966E+01 -0.25003157250E+02 -0.24995877401E+02  0.36128230775E+02  0.00000000000E+00 0. -1.
         22    1    1    2    0    0  0.13022456498E+03  0.26643062505E+03  0.30785390477E+03  0.42745495900E+03  0.00000000000E+00 0. -1.
<mgrwt>
<rscale>  0 0.69987697E+03</rscale>
<asrwt>0</asrwt>
<pdfrwt beam="1">  1        1 0.76455318E-01 0.69987697E+03</pdfrwt>
<pdfrwt beam="2">  1       -1 0.37909583E-01 0.69987697E+03</pdfrwt>
<totfact> 0.30398738E+02</totfact>
</mgrwt>
</event>
<event>
 6    1  0.9512547E-007  0.1727905E+04  0.7818608E-02  0.8745607E-01
          2   -1    0    0  501    0  0.00000000000E+00  0.00000000000E+00  0.17249435851E+04  0.17249435851E+04  0.00000000000E+00 0. -1.
         -2   -1    0    0    0  501 -0.00000000000E+00 -0.00000000000E+00 -0.43271790599E+03  0.43271790599E+03  0.00000000000E+00 0.  1.
         23    2    1    2    0    0 -0.56226429158E+03 -0.48371386521E+03  0.10034032031E+03  0.75384136532E+03  0.89935461371E+02 0.  0.
         13    1    3    3    0    0 -0.19597312810E+03 -0.22493387609E+03  0.50922640855E+02  0.30264472720E+03  0.00000000000E+00 0. -1.
        -13    1    3    3    0    0 -0.36629116348E+03 -0.25877998912E+03  0.49417679457E+02  0.45119663812E+03  0.00000000000E+00 0.  1.
         22    1    1    2    0    0  0.56226429158E+03  0.48371386521E+03  0.11918853587E+04  0.14038201257E+04  0.00000000000E+00 0. -1.
<mgrwt>
<rscale>  0 0.17279051E+04</rscale>
<asrwt>0</asrwt>
<pdfrwt beam="1">  1        2 0.26537593E+00 0.17279051E+04</pdfrwt>
<pdfrwt beam="2">  1       -2 0.66571986E-01 0.17279051E+04</pdfrwt>
<totfact> 0.18697148E+01</totfact>
</mgrwt>
</event>
<event>
 6    1  0.9512547E-007  0.2487779E+04  0.7818608E-02  0.8407352E-01
          2   -1    0    0  501    0  0.00000000000E+00  0.00000000000E+00  0.11987736976E+04  0.11987736976E+04  0.00000000000E+00 0. -1.
         -2   -1    0    0    0  501 -0.00000000000E+00 -0.00000000000E+00 -0.12907032632E+04  0.12907032632E+04  0.00000000000E+00 0.  1.
         23    2    1    2    0    0 -0.66077377591E+03 -0.10289957140E+04  0.17292236202E+03  0.12382372932E+04  0.88742823044E+02 0.  0.
         13    1    3    3    0    0 -0.41611161520E+03 -0.62725646528E+03  0.14843498058E+03  0.76722388714E+03  0.00000000000E+00 0. -1.
        -13    1    3    3    0    0 -0.24466216071E+03 -0.40173924867E+03  0.24487381441E+02  0.47101340603E+03  0.00000000000E+00 0.  1.
         22    1    1    2    0    0  0.66077377591E+03  0.10289957140E+04 -0.26485192756E+03  0.12512396676E+04  0.00000000000E+00 0.  1.
<mgrwt>
<rscale>  0 0.24877790E+04</rscale>
<asrwt>0</asrwt>
<pdfrwt beam="1">  1        2 0.18442672E+00 0.24877790E+04</pdfrwt>
<pdfrwt beam="2">  1       -2 0.19856973E+00 0.24877790E+04</pdfrwt>
<totfact> 0.23021314E+00</totfact>
</mgrwt>
</event>
<event>
 6    1  0.9512547E-007  0.2797407E+04  0.7818608E-02  0.8304074E-01
          1   -1    0    0  501    0  0.00000000000E+00  0.00000000000E+00  0.71175057077E+03  0.71175057077E+03  0.00000000000E+00 0. -1.
         -1   -1    0    0    0  501 -0.00000000000E+00 -0.00000000000E+00 -0.27486759990E+04  0.27486759990E+04  0.00000000000E+00 0.  1.
         23    2    1    2    0    0 -0.76972975938E+03  0.78561050053E+03 -0.20854220621E+04  0.23595089142E+04  0.92894444055E+02 0.  0.
         13    1    3    3    0    0 -0.62811191690E+03  0.61044301802E+03 -0.17216506201E+04  0.19316433718E+04  0.00000000000E+00 0.  1.
        -13    1    3    3    0    0 -0.14161784248E+03  0.17516748252E+03 -0.36377144206E+03  0.42786554231E+03  0.00000000000E+00 0. -1.
         22    1    1    2    0    0  0.76972975938E+03 -0.78561050053E+03  0.48496633873E+02  0.11009176556E+04  0.00000000000E+00 0. -1.
<mgrwt>
<rscale>  0 0.27974072E+04</rscale>
<asrwt>0</asrwt>
<pdfrwt beam="1">  1        1 0.10950009E+00 0.27974072E+04</pdfrwt>
<pdfrwt beam="2">  1       -1 0.42287323E+00 0.27974072E+04</pdfrwt>
<totfact> 0.11447743E-01</totfact>
</mgrwt>
</event>
<event>
 6    1  0.9512547E-007  0.6679301E+03  0.7818608E-02  0.9773704E-01
         -3   -1    0    0    0  501 -0.00000000000E+00  0.00000000000E+00  0.37629511596E+03  0.37629511596E+03  0.00000000000E+00 0.  1.
          3   -1    0    0  501    0  0.00000000000E+00 -0.00000000000E+00 -0.29639679340E+03  0.29639679340E+03  0.00000000000E+00 0. -1.
         23    2    1    2    0    0  0.30800060270E+03  0.78177470274E+02  0.12229305151E+03  0.35210900095E+03  0.89716609289E+02 0.  0.
         11    1    3    3    0    0  0.68956692273E+02 -0.19501912768E+02  0.32789302027E+02  0.78806651612E+02  0.00000000000E+00 0.  1.
        -11    1    3    3    0    0  0.23904391043E+03  0.97679383042E+02  0.89503749484E+02  0.27330234934E+03  0.00000000000E+00 0. -1.
         22    1    1    2    0    0 -0.30800060270E+03 -0.78177470274E+02 -0.42394728951E+02  0.32058290841E+03  0.00000000000E+00 0. -1.
<mgrwt>
<rscale>  0 0.66793013E+03</rscale>
<asrwt>0</asrwt>
<pdfrwt beam="1">  1        3 0.45599506E-01 0.66793013E+03</pdfrwt>
<pdfrwt beam="2">  1       -3 0.57891557E-01 0.66793013E+03</pdfrwt>
<totfact> 0.36887119E+01</totfact>
</mgrwt>
</event>
<event>
 6    1  0.9512547E-007  0.2424924E+04  0.7818608E-02  0.8430231E-01
         -2   -1    0    0    0  501 -0.00000000000E+00  0.00000000000E+00  0.84288001125E+03  0.84288001125E+03  0.00000000000E+00 0.  1.
          2   -1    0    0  501    0  0.00000000000E+00 -0.00000000000E+00 -0.17440967717E+04  0.17440967717E+04  0.00000000000E+00 0. -1.
         23    2    1    2    0    0  0.17867545023E+03  0.90244749654E+03 -0.12909998094E+04  0.15878435457E+04  0.90720544802E+02 0.  0.
         13    1    3    3    0    0  0.62947147999E+02  0.16696603769E+03 -0.28609162792E+03  0.33717713556E+03  0.00000000000E+00 0.  1.
        -13    1    3    3    0    0  0.11572830223E+03  0.73548145885E+03 -0.10049081815E+04  0.12506664101E+04  0.00000000000E+00 0. -1.
         22    1    1    2    0    0 -0.17867545023E+03 -0.90244749654E+03  0.38978304895E+03  0.99913323724E+03  0.00000000000E+00 0. -1.
<mgrwt>
<rscale>  0 0.24249242E+04</rscale>
<asrwt>0</asrwt>
<pdfrwt beam="1">  1        2 0.26832257E+00 0.24249242E+04</pdfrwt>
<pdfrwt beam="2">  1       -2 0.12967385E+00 0.24249242E+04</pdfrwt>
<totfact> 0.36357674E+00</totfact>
</mgrwt>
</event>
<event>
 6    1  0.9512547E-007  0.1182386E+04  0.7818608E-02  0.9128415E-01
          1   -1    0    0  501    0  0.00000000000E+00  0.00000000000E+00  0.20023150741E+04  0.20023150741E+04  0.00000000000E+00 0. -1.
         -1   -1    0    0    0  501 -0.00000000000E+00 -0.00000000000E+00 -0.17455266490E+03  0.17455266490E+03  0.00000000000E+00 0.  1.
         23    2    1    2    0    0  0.31427236804E+03 -0.31085496789E+03  0.20669391338E+03  0.49661150839E+03  0.92209999777E+02 0.  0.
         11    1    3    3    0    0  0.22526906967E+03 -0.17213880154E+03  0.15891889058E+03  0.32501251442E+03  0.00000000000E+00 0. -1.
        -11    1    3    3    0    0  0.89003298370E+02 -0.13871616635E+03  0.47775022798E+02  0.17159899396E+03  0.00000000000E+00 0.  1.
         22    1    1    2    0    0 -0.31427236804E+03  0.31085496789E+03  0.16210684958E+04  0.16802562306E+04  0.00000000000E+00 0. -1.
<mgrwt>
<rscale>  0 0.11823865E+04</rscale>
<asrwt>0</asrwt>
<pdfrwt beam="1">  1        1 0.30804846E+00 0.11823865E+04</pdfrwt>
<pdfrwt beam="2">  1       -1 0.26854258E-01 0.11823865E+04</pdfrwt>
<totfact> 0.36503182E+01</totfact>
</mgrwt>
</event>
<event>
 6    1  0.9512547E-007  0.6983167E+03  0.7818608E-02  0.9720115E-01
          2   -1    0    0  501    0  0.00000000000E+00  0.00000000000E+00  0.12497973563E+04  0.12497973563E+04  0.00000000000E+00 0. -1.
         -2   -1    0    0    0  501 -0.00000000000E+00 -0.00000000000E+00 -0.97545067139E+02  0.97545067139E+02  0.00000000000E+00 0.  1.
         23    2    1    2    0    0 -0.93160903899E+02  0.23981106745E+03  0.10244263018E+04  0.10600659275E+04  0.90012336507E+02 0.  0.
         11    1    3    3    0    0 -0.96979167249E+02  0.12920000006E+03  0.63363318762E+03  0.65390260387E+03  0.00000000000E+00 0.  1.
        -11    1    3    3    0    0  0.38182633505E+01  0.11061106740E+03  0.39079311417E+03  0.40616332361E+03  0.00000000000E+00 0. -1.
         22    1    1    2    0    0  0.93160903899E+02 -0.23981106745E+03  0.12782598739E+03  0.28727649598E+03  0.00000000000E+00 0.  1.
<mgrwt>
<rscale>  0 0.69831674E+03</rscale>
<asrwt>0</asrwt>
<pdfrwt beam="1">  1        2 0.19227650E+00 0.69831674E+03</pdfrwt>
<pdfrwt beam="2">  1       -2 0.15006934E-01 0.69831674E+03</pdfrwt>
<totfact> 0.62575514E+02</totfact>
</mgrwt>
</event>
<event>
 6    1  0.9512547E-007  0.1486651E+04  0.7818608E-02  0.8893379E-01
          1   -1    0    0  501    0  0.00000000000E+00  0.00000000000E+00  0.11447493276E+04  0.11447493276E+04  0.00000000000E+00 0. -1.
         -1   -1    0    0    0  501 -0.00000000000E+00 -0.00000000000E+00 -0.48266678905E+03  0.48266678905E+03  0.00000000000E+00 0.  1.
         23    2    1    2    0    0 -0.18656007864E+03  0.48132339119E+03  0.91342633423E+03  0.10532640693E+04  0.92415701009E+02 0.  0.
         13    1    3    3    0    0 -0.13670978909E+03  0.22861774436E+03  0.44206893267E+03  0.51612070362E+03  0.00000000000E+00 0. -1.
        -13    1    3    3    0    0 -0.49850289556E+02  0.25270564683E+03  0.47135740156E+03  0.53714336570E+03  0.00000000000E+00 0.  1.
         22    1    1    2    0    0  0.18656007864E+03 -0.48132339119E+03 -0.25134379566E+03  0.57415204734E+03  0.00000000000E+00 0.  1.
<mgrwt>
<rscale>  0 0.14866506E+04</rscale>
<asrwt>0</asrwt>
<pdfrwt beam="1">  1        1 0.17611528E+00 0.14866506E+04</pdfrwt>
<pdfrwt beam="2">  1       -1 0.74256430E-01 0.14866506E+04</pdfrwt>
<totfact> 0.20752133E+01</totfact>
</mgrwt>
</event>
<event>
 6    1  0.9512547E-007  0.4227427E+04  0.7818608E-02  0.7960176E-01
         -2   -1    0    0    0  501 -0.00000000000E+00  0.00000000000E+00  0.15605352296E+04  0.15605352296E+04  0.00000000000E+00 0.  1.
          2   -1    0    0  501    0  0.00000000000E+00 -0.00000000000E+00 -0.28629817321E+04  0.28629817321E+04  0.00000000000E+00 0. -1.
         23    2    1    2    0    0  0.25470872840E+03 -0.98071206911E+03  0.12883376444E+04  0.16416407612E+04  0.92183534760E+02 0.  0.
         13    1    3    3    0    0  0.69115408995E+02 -0.13601379358E+03  0.19683441042E+03  0.24903910723E+03  0.00000000000E+00 0. -1.
        -13    1    3    3    0    0  0.18559331940E+03 -0.84469827553E+03  0.10915032340E+04  0.13926016540E+04  0.00000000000E+00 0.  1.
         22    1    1    2    0    0 -0.25470872840E+03  0.98071206911E+03 -0.25907841469E+04  0.27818762005E+04  0.00000000000E+00 0. -1.
<mgrwt>
<rscale>  0 0.42274266E+04</rscale>
<asrwt>0</asrwt>
<pdfrwt beam="1">  1        2 0.44045872E+00 0.42274266E+04</pdfrwt>
<pdfrwt beam="2">  1       -2 0.24008235E+00 0.42274266E+04</pdfrwt>
<totfact> 0.12128068E-01</totfact>
</mgrwt>
</event>
<event>
 6    1  0.9512547E-007  0.1672310E+04  0.7818608E-02  0.8777316E-01
          2   -1    0    0  501    0  0.00000000000E+00  0.00000000000E+00  0.29354218791E+04  0.29354218791E+04  0.00000000000E+00 0. -1.
         -2   -1    0    0    0  501 -0.00000000000E+00 -0.00000000000E+00 -0.23817875388E+03  0.23817875388E+03  0.00000000000E+00 0.  1.
         23    2    1    2    0    0 -0.64824036330E+03 -0.42593177558E+03  0.19325319802E+04  0.20843731170E+04  0.91093307676E+02 0.  0.
         13    1    3    3    0    0 -0.19586284174E+03 -0.17155778097E+03  0.58371156306E+03  0.63915061905E+03  0.00000000000E+00 0.  1.
        -13    1    3    3    0    0 -0.45237752156E+03 -0.25437399460E+03  0.13488204171E+04  0.14452224980E+04  0.00000000000E+00 0. -1.
         22    1    1    2    0    0  0.64824036330E+03  0.42593177558E+03  0.76471114505E+03  0.10892275159E+04  0.00000000000E+00 0.  1.
<mgrwt>
<rscale>  0 0.16723099E+04</rscale>
<asrwt>0</asrwt>
<pdfrwt beam="1">  1        2 0.45160334E+00 0.16723099E+04</pdfrwt>
<pdfrwt beam="2">  1       -2 0.36642887E-01 0.16723099E+04</pdfrwt>
<totfact> 0.12836212E+01</totfact>
</mgrwt>
</event>
<event>
 6    1  0.9512547E-007  0.5711357E+04  0.7818608E-02  0.7727258E-01
          2   -1    0    0  501    0  0.00000000000E+00  0.00000000000E+00  0.30746614990E+04  0.30746614990E+04  0.00000000000E+00 0. -1.
         -2   -1    0    0    0  501 -0.00000000000E+00 -0.00000000000E+00 -0.26522920523E+04  0.26522920523E+04  0.00000000000E+00 0.  1.
         23    2    1    2    0    0  0.10172834681E+04  0.25363496667E+04 -0.61733939560E+03  0.28030982602E+04  0.91195617109E+02 0.  0.
         13    1    3    3    0    0  0.24093456381E+03  0.52688021215E+03 -0.15673420687E+03  0.60018150054E+03  0.00000000000E+00 0.  1.
        -13    1    3    3    0    0  0.77634890434E+03  0.20094694546E+04 -0.46060518873E+03  0.22029167597E+04  0.00000000000E+00 0. -1.
         22    1    1    2    0    0 -0.10172834681E+04 -0.25363496667E+04  0.10397088423E+04  0.29238552911E+04  0.00000000000E+00 0. -1.
<mgrwt>
<rscale>  0 0.57113572E+04</rscale>
<asrwt>0</asrwt>
<pdfrwt beam="1">  1        2 0.47302485E+00 0.57113572E+04</pdfrwt>
<pdfrwt beam="2">  1       -2 0.40804493E+00 0.57113572E+04</pdfrwt>
<totfact> 0.70727717E-03</totfact>
</mgrwt>
</event>
<event>
 6    1  0.9512547E-007  0.2538617E+04  0.7818608E-02  0.8389356E-01
         -2   -1    0    0    0  501 -0.00000000000E+00  0.00000000000E+00  0.43055852645E+03  0.43055852645E+03  0.00000000000E+00 0.  1.
          2   -1    0    0  501    0  0.00000000000E+00 -0.00000000000E+00 -0.37419856090E+04  0.37419856090E+04  0.00000000000E+00 0. -1.
         23    2    1    2    0    0  0.11162257355E+04  0.43739936861E+03 -0.98156898171E+03  0.15523310009E+04  0.94740541994E+02 0.  0.
         13    1    3    3    0    0  0.10078648303E+04  0.37367753277E+03 -0.90490015592E+03  0.14050874374E+04  0.00000000000E+00 0. -1.
        -13    1    3    3    0    0  0.10836090522E+03  0.63721835844E+02 -0.76668825795E+02  0.14724356350E+03  0.00000000000E+00 0.  1.
         22    1    1    2    0    0 -0.11162257355E+04 -0.43739936861E+03 -0.23298581008E+04  0.26202131345E+04  0.00000000000E+00 0.  1.
<mgrwt>
<rscale>  0 0.25386168E+04</rscale>
<asrwt>0</asrwt>
<pdfrwt beam="1">  1        2 0.57569010E+00 0.25386168E+04</pdfrwt>
<pdfrwt beam="2">  1       -2 0.66239772E-01 0.25386168E+04</pdfrwt>
<totfact> 0.10141497E+00</totfact>
</mgrwt>
</event>
<event>
 6    1  0.9512547E-007  0.1356586E+04  0.7818608E-02  0.8985857E-01
         -1   -1    0    0    0  501 -0.00000000000E+00  0.00000000000E+00  0.23736224187E+04  0.23736224187E+04  0.00000000000E+00 0.  1.
          1   -1    0    0  501    0  0.00000000000E+00 -0.00000000000E+00 -0.19383092861E+03  0.19383092861E+03  0.00000000000E+00 0. -1.
         23    2    1    2    0    0 -0.32432760408E+03 -0.59129276995E+03  0.10337555802E+04  0.12377113267E+04  0.91995619988E+02 0.  0.
         11    1    3    3    0    0 -0.84812852727E+02 -0.22368261150E+03  0.41830961128E+03  0.48188179210E+03  0.00000000000E+00 0.  1.
        -11    1    3    3    0    0 -0.23951475136E+03 -0.36761015845E+03  0.61544596893E+03  0.75582953461E+03  0.00000000000E+00 0. -1.
         22    1    1    2    0    0  0.32432760408E+03  0.59129276995E+03  0.11460359099E+04  0.13297420206E+04  0.00000000000E+00 0. -1.
<mgrwt>
<rscale>  0 0.13565861E+04</rscale>
<asrwt>0</asrwt>
<pdfrwt beam="1">  1        1 0.29820144E-01 0.13565861E+04</pdfrwt>
<pdfrwt beam="2">  1       -1 0.36517266E+00 0.13565861E+04</pdfrwt>
<totfact> 0.18825269E+00</totfact>
</mgrwt>
</event>
<event>
 6    1  0.9512547E-007  0.3888271E+04  0.7818608E-02  0.8027473E-01
         -2   -1    0    0    0  501 -0.00000000000E+00  0.00000000000E+00  0.90596757622E+03  0.90596757622E+03  0.00000000000E+00 0.  1.
          2   -1    0    0  501    0  0.00000000000E+00 -0.00000000000E+00 -0.41719629979E+04  0.41719629979E+04  0.00000000000E+00 0. -1.
         23    2    1    2    0    0 -0.42998801782E+03 -0.66804023421E+03  0.68179914060E+03  0.10509901281E+04  0.92535026915E+02 0.  0.
         11    1    3    3    0    0 -0.13688151961E+03 -0.14236715301E+03  0.18415729433E+03  0.27003493426E+03  0.00000000000E+00 0.  1.
        -11    1    3    3    0    0 -0.29310649821E+03 -0.52567308121E+03  0.49764184627E+03  0.78095519383E+03  0.00000000000E+00 0. -1.
         22    1    1    2    0    0  0.42998801782E+03  0.66804023421E+03 -0.39477945623E+04  0.40269404461E+04  0.00000000000E+00 0. -1.
<mgrwt>
<rscale>  0 0.38882712E+04</rscale>
<asrwt>0</asrwt>
<pdfrwt beam="1">  1        2 0.64184045E+00 0.38882712E+04</pdfrwt>
<pdfrwt beam="2">  1       -2 0.13937963E+00 0.38882712E+04</pdfrwt>
<totfact> 0.70798104E-02</totfact>
</mgrwt>
</event>
<event>
 6    1  0.9512547E-007  0.1976351E+04  0.7818608E-02  0.8617758E-01
         -1   -1    0    0    0  501 -0.00000000000E+00  0.00000000000E+00  0.51637418079E+03  0.51637418079E+03  0.00000000000E+00 0.  1.
          1   -1    0    0  501    0  0.00000000000E+00 -0.00000000000E+00 -0.18910522253E+04  0.18910522253E+04  0.00000000000E+00 0. -1.
         23    2    1    2    0    0 -0.51889773585E+03 -0.80217138407E+03 -0.39150007862E+03  0.10365242570E+04  0.91522861298E+02 0.  0.
         11    1    3    3    0    0 -0.18802277243E+03 -0.21840541037E+03 -0.13365281866E+03  0.31767367245E+03  0.00000000000E+00 0. -1.
        -11    1    3    3    0    0 -0.33087496341E+03 -0.58376597371E+03 -0.25784725996E+03  0.71885058457E+03  0.00000000000E+00 0.  1.
         22    1    1    2    0    0  0.51889773585E+03  0.80217138407E+03 -0.98317796585E+03  0.13709021490E+04  0.00000000000E+00 0.  1.
<mgrwt>
<rscale>  0 0.19763507E+04</rscale>
<asrwt>0</asrwt>
<pdfrwt beam="1">  1        1 0.29093111E+00 0.19763507E+04</pdfrwt>
<pdfrwt beam="2">  1       -1 0.79442182E-01 0.19763507E+04</pdfrwt>
<totfact> 0.51995039E+00</totfact>
</mgrwt>
</event>
<event>
 6    1  0.9512547E-007  0.2673022E+04  0.7818608E-02  0.8343812E-01
         -2   -1    0    0    0  501 -0.00000000000E+00  0.00000000000E+00  0.70021417716E+03  0.70021417716E+03  0.00000000000E+00 0.  1.
          2   -1    0    0  501    0  0.00000000000E+00 -0.00000000000E+00 -0.25510219719E+04  0.25510219719E+04  0.00000000000E+00 0. -1.
         23    2    1    2    0    0  0.69504157425E+03  0.85891315065E+03 -0.17701853007E+02  0.11108875831E+04  0.11376852091E+03 0.  0.
         11    1    3    3    0    0  0.28753971964E+03  0.44429032101E+03 -0.18300194739E+02  0.52953552935E+03  0.00000000000E+00 0.  1.
        -11    1    3    3    0    0  0.40750185461E+03  0.41462282964E+03  0.59834173271E+00  0.58135205373E+03  0.00000000000E+00 0. -1.
         22    1    1    2    0    0 -0.69504157425E+03 -0.85891315065E+03 -0.18331059417E+04  0.21403485660E+04  0.00000000000E+00 0. -1.
<mgrwt>
<rscale>  0 0.26730221E+04</rscale>
<asrwt>0</asrwt>
<pdfrwt beam="1">  1        2 0.39246491E+00 0.26730221E+04</pdfrwt>
<pdfrwt beam="2">  1       -2 0.10772526E+00 0.26730221E+04</pdfrwt>
<totfact> 0.19749322E+00</totfact>
</mgrwt>
</event>
<event>
 6    1  0.9512547E-007  0.2197207E+04  0.7818608E-02  0.8519592E-01
         -2   -1    0    0    0  501 -0.00000000000E+00  0.00000000000E+00  0.77942559597E+03  0.77942559597E+03  0.00000000000E+00 0.  1.
          2   -1    0    0  501    0  0.00000000000E+00 -0.00000000000E+00 -0.15484855663E+04  0.15484855663E+04  0.00000000000E+00 0. -1.
         23    2    1    2    0    0 -0.38292778700E+03  0.21010747040E+03  0.68075538637E+03  0.81373039113E+03  0.89165095257E+02 0.  0.
         11    1    3    3    0    0 -0.23649732637E+03  0.17585183481E+03  0.47189525473E+03  0.55636317691E+03  0.00000000000E+00 0.  1.
        -11    1    3    3    0    0 -0.14643046062E+03  0.34255635593E+02  0.20886013164E+03  0.25736721422E+03  0.00000000000E+00 0. -1.
         22    1    1    2    0    0  0.38292778700E+03 -0.21010747040E+03 -0.14498153567E+04  0.15141807711E+04  0.00000000000E+00 0. -1.
<mgrwt>
<rscale>  0 0.21972067E+04</rscale>
<asrwt>0</asrwt>
<pdfrwt beam="1">  1        2 0.23822855E+00 0.21972067E+04</pdfrwt>
<pdfrwt beam="2">  1       -2 0.11991163E+00 0.21972067E+04</pdfrwt>
<totfact> 0.57980505E+00</totfact>
</mgrwt>
</event>
<event>
 6    1  0.9512547E-007  0.1280102E+04  0.7818608E-02  0.9045495E-01
         -1   -1    0    0    0  501 -0.00000000000E+00  0.00000000000E+00  0.38270610642E+03  0.38270610642E+03  0.00000000000E+00 0.  1.
          1   -1    0    0  501    0  0.00000000000E+00 -0.00000000000E+00 -0.10704443811E+04  0.10704443811E+04  0.00000000000E+00 0. -1.
         23    2    1    2    0    0  0.60672961428E+03  0.13616702583E+03 -0.50169691014E+03  0.80409450143E+03  0.90586388712E+02 0.  0.
         11    1    3    3    0    0  0.16433199068E+03  0.63403223976E+02 -0.18319542626E+03  0.25413684537E+03  0.00000000000E+00 0.  1.
        -11    1    3    3    0    0  0.44239762360E+03  0.72763801851E+02 -0.31850148388E+03  0.54995765606E+03  0.00000000000E+00 0. -1.
         22    1    1    2    0    0 -0.60672961428E+03 -0.13616702583E+03 -0.18604136454E+03  0.64905598609E+03  0.00000000000E+00 0.  1.
<mgrwt>
<rscale>  0 0.12801025E+04</rscale>
<asrwt>0</asrwt>
<pdfrwt beam="1">  1        1 0.16468375E+00 0.12801025E+04</pdfrwt>
<pdfrwt beam="2">  1       -1 0.58877863E-01 0.12801025E+04</pdfrwt>
<totfact> 0.38404390E+01</totfact>
</mgrwt>
</event>
<event>
 6    1  0.9512547E-007  0.6123203E+04  0.7818608E-02  0.7675311E-01
         -2   -1    0    0    0  501 -0.00000000000E+00  0.00000000000E+00  0.33863184923E+04  0.33863184923E+04  0.00000000000E+00 0.  1.
          2   -1    0    0  501    0  0.00000000000E+00 -0.00000000000E+00 -0.27680216045E+04  0.27680216045E+04  0.00000000000E+00 0. -1.
         23    2    1    2    0    0 -0.70999677520E+03  0.29267808646E+04  0.85887071666E+03  0.31330791982E+04  0.91568030686E+02 0.  0.
         13    1    3    3    0    0 -0.53007009991E+03  0.22654410561E+04  0.69799629878E+03  0.24290731407E+04  0.00000000000E+00 0.  1.
        -13    1    3    3    0    0 -0.17992667529E+03  0.66133980844E+03  0.16087441788E+03  0.70400605753E+03  0.00000000000E+00 0. -1.
         22    1    1    2    0    0  0.70999677520E+03 -0.29267808646E+04 -0.24057382895E+03  0.30212608986E+04  0.00000000000E+00 0. -1.
<mgrwt>
<rscale>  0 0.61232027E+04</rscale>
<asrwt>0</asrwt>
<pdfrwt beam="1">  1        2 0.42584948E+00 0.61232027E+04</pdfrwt>
<pdfrwt beam="2">  1       -2 0.52097207E+00 0.61232027E+04</pdfrwt>
<totfact> 0.20178468E-03</totfact>
</mgrwt>
</event>
<event>
 6    1  0.9512547E-007  0.2558945E+04  0.7818608E-02  0.8382282E-01
          2   -1    0    0  501    0  0.00000000000E+00  0.00000000000E+00  0.13429756905E+04  0.13429756905E+04  0.00000000000E+00 0. -1.
         -2   -1    0    0    0  501 -0.00000000000E+00 -0.00000000000E+00 -0.12189724992E+04  0.12189724992E+04  0.00000000000E+00 0.  1.
         23    2    1    2    0    0  0.21600449923E+03 -0.87015448814E+03  0.97374553764E+03  0.13266794609E+04  0.89840097331E+02 0.  0.
         11    1    3    3    0    0  0.20821583229E+03 -0.69517999913E+03  0.79572458063E+03  0.10769432075E+04  0.00000000000E+00 0. -1.
        -11    1    3    3    0    0  0.77886669388E+01 -0.17497448901E+03  0.17802095700E+03  0.24973625341E+03  0.00000000000E+00 0.  1.
         22    1    1    2    0    0 -0.21600449923E+03  0.87015448814E+03 -0.84974234638E+03  0.12352687287E+04  0.00000000000E+00 0.  1.
<mgrwt>
<rscale>  0 0.25589454E+04</rscale>
<asrwt>0</asrwt>
<pdfrwt beam="1">  1        2 0.20661165E+00 0.25589454E+04</pdfrwt>
<pdfrwt beam="2">  1       -2 0.18753423E+00 0.25589454E+04</pdfrwt>
<totfact> 0.22310470E+00</totfact>
</mgrwt>
</event>
<event>
 6    1  0.9512547E-007  0.2881294E+04  0.7818608E-02  0.8278465E-01
         -2   -1    0    0    0  501 -0.00000000000E+00  0.00000000000E+00  0.13860831567E+04  0.13860831567E+04  0.00000000000E+00 0.  1.
          2   -1    0    0  501    0  0.00000000000E+00 -0.00000000000E+00 -0.14973589978E+04  0.14973589978E+04  0.00000000000E+00 0. -1.
         23    2    1    2    0    0  0.48392392789E+03  0.15950406764E+03 -0.14026421901E+04  0.14951875081E+04  0.92502190189E+02 0.  0.
         13    1    3    3    0    0  0.33439000749E+03  0.10016130619E+03 -0.10735835179E+04  0.11289067872E+04  0.00000000000E+00 0.  1.
        -13    1    3    3    0    0  0.14953392040E+03  0.59342761450E+02 -0.32905867225E+03  0.36628072085E+03  0.00000000000E+00 0. -1.
         22    1    1    2    0    0 -0.48392392789E+03 -0.15950406764E+03  0.12913663491E+04  0.13882546464E+04  0.00000000000E+00 0.  1.
<mgrwt>
<rscale>  0 0.28812942E+04</rscale>
<asrwt>0</asrwt>
<pdfrwt beam="1">  1        2 0.23036292E+00 0.28812942E+04</pdfrwt>
<pdfrwt beam="2">  1       -2 0.21324356E+00 0.28812942E+04</pdfrwt>
<totfact> 0.12017524E+00</totfact>
</mgrwt>
</event>
<event>
 6    1  0.9512547E-007  0.2374027E+04  0.7818608E-02  0.8449292E-01
          2   -1    0    0  501    0  0.00000000000E+00  0.00000000000E+00  0.27721262441E+04  0.27721262441E+04  0.00000000000E+00 0. -1.
         -2   -1    0    0    0  501 -0.00000000000E+00 -0.00000000000E+00 -0.50827433737E+03  0.50827433737E+03  0.00000000000E+00 0.  1.
         23    2    1    2    0    0 -0.73448735215E+03 -0.82369780584E+03  0.53619605447E+03  0.12303409507E+04  0.91010441009E+02 0.  0.
         11    1    3    3    0    0 -0.18743837888E+03 -0.27135447039E+03  0.16930012070E+03  0.37071407492E+03  0.00000000000E+00 0. -1.
        -11    1    3    3    0    0 -0.54704897327E+03 -0.55234333545E+03  0.36689593378E+03  0.85962687580E+03  0.00000000000E+00 0.  1.
         22    1    1    2    0    0  0.73448735215E+03  0.82369780584E+03  0.17276558523E+04  0.20500596308E+04  0.00000000000E+00 0.  1.
<mgrwt>
<rscale>  0 0.23740266E+04</rscale>
<asrwt>0</asrwt>
<pdfrwt beam="1">  1        2 0.42648095E+00 0.23740266E+04</pdfrwt>
<pdfrwt beam="2">  1       -2 0.78196054E-01 0.23740266E+04</pdfrwt>
<totfact> 0.31522021E+00</totfact>
</mgrwt>
</event>
<event>
 6    1  0.9512547E-007  0.3066489E+04  0.7818608E-02  0.8224995E-01
          1   -1    0    0  501    0  0.00000000000E+00  0.00000000000E+00  0.23671955613E+04  0.23671955613E+04  0.00000000000E+00 0. -1.
         -1   -1    0    0    0  501 -0.00000000000E+00 -0.00000000000E+00 -0.99308990218E+03  0.99308990218E+03  0.00000000000E+00 0.  1.
         23    2    1    2    0    0 -0.12773330349E+04 -0.50258433923E+03  0.14331019131E+04  0.19863672498E+04  0.87767064124E+02 0.  0.
         13    1    3    3    0    0 -0.72005932053E+03 -0.32742445932E+03  0.84458059358E+03  0.11571553831E+04  0.00000000000E+00 0.  1.
        -13    1    3    3    0    0 -0.55727371436E+03 -0.17515987991E+03  0.58852131956E+03  0.82921186666E+03  0.00000000000E+00 0. -1.
         22    1    1    2    0    0  0.12773330349E+04  0.50258433923E+03 -0.58996253972E+02  0.13739182137E+04  0.00000000000E+00 0.  1.
<mgrwt>
<rscale>  0 0.30664886E+04</rscale>
<asrwt>0</asrwt>
<pdfrwt beam="1">  1        1 0.36418393E+00 0.30664886E+04</pdfrwt>
<pdfrwt beam="2">  1       -1 0.15278306E+00 0.30664886E+04</pdfrwt>
<totfact> 0.46997374E-01</totfact>
</mgrwt>
</event>
<event>
 6    1  0.9512547E-007  0.3454540E+04  0.7818608E-02  0.8124649E-01
          2   -1    0    0  501    0  0.00000000000E+00  0.00000000000E+00  0.15392165451E+04  0.15392165451E+04  0.00000000000E+00 0. -1.
         -2   -1    0    0    0  501 -0.00000000000E+00 -0.00000000000E+00 -0.19382985365E+04  0.19382985365E+04  0.00000000000E+00 0.  1.
         23    2    1    2    0    0 -0.54171674736E+03 -0.25379689370E+03 -0.18294976367E+04  0.19270445672E+04  0.92570317796E+02 0.  0.
         11    1    3    3    0    0 -0.46440604276E+03 -0.21795890766E+03 -0.14493593958E+04  0.15374725091E+04  0.00000000000E+00 0.  1.
        -11    1    3    3    0    0 -0.77310704602E+02 -0.35837986045E+02 -0.38013824092E+03  0.38957205816E+03  0.00000000000E+00 0. -1.
         22    1    1    2    0    0  0.54171674736E+03  0.25379689370E+03  0.14304156453E+04  0.15504705143E+04  0.00000000000E+00 0. -1.
<mgrwt>
<rscale>  0 0.34545397E+04</rscale>
<asrwt>0</asrwt>
<pdfrwt beam="1">  1        2 0.23680255E+00 0.34545397E+04</pdfrwt>
<pdfrwt beam="2">  1       -2 0.29819977E+00 0.34545397E+04</pdfrwt>
<totfact> 0.32432740E-01</totfact>
</mgrwt>
</event>
<event>
 6    1  0.9512547E-007  0.4047965E+03  0.7818608E-02  0.1042131E+00
          1   -1    0    0  501    0  0.00000000000E+00  0.00000000000E+00  0.67652685429E+03  0.67652685429E+03  0.00000000000E+00 0. -1.
         -1   -1    0    0    0  501 -0.00000000000E+00 -0.00000000000E+00 -0.60551984939E+02  0.60551984939E+02  0.00000000000E+00 0.  1.
         23    2    1    2    0    0 -0.90699989874E+02  0.14767825658E+03  0.47466180311E+03  0.51346144652E+03  0.91123400437E+02 0.  0.
         13    1    3    3    0    0 -0.34075122197E+02  0.72165594715E+02  0.33853227846E+03  0.34781186088E+03  0.00000000000E+00 0. -1.
        -13    1    3    3    0    0 -0.56624867678E+02  0.75512661864E+02  0.13612952465E+03  0.16564958564E+03  0.00000000000E+00 0.  1.
         22    1    1    2    0    0  0.90699989874E+02 -0.14767825658E+03  0.14131306625E+03  0.22361739271E+03  0.00000000000E+00 0.  1.
<mgrwt>
<rscale>  0 0.40479646E+03</rscale>
<asrwt>0</asrwt>
<pdfrwt beam="1">  1        1 0.10408105E+00 0.40479646E+03</pdfrwt>
<pdfrwt beam="2">  1       -1 0.93156905E-02 0.40479646E+03</pdfrwt>
<totfact> 0.20230781E+03</totfact>
</mgrwt>
</event>
<event>
 6    1  0.9512547E-007  0.1464749E+04  0.7818608E-02  0.8908239E-01
         -1   -1    0    0    0  501 -0.00000000000E+00  0.00000000000E+00  0.29918128331E+03  0.29918128331E+03  0.00000000000E+00 0.  1.
          1   -1    0    0  501    0  0.00000000000E+00 -0.00000000000E+00 -0.17928015179E+04  0.17928015179E+04  0.00000000000E+00 0. -1.
         23    2    1    2    0    0 -0.62768483735E+03 -0.68476675350E+02 -0.22790120767E+03  0.67751400862E+03  0.91700388904E+02 0.  0.
         11    1    3    3    0    0 -0.42786104763E+03 -0.85038935795E+02 -0.17600286588E+03  0.47039739102E+03  0.00000000000E+00 0.  1.
        -11    1    3    3    0    0 -0.19982378972E+03  0.16562260445E+02 -0.51898341783E+02  0.20711661761E+03  0.00000000000E+00 0. -1.
         22    1    1    2    0    0  0.62768483735E+03  0.68476675350E+02 -0.12657190269E+04  0.14144687926E+04  0.00000000000E+00 0. -1.
<mgrwt>
<rscale>  0 0.14647493E+04</rscale>
<asrwt>0</asrwt>
<pdfrwt beam="1">  1        1 0.27581561E+00 0.14647493E+04</pdfrwt>
<pdfrwt beam="2">  1       -1 0.46027890E-01 0.14647493E+04</pdfrwt>
<totfact> 0.18768135E+01</totfact>
</mgrwt>
</event>
<event>
 6    1  0.9512547E-007  0.2225416E+04  0.7818608E-02  0.8507923E-01
          2   -1    0    0  501    0  0.00000000000E+00  0.00000000000E+00  0.23639020896E+04  0.23639020896E+04  0.00000000000E+00 0. -1.
         -2   -1    0    0    0  501 -0.00000000000E+00 -0.00000000000E+00 -0.52376067414E+03  0.52376067414E+03  0.00000000000E+00 0.  1.
         23    2    1    2    0    0  0.55008115488E+03 -0.95988605891E+03  0.10519431921E+04  0.15292714496E+04  0.90089756082E+02 0.  0.
         11    1    3    3    0    0  0.39046298402E+03 -0.65237785521E+03  0.77554979507E+03  0.10860643132E+04  0.00000000000E+00 0. -1.
        -11    1    3    3    0    0  0.15961817086E+03 -0.30750820369E+03  0.27639339704E+03  0.44320713637E+03  0.00000000000E+00 0.  1.
         22    1    1    2    0    0 -0.55008115488E+03  0.95988605891E+03  0.78819822338E+03  0.13583913142E+04  0.00000000000E+00 0. -1.
<mgrwt>
<rscale>  0 0.22254159E+04</rscale>
<asrwt>0</asrwt>
<pdfrwt beam="1">  1        2 0.36367724E+00 0.22254159E+04</pdfrwt>
<pdfrwt beam="2">  1       -2 0.80578566E-01 0.22254159E+04</pdfrwt>
<totfact> 0.51717174E+00</totfact>
</mgrwt>
</event>
<event>
 6    1  0.9512547E-007  0.3841322E+04  0.7818608E-02  0.8037345E-01
          1   -1    0    0  501    0  0.00000000000E+00  0.00000000000E+00  0.15437779887E+04  0.15437779887E+04  0.00000000000E+00 0. -1.
         -1   -1    0    0    0  501 -0.00000000000E+00 -0.00000000000E+00 -0.23895523887E+04  0.23895523887E+04  0.00000000000E+00 0.  1.
         23    2    1    2    0    0 -0.58031570323E+03 -0.81484975116E+03  0.12543844007E+04  0.16070858889E+04  0.92186751186E+02 0.  0.
         13    1    3    3    0    0 -0.24449245911E+03 -0.27049515593E+03  0.47705524570E+03  0.60043808955E+03  0.00000000000E+00 0. -1.
        -13    1    3    3    0    0 -0.33582324412E+03 -0.54435459523E+03  0.77732915504E+03  0.10066477993E+04  0.00000000000E+00 0.  1.
         22    1    1    2    0    0  0.58031570323E+03  0.81484975116E+03 -0.21001588007E+04  0.23262444885E+04  0.00000000000E+00 0.  1.
<mgrwt>
<rscale>  0 0.38413218E+04</rscale>
<asrwt>0</asrwt>
<pdfrwt beam="1">  1        1 0.23750431E+00 0.38413218E+04</pdfrwt>
<pdfrwt beam="2">  1       -1 0.36762344E+00 0.38413218E+04</pdfrwt>
<totfact> 0.57308565E-02</totfact>
</mgrwt>
</event>
<event>
 6    1  0.9512547E-007  0.2172016E+04  0.7818608E-02  0.8530167E-01
          1   -1    0    0  501    0  0.00000000000E+00  0.00000000000E+00  0.23159684531E+04  0.23159684531E+04  0.00000000000E+00 0. -1.
         -1   -1    0    0    0  501 -0.00000000000E+00 -0.00000000000E+00 -0.50925256780E+03  0.50925256780E+03  0.00000000000E+00 0.  1.
         23    2    1    2    0    0  0.65014006143E+03  0.74108811276E+03  0.31918271262E+03  0.10406626357E+04  0.95955338347E+02 0.  0.
         11    1    3    3    0    0  0.35391181359E+03  0.45908336431E+03  0.21830503604E+03  0.61940955429E+03  0.00000000000E+00 0.  1.
        -11    1    3    3    0    0  0.29622824784E+03  0.28200474845E+03  0.10087767659E+03  0.42125308141E+03  0.00000000000E+00 0. -1.
         22    1    1    2    0    0 -0.65014006143E+03 -0.74108811276E+03  0.14875331727E+04  0.17845583852E+04  0.00000000000E+00 0. -1.
<mgrwt>
<rscale>  0 0.21720155E+04</rscale>
<asrwt>0</asrwt>
<pdfrwt beam="1">  1        1 0.35630283E+00 0.21720155E+04</pdfrwt>
<pdfrwt beam="2">  1       -1 0.78346550E-01 0.21720155E+04</pdfrwt>
<totfact> 0.27046306E+00</totfact>
</mgrwt>
</event>
<event>
 6    1  0.9512547E-007  0.3205705E+04  0.7818608E-02  0.8187312E-01
         -2   -1    0    0    0  501 -0.00000000000E+00  0.00000000000E+00  0.92275957615E+03  0.92275957615E+03  0.00000000000E+00 0.  1.
          2   -1    0    0  501    0  0.00000000000E+00 -0.00000000000E+00 -0.27841883188E+04  0.27841883188E+04  0.00000000000E+00 0. -1.
         23    2    1    2    0    0  0.56258622263E+03  0.53072615591E+03  0.69022806750E+03  0.10406534650E+04  0.91495019361E+02 0.  0.
         11    1    3    3    0    0  0.15355746887E+03  0.10633506747E+03  0.13084324935E+03  0.22805043021E+03  0.00000000000E+00 0. -1.
        -11    1    3    3    0    0  0.40902875376E+03  0.42439108843E+03  0.55938481816E+03  0.81260303478E+03  0.00000000000E+00 0.  1.
         22    1    1    2    0    0 -0.56258622263E+03 -0.53072615591E+03 -0.25516568101E+04  0.26662944299E+04  0.00000000000E+00 0. -1.
<mgrwt>
<rscale>  0 0.32057052E+04</rscale>
<asrwt>0</asrwt>
<pdfrwt beam="1">  1        2 0.42833666E+00 0.32057052E+04</pdfrwt>
<pdfrwt beam="2">  1       -2 0.14196301E+00 0.32057052E+04</pdfrwt>
<totfact> 0.68879979E-01</totfact>
</mgrwt>
</event>
<event>
 6    1  0.9512547E-007  0.2490221E+04  0.7818608E-02  0.8406478E-01
         -2   -1    0    0    0  501 -0.00000000000E+00  0.00000000000E+00  0.40625456758E+03  0.40625456758E+03  0.00000000000E+00 0.  1.
          2   -1    0    0  501    0  0.00000000000E+00 -0.00000000000E+00 -0.38160815133E+04  0.38160815133E+04  0.00000000000E+00 0. -1.
         23    2    1    2    0    0  0.41121022874E+03  0.12903087341E+03 -0.36848076535E+04  0.37111050097E+04  0.93542137046E+02 0.  0.
         13    1    3    3    0    0  0.15338402573E+03  0.84321230751E+02 -0.17376069617E+04  0.17464004932E+04  0.00000000000E+00 0.  1.
        -13    1    3    3    0    0  0.25782620301E+03  0.44709642663E+02 -0.19472006918E+04  0.19647045165E+04  0.00000000000E+00 0. -1.
         22    1    1    2    0    0 -0.41121022874E+03 -0.12903087341E+03  0.27498070776E+03  0.51123107119E+03  0.00000000000E+00 0.  1.
<mgrwt>
<rscale>  0 0.24902213E+04</rscale>
<asrwt>0</asrwt>
<pdfrwt beam="1">  1        2 0.58708951E+00 0.24902213E+04</pdfrwt>
<pdfrwt beam="2">  1       -2 0.62500698E-01 0.24902213E+04</pdfrwt>
<totfact> 0.10146312E+00</totfact>
</mgrwt>
</event>
<event>
 6    1  0.9512547E-007  0.1244063E+04  0.7818608E-02  0.9075139E-01
         -2   -1    0    0    0  501 -0.00000000000E+00  0.00000000000E+00  0.36305360641E+03  0.36305360641E+03  0.00000000000E+00 0.  1.
          2   -1    0    0  501    0  0.00000000000E+00 -0.00000000000E+00 -0.10657467974E+04  0.10657467974E+04  0.00000000000E+00 0. -1.
         23    2    1    2    0    0  0.38994786299E+03 -0.46551858403E+03 -0.21665596074E+03  0.65098353777E+03  0.89849169130E+02 0.  0.
         13    1    3    3    0    0  0.88212437265E+02 -0.98883873464E+02 -0.87862885520E+02  0.15899478347E+03  0.00000000000E+00 0. -1.
        -13    1    3    3    0    0  0.30173542572E+03 -0.36663471056E+03 -0.12879307522E+03  0.49198875429E+03  0.00000000000E+00 0.  1.
         22    1    1    2    0    0 -0.38994786299E+03  0.46551858403E+03 -0.48603723024E+03  0.77781686605E+03  0.00000000000E+00 0. -1.
<mgrwt>
<rscale>  0 0.12440631E+04</rscale>
<asrwt>0</asrwt>
<pdfrwt beam="1">  1        2 0.16396105E+00 0.12440631E+04</pdfrwt>
<pdfrwt beam="2">  1       -2 0.55854400E-01 0.12440631E+04</pdfrwt>
<totfact> 0.67776597E+01</totfact>
</mgrwt>
</event>
<event>
 6    1  0.9512547E-007  0.3840536E+04  0.7818608E-02  0.8037512E-01
          2   -1    0    0  501    0  0.00000000000E+00  0.00000000000E+00  0.23049533026E+04  0.23049533026E+04  0.00000000000E+00 0. -1.
         -2   -1    0    0    0  501 -0.00000000000E+00 -0.00000000000E+00 -0.15997847385E+04  0.15997847385E+04  0.00000000000E+00 0.  1.
         23    2    1    2    0    0  0.12341099807E+04 -0.93484843369E+03  0.15058590832E+04  0.21617307704E+04  0.92191685145E+02 0.  0.
         13    1    3    3    0    0  0.59331264656E+03 -0.39555995624E+03  0.71528617642E+03  0.10100108364E+04  0.00000000000E+00 0. -1.
        -13    1    3    3    0    0  0.64079733416E+03 -0.53928847745E+03  0.79057290678E+03  0.11517199340E+04  0.00000000000E+00 0.  1.
         22    1    1    2    0    0 -0.12341099807E+04  0.93484843369E+03 -0.80069051909E+03  0.17430072707E+04  0.00000000000E+00 0.  1.
<mgrwt>
<rscale>  0 0.38405360E+04</rscale>
<asrwt>0</asrwt>
<pdfrwt beam="1">  1        2 0.35460820E+00 0.38405360E+04</pdfrwt>
<pdfrwt beam="2">  1       -2 0.24612073E+00 0.38405360E+04</pdfrwt>
<totfact> 0.24442384E-01</totfact>
</mgrwt>
</event>
<event>
 6    1  0.9512547E-007  0.6456962E+03  0.7818608E-02  0.9814889E-01
          2   -1    0    0  501    0  0.00000000000E+00  0.00000000000E+00  0.51369245130E+03  0.51369245130E+03  0.00000000000E+00 0. -1.
         -2   -1    0    0    0  501 -0.00000000000E+00 -0.00000000000E+00 -0.20290526792E+03  0.20290526792E+03  0.00000000000E+00 0.  1.
         23    2    1    2    0    0  0.19136596347E+03 -0.20314786265E+03 -0.12080735191E+02  0.28982649372E+03  0.77223482364E+02 0.  0.
         11    1    3    3    0    0  0.17442084333E+02 -0.56805617281E+02 -0.19100786940E+02  0.62417501731E+02  0.00000000000E+00 0.  1.
        -11    1    3    3    0    0  0.17392387913E+03 -0.14634224537E+03  0.70200517497E+01  0.22740899199E+03  0.00000000000E+00 0. -1.
         22    1    1    2    0    0 -0.19136596347E+03  0.20314786265E+03  0.32286791857E+03  0.42677122549E+03  0.00000000000E+00 0. -1.
<mgrwt>
<rscale>  0 0.64569623E+03</rscale>
<asrwt>0</asrwt>
<pdfrwt beam="1">  1        2 0.79029607E-01 0.64569623E+03</pdfrwt>
<pdfrwt beam="2">  1       -2 0.31216195E-01 0.64569623E+03</pdfrwt>
<totfact> 0.57149613E+02</totfact>
</mgrwt>
</event>
<event>
 6    1  0.9512547E-007  0.3911111E+04  0.7818608E-02  0.8022722E-01
         -2   -1    0    0    0  501 -0.00000000000E+00  0.00000000000E+00  0.19566691692E+04  0.19566691692E+04  0.00000000000E+00 0.  1.
          2   -1    0    0  501    0  0.00000000000E+00 -0.00000000000E+00 -0.19544422762E+04  0.19544422762E+04  0.00000000000E+00 0. -1.
         23    2    1    2    0    0 -0.21552854553E+03  0.19289691803E+04 -0.22805770479E+03  0.19565256457E+04  0.92777332518E+02 0.  0.
         13    1    3    3    0    0 -0.19783788877E+03  0.14016137263E+04 -0.17090808532E+03  0.14257876566E+04  0.00000000000E+00 0.  1.
        -13    1    3    3    0    0 -0.17690656760E+02  0.52735545393E+03 -0.57149619468E+02  0.53073798916E+03  0.00000000000E+00 0. -1.
         22    1    1    2    0    0  0.21552854553E+03 -0.19289691803E+04  0.23028459777E+03  0.19545857997E+04  0.00000000000E+00 0. -1.
<mgrwt>
<rscale>  0 0.39111108E+04</rscale>
<asrwt>0</asrwt>
<pdfrwt beam="1">  1        2 0.30068343E+00 0.39111108E+04</pdfrwt>
<pdfrwt beam="2">  1       -2 0.30102602E+00 0.39111108E+04</pdfrwt>
<totfact> 0.17629658E-01</totfact>
</mgrwt>
</event>
<event>
 6    1  0.9512547E-007  0.1548155E+04  0.7818608E-02  0.8853047E-01
         -2   -1    0    0    0  501 -0.00000000000E+00  0.00000000000E+00  0.10886280541E+04  0.10886280541E+04  0.00000000000E+00 0.  1.
          2   -1    0    0  501    0  0.00000000000E+00 -0.00000000000E+00 -0.55041377084E+03  0.55041377084E+03  0.00000000000E+00 0. -1.
         23    2    1    2    0    0  0.55416289289E+02 -0.62530802884E+03 -0.20456880236E+03  0.66651531715E+03  0.91176625566E+02 0.  0.
         13    1    3    3    0    0  0.51979105131E+02 -0.16602149701E+03 -0.39010879560E+02  0.17828856824E+03  0.00000000000E+00 0. -1.
        -13    1    3    3    0    0  0.34371841575E+01 -0.45928653183E+03 -0.16555792280E+03  0.48822674892E+03  0.00000000000E+00 0.  1.
         22    1    1    2    0    0 -0.55416289289E+02  0.62530802884E+03  0.74278308563E+03  0.97252650779E+03  0.00000000000E+00 0.  1.
<mgrwt>
<rscale>  0 0.15481549E+04</rscale>
<asrwt>0</asrwt>
<pdfrwt beam="1">  1        2 0.84679042E-01 0.15481549E+04</pdfrwt>
<pdfrwt beam="2">  1       -2 0.16748124E+00 0.15481549E+04</pdfrwt>
<totfact> 0.11752371E+01</totfact>
</mgrwt>
</event>
<event>
 6    1  0.9512547E-007  0.2696919E+04  0.7818608E-02  0.8336005E-01
          2   -1    0    0  501    0  0.00000000000E+00  0.00000000000E+00  0.23957168975E+04  0.23957168975E+04  0.00000000000E+00 0. -1.
         -2   -1    0    0    0  501 -0.00000000000E+00 -0.00000000000E+00 -0.75899740020E+03  0.75899740020E+03  0.00000000000E+00 0.  1.
         23    2    1    2    0    0  0.28809432482E+03  0.12758155034E+04  0.11959821574E+04  0.17745139711E+04  0.88447578988E+02 0.  0.
         13    1    3    3    0    0  0.11901050964E+03  0.42309588481E+03  0.44954475542E+03  0.62870033901E+03  0.00000000000E+00 0. -1.
        -13    1    3    3    0    0  0.16908381518E+03  0.85271961860E+03  0.74643740194E+03  0.11458136321E+04  0.00000000000E+00 0.  1.
         22    1    1    2    0    0 -0.28809432482E+03 -0.12758155034E+04  0.44073733997E+03  0.13802003266E+04  0.00000000000E+00 0.  1.
<mgrwt>
<rscale>  0 0.26969189E+04</rscale>
<asrwt>0</asrwt>
<pdfrwt beam="1">  1        2 0.36857183E+00 0.26969189E+04</pdfrwt>
<pdfrwt beam="2">  1       -2 0.11676883E+00 0.26969189E+04</pdfrwt>
<totfact> 0.19924634E+00</totfact>
</mgrwt>
</event>
<event>
 6    1  0.9512547E-007  0.3221835E+04  0.7818608E-02  0.8183074E-01
          2   -1    0    0  501    0  0.00000000000E+00  0.00000000000E+00  0.17833948637E+04  0.17833948637E+04  0.00000000000E+00 0. -1.
         -2   -1    0    0    0  501 -0.00000000000E+00 -0.00000000000E+00 -0.14551210136E+04  0.14551210136E+04  0.00000000000E+00 0.  1.
         23    2    1    2    0    0  0.13025806518E+04  0.72315593049E+03  0.77676081076E+03  0.16826201842E+04  0.90457022378E+02 0.  0.
         11    1    3    3    0    0  0.59504466310E+03  0.37329209165E+03  0.39406752874E+03  0.80542805637E+03  0.00000000000E+00 0. -1.
        -11    1    3    3    0    0  0.70753598868E+03  0.34986383884E+03  0.38269328201E+03  0.87719212782E+03  0.00000000000E+00 0.  1.
         22    1    1    2    0    0 -0.13025806518E+04 -0.72315593049E+03 -0.44848696067E+03  0.15558956932E+04  0.00000000000E+00 0. -1.
<mgrwt>
<rscale>  0 0.32218351E+04</rscale>
<asrwt>0</asrwt>
<pdfrwt beam="1">  1        2 0.27436844E+00 0.32218351E+04</pdfrwt>
<pdfrwt beam="2">  1       -2 0.22386477E+00 0.32218351E+04</pdfrwt>
<totfact> 0.69223173E-01</totfact>
</mgrwt>
</event>
<event>
 6    1  0.9512547E-007  0.2678704E+04  0.7818608E-02  0.8341948E-01
          2   -1    0    0  501    0  0.00000000000E+00  0.00000000000E+00  0.16124698137E+04  0.16124698137E+04  0.00000000000E+00 0. -1.
         -2   -1    0    0    0  501 -0.00000000000E+00 -0.00000000000E+00 -0.11124941310E+04  0.11124941310E+04  0.00000000000E+00 0.  1.
         23    2    1    2    0    0  0.99896316708E+03  0.62724153354E+02 -0.65349699075E+03  0.11977570376E+04  0.75510764352E+02 0.  0.
         11    1    3    3    0    0  0.45775223748E+03 -0.81621520049E+01 -0.30718213680E+03  0.55132984393E+03  0.00000000000E+00 0. -1.
        -11    1    3    3    0    0  0.54121092960E+03  0.70886305358E+02 -0.34631485395E+03  0.64642719364E+03  0.00000000000E+00 0.  1.
         22    1    1    2    0    0 -0.99896316708E+03 -0.62724153354E+02  0.11534726735E+04  0.15272069071E+04  0.00000000000E+00 0. -1.
<mgrwt>
<rscale>  0 0.26787036E+04</rscale>
<asrwt>0</asrwt>
<pdfrwt beam="1">  1        2 0.24807228E+00 0.26787036E+04</pdfrwt>
<pdfrwt beam="2">  1       -2 0.17115294E+00 0.26787036E+04</pdfrwt>
<totfact> 0.20174532E+00</totfact>
</mgrwt>
</event>
<event>
 6    1  0.9512547E-007  0.2668988E+04  0.7818608E-02  0.8345138E-01
          1   -1    0    0  501    0  0.00000000000E+00  0.00000000000E+00  0.14860032555E+04  0.14860032555E+04  0.00000000000E+00 0. -1.
         -1   -1    0    0    0  501 -0.00000000000E+00 -0.00000000000E+00 -0.11984323925E+04  0.11984323925E+04  0.00000000000E+00 0.  1.
         23    2    1    2    0    0 -0.73706452672E+03 -0.63248990975E+03  0.10621535114E+04  0.14421450693E+04  0.91130218423E+02 0.  0.
         11    1    3    3    0    0 -0.40288724176E+03 -0.28685846682E+03  0.55181862446E+03  0.74101936807E+03  0.00000000000E+00 0.  1.
        -11    1    3    3    0    0 -0.33417728496E+03 -0.34563144293E+03  0.51033488698E+03  0.70112570128E+03  0.00000000000E+00 0. -1.
         22    1    1    2    0    0  0.73706452672E+03  0.63248990975E+03 -0.77458264841E+03  0.12422905786E+04  0.00000000000E+00 0.  1.
<mgrwt>
<rscale>  0 0.26689882E+04</rscale>
<asrwt>0</asrwt>
<pdfrwt beam="1">  1        1 0.22861589E+00 0.26689882E+04</pdfrwt>
<pdfrwt beam="2">  1       -1 0.18437421E+00 0.26689882E+04</pdfrwt>
<totfact> 0.11342048E+00</totfact>
</mgrwt>
</event>
<event>
 6    1  0.9512547E-007  0.2558979E+04  0.7818608E-02  0.8382270E-01
          1   -1    0    0  501    0  0.00000000000E+00  0.00000000000E+00  0.50491906955E+03  0.50491906955E+03  0.00000000000E+00 0. -1.
         -1   -1    0    0    0  501 -0.00000000000E+00 -0.00000000000E+00 -0.32422883771E+04  0.32422883771E+04  0.00000000000E+00 0.  1.
         23    2    1    2    0    0 -0.99287426634E+03 -0.17227424064E+03 -0.21991187664E+03  0.10355530367E+04  0.92364146320E+02 0.  0.
         11    1    3    3    0    0 -0.32851211085E+03 -0.13296813094E+02 -0.67501792014E+02  0.33563894908E+03  0.00000000000E+00 0.  1.
        -11    1    3    3    0    0 -0.66436215549E+03 -0.15897742754E+03 -0.15241008463E+03  0.69991408759E+03  0.00000000000E+00 0. -1.
         22    1    1    2    0    0  0.99287426634E+03  0.17227424064E+03 -0.25174574309E+04  0.27116544099E+04  0.00000000000E+00 0.  1.
<mgrwt>
<rscale>  0 0.25589789E+04</rscale>
<asrwt>0</asrwt>
<pdfrwt beam="1">  1        1 0.77679855E-01 0.25589789E+04</pdfrwt>
<pdfrwt beam="2">  1       -1 0.49881361E+00 0.25589789E+04</pdfrwt>
<totfact> 0.58395068E-02</totfact>
</mgrwt>
</event>
<event>
 6    1  0.9512547E-007  0.7296896E+04  0.7818608E-02  0.7547568E-01
          2   -1    0    0  501    0  0.00000000000E+00  0.00000000000E+00  0.26593479260E+04  0.26593479260E+04  0.00000000000E+00 0. -1.
         -2   -1    0    0    0  501 -0.00000000000E+00 -0.00000000000E+00 -0.50054271141E+04  0.50054271141E+04  0.00000000000E+00 0.  1.
         23    2    1    2    0    0  0.97801758989E+03 -0.34281906879E+04 -0.36093878849E+03  0.35843593499E+04  0.91352840831E+02 0.  0.
         13    1    3    3    0    0  0.77736696311E+03 -0.28415443305E+04 -0.28492861520E+03  0.29597057106E+04  0.00000000000E+00 0.  1.
        -13    1    3    3    0    0  0.20065062678E+03 -0.58664635745E+03 -0.76010173285E+02  0.62465363937E+03  0.00000000000E+00 0. -1.
         22    1    1    2    0    0 -0.97801758989E+03  0.34281906879E+04 -0.19851403996E+04  0.40804156902E+04  0.00000000000E+00 0.  1.
<mgrwt>
<rscale>  0 0.72968958E+04</rscale>
<asrwt>0</asrwt>
<pdfrwt beam="1">  1        2 0.40913046E+00 0.72968958E+04</pdfrwt>
<pdfrwt beam="2">  1       -2 0.77006570E+00 0.72968958E+04</pdfrwt>
<totfact> 0.19998742E-04</totfact>
</mgrwt>
</event>
<event>
 6    1  0.9512547E-007  0.1031885E+04  0.7818608E-02  0.9274249E-01
         -2   -1    0    0    0  501 -0.00000000000E+00  0.00000000000E+00  0.15368267933E+04  0.15368267933E+04  0.00000000000E+00 0.  1.
          2   -1    0    0  501    0  0.00000000000E+00 -0.00000000000E+00 -0.17321186361E+03  0.17321186361E+03  0.00000000000E+00 0. -1.
         23    2    1    2    0    0  0.21032839706E+03 -0.14816239681E+03 -0.46341325617E+02  0.27680218921E+03  0.91004412280E+02 0.  0.
         13    1    3    3    0    0  0.13026900711E+03 -0.98963518046E+02  0.15471130358E+02  0.16432634601E+03  0.00000000000E+00 0. -1.
        -13    1    3    3    0    0  0.80059389946E+02 -0.49198878761E+02 -0.61812455976E+02  0.11247584320E+03  0.00000000000E+00 0.  1.
         22    1    1    2    0    0 -0.21032839706E+03  0.14816239681E+03  0.14099562553E+04  0.14332364677E+04  0.00000000000E+00 0.  1.
<mgrwt>
<rscale>  0 0.10318849E+04</rscale>
<asrwt>0</asrwt>
<pdfrwt beam="1">  1        2 0.26647980E-01 0.10318849E+04</pdfrwt>
<pdfrwt beam="2">  1       -2 0.23643488E+00 0.10318849E+04</pdfrwt>
<totfact> 0.15903305E+01</totfact>
</mgrwt>
</event>
<event>
 6    1  0.9512547E-007  0.2843976E+04  0.7818608E-02  0.8289744E-01
         -1   -1    0    0    0  501 -0.00000000000E+00  0.00000000000E+00  0.28366380541E+04  0.28366380541E+04  0.00000000000E+00 0.  1.
          1   -1    0    0  501    0  0.00000000000E+00 -0.00000000000E+00 -0.71283318205E+03  0.71283318205E+03  0.00000000000E+00 0. -1.
         23    2    1    2    0    0  0.73844118117E+03 -0.76975440335E+03  0.22338830977E+04  0.24771212769E+04  0.89882737200E+02 0.  0.
         11    1    3    3    0    0  0.31586095552E+03 -0.26829327077E+03  0.83825836492E+03  0.93510775247E+03  0.00000000000E+00 0.  1.
        -11    1    3    3    0    0  0.42258022565E+03 -0.50146113257E+03  0.13956247328E+04  0.15420135244E+04  0.00000000000E+00 0. -1.
         22    1    1    2    0    0 -0.73844118117E+03  0.76975440335E+03 -0.11007822563E+03  0.10723499593E+04  0.00000000000E+00 0. -1.
<mgrwt>
<rscale>  0 0.28439759E+04</rscale>
<asrwt>0</asrwt>
<pdfrwt beam="1">  1        1 0.10966664E+00 0.28439759E+04</pdfrwt>
<pdfrwt beam="2">  1       -1 0.43640585E+00 0.28439759E+04</pdfrwt>
<totfact> 0.91708653E-02</totfact>
</mgrwt>
</event>
<event>
 6    1  0.9512547E-007  0.1299200E+04  0.7818608E-02  0.9030200E-01
          2   -1    0    0  501    0  0.00000000000E+00  0.00000000000E+00  0.12851219970E+03  0.12851219970E+03  0.00000000000E+00 0. -1.
         -2   -1    0    0    0  501 -0.00000000000E+00 -0.00000000000E+00 -0.32835785733E+04  0.32835785733E+04  0.00000000000E+00 0.  1.
         23    2    1    2    0    0 -0.25253893034E+03  0.44024244596E+03 -0.53587515717E+03  0.74417923947E+03  0.95137972539E+02 0.  0.
         11    1    3    3    0    0 -0.77778241754E+02  0.61160065424E+02 -0.10343126834E+03  0.14313642361E+03  0.00000000000E+00 0.  1.
        -11    1    3    3    0    0 -0.17476068859E+03  0.37908238054E+03 -0.43244388883E+03  0.60104281586E+03  0.00000000000E+00 0. -1.
         22    1    1    2    0    0  0.25253893034E+03 -0.44024244596E+03 -0.26191912165E+04  0.26679115336E+04  0.00000000000E+00 0.  1.
<mgrwt>
<rscale>  0 0.12991996E+04</rscale>
<asrwt>0</asrwt>
<pdfrwt beam="1">  1        2 0.19771108E-01 0.12991996E+04</pdfrwt>
<pdfrwt beam="2">  1       -2 0.50516593E+00 0.12991996E+04</pdfrwt>
<totfact> 0.43687388E-01</totfact>
</mgrwt>
</event>
<event>
 6    1  0.9512547E-007  0.1518663E+04  0.7818608E-02  0.8872136E-01
         -1   -1    0    0    0  501 -0.00000000000E+00  0.00000000000E+00  0.57448606025E+03  0.57448606025E+03  0.00000000000E+00 0.  1.
          1   -1    0    0  501    0  0.00000000000E+00 -0.00000000000E+00 -0.10036520073E+04  0.10036520073E+04  0.00000000000E+00 0. -1.
         23    2    1    2    0    0  0.53404613967E+03 -0.28414095423E+03 -0.68702361320E+03  0.92054249494E+03  0.97240314367E+02 0.  0.
         11    1    3    3    0    0  0.44727813573E+03 -0.27363271646E+03 -0.57009972889E+03  0.77456200211E+03  0.00000000000E+00 0.  1.
        -11    1    3    3    0    0  0.86768003937E+02 -0.10508237771E+02 -0.11692388431E+03  0.14598049284E+03  0.00000000000E+00 0. -1.
         22    1    1    2    0    0 -0.53404613967E+03  0.28414095423E+03  0.25785766612E+03  0.65759557263E+03  0.00000000000E+00 0.  1.
<mgrwt>
<rscale>  0 0.15186627E+04</rscale>
<asrwt>0</asrwt>
<pdfrwt beam="1">  1        1 0.15440800E+00 0.15186627E+04</pdfrwt>
<pdfrwt beam="2">  1       -1 0.88382472E-01 0.15186627E+04</pdfrwt>
<totfact> 0.18257913E+01</totfact>
</mgrwt>
</event>
<event>
 6    1  0.9512547E-007  0.1504452E+04  0.7818608E-02  0.8881498E-01
         -2   -1    0    0    0  501 -0.00000000000E+00  0.00000000000E+00  0.44408575871E+03  0.44408575871E+03  0.00000000000E+00 0.  1.
          2   -1    0    0  501    0  0.00000000000E+00 -0.00000000000E+00 -0.12741763970E+04  0.12741763970E+04  0.00000000000E+00 0. -1.
         23    2    1    2    0    0  0.30449508223E+03  0.38795042773E+03 -0.10611976650E+04  0.11736216805E+04  0.89579993821E+02 0.  0.
         13    1    3    3    0    0  0.26437483635E+02  0.78488110327E+02 -0.22233746694E+03  0.23726203491E+03  0.00000000000E+00 0. -1.
        -13    1    3    3    0    0  0.27805759860E+03  0.30946231741E+03 -0.83886019805E+03  0.93635964560E+03  0.00000000000E+00 0.  1.
         22    1    1    2    0    0 -0.30449508223E+03 -0.38795042773E+03  0.23110702667E+03  0.54464047523E+03  0.00000000000E+00 0.  1.
<mgrwt>
<rscale>  0 0.15044515E+04</rscale>
<asrwt>0</asrwt>
<pdfrwt beam="1">  1        2 0.19602714E+00 0.15044515E+04</pdfrwt>
<pdfrwt beam="2">  1       -2 0.68320887E-01 0.15044515E+04</pdfrwt>
<totfact> 0.32405650E+01</totfact>
</mgrwt>
</event>
<event>
 6    1  0.9512547E-007  0.4019390E+03  0.7818608E-02  0.1043110E+00
         -1   -1    0    0    0  501 -0.00000000000E+00  0.00000000000E+00  0.15824270683E+02  0.15824270683E+02  0.00000000000E+00 0.  1.
          1   -1    0    0  501    0  0.00000000000E+00 -0.00000000000E+00 -0.25523289452E+04  0.25523289452E+04  0.00000000000E+00 0. -1.
         23    2    1    2    0    0  0.10526520192E+03 -0.15798025095E+03 -0.13911609577E+04  0.14071834694E+04  0.93797569848E+02 0.  0.
         11    1    3    3    0    0  0.53512616724E+02 -0.55494385956E+02 -0.87590475089E+03  0.87929082769E+03  0.00000000000E+00 0. -1.
        -11    1    3    3    0    0  0.51752585196E+02 -0.10248586499E+03 -0.51525620676E+03  0.52789264174E+03  0.00000000000E+00 0.  1.
         22    1    1    2    0    0 -0.10526520192E+03  0.15798025095E+03 -0.11453437169E+04  0.11609697465E+04  0.00000000000E+00 0. -1.
<mgrwt>
<rscale>  0 0.40193902E+03</rscale>
<asrwt>0</asrwt>
<pdfrwt beam="1">  1        1 0.39266588E+00 0.40193902E+03</pdfrwt>
<pdfrwt beam="2">  1       -1 0.24345039E-02 0.40193902E+03</pdfrwt>
<totfact> 0.73981638E+02</totfact>
</mgrwt>
</event>
<event>
 6    1  0.9512547E-007  0.2424329E+04  0.7818608E-02  0.8430451E-01
         -1   -1    0    0    0  501 -0.00000000000E+00  0.00000000000E+00  0.92277420342E+03  0.92277420342E+03  0.00000000000E+00 0.  1.
          1   -1    0    0  501    0  0.00000000000E+00 -0.00000000000E+00 -0.15923098822E+04  0.15923098822E+04  0.00000000000E+00 0. -1.
         23    2    1    2    0    0  0.88813076200E+03 -0.78037878940E+03 -0.65545154596E+02  0.11874652176E+04  0.89499555442E+02 0.  0.
         11    1    3    3    0    0  0.80604375296E+03 -0.68031606541E+03 -0.39893026246E+02  0.10555225881E+04  0.00000000000E+00 0. -1.
        -11    1    3    3    0    0  0.82087009040E+02 -0.10006272399E+03 -0.25652128350E+02  0.13194262948E+03  0.00000000000E+00 0.  1.
         22    1    1    2    0    0 -0.88813076200E+03  0.78037878940E+03 -0.60399052421E+03  0.13276188680E+04  0.00000000000E+00 0.  1.
<mgrwt>
<rscale>  0 0.24243288E+04</rscale>
<asrwt>0</asrwt>
<pdfrwt beam="1">  1        1 0.24497075E+00 0.24243288E+04</pdfrwt>
<pdfrwt beam="2">  1       -1 0.14196526E+00 0.24243288E+04</pdfrwt>
<totfact> 0.20410857E+00</totfact>
</mgrwt>
</event>
<event>
 6    1  0.9512547E-007  0.8112744E+03  0.7818608E-02  0.9543840E-01
         -2   -1    0    0    0  501 -0.00000000000E+00  0.00000000000E+00  0.58319521585E+02  0.58319521585E+02  0.00000000000E+00 0.  1.
          2   -1    0    0  501    0  0.00000000000E+00 -0.00000000000E+00 -0.28213801025E+04  0.28213801025E+04  0.00000000000E+00 0. -1.
         23    2    1    2    0    0  0.58558751113E+01 -0.40003544908E+03 -0.13518778108E+04  0.14129005709E+04  0.93014816496E+02 0.  0.
         11    1    3    3    0    0 -0.12704535689E+02 -0.32468398922E+03 -0.11870341016E+04  0.12307034803E+04  0.00000000000E+00 0.  1.
        -11    1    3    3    0    0  0.18560410800E+02 -0.75351459863E+02 -0.16484370918E+03  0.18219709056E+03  0.00000000000E+00 0. -1.
         22    1    1    2    0    0 -0.58558751113E+01  0.40003544908E+03 -0.14111827701E+04  0.14667990532E+04  0.00000000000E+00 0. -1.
<mgrwt>
<rscale>  0 0.81127440E+03</rscale>
<asrwt>0</asrwt>
<pdfrwt beam="1">  1        2 0.43405858E+00 0.81127440E+03</pdfrwt>
<pdfrwt beam="2">  1       -2 0.89722319E-02 0.81127440E+03</pdfrwt>
<totfact> 0.19136639E+02</totfact>
</mgrwt>
</event>
<event>
 6    1  0.9512547E-007  0.2358354E+04  0.7818608E-02  0.8455262E-01
         -2   -1    0    0    0  501 -0.00000000000E+00  0.00000000000E+00  0.65032732676E+03  0.65032732676E+03  0.00000000000E+00 0.  1.
          2   -1    0    0  501    0  0.00000000000E+00 -0.00000000000E+00 -0.21380896697E+04  0.21380896697E+04  0.00000000000E+00 0. -1.
         23    2    1    2    0    0 -0.65754411086E+01 -0.76435811400E+03 -0.18038639647E+04  0.19612490582E+04  0.91028028835E+02 0.  0.
         11    1    3    3    0    0 -0.21801612974E+02 -0.21866430003E+03 -0.42991801791E+03  0.48282386909E+03  0.00000000000E+00 0.  1.
        -11    1    3    3    0    0  0.15226171865E+02 -0.54569381396E+03 -0.13739459468E+04  0.14784251891E+04  0.00000000000E+00 0. -1.
         22    1    1    2    0    0  0.65754411086E+01  0.76435811400E+03  0.31610162179E+03  0.82716793830E+03  0.00000000000E+00 0.  1.
<mgrwt>
<rscale>  0 0.23583538E+04</rscale>
<asrwt>0</asrwt>
<pdfrwt beam="1">  1        2 0.32893687E+00 0.23583538E+04</pdfrwt>
<pdfrwt beam="2">  1       -2 0.10005036E+00 0.23583538E+04</pdfrwt>
<totfact> 0.41641086E+00</totfact>
</mgrwt>
</event>
<event>
 6    1  0.9512547E-007  0.2865439E+04  0.7818608E-02  0.8283235E-01
          2   -1    0    0  501    0  0.00000000000E+00  0.00000000000E+00  0.32647517226E+04  0.32647517226E+04  0.00000000000E+00 0. -1.
         -2   -1    0    0    0  501 -0.00000000000E+00 -0.00000000000E+00 -0.62874142101E+03  0.62874142101E+03  0.00000000000E+00 0.  1.
         23    2    1    2    0    0  0.10800918594E+04 -0.83726422825E+03  0.74178313221E+03  0.15577477847E+04  0.93413772356E+02 0.  0.
         11    1    3    3    0    0  0.40498909725E+03 -0.29706416310E+03  0.22405768853E+03  0.54996830243E+03  0.00000000000E+00 0.  1.
        -11    1    3    3    0    0  0.67510276211E+03 -0.54020006515E+03  0.51772544369E+03  0.10077794822E+04  0.00000000000E+00 0. -1.
         22    1    1    2    0    0 -0.10800918594E+04  0.83726422825E+03  0.18942271694E+04  0.23357453589E+04  0.00000000000E+00 0. -1.
<mgrwt>
<rscale>  0 0.28654386E+04</rscale>
<asrwt>0</asrwt>
<pdfrwt beam="1">  1        2 0.50226949E+00 0.28654386E+04</pdfrwt>
<pdfrwt beam="2">  1       -2 0.96729451E-01 0.28654386E+04</pdfrwt>
<totfact> 0.90861864E-01</totfact>
</mgrwt>
</event>
<event>
 6    1  0.9512547E-007  0.2843767E+04  0.7818608E-02  0.8289808E-01
         -2   -1    0    0    0  501 -0.00000000000E+00  0.00000000000E+00  0.82864077462E+03  0.82864077462E+03  0.00000000000E+00 0.  1.
          2   -1    0    0  501    0  0.00000000000E+00 -0.00000000000E+00 -0.24398423342E+04  0.24398423342E+04  0.00000000000E+00 0. -1.
         23    2    1    2    0    0 -0.11564363048E+04  0.19049911186E+02  0.14128871649E+03  0.11687378876E+04  0.90983088412E+02 0.  0.
         11    1    3    3    0    0 -0.68825493640E+03  0.49834221922E+01  0.12853227852E+03  0.70017157797E+03  0.00000000000E+00 0.  1.
        -11    1    3    3    0    0 -0.46818136841E+03  0.14066488994E+02  0.12756437970E+02  0.46856630966E+03  0.00000000000E+00 0. -1.
         22    1    1    2    0    0  0.11564363048E+04 -0.19049911186E+02 -0.17524902761E+04  0.20997452212E+04  0.00000000000E+00 0. -1.
<mgrwt>
<rscale>  0 0.28437671E+04</rscale>
<asrwt>0</asrwt>
<pdfrwt beam="1">  1        2 0.37536036E+00 0.28437671E+04</pdfrwt>
<pdfrwt beam="2">  1       -2 0.12748320E+00 0.28437671E+04</pdfrwt>
<totfact> 0.14918118E+00</totfact>
</mgrwt>
</event>
<event>
 6    1  0.9512547E-007  0.1622219E+04  0.7818608E-02  0.8807013E-01
          2   -1    0    0  501    0  0.00000000000E+00  0.00000000000E+00  0.35898412153E+04  0.35898412153E+04  0.00000000000E+00 0. -1.
         -2   -1    0    0    0  501 -0.00000000000E+00 -0.00000000000E+00 -0.18326670874E+03  0.18326670874E+03  0.00000000000E+00 0.  1.
         23    2    1    2    0    0  0.52406652515E+03  0.52759080491E+03  0.24465178242E+04  0.25587329352E+04  0.93096666542E+02 0.  0.
         13    1    3    3    0    0  0.11751187973E+03  0.17491702464E+03  0.73164108204E+03  0.76138274233E+03  0.00000000000E+00 0. -1.
        -13    1    3    3    0    0  0.40655464542E+03  0.35267378027E+03  0.17148767422E+04  0.17973501929E+04  0.00000000000E+00 0.  1.
         22    1    1    2    0    0 -0.52406652515E+03 -0.52759080491E+03  0.96005668240E+03  0.12143749889E+04  0.00000000000E+00 0.  1.
<mgrwt>
<rscale>  0 0.16222187E+04</rscale>
<asrwt>0</asrwt>
<pdfrwt beam="1">  1        2 0.55228321E+00 0.16222187E+04</pdfrwt>
<pdfrwt beam="2">  1       -2 0.28194881E-01 0.16222187E+04</pdfrwt>
<totfact> 0.78339235E+00</totfact>
</mgrwt>
</event>
<event>
 6    1  0.9512547E-007  0.4365395E+04  0.7818608E-02  0.7934635E-01
          2   -1    0    0  501    0  0.00000000000E+00  0.00000000000E+00  0.14520696973E+04  0.14520696973E+04  0.00000000000E+00 0. -1.
         -2   -1    0    0    0  501 -0.00000000000E+00 -0.00000000000E+00 -0.32809495947E+04  0.32809495947E+04  0.00000000000E+00 0.  1.
         23    2    1    2    0    0  0.20828998214E+04  0.61978949629E+03 -0.11251015334E+04  0.24487437676E+04  0.88780027369E+02 0.  0.
         13    1    3    3    0    0  0.13375892981E+04  0.42667725621E+03 -0.69002221923E+03  0.15643942197E+04  0.00000000000E+00 0.  1.
        -13    1    3    3    0    0  0.74531052322E+03  0.19311224008E+03 -0.43507931413E+03  0.88434954790E+03  0.00000000000E+00 0. -1.
         22    1    1    2    0    0 -0.20828998214E+04 -0.61978949629E+03 -0.70377836405E+03  0.22842755244E+04  0.00000000000E+00 0. -1.
<mgrwt>
<rscale>  0 0.43653946E+04</rscale>
<asrwt>0</asrwt>
<pdfrwt beam="1">  1        2 0.22339534E+00 0.43653946E+04</pdfrwt>
<pdfrwt beam="2">  1       -2 0.50476147E+00 0.43653946E+04</pdfrwt>
<totfact> 0.16013238E-02</totfact>
</mgrwt>
</event>
<event>
 6    1  0.9512547E-007  0.2649173E+04  0.7818608E-02  0.8351687E-01
         -1   -1    0    0    0  501 -0.00000000000E+00  0.00000000000E+00  0.60666461744E+03  0.60666461744E+03  0.00000000000E+00 0.  1.
          1   -1    0    0  501    0  0.00000000000E+00 -0.00000000000E+00 -0.28920919120E+04  0.28920919120E+04  0.00000000000E+00 0. -1.
         23    2    1    2    0    0  0.12007649619E+04  0.32642977253E+03 -0.17377688949E+04  0.21392262382E+04  0.89751188500E+02 0.  0.
         11    1    3    3    0    0  0.12293657691E+03  0.54210058618E+02 -0.22214920101E+03  0.25961972172E+03  0.00000000000E+00 0.  1.
        -11    1    3    3    0    0  0.10778283850E+04  0.27221971391E+03 -0.15156196939E+04  0.18796065164E+04  0.00000000000E+00 0. -1.
         22    1    1    2    0    0 -0.12007649619E+04 -0.32642977253E+03 -0.54765839968E+03  0.13595302913E+04  0.00000000000E+00 0.  1.
<mgrwt>
<rscale>  0 0.26491733E+04</rscale>
<asrwt>0</asrwt>
<pdfrwt beam="1">  1        1 0.44493720E+00 0.26491733E+04</pdfrwt>
<pdfrwt beam="2">  1       -1 0.93333021E-01 0.26491733E+04</pdfrwt>
<totfact> 0.69912701E-01</totfact>
</mgrwt>
</event>
<event>
 6    1  0.9512547E-007  0.2807169E+04  0.7818608E-02  0.8301046E-01
          2   -1    0    0  501    0  0.00000000000E+00  0.00000000000E+00  0.22136786439E+04  0.22136786439E+04  0.00000000000E+00 0. -1.
         -2   -1    0    0    0  501 -0.00000000000E+00 -0.00000000000E+00 -0.88994342613E+03  0.88994342613E+03  0.00000000000E+00 0.  1.
         23    2    1    2    0    0 -0.84237771666E+03  0.73047005858E+03  0.16024874490E+04  0.19543224875E+04  0.90684271862E+02 0.  0.
         13    1    3    3    0    0 -0.12131669968E+03  0.93233796995E+02  0.27568118534E+03  0.31529414595E+03  0.00000000000E+00 0. -1.
        -13    1    3    3    0    0 -0.72106101698E+03  0.63723626158E+03  0.13268062637E+04  0.16390283416E+04  0.00000000000E+00 0.  1.
         22    1    1    2    0    0  0.84237771666E+03 -0.73047005858E+03 -0.27875223118E+03  0.11492995825E+04  0.00000000000E+00 0.  1.
<mgrwt>
<rscale>  0 0.28071685E+04</rscale>
<asrwt>0</asrwt>
<pdfrwt beam="1">  1        2 0.34056595E+00 0.28071685E+04</pdfrwt>
<pdfrwt beam="2">  1       -2 0.13691437E+00 0.28071685E+04</pdfrwt>
<totfact> 0.16786808E+00</totfact>
</mgrwt>
</event>
<event>
 6    1  0.9512547E-007  0.9184280E+03  0.7818608E-02  0.9402834E-01
          1   -1    0    0  501    0  0.00000000000E+00  0.00000000000E+00  0.75986511288E+03  0.75986511288E+03  0.00000000000E+00 0. -1.
         -1   -1    0    0    0  501 -0.00000000000E+00 -0.00000000000E+00 -0.27751967443E+03  0.27751967443E+03  0.00000000000E+00 0.  1.
         23    2    1    2    0    0 -0.29355210081E+03 -0.28294486568E+03  0.47081327123E+03  0.62950781593E+03  0.91565938207E+02 0.  0.
         13    1    3    3    0    0 -0.82241372151E+02 -0.13864076899E+03  0.16334141038E+03  0.22948926438E+03  0.00000000000E+00 0.  1.
        -13    1    3    3    0    0 -0.21131072866E+03 -0.14430409669E+03  0.30747186084E+03  0.40001855155E+03  0.00000000000E+00 0. -1.
         22    1    1    2    0    0  0.29355210081E+03  0.28294486568E+03  0.11532167227E+02  0.40787697139E+03  0.00000000000E+00 0.  1.
<mgrwt>
<rscale>  0 0.91842805E+03</rscale>
<asrwt>0</asrwt>
<pdfrwt beam="1">  1        1 0.11690232E+00 0.91842805E+03</pdfrwt>
<pdfrwt beam="2">  1       -1 0.42695335E-01 0.91842805E+03</pdfrwt>
<totfact> 0.13039308E+02</totfact>
</mgrwt>
</event>
<event>
 6    1  0.9512547E-007  0.2503733E+04  0.7818608E-02  0.8401657E-01
         -2   -1    0    0    0  501 -0.00000000000E+00  0.00000000000E+00  0.54549844908E+03  0.54549844908E+03  0.00000000000E+00 0.  1.
          2   -1    0    0  501    0  0.00000000000E+00 -0.00000000000E+00 -0.28729142602E+04  0.28729142602E+04  0.00000000000E+00 0. -1.
         23    2    1    2    0    0  0.69672819804E+03  0.89856167963E+02  0.24663813899E+03  0.75021892866E+03  0.92161577967E+02 0.  0.
         13    1    3    3    0    0  0.37800840176E+03  0.94041991581E+02  0.14535140526E+03  0.41576589446E+03  0.00000000000E+00 0.  1.
        -13    1    3    3    0    0  0.31871979628E+03 -0.41858236178E+01  0.10128673373E+03  0.33445303421E+03  0.00000000000E+00 0. -1.
         22    1    1    2    0    0 -0.69672819804E+03 -0.89856167963E+02 -0.25740539502E+04  0.26681937807E+04  0.00000000000E+00 0. -1.
<mgrwt>
<rscale>  0 0.25037334E+04</rscale>
<asrwt>0</asrwt>
<pdfrwt beam="1">  1        2 0.44198682E+00 0.25037334E+04</pdfrwt>
<pdfrwt beam="2">  1       -2 0.83922837E-01 0.25037334E+04</pdfrwt>
<totfact> 0.23087543E+00</totfact>
</mgrwt>
</event>
<event>
 6    1  0.9512547E-007  0.3208898E+04  0.7818608E-02  0.8186471E-01
         -2   -1    0    0    0  501 -0.00000000000E+00  0.00000000000E+00  0.20969038082E+04  0.20969038082E+04  0.00000000000E+00 0.  1.
          2   -1    0    0  501    0  0.00000000000E+00 -0.00000000000E+00 -0.12276466623E+04  0.12276466623E+04  0.00000000000E+00 0. -1.
         23    2    1    2    0    0 -0.68287330601E+03 -0.12561921595E+03  0.19321281963E+04  0.20549871561E+04  0.88072159589E+02 0.  0.
         11    1    3    3    0    0 -0.37638754124E+03 -0.31208377620E+02  0.11119600942E+04  0.11743495200E+04  0.00000000000E+00 0.  1.
        -11    1    3    3    0    0 -0.30648576477E+03 -0.94410838328E+02  0.82016810215E+03  0.88063763614E+03  0.00000000000E+00 0. -1.
         22    1    1    2    0    0  0.68287330601E+03  0.12561921595E+03 -0.10628710504E+04  0.12695633144E+04  0.00000000000E+00 0. -1.
<mgrwt>
<rscale>  0 0.32088982E+04</rscale>
<asrwt>0</asrwt>
<pdfrwt beam="1">  1        2 0.18886872E+00 0.32088982E+04</pdfrwt>
<pdfrwt beam="2">  1       -2 0.32260059E+00 0.32088982E+04</pdfrwt>
<totfact> 0.35396147E-01</totfact>
</mgrwt>
</event>
<event>
 6    1  0.9512547E-007  0.1795486E+04  0.7818608E-02  0.8708704E-01
          1   -1    0    0  501    0  0.00000000000E+00  0.00000000000E+00  0.10703999096E+04  0.10703999096E+04  0.00000000000E+00 0. -1.
         -1   -1    0    0    0  501 -0.00000000000E+00 -0.00000000000E+00 -0.75293591821E+03  0.75293591821E+03  0.00000000000E+00 0.  1.
         23    2    1    2    0    0  0.20385423942E+03  0.70507756829E+03  0.67995955886E+03  0.10047431546E+04  0.92048230429E+02 0.  0.
         13    1    3    3    0    0  0.13745790592E+03  0.35254324844E+03  0.39088883126E+03  0.54403630056E+03  0.00000000000E+00 0. -1.
        -13    1    3    3    0    0  0.66396333504E+02  0.35253431985E+03  0.28907072760E+03  0.46070685401E+03  0.00000000000E+00 0.  1.
         22    1    1    2    0    0 -0.20385423942E+03 -0.70507756829E+03 -0.36249556747E+03  0.81859267324E+03  0.00000000000E+00 0.  1.
<mgrwt>
<rscale>  0 0.17954860E+04</rscale>
<asrwt>0</asrwt>
<pdfrwt beam="1">  1        1 0.16467691E+00 0.17954860E+04</pdfrwt>
<pdfrwt beam="2">  1       -1 0.11583630E+00 0.17954860E+04</pdfrwt>
<totfact> 0.85025318E+00</totfact>
</mgrwt>
</event>
<event>
 6    1  0.9512547E-007  0.2684276E+04  0.7818608E-02  0.8340125E-01
         -1   -1    0    0    0  501 -0.00000000000E+00  0.00000000000E+00  0.11221528547E+04  0.11221528547E+04  0.00000000000E+00 0.  1.
          1   -1    0    0  501    0  0.00000000000E+00 -0.00000000000E+00 -0.16052486724E+04  0.16052486724E+04  0.00000000000E+00 0. -1.
         23    2    1    2    0    0  0.15745449753E+03 -0.70016166422E+03  0.90868951388E+03  0.11614881565E+04  0.91213102923E+02 0.  0.
         13    1    3    3    0    0  0.69017362423E+02 -0.48067188857E+03  0.57928160017E+03  0.75589419436E+03  0.00000000000E+00 0. -1.
        -13    1    3    3    0    0  0.88437135107E+02 -0.21948977565E+03  0.32940791372E+03  0.40559396211E+03  0.00000000000E+00 0.  1.
         22    1    1    2    0    0 -0.15745449753E+03  0.70016166422E+03 -0.13917853317E+04  0.15659133706E+04  0.00000000000E+00 0. -1.
<mgrwt>
<rscale>  0 0.26842760E+04</rscale>
<asrwt>0</asrwt>
<pdfrwt beam="1">  1        1 0.24696133E+00 0.26842760E+04</pdfrwt>
<pdfrwt beam="2">  1       -1 0.17263890E+00 0.26842760E+04</pdfrwt>
<totfact> 0.11387476E+00</totfact>
</mgrwt>
</event>
<event>
 6    1  0.9512547E-007  0.1289823E+04  0.7818608E-02  0.9037675E-01
         -1   -1    0    0    0  501 -0.00000000000E+00  0.00000000000E+00  0.79212184421E+03  0.79212184421E+03  0.00000000000E+00 0.  1.
          1   -1    0    0  501    0  0.00000000000E+00 -0.00000000000E+00 -0.52505918244E+03  0.52505918244E+03  0.00000000000E+00 0. -1.
         23    2    1    2    0    0  0.50702864827E+03  0.17186071625E+03  0.49526106550E+03  0.73521138189E+03  0.92941363807E+02 0.  0.
         13    1    3    3    0    0  0.21116857561E+03  0.12010857869E+03  0.22782897946E+03  0.33305297158E+03  0.00000000000E+00 0. -1.
        -13    1    3    3    0    0  0.29586007266E+03  0.51752137561E+02  0.26743208604E+03  0.40215841031E+03  0.00000000000E+00 0.  1.
         22    1    1    2    0    0 -0.50702864827E+03 -0.17186071625E+03 -0.22819840373E+03  0.58196964476E+03  0.00000000000E+00 0.  1.
<mgrwt>
<rscale>  0 0.12898230E+04</rscale>
<asrwt>0</asrwt>
<pdfrwt beam="1">  1        1 0.80778336E-01 0.12898230E+04</pdfrwt>
<pdfrwt beam="2">  1       -1 0.12186490E+00 0.12898230E+04</pdfrwt>
<totfact> 0.24275989E+01</totfact>
</mgrwt>
</event>
<event>
 6    1  0.9512547E-007  0.1144554E+04  0.7818608E-02  0.9162822E-01
          2   -1    0    0  501    0  0.00000000000E+00  0.00000000000E+00  0.32958276370E+04  0.32958276370E+04  0.00000000000E+00 0. -1.
         -2   -1    0    0    0  501 -0.00000000000E+00 -0.00000000000E+00 -0.99368393569E+02  0.99368393569E+02  0.00000000000E+00 0.  1.
         23    2    1    2    0    0  0.27270794225E+03  0.49913257751E+03  0.16819904022E+04  0.17774448684E+04  0.81948736120E+02 0.  0.
         11    1    3    3    0    0  0.20721746633E+03  0.30929471966E+03  0.11532633778E+04  0.12118658014E+04  0.00000000000E+00 0. -1.
        -11    1    3    3    0    0  0.65490475922E+02  0.18983785785E+03  0.52872702436E+03  0.56557906697E+03  0.00000000000E+00 0.  1.
         22    1    1    2    0    0 -0.27270794225E+03 -0.49913257751E+03  0.15144688412E+04  0.16177511622E+04  0.00000000000E+00 0. -1.
<mgrwt>
<rscale>  0 0.11445542E+04</rscale>
<asrwt>0</asrwt>
<pdfrwt beam="1">  1        2 0.50705032E+00 0.11445542E+04</pdfrwt>
<pdfrwt beam="2">  1       -2 0.15287448E-01 0.11445542E+04</pdfrwt>
<totfact> 0.38645435E+01</totfact>
</mgrwt>
</event>
<event>
 6    1  0.9512547E-007  0.2992573E+04  0.7818608E-02  0.8245855E-01
          2   -1    0    0  501    0  0.00000000000E+00  0.00000000000E+00  0.24738434045E+04  0.24738434045E+04  0.00000000000E+00 0. -1.
         -2   -1    0    0    0  501 -0.00000000000E+00 -0.00000000000E+00 -0.90501823922E+03  0.90501823922E+03  0.00000000000E+00 0.  1.
         23    2    1    2    0    0  0.93468566031E+03 -0.41905644095E+03 -0.44436827170E+03  0.11200581111E+04  0.88438832185E+02 0.  0.
         13    1    3    3    0    0  0.80669545617E+03 -0.33528819578E+03 -0.39975953422E+03  0.96072026023E+03  0.00000000000E+00 0. -1.
        -13    1    3    3    0    0  0.12799020414E+03 -0.83768245174E+02 -0.44608737483E+02  0.15933785086E+03  0.00000000000E+00 0.  1.
         22    1    1    2    0    0 -0.93468566031E+03  0.41905644095E+03  0.20131934370E+04  0.22588035326E+04  0.00000000000E+00 0. -1.
<mgrwt>
<rscale>  0 0.29925731E+04</rscale>
<asrwt>0</asrwt>
<pdfrwt beam="1">  1        2 0.38059129E+00 0.29925731E+04</pdfrwt>
<pdfrwt beam="2">  1       -2 0.13923358E+00 0.29925731E+04</pdfrwt>
<totfact> 0.11246488E+00</totfact>
</mgrwt>
</event>
<event>
 6    1  0.9512547E-007  0.8773347E+03  0.7818608E-02  0.9454366E-01
         -2   -1    0    0    0  501 -0.00000000000E+00  0.00000000000E+00  0.67982710920E+03  0.67982710920E+03  0.00000000000E+00 0.  1.
          2   -1    0    0  501    0  0.00000000000E+00 -0.00000000000E+00 -0.28305583425E+03  0.28305583425E+03  0.00000000000E+00 0. -1.
         23    2    1    2    0    0 -0.31571639173E+03  0.14871100588E+03  0.48363468949E+03  0.60324832878E+03  0.90632389446E+02 0.  0.
         13    1    3    3    0    0 -0.59857077863E+02  0.70228348315E+02  0.10847353936E+03  0.14241277829E+03  0.00000000000E+00 0.  1.
        -13    1    3    3    0    0 -0.25585931387E+03  0.78482657569E+02  0.37516115013E+03  0.46083555049E+03  0.00000000000E+00 0. -1.
         22    1    1    2    0    0  0.31571639173E+03 -0.14871100588E+03 -0.86863414537E+02  0.35963461467E+03  0.00000000000E+00 0. -1.
<mgrwt>
<rscale>  0 0.87733467E+03</rscale>
<asrwt>0</asrwt>
<pdfrwt beam="1">  1        2 0.43547052E-01 0.87733467E+03</pdfrwt>
<pdfrwt beam="2">  1       -2 0.10458879E+00 0.87733467E+03</pdfrwt>
<totfact> 0.87295544E+01</totfact>
</mgrwt>
</event>
<event>
 6    1  0.9512547E-007  0.8717267E+03  0.7818608E-02  0.9461631E-01
          3   -1    0    0  501    0  0.00000000000E+00  0.00000000000E+00  0.97546288980E+03  0.97546288980E+03  0.00000000000E+00 0. -1.
         -3   -1    0    0    0  501 -0.00000000000E+00 -0.00000000000E+00 -0.19475558135E+03  0.19475558135E+03  0.00000000000E+00 0.  1.
         23    2    1    2    0    0 -0.38298048725E+03  0.12228812190E+03  0.18479027386E+03  0.45136831258E+03  0.89204651831E+02 0.  0.
         13    1    3    3    0    0 -0.16693532904E+03  0.46358898972E+02  0.12806850889E+03  0.21544858915E+03  0.00000000000E+00 0. -1.
        -13    1    3    3    0    0 -0.21604515821E+03  0.75929222929E+02  0.56721764973E+02  0.23591972343E+03  0.00000000000E+00 0.  1.
         22    1    1    2    0    0  0.38298048725E+03 -0.12228812190E+03  0.59591703458E+03  0.71885015857E+03  0.00000000000E+00 0.  1.
<mgrwt>
<rscale>  0 0.87172666E+03</rscale>
<asrwt>0</asrwt>
<pdfrwt beam="1">  1        3 0.15007121E+00 0.87172666E+03</pdfrwt>
<pdfrwt beam="2">  1       -3 0.29962398E-01 0.87172666E+03</pdfrwt>
<totfact> 0.92533471E+00</totfact>
</mgrwt>
</event>
<event>
 6    1  0.9512547E-007  0.5021772E+04  0.7818608E-02  0.7825157E-01
         -2   -1    0    0    0  501 -0.00000000000E+00  0.00000000000E+00  0.42173980352E+04  0.42173980352E+04  0.00000000000E+00 0.  1.
          2   -1    0    0  501    0  0.00000000000E+00 -0.00000000000E+00 -0.14948906057E+04  0.14948906057E+04  0.00000000000E+00 0. -1.
         23    2    1    2    0    0  0.80062784697E+03 -0.19984344296E+04 -0.10631763788E+03  0.21574333160E+04  0.92032354279E+02 0.  0.
         13    1    3    3    0    0  0.38569593609E+03 -0.10556136450E+04 -0.25098820068E+02  0.11241492220E+04  0.00000000000E+00 0.  1.
        -13    1    3    3    0    0  0.41493191088E+03 -0.94282078460E+03 -0.81218817815E+02  0.10332840940E+04  0.00000000000E+00 0. -1.
         22    1    1    2    0    0 -0.80062784697E+03  0.19984344296E+04  0.28288250674E+04  0.35548553249E+04  0.00000000000E+00 0.  1.
<mgrwt>
<rscale>  0 0.50217721E+04</rscale>
<asrwt>0</asrwt>
<pdfrwt beam="1">  1        2 0.22998317E+00 0.50217721E+04</pdfrwt>
<pdfrwt beam="2">  1       -2 0.64883046E+00 0.50217721E+04</pdfrwt>
<totfact> 0.31818516E-03</totfact>
</mgrwt>
</event>
<event>
 6    1  0.9512547E-007  0.4447221E+04  0.7818608E-02  0.7919942E-01
         -1   -1    0    0    0  501 -0.00000000000E+00  0.00000000000E+00  0.31023608307E+04  0.31023608307E+04  0.00000000000E+00 0.  1.
          1   -1    0    0  501    0  0.00000000000E+00 -0.00000000000E+00 -0.15937683941E+04  0.15937683941E+04  0.00000000000E+00 0. -1.
         23    2    1    2    0    0  0.59277976384E+03  0.10724474249E+04 -0.12036043100E+04  0.17199668435E+04  0.89951543904E+02 0.  0.
         11    1    3    3    0    0  0.93499037864E+02  0.11172192240E+03 -0.15452825313E+03  0.21237428997E+03  0.00000000000E+00 0. -1.
        -11    1    3    3    0    0  0.49928072598E+03  0.96072550253E+03 -0.10490760568E+04  0.15075925536E+04  0.00000000000E+00 0.  1.
         22    1    1    2    0    0 -0.59277976384E+03 -0.10724474249E+04  0.27121967465E+04  0.29761623812E+04  0.00000000000E+00 0.  1.
<mgrwt>
<rscale>  0 0.44472214E+04</rscale>
<asrwt>0</asrwt>
<pdfrwt beam="1">  1        1 0.24519514E+00 0.44472214E+04</pdfrwt>
<pdfrwt beam="2">  1       -1 0.47728628E+00 0.44472214E+04</pdfrwt>
<totfact> 0.89755669E-03</totfact>
</mgrwt>
</event>
<event>
 6    1  0.9512547E-007  0.2594956E+04  0.7818608E-02  0.8369917E-01
          1   -1    0    0  501    0  0.00000000000E+00  0.00000000000E+00  0.17051229665E+04  0.17051229665E+04  0.00000000000E+00 0. -1.
         -1   -1    0    0    0  501 -0.00000000000E+00 -0.00000000000E+00 -0.98728906605E+03  0.98728906605E+03  0.00000000000E+00 0.  1.
         23    2    1    2    0    0 -0.18912594268E+02 -0.12954249683E+04  0.32890938265E+03  0.13397310593E+04  0.90633296318E+02 0.  0.
         11    1    3    3    0    0  0.36270996112E+02 -0.41827559682E+03  0.10690291965E+03  0.43324161190E+03  0.00000000000E+00 0. -1.
        -11    1    3    3    0    0 -0.55183590380E+02 -0.87714937153E+03  0.22200646300E+03  0.90648944739E+03  0.00000000000E+00 0.  1.
         22    1    1    2    0    0  0.18912594268E+02  0.12954249683E+04  0.38892451778E+03  0.13526809732E+04  0.00000000000E+00 0.  1.
<mgrwt>
<rscale>  0 0.25949561E+04</rscale>
<asrwt>0</asrwt>
<pdfrwt beam="1">  1        1 0.26232661E+00 0.25949561E+04</pdfrwt>
<pdfrwt beam="2">  1       -1 0.15189063E+00 0.25949561E+04</pdfrwt>
<totfact> 0.14049647E+00</totfact>
</mgrwt>
</event>
<event>
 6    1  0.9512547E-007  0.6445878E+03  0.7818608E-02  0.9816988E-01
          1   -1    0    0  501    0  0.00000000000E+00  0.00000000000E+00  0.82853840947E+03  0.82853840947E+03  0.00000000000E+00 0. -1.
         -1   -1    0    0    0  501 -0.00000000000E+00 -0.00000000000E+00 -0.12536938240E+03  0.12536938240E+03  0.00000000000E+00 0.  1.
         23    2    1    2    0    0 -0.27082797637E+03 -0.92276754374E+02  0.16098535029E+03  0.34086135680E+03  0.91691817328E+02 0.  0.
         13    1    3    3    0    0 -0.42730469451E+02 -0.49537042439E+02  0.16421436508E+02  0.67449797406E+02  0.00000000000E+00 0.  1.
        -13    1    3    3    0    0 -0.22809750692E+03 -0.42739711935E+02  0.14456391378E+03  0.27341155939E+03  0.00000000000E+00 0. -1.
         22    1    1    2    0    0  0.27082797637E+03  0.92276754374E+02  0.54218367678E+03  0.61304643507E+03  0.00000000000E+00 0. -1.
<mgrwt>
<rscale>  0 0.64458777E+03</rscale>
<asrwt>0</asrwt>
<pdfrwt beam="1">  1        1 0.12746744E+00 0.64458777E+03</pdfrwt>
<pdfrwt beam="2">  1       -1 0.19287598E-01 0.64458777E+03</pdfrwt>
<totfact> 0.45916757E+02</totfact>
</mgrwt>
</event>
<event>
 6    1  0.9512547E-007  0.3426468E+04  0.7818608E-02  0.8131441E-01
         -1   -1    0    0    0  501 -0.00000000000E+00  0.00000000000E+00  0.10521420177E+04  0.10521420177E+04  0.00000000000E+00 0.  1.
          1   -1    0    0  501    0  0.00000000000E+00 -0.00000000000E+00 -0.27897090811E+04  0.27897090811E+04  0.00000000000E+00 0. -1.
         23    2    1    2    0    0 -0.75884937987E+03  0.76691387171E+03 -0.23598934744E+04  0.25963393847E+04  0.88722725940E+02 0.  0.
         13    1    3    3    0    0 -0.12028422296E+03  0.99071184502E+02 -0.40932108512E+03  0.43798075827E+03  0.00000000000E+00 0. -1.
        -13    1    3    3    0    0 -0.63856515692E+03  0.66784268721E+03 -0.19505723893E+04  0.21583586265E+04  0.00000000000E+00 0.  1.
         22    1    1    2    0    0  0.75884937987E+03 -0.76691387171E+03  0.62232641098E+03  0.12455117140E+04  0.00000000000E+00 0.  1.
<mgrwt>
<rscale>  0 0.34264677E+04</rscale>
<asrwt>0</asrwt>
<pdfrwt beam="1">  1        1 0.42918601E+00 0.34264677E+04</pdfrwt>
<pdfrwt beam="2">  1       -1 0.16186800E+00 0.34264677E+04</pdfrwt>
<totfact> 0.19672277E-01</totfact>
</mgrwt>
</event>
<event>
 6    1  0.9512547E-007  0.8354149E+03  0.7818608E-02  0.9510124E-01
         -1   -1    0    0    0  501 -0.00000000000E+00  0.00000000000E+00  0.22386453535E+03  0.22386453535E+03  0.00000000000E+00 0.  1.
          1   -1    0    0  501    0  0.00000000000E+00 -0.00000000000E+00 -0.77939766433E+03  0.77939766433E+03  0.00000000000E+00 0. -1.
         23    2    1    2    0    0  0.15035851785E+03  0.26437282765E+03  0.53516098786E+02  0.32249672043E+03  0.92948835231E+02 0.  0.
         13    1    3    3    0    0  0.48159555382E+02  0.15649674684E+03 -0.23125796297E+01  0.16375567951E+03  0.00000000000E+00 0.  1.
        -13    1    3    3    0    0  0.10219896247E+03  0.10787608081E+03  0.55828678416E+02  0.15874104093E+03  0.00000000000E+00 0. -1.
         22    1    1    2    0    0 -0.15035851785E+03 -0.26437282765E+03 -0.60904922777E+03  0.68076547925E+03  0.00000000000E+00 0. -1.
<mgrwt>
<rscale>  0 0.83541486E+03</rscale>
<asrwt>0</asrwt>
<pdfrwt beam="1">  1        1 0.11990734E+00 0.83541486E+03</pdfrwt>
<pdfrwt beam="2">  1       -1 0.34440697E-01 0.83541486E+03</pdfrwt>
<totfact> 0.18575763E+02</totfact>
</mgrwt>
</event>
<event>
 6    1  0.9512547E-007  0.6745583E+03  0.7818608E-02  0.9761758E-01
         -2   -1    0    0    0  501 -0.00000000000E+00  0.00000000000E+00  0.42478659379E+02  0.42478659379E+02  0.00000000000E+00 0.  1.
          2   -1    0    0  501    0  0.00000000000E+00 -0.00000000000E+00 -0.26779856869E+04  0.26779856869E+04  0.00000000000E+00 0. -1.
         23    2    1    2    0    0  0.28313459492E+03  0.16956886911E+03 -0.12460935632E+04  0.12923927181E+04  0.92795309613E+02 0.  0.
         13    1    3    3    0    0  0.93001993093E+02  0.99165574823E+01 -0.38720199259E+03  0.39833791170E+03  0.00000000000E+00 0. -1.
        -13    1    3    3    0    0  0.19013260183E+03  0.15965231162E+03 -0.85889157059E+03  0.89405480644E+03  0.00000000000E+00 0.  1.
         22    1    1    2    0    0 -0.28313459492E+03 -0.16956886911E+03 -0.13894134644E+04  0.14280716282E+04  0.00000000000E+00 0.  1.
<mgrwt>
<rscale>  0 0.67455835E+03</rscale>
<asrwt>0</asrwt>
<pdfrwt beam="1">  1        2 0.41199768E+00 0.67455835E+03</pdfrwt>
<pdfrwt beam="2">  1       -2 0.65351803E-02 0.67455835E+03</pdfrwt>
<totfact> 0.39050717E+02</totfact>
</mgrwt>
</event>
<event>
 6    1  0.9512547E-007  0.1102188E+04  0.7818608E-02  0.9203062E-01
         -2   -1    0    0    0  501 -0.00000000000E+00  0.00000000000E+00  0.11587025949E+03  0.11587025949E+03  0.00000000000E+00 0.  1.
          2   -1    0    0  501    0  0.00000000000E+00 -0.00000000000E+00 -0.26210730448E+04  0.26210730448E+04  0.00000000000E+00 0. -1.
         23    2    1    2    0    0 -0.40023961963E+03 -0.33688693625E+03 -0.16608603650E+04  0.17436665636E+04  0.90726908358E+02 0.  0.
         13    1    3    3    0    0 -0.41383864115E+02 -0.77204544043E+02 -0.30026730782E+03  0.31278366642E+03  0.00000000000E+00 0. -1.
        -13    1    3    3    0    0 -0.35885575552E+03 -0.25968239221E+03 -0.13605930572E+04  0.14308828972E+04  0.00000000000E+00 0.  1.
         22    1    1    2    0    0  0.40023961963E+03  0.33688693625E+03 -0.84434242025E+03  0.99327674068E+03  0.00000000000E+00 0.  1.
<mgrwt>
<rscale>  0 0.11021877E+04</rscale>
<asrwt>0</asrwt>
<pdfrwt beam="1">  1        2 0.40324204E+00 0.11021877E+04</pdfrwt>
<pdfrwt beam="2">  1       -2 0.17826192E-01 0.11021877E+04</pdfrwt>
<totfact> 0.77551035E+01</totfact>
</mgrwt>
</event>
<event>
 6    1  0.9512547E-007  0.1613175E+04  0.7818608E-02  0.8812495E-01
         -2   -1    0    0    0  501 -0.00000000000E+00  0.00000000000E+00  0.11939998067E+04  0.11939998067E+04  0.00000000000E+00 0.  1.
          2   -1    0    0  501    0  0.00000000000E+00 -0.00000000000E+00 -0.54487716947E+03  0.54487716947E+03  0.00000000000E+00 0. -1.
         23    2    1    2    0    0  0.36438133198E+03 -0.70043397923E+03  0.48983872049E+03  0.93342500334E+03  0.89211828845E+02 0.  0.
         13    1    3    3    0    0  0.29634721787E+03 -0.62339454043E+03  0.40608722055E+03  0.80084284181E+03  0.00000000000E+00 0. -1.
        -13    1    3    3    0    0  0.68034114116E+02 -0.77039438795E+02  0.83751499942E+02  0.13258216153E+03  0.00000000000E+00 0.  1.
         22    1    1    2    0    0 -0.36438133198E+03  0.70043397923E+03  0.15928391670E+03  0.80545197279E+03  0.00000000000E+00 0. -1.
<mgrwt>
<rscale>  0 0.16131748E+04</rscale>
<asrwt>0</asrwt>
<pdfrwt beam="1">  1        2 0.83827257E-01 0.16131748E+04</pdfrwt>
<pdfrwt beam="2">  1       -2 0.18369228E+00 0.16131748E+04</pdfrwt>
<totfact> 0.91112203E+00</totfact>
</mgrwt>
</event>
<event>
 6    1  0.9512547E-007  0.1052492E+04  0.7818608E-02  0.9252774E-01
          1   -1    0    0  501    0  0.00000000000E+00  0.00000000000E+00  0.18716793211E+04  0.18716793211E+04  0.00000000000E+00 0. -1.
         -1   -1    0    0    0  501 -0.00000000000E+00 -0.00000000000E+00 -0.14796076252E+03  0.14796076252E+03  0.00000000000E+00 0.  1.
         23    2    1    2    0    0 -0.51488947070E+03 -0.73726749969E+02  0.77728024920E+03  0.93968995784E+03  0.91136328524E+02 0.  0.
         11    1    3    3    0    0 -0.28865646037E+03 -0.35336663207E+02  0.51296545757E+03  0.58966498331E+03  0.00000000000E+00 0. -1.
        -11    1    3    3    0    0 -0.22623301032E+03 -0.38390086763E+02  0.26431479163E+03  0.35002497453E+03  0.00000000000E+00 0.  1.
         22    1    1    2    0    0  0.51488947070E+03  0.73726749969E+02  0.94643830937E+03  0.10799501258E+04  0.00000000000E+00 0. -1.
<mgrwt>
<rscale>  0 0.10524925E+04</rscale>
<asrwt>0</asrwt>
<pdfrwt beam="1">  1        1 0.28795065E+00 0.10524925E+04</pdfrwt>
<pdfrwt beam="2">  1       -1 0.22763196E-01 0.10524925E+04</pdfrwt>
<totfact> 0.59983871E+01</totfact>
</mgrwt>
</event>
<event>
 6    1  0.9512547E-007  0.1245099E+04  0.7818608E-02  0.9074272E-01
         -2   -1    0    0    0  501 -0.00000000000E+00  0.00000000000E+00  0.19649810162E+03  0.19649810162E+03  0.00000000000E+00 0.  1.
          2   -1    0    0  501    0  0.00000000000E+00 -0.00000000000E+00 -0.19723762582E+04  0.19723762582E+04  0.00000000000E+00 0. -1.
         23    2    1    2    0    0  0.14673946007E+03 -0.46219239923E+03 -0.15635636871E+04  0.16395051909E+04  0.89953233979E+02 0.  0.
         13    1    3    3    0    0  0.30723436165E+02 -0.17536285323E+03 -0.45555428578E+03  0.48910711210E+03  0.00000000000E+00 0. -1.
        -13    1    3    3    0    0  0.11601602390E+03 -0.28682954601E+03 -0.11080094013E+04  0.11503980788E+04  0.00000000000E+00 0.  1.
         22    1    1    2    0    0 -0.14673946007E+03  0.46219239923E+03 -0.21231446946E+03  0.52936916891E+03  0.00000000000E+00 0.  1.
<mgrwt>
<rscale>  0 0.12450995E+04</rscale>
<asrwt>0</asrwt>
<pdfrwt beam="1">  1        2 0.30344251E+00 0.12450995E+04</pdfrwt>
<pdfrwt beam="2">  1       -2 0.30230476E-01 0.12450995E+04</pdfrwt>
<totfact> 0.68905463E+01</totfact>
</mgrwt>
</event>
<event>
 6    1  0.9512547E-007  0.2108512E+04  0.7818608E-02  0.8557503E-01
         -1   -1    0    0    0  501 -0.00000000000E+00  0.00000000000E+00  0.10023179336E+04  0.10023179336E+04  0.00000000000E+00 0.  1.
          1   -1    0    0  501    0  0.00000000000E+00 -0.00000000000E+00 -0.11088852830E+04  0.11088852830E+04  0.00000000000E+00 0. -1.
         23    2    1    2    0    0  0.39377068825E+03  0.80241493398E+03 -0.60928620593E+03  0.10857026901E+04  0.92712293373E+02 0.  0.
         11    1    3    3    0    0  0.14157866317E+03  0.27781097697E+03 -0.16039343100E+03  0.35064156841E+03  0.00000000000E+00 0.  1.
        -11    1    3    3    0    0  0.25219202507E+03  0.52460395701E+03 -0.44889277493E+03  0.73506112168E+03  0.00000000000E+00 0. -1.
         22    1    1    2    0    0 -0.39377068825E+03 -0.80241493398E+03  0.50271885646E+03  0.10255005265E+04  0.00000000000E+00 0.  1.
<mgrwt>
<rscale>  0 0.21085119E+04</rscale>
<asrwt>0</asrwt>
<pdfrwt beam="1">  1        1 0.17059774E+00 0.21085119E+04</pdfrwt>
<pdfrwt beam="2">  1       -1 0.15420276E+00 0.21085119E+04</pdfrwt>
<totfact> 0.37138862E+00</totfact>
</mgrwt>
</event>
<event>
 6    1  0.9512547E-007  0.3646244E+04  0.7818608E-02  0.8079980E-01
         -1   -1    0    0    0  501 -0.00000000000E+00  0.00000000000E+00  0.20112083300E+04  0.20112083300E+04  0.00000000000E+00 0.  1.
          1   -1    0    0  501    0  0.00000000000E+00 -0.00000000000E+00 -0.16526252699E+04  0.16526252699E+04  0.00000000000E+00 0. -1.
         23    2    1    2    0    0  0.81474121636E+03  0.13796431833E+04  0.10509828593E+04  0.19183720436E+04  0.91475483404E+02 0.  0.
         13    1    3    3    0    0  0.62507162739E+03  0.10023316272E+04  0.73981266903E+03  0.13938098921E+04  0.00000000000E+00 0. -1.
        -13    1    3    3    0    0  0.18966958897E+03  0.37731155616E+03  0.31117019026E+03  0.52456215141E+03  0.00000000000E+00 0.  1.
         22    1    1    2    0    0 -0.81474121636E+03 -0.13796431833E+04 -0.69239979919E+03  0.17454615564E+04  0.00000000000E+00 0. -1.
<mgrwt>
<rscale>  0 0.36462439E+04</rscale>
<asrwt>0</asrwt>
<pdfrwt beam="1">  1        1 0.25425004E+00 0.36462439E+04</pdfrwt>
<pdfrwt beam="2">  1       -1 0.30941667E+00 0.36462439E+04</pdfrwt>
<totfact> 0.11869969E-01</totfact>
</mgrwt>
</event>
<event>
 6    1  0.9512547E-007  0.6090459E+03  0.7818608E-02  0.9886814E-01
          1   -1    0    0  501    0  0.00000000000E+00  0.00000000000E+00  0.10013381152E+03  0.10013381152E+03  0.00000000000E+00 0. -1.
         -1   -1    0    0    0  501 -0.00000000000E+00 -0.00000000000E+00 -0.92610297448E+03  0.92610297448E+03  0.00000000000E+00 0.  1.
         23    2    1    2    0    0  0.26099718217E+03 -0.79815664139E+02 -0.62390340294E+03  0.68664785697E+03  0.87975871330E+02 0.  0.
         11    1    3    3    0    0  0.10130352843E+03  0.10469165310E+02 -0.25686464283E+03  0.27631766688E+03  0.00000000000E+00 0. -1.
        -11    1    3    3    0    0  0.15969365375E+03 -0.90284829449E+02 -0.36703876011E+03  0.41033019009E+03  0.00000000000E+00 0.  1.
         22    1    1    2    0    0 -0.26099718217E+03  0.79815664139E+02 -0.20206576002E+03  0.33958892903E+03  0.00000000000E+00 0. -1.
<mgrwt>
<rscale>  0 0.60904588E+03</rscale>
<asrwt>0</asrwt>
<pdfrwt beam="1">  1        1 0.15405202E-01 0.60904588E+03</pdfrwt>
<pdfrwt beam="2">  1       -1 0.14247738E+00 0.60904588E+03</pdfrwt>
<totfact> 0.15226234E+02</totfact>
</mgrwt>
</event>
<event>
 6    1  0.9512547E-007  0.5035787E+04  0.7818608E-02  0.7823010E-01
          1   -1    0    0  501    0  0.00000000000E+00  0.00000000000E+00  0.31212961188E+04  0.31212961188E+04  0.00000000000E+00 0. -1.
         -1   -1    0    0    0  501 -0.00000000000E+00 -0.00000000000E+00 -0.20311395950E+04  0.20311395950E+04  0.00000000000E+00 0.  1.
         23    2    1    2    0    0  0.84355909497E+03  0.10339314200E+04  0.27289773821E+04  0.30390640158E+04  0.89366729571E+02 0.  0.
         13    1    3    3    0    0  0.69295675631E+03  0.83617796505E+03  0.21402140460E+04  0.23999789203E+04  0.00000000000E+00 0. -1.
        -13    1    3    3    0    0  0.15060233867E+03  0.19775345495E+03  0.58876333613E+03  0.63908509553E+03  0.00000000000E+00 0.  1.
         22    1    1    2    0    0 -0.84355909497E+03 -0.10339314200E+04 -0.16388208583E+04  0.21133716979E+04  0.00000000000E+00 0.  1.
<mgrwt>
<rscale>  0 0.50357872E+04</rscale>
<asrwt>0</asrwt>
<pdfrwt beam="1">  1        1 0.48019940E+00 0.50357872E+04</pdfrwt>
<pdfrwt beam="2">  1       -1 0.31248302E+00 0.50357872E+04</pdfrwt>
<totfact> 0.95964965E-03</totfact>
</mgrwt>
</event>
<event>
 6    1  0.9512547E-007  0.1715086E+04  0.7818608E-02  0.8752807E-01
          2   -1    0    0  501    0  0.00000000000E+00  0.00000000000E+00  0.98165601366E+03  0.98165601366E+03  0.00000000000E+00 0. -1.
         -2   -1    0    0    0  501 -0.00000000000E+00 -0.00000000000E+00 -0.74912185562E+03  0.74912185562E+03  0.00000000000E+00 0.  1.
         23    2    1    2    0    0 -0.40824330859E+03 -0.40803265243E+03  0.75328018027E+03  0.95339143761E+03  0.91492944315E+02 0.  0.
         11    1    3    3    0    0 -0.34018764351E+03 -0.35035471061E+03  0.57769881935E+03  0.75644694587E+03  0.00000000000E+00 0. -1.
        -11    1    3    3    0    0 -0.68055665080E+02 -0.57677941824E+02  0.17558136092E+03  0.19694449174E+03  0.00000000000E+00 0.  1.
         22    1    1    2    0    0  0.40824330859E+03  0.40803265243E+03 -0.52074602224E+03  0.77738643166E+03  0.00000000000E+00 0.  1.
<mgrwt>
<rscale>  0 0.17150860E+04</rscale>
<asrwt>0</asrwt>
<pdfrwt beam="1">  1        2 0.15102400E+00 0.17150860E+04</pdfrwt>
<pdfrwt beam="2">  1       -2 0.11524952E+00 0.17150860E+04</pdfrwt>
<totfact> 0.14431401E+01</totfact>
</mgrwt>
</event>
<event>
 6    1  0.9512547E-007  0.1199204E+04  0.7818608E-02  0.9113554E-01
         -2   -1    0    0    0  501 -0.00000000000E+00  0.00000000000E+00  0.36837412763E+03  0.36837412763E+03  0.00000000000E+00 0.  1.
          2   -1    0    0  501    0  0.00000000000E+00 -0.00000000000E+00 -0.97597130088E+03  0.97597130088E+03  0.00000000000E+00 0. -1.
         23    2    1    2    0    0 -0.21033628467E+03 -0.17528763146E+03  0.28795600267E+03  0.40787193861E+03  0.92052987157E+02 0.  0.
         11    1    3    3    0    0 -0.15366854406E+03 -0.71080128552E+02  0.18526874662E+03  0.25097990872E+03  0.00000000000E+00 0. -1.
        -11    1    3    3    0    0 -0.56667740601E+02 -0.10420750291E+03  0.10268725606E+03  0.15689202989E+03  0.00000000000E+00 0.  1.
         22    1    1    2    0    0  0.21033628467E+03  0.17528763146E+03 -0.89555317592E+03  0.93647348990E+03  0.00000000000E+00 0. -1.
<mgrwt>
<rscale>  0 0.11992040E+04</rscale>
<asrwt>0</asrwt>
<pdfrwt beam="1">  1        2 0.15014943E+00 0.11992040E+04</pdfrwt>
<pdfrwt beam="2">  1       -2 0.56672943E-01 0.11992040E+04</pdfrwt>
<totfact> 0.75241085E+01</totfact>
</mgrwt>
</event>
<event>
 6    1  0.9512547E-007  0.2505267E+04  0.7818608E-02  0.8401112E-01
         -2   -1    0    0    0  501 -0.00000000000E+00  0.00000000000E+00  0.12069908334E+04  0.12069908334E+04  0.00000000000E+00 0.  1.
          2   -1    0    0  501    0  0.00000000000E+00 -0.00000000000E+00 -0.13000021841E+04  0.13000021841E+04  0.00000000000E+00 0. -1.
         23    2    1    2    0    0 -0.35849255452E+03  0.24174449928E+03  0.11278492029E+04  0.12118259217E+04  0.97575229913E+02 0.  0.
         13    1    3    3    0    0 -0.26299878789E+03  0.12939903498E+03  0.68500020379E+03  0.74507566856E+03  0.00000000000E+00 0.  1.
        -13    1    3    3    0    0 -0.95493766629E+02  0.11234546430E+03  0.44284899909E+03  0.46675025315E+03  0.00000000000E+00 0. -1.
         22    1    1    2    0    0  0.35849255452E+03 -0.24174449928E+03 -0.12208605536E+04  0.12951670958E+04  0.00000000000E+00 0. -1.
<mgrwt>
<rscale>  0 0.25052670E+04</rscale>
<asrwt>0</asrwt>
<pdfrwt beam="1">  1        2 0.20000034E+00 0.25052670E+04</pdfrwt>
<pdfrwt beam="2">  1       -2 0.18569090E+00 0.25052670E+04</pdfrwt>
<totfact> 0.24428652E+00</totfact>
</mgrwt>
</event>
<event>
 6    1  0.9512547E-007  0.2242695E+04  0.7818608E-02  0.8500865E-01
          2   -1    0    0  501    0  0.00000000000E+00  0.00000000000E+00  0.66319182175E+03  0.66319182175E+03  0.00000000000E+00 0. -1.
         -2   -1    0    0    0  501 -0.00000000000E+00 -0.00000000000E+00 -0.18960128213E+04  0.18960128213E+04  0.00000000000E+00 0.  1.
         23    2    1    2    0    0 -0.13322648131E+03 -0.75973020779E+03  0.30846648175E+03  0.83568893847E+03  0.91022785953E+02 0.  0.
         13    1    3    3    0    0 -0.14699186048E+03 -0.70585949332E+03  0.28343540080E+03  0.77471275824E+03  0.00000000000E+00 0. -1.
        -13    1    3    3    0    0  0.13765379171E+02 -0.53870714473E+02  0.25031080954E+02  0.60976180229E+02  0.00000000000E+00 0.  1.
         22    1    1    2    0    0  0.13322648131E+03  0.75973020779E+03 -0.15412874813E+04  0.17235157046E+04  0.00000000000E+00 0.  1.
<mgrwt>
<rscale>  0 0.22426950E+04</rscale>
<asrwt>0</asrwt>
<pdfrwt beam="1">  1        2 0.10202951E+00 0.22426950E+04</pdfrwt>
<pdfrwt beam="2">  1       -2 0.29169428E+00 0.22426950E+04</pdfrwt>
<totfact> 0.14276003E+00</totfact>
</mgrwt>
</event>
<event>
 6    1  0.9512547E-007  0.1242434E+04  0.7818608E-02  0.9076504E-01
         -1   -1    0    0    0  501 -0.00000000000E+00  0.00000000000E+00  0.39779927691E+03  0.39779927691E+03  0.00000000000E+00 0.  1.
          1   -1    0    0  501    0  0.00000000000E+00 -0.00000000000E+00 -0.97011453177E+03  0.97011453177E+03  0.00000000000E+00 0. -1.
         23    2    1    2    0    0 -0.30644782065E+03  0.29885171721E+02  0.30203226683E+03  0.44093647403E+03  0.91641113367E+02 0.  0.
         13    1    3    3    0    0 -0.62202190360E+01  0.18143608419E+02  0.30112583759E+02  0.35702231750E+02  0.00000000000E+00 0. -1.
        -13    1    3    3    0    0 -0.30022760161E+03  0.11741563303E+02  0.27191968307E+03  0.40523424228E+03  0.00000000000E+00 0.  1.
         22    1    1    2    0    0  0.30644782065E+03 -0.29885171721E+02 -0.87434752168E+03  0.92697733465E+03  0.00000000000E+00 0. -1.
<mgrwt>
<rscale>  0 0.12424345E+04</rscale>
<asrwt>0</asrwt>
<pdfrwt beam="1">  1        1 0.14924839E+00 0.12424345E+04</pdfrwt>
<pdfrwt beam="2">  1       -1 0.61199889E-01 0.12424345E+04</pdfrwt>
<totfact> 0.42682396E+01</totfact>
</mgrwt>
</event>
<event>
 6    1  0.9512547E-007  0.4019044E+04  0.7818608E-02  0.8000716E-01
         -1   -1    0    0    0  501 -0.00000000000E+00  0.00000000000E+00  0.18428897148E+04  0.18428897148E+04  0.00000000000E+00 0.  1.
          1   -1    0    0  501    0  0.00000000000E+00 -0.00000000000E+00 -0.21912211992E+04  0.21912211992E+04  0.00000000000E+00 0. -1.
         23    2    1    2    0    0  0.17579512280E+04  0.52254756567E+03  0.64773816598E+03  0.19471027139E+04  0.90530482857E+02 0.  0.
         11    1    3    3    0    0  0.86998333471E+02  0.26231226500E+02  0.53739697641E+02  0.10556866189E+03  0.00000000000E+00 0. -1.
        -11    1    3    3    0    0  0.16709528946E+04  0.49631633917E+03  0.59399846834E+03  0.18415340520E+04  0.00000000000E+00 0.  1.
         22    1    1    2    0    0 -0.17579512280E+04 -0.52254756567E+03 -0.99606965036E+03  0.20870082000E+04  0.00000000000E+00 0.  1.
<mgrwt>
<rscale>  0 0.40190442E+04</rscale>
<asrwt>0</asrwt>
<pdfrwt beam="1">  1        1 0.33711095E+00 0.40190442E+04</pdfrwt>
<pdfrwt beam="2">  1       -1 0.28352149E+00 0.40190442E+04</pdfrwt>
<totfact> 0.72895069E-02</totfact>
</mgrwt>
</event>
<event>
 6    1  0.9512547E-007  0.2378898E+04  0.7818608E-02  0.8447446E-01
          2   -1    0    0  501    0  0.00000000000E+00  0.00000000000E+00  0.20384157095E+04  0.20384157095E+04  0.00000000000E+00 0. -1.
         -2   -1    0    0    0  501 -0.00000000000E+00 -0.00000000000E+00 -0.69406322391E+03  0.69406322391E+03  0.00000000000E+00 0.  1.
         23    2    1    2    0    0  0.12866040917E+03 -0.27223738322E+03  0.19927971527E+04  0.20175333552E+04  0.92377778158E+02 0.  0.
         13    1    3    3    0    0  0.11690690827E+03 -0.17082209312E+03  0.11392869688E+04  0.11579387764E+04  0.00000000000E+00 0.  1.
        -13    1    3    3    0    0  0.11753500905E+02 -0.10141529011E+03  0.85351018386E+03  0.85959457875E+03  0.00000000000E+00 0. -1.
         22    1    1    2    0    0 -0.12866040917E+03  0.27223738322E+03 -0.64844466702E+03  0.71494557828E+03  0.00000000000E+00 0.  1.
<mgrwt>
<rscale>  0 0.23788984E+04</rscale>
<asrwt>0</asrwt>
<pdfrwt beam="1">  1        2 0.31360242E+00 0.23788984E+04</pdfrwt>
<pdfrwt beam="2">  1       -2 0.10677896E+00 0.23788984E+04</pdfrwt>
<totfact> 0.40441641E+00</totfact>
</mgrwt>
</event>
<event>
 6    1  0.9512547E-007  0.3422395E+04  0.7818608E-02  0.8132432E-01
         -3   -1    0    0    0  501 -0.00000000000E+00  0.00000000000E+00  0.70549013755E+03  0.70549013755E+03  0.00000000000E+00 0.  1.
          3   -1    0    0  501    0  0.00000000000E+00 -0.00000000000E+00 -0.41505860049E+04  0.41505860049E+04  0.00000000000E+00 0. -1.
         23    2    1    2    0    0  0.16624599067E+04 -0.18226057714E+03 -0.12203024622E+04  0.20727871609E+04  0.10157094067E+03 0.  0.
         13    1    3    3    0    0  0.10518307780E+04 -0.10547455520E+03 -0.83008944387E+03  0.13440689536E+04  0.00000000000E+00 0.  1.
        -13    1    3    3    0    0  0.61062912867E+03 -0.76786021936E+02 -0.39021301837E+03  0.72871820730E+03  0.00000000000E+00 0. -1.
         22    1    1    2    0    0 -0.16624599067E+04  0.18226057714E+03 -0.22247934052E+04  0.27832889816E+04  0.00000000000E+00 0. -1.
<mgrwt>
<rscale>  0 0.34223954E+04</rscale>
<asrwt>0</asrwt>
<pdfrwt beam="1">  1        3 0.63855169E+00 0.34223954E+04</pdfrwt>
<pdfrwt beam="2">  1       -3 0.10853694E+00 0.34223954E+04</pdfrwt>
<totfact> 0.11132692E-03</totfact>
</mgrwt>
</event>
<event>
 6    1  0.9512547E-007  0.2306004E+04  0.7818608E-02  0.8475558E-01
         -2   -1    0    0    0  501 -0.00000000000E+00  0.00000000000E+00  0.90493181926E+03  0.90493181926E+03  0.00000000000E+00 0.  1.
          2   -1    0    0  501    0  0.00000000000E+00 -0.00000000000E+00 -0.14690760094E+04  0.14690760094E+04  0.00000000000E+00 0. -1.
         23    2    1    2    0    0  0.89616073512E+03 -0.41962099809E+02 -0.10252091876E+04  0.13653226385E+04  0.90482859333E+02 0.  0.
         13    1    3    3    0    0  0.46627280470E+03 -0.63401180668E+02 -0.50838152899E+03  0.69273502664E+03  0.00000000000E+00 0. -1.
        -13    1    3    3    0    0  0.42988793042E+03  0.21439080859E+02 -0.51682765857E+03  0.67258761182E+03  0.00000000000E+00 0.  1.
         22    1    1    2    0    0 -0.89616073512E+03  0.41962099809E+02  0.46106499746E+03  0.10086851902E+04  0.00000000000E+00 0.  1.
<mgrwt>
<rscale>  0 0.23060040E+04</rscale>
<asrwt>0</asrwt>
<pdfrwt beam="1">  1        2 0.22601169E+00 0.23060040E+04</pdfrwt>
<pdfrwt beam="2">  1       -2 0.13922028E+00 0.23060040E+04</pdfrwt>
<totfact> 0.43649998E+00</totfact>
</mgrwt>
</event>
<event>
 6    1  0.9512547E-007  0.1138763E+04  0.7818608E-02  0.9168214E-01
         -2   -1    0    0    0  501 -0.00000000000E+00  0.00000000000E+00  0.40512572834E+03  0.40512572834E+03  0.00000000000E+00 0.  1.
          2   -1    0    0  501    0  0.00000000000E+00 -0.00000000000E+00 -0.80023318418E+03  0.80023318418E+03  0.00000000000E+00 0. -1.
         23    2    1    2    0    0 -0.10093223109E+03  0.51710460953E+03  0.19625989393E+02  0.53484543535E+03  0.89944248169E+02 0.  0.
         13    1    3    3    0    0  0.20613701012E+01  0.76785403923E+02  0.30151128979E+02  0.82518713520E+02  0.00000000000E+00 0. -1.
        -13    1    3    3    0    0 -0.10299360119E+03  0.44031920561E+03 -0.10525139586E+02  0.45232672183E+03  0.00000000000E+00 0.  1.
         22    1    1    2    0    0  0.10093223109E+03 -0.51710460953E+03 -0.41473344523E+03  0.67051347717E+03  0.00000000000E+00 0. -1.
<mgrwt>
<rscale>  0 0.11387626E+04</rscale>
<asrwt>0</asrwt>
<pdfrwt beam="1">  1        2 0.12311280E+00 0.11387626E+04</pdfrwt>
<pdfrwt beam="2">  1       -2 0.62327036E-01 0.11387626E+04</pdfrwt>
<totfact> 0.81504461E+01</totfact>
</mgrwt>
</event>
<event>
 6    1  0.9512547E-007  0.3567805E+04  0.7818608E-02  0.8097906E-01
          2   -1    0    0  501    0  0.00000000000E+00  0.00000000000E+00  0.21742975660E+04  0.21742975660E+04  0.00000000000E+00 0. -1.
         -2   -1    0    0    0  501 -0.00000000000E+00 -0.00000000000E+00 -0.14636032035E+04  0.14636032035E+04  0.00000000000E+00 0.  1.
         23    2    1    2    0    0  0.38046511957E+03 -0.16799688476E+04 -0.11304138074E+03  0.17285580526E+04  0.89919693359E+02 0.  0.
         13    1    3    3    0    0  0.11433971448E+03 -0.49433934608E+03 -0.74383193744E+02  0.51281362979E+03  0.00000000000E+00 0. -1.
        -13    1    3    3    0    0  0.26612540509E+03 -0.11856295015E+04 -0.38658187000E+02  0.12157444228E+04  0.00000000000E+00 0.  1.
         22    1    1    2    0    0 -0.38046511957E+03  0.16799688476E+04  0.82373574321E+03  0.19093427169E+04  0.00000000000E+00 0. -1.
<mgrwt>
<rscale>  0 0.35678054E+04</rscale>
<asrwt>0</asrwt>
<pdfrwt beam="1">  1        2 0.33450732E+00 0.35678054E+04</pdfrwt>
<pdfrwt beam="2">  1       -2 0.22516972E+00 0.35678054E+04</pdfrwt>
<totfact> 0.39997237E-01</totfact>
</mgrwt>
</event>
<event>
 6    1  0.9512547E-007  0.1372554E+04  0.7818608E-02  0.8973929E-01
          2   -1    0    0  501    0  0.00000000000E+00  0.00000000000E+00  0.54773935890E+03  0.54773935890E+03  0.00000000000E+00 0. -1.
         -2   -1    0    0    0  501 -0.00000000000E+00 -0.00000000000E+00 -0.85985381985E+03  0.85985381985E+03  0.00000000000E+00 0.  1.
         23    2    1    2    0    0 -0.19477358985E+03 -0.29907488092E+03  0.44076350749E+03  0.57440186155E+03  0.91008204637E+02 0.  0.
         13    1    3    3    0    0 -0.85192837386E+02 -0.20993424722E+03  0.28600573706E+03  0.36486914001E+03  0.00000000000E+00 0.  1.
        -13    1    3    3    0    0 -0.10958075246E+03 -0.89140633700E+02  0.15475777044E+03  0.20953272154E+03  0.00000000000E+00 0. -1.
         22    1    1    2    0    0  0.19477358985E+03  0.29907488092E+03 -0.75287796844E+03  0.83319131720E+03  0.00000000000E+00 0.  1.
<mgrwt>
<rscale>  0 0.13725535E+04</rscale>
<asrwt>0</asrwt>
<pdfrwt beam="1">  1        2 0.84267593E-01 0.13725535E+04</pdfrwt>
<pdfrwt beam="2">  1       -2 0.13228520E+00 0.13725535E+04</pdfrwt>
<totfact> 0.22404765E+01</totfact>
</mgrwt>
</event>
<event>
 6    1  0.9512547E-007  0.3166936E+04  0.7818608E-02  0.8197604E-01
         -1   -1    0    0    0  501 -0.00000000000E+00  0.00000000000E+00  0.22332871963E+04  0.22332871963E+04  0.00000000000E+00 0.  1.
          1   -1    0    0  501    0  0.00000000000E+00 -0.00000000000E+00 -0.11227267553E+04  0.11227267553E+04  0.00000000000E+00 0. -1.
         23    2    1    2    0    0 -0.55206283887E+03  0.10968210731E+04  0.16128596030E+04  0.20293284980E+04  0.95227147366E+02 0.  0.
         11    1    3    3    0    0 -0.44078138037E+03  0.83543336139E+03  0.11787872210E+04  0.15105550102E+04  0.00000000000E+00 0.  1.
        -11    1    3    3    0    0 -0.11128145851E+03  0.26138771172E+03  0.43407238200E+03  0.51877348781E+03  0.00000000000E+00 0. -1.
         22    1    1    2    0    0  0.55206283887E+03 -0.10968210731E+04 -0.50229916203E+03  0.13266854536E+04  0.00000000000E+00 0. -1.
<mgrwt>
<rscale>  0 0.31669362E+04</rscale>
<asrwt>0</asrwt>
<pdfrwt beam="1">  1        1 0.17272719E+00 0.31669362E+04</pdfrwt>
<pdfrwt beam="2">  1       -1 0.34358265E+00 0.31669362E+04</pdfrwt>
<totfact> 0.17518406E-01</totfact>
</mgrwt>
</event>
<event>
 6    1  0.9512547E-007  0.2709523E+04  0.7818608E-02  0.8331922E-01
         -2   -1    0    0    0  501 -0.00000000000E+00  0.00000000000E+00  0.79036916558E+03  0.79036916558E+03  0.00000000000E+00 0.  1.
          2   -1    0    0  501    0  0.00000000000E+00 -0.00000000000E+00 -0.23221787307E+04  0.23221787307E+04  0.00000000000E+00 0. -1.
         23    2    1    2    0    0 -0.16511429715E+03  0.82144299976E+01 -0.23096827727E+04  0.23173014345E+04  0.89001235472E+02 0.  0.
         13    1    3    3    0    0 -0.15513284493E+03 -0.14196499553E+02 -0.16992242117E+04  0.17063500995E+04  0.00000000000E+00 0.  1.
        -13    1    3    3    0    0 -0.99814522137E+01  0.22410929550E+02 -0.61045856092E+03  0.61095133501E+03  0.00000000000E+00 0. -1.
         22    1    1    2    0    0  0.16511429715E+03 -0.82144299976E+01  0.77787320755E+03  0.79524646180E+03  0.00000000000E+00 0.  1.
<mgrwt>
<rscale>  0 0.27095228E+04</rscale>
<asrwt>0</asrwt>
<pdfrwt beam="1">  1        2 0.35725826E+00 0.27095228E+04</pdfrwt>
<pdfrwt beam="2">  1       -2 0.12159526E+00 0.27095228E+04</pdfrwt>
<totfact> 0.19832999E+00</totfact>
</mgrwt>
</event>
<event>
 6    1  0.9512547E-007  0.3702669E+04  0.7818608E-02  0.8067371E-01
         -2   -1    0    0    0  501 -0.00000000000E+00  0.00000000000E+00  0.17317447589E+04  0.17317447589E+04  0.00000000000E+00 0.  1.
          2   -1    0    0  501    0  0.00000000000E+00 -0.00000000000E+00 -0.19791823066E+04  0.19791823066E+04  0.00000000000E+00 0. -1.
         23    2    1    2    0    0 -0.15922974326E+04  0.76729801142E+03 -0.67211001235E+03  0.18930975755E+04  0.89046109189E+02 0.  0.
         11    1    3    3    0    0 -0.93933811906E+03  0.44612169887E+03 -0.34881286233E+03  0.10968368543E+04  0.00000000000E+00 0. -1.
        -11    1    3    3    0    0 -0.65295931355E+03  0.32117631254E+03 -0.32329715003E+03  0.79626072119E+03  0.00000000000E+00 0.  1.
         22    1    1    2    0    0  0.15922974326E+04 -0.76729801142E+03  0.42467246462E+03  0.18178294899E+04  0.00000000000E+00 0.  1.
<mgrwt>
<rscale>  0 0.37026685E+04</rscale>
<asrwt>0</asrwt>
<pdfrwt beam="1">  1        2 0.30448959E+00 0.37026685E+04</pdfrwt>
<pdfrwt beam="2">  1       -2 0.26642227E+00 0.37026685E+04</pdfrwt>
<totfact> 0.28268723E-01</totfact>
</mgrwt>
</event>
<event>
 6    1  0.9512547E-007  0.3339842E+04  0.7818608E-02  0.8152831E-01
          1   -1    0    0  501    0  0.00000000000E+00  0.00000000000E+00  0.19456354006E+04  0.19456354006E+04  0.00000000000E+00 0. -1.
         -1   -1    0    0    0  501 -0.00000000000E+00 -0.00000000000E+00 -0.14332781481E+04  0.14332781481E+04  0.00000000000E+00 0.  1.
         23    2    1    2    0    0  0.15739707209E+04  0.44751218368E+03  0.58737529315E+03  0.17408419106E+04  0.88712105179E+02 0.  0.
         13    1    3    3    0    0  0.10058417133E+04  0.29264615819E+03  0.42049370031E+03  0.11287932841E+04  0.00000000000E+00 0. -1.
        -13    1    3    3    0    0  0.56812900760E+03  0.15486602549E+03  0.16688159285E+03  0.61204862647E+03  0.00000000000E+00 0.  1.
         22    1    1    2    0    0 -0.15739707209E+04 -0.44751218368E+03 -0.75018040658E+02  0.16380716380E+04  0.00000000000E+00 0.  1.
<mgrwt>
<rscale>  0 0.33398423E+04</rscale>
<asrwt>0</asrwt>
<pdfrwt beam="1">  1        1 0.29932852E+00 0.33398423E+04</pdfrwt>
<pdfrwt beam="2">  1       -1 0.22050433E+00 0.33398423E+04</pdfrwt>
<totfact> 0.29294584E-01</totfact>
</mgrwt>
</event>
<event>
 6    1  0.9512547E-007  0.3447685E+04  0.7818608E-02  0.8126301E-01
          2   -1    0    0  501    0  0.00000000000E+00  0.00000000000E+00  0.23720813789E+04  0.23720813789E+04  0.00000000000E+00 0. -1.
         -2   -1    0    0    0  501 -0.00000000000E+00 -0.00000000000E+00 -0.12527534748E+04  0.12527534748E+04  0.00000000000E+00 0.  1.
         23    2    1    2    0    0  0.84900304054E+03 -0.24571174385E+03 -0.99452450413E+03  0.13336446766E+04  0.91371276179E+02 0.  0.
         11    1    3    3    0    0  0.42746905803E+03 -0.11770600964E+03 -0.43082146565E+03  0.61821649569E+03  0.00000000000E+00 0.  1.
        -11    1    3    3    0    0  0.42153398251E+03 -0.12800573421E+03 -0.56370303849E+03  0.71542818088E+03  0.00000000000E+00 0. -1.
         22    1    1    2    0    0 -0.84900304054E+03  0.24571174385E+03  0.21138524082E+04  0.22911901771E+04  0.00000000000E+00 0. -1.
<mgrwt>
<rscale>  0 0.34476851E+04</rscale>
<asrwt>0</asrwt>
<pdfrwt beam="1">  1        2 0.36493560E+00 0.34476851E+04</pdfrwt>
<pdfrwt beam="2">  1       -2 0.19273130E+00 0.34476851E+04</pdfrwt>
<totfact> 0.50578739E-01</totfact>
</mgrwt>
</event>
<event>
 6    1  0.9512547E-007  0.2007156E+04  0.7818608E-02  0.8603282E-01
          1   -1    0    0  501    0  0.00000000000E+00  0.00000000000E+00  0.25068495719E+04  0.25068495719E+04  0.00000000000E+00 0. -1.
         -1   -1    0    0    0  501 -0.00000000000E+00 -0.00000000000E+00 -0.40176678426E+03  0.40176678426E+03  0.00000000000E+00 0.  1.
         23    2    1    2    0    0 -0.92083870621E+03 -0.61889903153E+02  0.49367098633E+03  0.10516235516E+04  0.10211154917E+03 0.  0.
         11    1    3    3    0    0 -0.62088980168E+03 -0.78114348085E+02  0.36832285062E+03  0.72613202621E+03  0.00000000000E+00 0.  1.
        -11    1    3    3    0    0 -0.29994890453E+03  0.16224444931E+02  0.12534813571E+03  0.32549152534E+03  0.00000000000E+00 0. -1.
         22    1    1    2    0    0  0.92083870621E+03  0.61889903153E+02  0.16114118013E+04  0.18569928046E+04  0.00000000000E+00 0. -1.
<mgrwt>
<rscale>  0 0.20071561E+04</rscale>
<asrwt>0</asrwt>
<pdfrwt beam="1">  1        1 0.38566915E+00 0.20071561E+04</pdfrwt>
<pdfrwt beam="2">  1       -1 0.61810276E-01 0.20071561E+04</pdfrwt>
<totfact> 0.32995592E+00</totfact>
</mgrwt>
</event>
<event>
 6    1  0.9512547E-007  0.7275888E+03  0.7818608E-02  0.9671181E-01
          3   -1    0    0  501    0  0.00000000000E+00  0.00000000000E+00  0.26976584554E+03  0.26976584554E+03  0.00000000000E+00 0. -1.
         -3   -1    0    0    0  501 -0.00000000000E+00 -0.00000000000E+00 -0.49059718924E+03  0.49059718924E+03  0.00000000000E+00 0.  1.
         23    2    1    2    0    0  0.35763427504E+02 -0.33734549463E+03 -0.23149410086E+03  0.42095958771E+03  0.92392912369E+02 0.  0.
         13    1    3    3    0    0 -0.18319476062E+02 -0.21493860717E+03 -0.16463571987E+03  0.27136530418E+03  0.00000000000E+00 0. -1.
        -13    1    3    3    0    0  0.54082903566E+02 -0.12240688746E+03 -0.66858380990E+02  0.14959428353E+03  0.00000000000E+00 0.  1.
         22    1    1    2    0    0 -0.35763427504E+02  0.33734549463E+03  0.10662757155E+02  0.33940344707E+03  0.00000000000E+00 0.  1.
<mgrwt>
<rscale>  0 0.72758880E+03</rscale>
<asrwt>0</asrwt>
<pdfrwt beam="1">  1        3 0.41502438E-01 0.72758880E+03</pdfrwt>
<pdfrwt beam="2">  1       -3 0.75476490E-01 0.72758880E+03</pdfrwt>
<totfact> 0.25188793E+01</totfact>
</mgrwt>
</event>
<event>
 6    1  0.9512547E-007  0.3161323E+04  0.7818608E-02  0.8199107E-01
          2   -1    0    0  501    0  0.00000000000E+00  0.00000000000E+00  0.19891432282E+04  0.19891432282E+04  0.00000000000E+00 0. -1.
         -2   -1    0    0    0  501 -0.00000000000E+00 -0.00000000000E+00 -0.12560641451E+04  0.12560641451E+04  0.00000000000E+00 0.  1.
         23    2    1    2    0    0 -0.42727718405E+03  0.15113441115E+04  0.19461108592E+03  0.15848837304E+04  0.85183030260E+02 0.  0.
         11    1    3    3    0    0 -0.20283051758E+03  0.67962476398E+03  0.46463521221E+02  0.71076641556E+03  0.00000000000E+00 0.  1.
        -11    1    3    3    0    0 -0.22444666647E+03  0.83171934752E+03  0.14814756470E+03  0.87411731481E+03  0.00000000000E+00 0. -1.
         22    1    1    2    0    0  0.42727718405E+03 -0.15113441115E+04  0.53846799721E+03  0.16603236430E+04  0.00000000000E+00 0.  1.
<mgrwt>
<rscale>  0 0.31613234E+04</rscale>
<asrwt>0</asrwt>
<pdfrwt beam="1">  1        2 0.30602203E+00 0.31613234E+04</pdfrwt>
<pdfrwt beam="2">  1       -2 0.19324064E+00 0.31613234E+04</pdfrwt>
<totfact> 0.84390373E-01</totfact>
</mgrwt>
</event>
<event>
 6    1  0.9512547E-007  0.2644031E+04  0.7818608E-02  0.8353397E-01
          2   -1    0    0  501    0  0.00000000000E+00  0.00000000000E+00  0.79427607380E+03  0.79427607380E+03  0.00000000000E+00 0. -1.
         -2   -1    0    0    0  501 -0.00000000000E+00 -0.00000000000E+00 -0.22003995837E+04  0.22003995837E+04  0.00000000000E+00 0.  1.
         23    2    1    2    0    0 -0.79158116407E+03  0.10100570008E+04 -0.10564385453E+04  0.16646021788E+04  0.89566342357E+02 0.  0.
         11    1    3    3    0    0 -0.50272783780E+03  0.67133585836E+03 -0.63974042734E+03  0.10548435562E+04  0.00000000000E+00 0.  1.
        -11    1    3    3    0    0 -0.28885332627E+03  0.33872114244E+03 -0.41669811791E+03  0.60975862266E+03  0.00000000000E+00 0. -1.
         22    1    1    2    0    0  0.79158116407E+03 -0.10100570008E+04 -0.34968496465E+03  0.13300734787E+04  0.00000000000E+00 0. -1.
<mgrwt>
<rscale>  0 0.26440308E+04</rscale>
<asrwt>0</asrwt>
<pdfrwt beam="1">  1        2 0.12219632E+00 0.26440308E+04</pdfrwt>
<pdfrwt beam="2">  1       -2 0.33852301E+00 0.26440308E+04</pdfrwt>
<totfact> 0.56308652E-01</totfact>
</mgrwt>
</event>
<event>
 6    1  0.9512547E-007  0.2278636E+04  0.7818608E-02  0.8486393E-01
          2   -1    0    0  501    0  0.00000000000E+00  0.00000000000E+00  0.71386888545E+03  0.71386888545E+03  0.00000000000E+00 0. -1.
         -2   -1    0    0    0  501 -0.00000000000E+00 -0.00000000000E+00 -0.18183249075E+04  0.18183249075E+04  0.00000000000E+00 0.  1.
         23    2    1    2    0    0 -0.28706149010E+03  0.90632656353E+03  0.14089611614E+03  0.96543468992E+03  0.91543902538E+02 0.  0.
         11    1    3    3    0    0 -0.13844875044E+03  0.31647780772E+03  0.26154563567E+02  0.34642505752E+03  0.00000000000E+00 0.  1.
        -11    1    3    3    0    0 -0.14861273965E+03  0.58984875581E+03  0.11474155257E+03  0.61900963240E+03  0.00000000000E+00 0. -1.
         22    1    1    2    0    0  0.28706149010E+03 -0.90632656353E+03 -0.12453521382E+04  0.15667591031E+04  0.00000000000E+00 0.  1.
<mgrwt>
<rscale>  0 0.22786361E+04</rscale>
<asrwt>0</asrwt>
<pdfrwt beam="1">  1        2 0.10982598E+00 0.22786361E+04</pdfrwt>
<pdfrwt beam="2">  1       -2 0.27974229E+00 0.22786361E+04</pdfrwt>
<totfact> 0.15341654E+00</totfact>
</mgrwt>
</event>
<event>
 6    1  0.9512547E-007  0.1294625E+04  0.7818608E-02  0.9033838E-01
          2   -1    0    0  501    0  0.00000000000E+00  0.00000000000E+00  0.12048623841E+04  0.12048623841E+04  0.00000000000E+00 0. -1.
         -2   -1    0    0    0  501 -0.00000000000E+00 -0.00000000000E+00 -0.34776896102E+03  0.34776896102E+03  0.00000000000E+00 0.  1.
         23    2    1    2    0    0  0.13691939777E+03  0.37632741298E+03 -0.17410944992E+03  0.44639962956E+03  0.92678398095E+02 0.  0.
         13    1    3    3    0    0  0.14430313015E+03  0.29590407649E+03 -0.12672240839E+03  0.35276222111E+03  0.00000000000E+00 0.  1.
        -13    1    3    3    0    0 -0.73837323784E+01  0.80423336489E+02 -0.47387041539E+02  0.93637408452E+02  0.00000000000E+00 0. -1.
         22    1    1    2    0    0 -0.13691939777E+03 -0.37632741298E+03  0.10312028730E+04  0.11062317156E+04  0.00000000000E+00 0. -1.
<mgrwt>
<rscale>  0 0.12946254E+04</rscale>
<asrwt>0</asrwt>
<pdfrwt beam="1">  1        2 0.18536344E+00 0.12946254E+04</pdfrwt>
<pdfrwt beam="2">  1       -2 0.53502918E-01 0.12946254E+04</pdfrwt>
<totfact> 0.60727602E+01</totfact>
</mgrwt>
</event>
<event>
 6    1  0.9512547E-007  0.2027233E+04  0.7818608E-02  0.8593993E-01
         -2   -1    0    0    0  501 -0.00000000000E+00  0.00000000000E+00  0.87905750433E+03  0.87905750433E+03  0.00000000000E+00 0.  1.
          2   -1    0    0  501    0  0.00000000000E+00 -0.00000000000E+00 -0.11687722795E+04  0.11687722795E+04  0.00000000000E+00 0. -1.
         23    2    1    2    0    0 -0.67726904837E+03 -0.75112211537E+03 -0.11531785833E+03  0.10215295935E+04  0.85712926674E+02 0.  0.
         13    1    3    3    0    0 -0.15257335239E+03 -0.12788746338E+03 -0.28019525621E+01  0.19910219006E+03  0.00000000000E+00 0.  1.
        -13    1    3    3    0    0 -0.52469569598E+03 -0.62323465199E+03 -0.11251590577E+03  0.82242740340E+03  0.00000000000E+00 0. -1.
         22    1    1    2    0    0  0.67726904837E+03  0.75112211537E+03 -0.17439691681E+03  0.10263001903E+04  0.00000000000E+00 0. -1.
<mgrwt>
<rscale>  0 0.20272326E+04</rscale>
<asrwt>0</asrwt>
<pdfrwt beam="1">  1        2 0.17981112E+00 0.20272326E+04</pdfrwt>
<pdfrwt beam="2">  1       -2 0.13523962E+00 0.20272326E+04</pdfrwt>
<totfact> 0.72011264E+00</totfact>
</mgrwt>
</event>
<event>
 6    1  0.9512547E-007  0.2966209E+04  0.7818608E-02  0.8253446E-01
          2   -1    0    0  501    0  0.00000000000E+00  0.00000000000E+00  0.28162535926E+04  0.28162535926E+04  0.00000000000E+00 0. -1.
         -2   -1    0    0    0  501 -0.00000000000E+00 -0.00000000000E+00 -0.78103720514E+03  0.78103720514E+03  0.00000000000E+00 0.  1.
         23    2    1    2    0    0 -0.23920026238E+03  0.11968399443E+04  0.15898862327E+00  0.12242966481E+04  0.96227019881E+02 0.  0.
         13    1    3    3    0    0 -0.16307071499E+03  0.85634441411E+03 -0.42664079984E+02  0.87277605225E+03  0.00000000000E+00 0.  1.
        -13    1    3    3    0    0 -0.76129547387E+02  0.34049553021E+03  0.42823068608E+02  0.35152059582E+03  0.00000000000E+00 0. -1.
         22    1    1    2    0    0  0.23920026238E+03 -0.11968399443E+04  0.20350573989E+04  0.23729941497E+04  0.00000000000E+00 0. -1.
<mgrwt>
<rscale>  0 0.29662089E+04</rscale>
<asrwt>0</asrwt>
<pdfrwt beam="1">  1        2 0.43326978E+00 0.29662089E+04</pdfrwt>
<pdfrwt beam="2">  1       -2 0.12015957E+00 0.29662089E+04</pdfrwt>
<totfact> 0.10265044E+00</totfact>
</mgrwt>
</event>
<event>
 6    1  0.9512547E-007  0.3601254E+04  0.7818608E-02  0.8090205E-01
         -2   -1    0    0    0  501 -0.00000000000E+00  0.00000000000E+00  0.12594383360E+04  0.12594383360E+04  0.00000000000E+00 0.  1.
          2   -1    0    0  501    0  0.00000000000E+00 -0.00000000000E+00 -0.25743677988E+04  0.25743677988E+04  0.00000000000E+00 0. -1.
         23    2    1    2    0    0 -0.41672075732E+03 -0.58851965999E+03 -0.24130403772E+04  0.25200865452E+04  0.89781699349E+02 0.  0.
         11    1    3    3    0    0 -0.18421173797E+03 -0.33321456967E+03 -0.13176426552E+04  0.13715495181E+04  0.00000000000E+00 0. -1.
        -11    1    3    3    0    0 -0.23250901935E+03 -0.25530509031E+03 -0.10953977220E+04  0.11485370271E+04  0.00000000000E+00 0.  1.
         22    1    1    2    0    0  0.41672075732E+03  0.58851965999E+03  0.10981109144E+04  0.13137195896E+04  0.00000000000E+00 0.  1.
<mgrwt>
<rscale>  0 0.36012539E+04</rscale>
<asrwt>0</asrwt>
<pdfrwt beam="1">  1        2 0.39605658E+00 0.36012539E+04</pdfrwt>
<pdfrwt beam="2">  1       -2 0.19375975E+00 0.36012539E+04</pdfrwt>
<totfact> 0.37549800E-01</totfact>
</mgrwt>
</event>
<event>
 6    1  0.9512547E-007  0.2462292E+04  0.7818608E-02  0.8416544E-01
          1   -1    0    0  501    0  0.00000000000E+00  0.00000000000E+00  0.32394921504E+04  0.32394921504E+04  0.00000000000E+00 0. -1.
         -1   -1    0    0    0  501 -0.00000000000E+00 -0.00000000000E+00 -0.46788831635E+03  0.46788831635E+03  0.00000000000E+00 0.  1.
         23    2    1    2    0    0 -0.49257701009E+03 -0.10742806271E+04  0.87800511096E+03  0.14752453676E+04  0.93514400414E+02 0.  0.
         13    1    3    3    0    0 -0.13137565668E+03 -0.26711418274E+03  0.27197017500E+03  0.40320878696E+03  0.00000000000E+00 0.  1.
        -13    1    3    3    0    0 -0.36120135341E+03 -0.80716644439E+03  0.60603493595E+03  0.10720365806E+04  0.00000000000E+00 0. -1.
         22    1    1    2    0    0  0.49257701009E+03  0.10742806271E+04  0.18935987231E+04  0.22321350991E+04  0.00000000000E+00 0.  1.
<mgrwt>
<rscale>  0 0.24622920E+04</rscale>
<asrwt>0</asrwt>
<pdfrwt beam="1">  1        1 0.49838339E+00 0.24622920E+04</pdfrwt>
<pdfrwt beam="2">  1       -1 0.71982820E-01 0.24622920E+04</pdfrwt>
<totfact> 0.68939837E-01</totfact>
</mgrwt>
</event>
<event>
 6    1  0.9512547E-007  0.2570496E+04  0.7818608E-02  0.8378293E-01
         -2   -1    0    0    0  501 -0.00000000000E+00  0.00000000000E+00  0.68090027808E+03  0.68090027808E+03  0.00000000000E+00 0.  1.
          2   -1    0    0  501    0  0.00000000000E+00 -0.00000000000E+00 -0.24259972021E+04  0.24259972021E+04  0.00000000000E+00 0. -1.
         23    2    1    2    0    0  0.10637223831E+03  0.11182019938E+04 -0.12266136656E+03  0.11335784765E+04  0.90904342722E+02 0.  0.
         13    1    3    3    0    0 -0.11670568968E+02  0.46915365165E+02 -0.14071637068E+02  0.50351411483E+02  0.00000000000E+00 0. -1.
        -13    1    3    3    0    0  0.11804280728E+03  0.10712866287E+04 -0.10858972949E+03  0.10832270650E+04  0.00000000000E+00 0.  1.
         22    1    1    2    0    0 -0.10637223831E+03 -0.11182019938E+04 -0.16224355574E+04  0.19733190036E+04  0.00000000000E+00 0.  1.
<mgrwt>
<rscale>  0 0.25704958E+04</rscale>
<asrwt>0</asrwt>
<pdfrwt beam="1">  1        2 0.37323033E+00 0.25704958E+04</pdfrwt>
<pdfrwt beam="2">  1       -2 0.10475389E+00 0.25704958E+04</pdfrwt>
<totfact> 0.25173612E+00</totfact>
</mgrwt>
</event>
<event>
 6    1  0.9512547E-007  0.2877997E+04  0.7818608E-02  0.8279454E-01
          2   -1    0    0  501    0  0.00000000000E+00  0.00000000000E+00  0.34818972589E+04  0.34818972589E+04  0.00000000000E+00 0. -1.
         -2   -1    0    0    0  501 -0.00000000000E+00 -0.00000000000E+00 -0.59470934788E+03  0.59470934788E+03  0.00000000000E+00 0.  1.
         23    2    1    2    0    0  0.74714882486E+03 -0.41527892165E+03  0.30821680236E+04  0.31998482629E+04  0.92634930578E+02 0.  0.
         13    1    3    3    0    0  0.65825707251E+03 -0.39371655728E+03  0.26952032240E+04  0.28022197486E+04  0.00000000000E+00 0. -1.
        -13    1    3    3    0    0  0.88891752346E+02 -0.21562364368E+02  0.38696479965E+03  0.39762851427E+03  0.00000000000E+00 0.  1.
         22    1    1    2    0    0 -0.74714882486E+03  0.41527892165E+03 -0.19498011262E+03  0.87675834388E+03  0.00000000000E+00 0.  1.
<mgrwt>
<rscale>  0 0.28779971E+04</rscale>
<asrwt>0</asrwt>
<pdfrwt beam="1">  1        2 0.53567649E+00 0.28779971E+04</pdfrwt>
<pdfrwt beam="2">  1       -2 0.91493748E-01 0.28779971E+04</pdfrwt>
<totfact> 0.73590257E-01</totfact>
</mgrwt>
</event>
<event>
 6    1  0.9512547E-007  0.2140670E+04  0.7818608E-02  0.8543536E-01
          2   -1    0    0  501    0  0.00000000000E+00  0.00000000000E+00  0.64970170729E+03  0.64970170729E+03  0.00000000000E+00 0. -1.
         -2   -1    0    0    0  501 -0.00000000000E+00 -0.00000000000E+00 -0.17632975342E+04  0.17632975342E+04  0.00000000000E+00 0.  1.
         23    2    1    2    0    0 -0.61682541150E+02  0.99945351729E+03 -0.13647237768E+03  0.10138987075E+04  0.81570890347E+02 0.  0.
         11    1    3    3    0    0 -0.47388681171E+02  0.21990127030E+03 -0.26822696526E+02  0.22654296023E+03  0.00000000000E+00 0. -1.
        -11    1    3    3    0    0 -0.14293859979E+02  0.77955224699E+03 -0.10964968116E+03  0.78735574730E+03  0.00000000000E+00 0.  1.
         22    1    1    2    0    0  0.61682541150E+02 -0.99945351729E+03 -0.97712344921E+03  0.13991005339E+04  0.00000000000E+00 0.  1.
<mgrwt>
<rscale>  0 0.21406704E+04</rscale>
<asrwt>0</asrwt>
<pdfrwt beam="1">  1        2 0.99954111E-01 0.21406704E+04</pdfrwt>
<pdfrwt beam="2">  1       -2 0.27127654E+00 0.21406704E+04</pdfrwt>
<totfact> 0.19673022E+00</totfact>
</mgrwt>
</event>
<event>
 6    1  0.9512547E-007  0.2793635E+04  0.7818608E-02  0.8305247E-01
         -1   -1    0    0    0  501 -0.00000000000E+00  0.00000000000E+00  0.71141359029E+03  0.71141359029E+03  0.00000000000E+00 0.  1.
          1   -1    0    0  501    0  0.00000000000E+00 -0.00000000000E+00 -0.27425660349E+04  0.27425660349E+04  0.00000000000E+00 0. -1.
         23    2    1    2    0    0 -0.78607937899E+03 -0.15251380383E+02  0.40613594126E+03  0.89301729228E+03  0.11991699983E+03 0.  0.
         13    1    3    3    0    0 -0.22207536370E+02 -0.22221274194E+02  0.16160072272E+02  0.35328566830E+02  0.00000000000E+00 0.  1.
        -13    1    3    3    0    0 -0.76387184262E+03  0.69698938112E+01  0.38997586899E+03  0.85768872545E+03  0.00000000000E+00 0. -1.
         22    1    1    2    0    0  0.78607937899E+03  0.15251380383E+02 -0.24372883859E+04  0.25609623329E+04  0.00000000000E+00 0. -1.
<mgrwt>
<rscale>  0 0.27936347E+04</rscale>
<asrwt>0</asrwt>
<pdfrwt beam="1">  1        1 0.42193324E+00 0.27936347E+04</pdfrwt>
<pdfrwt beam="2">  1       -1 0.10944824E+00 0.27936347E+04</pdfrwt>
<totfact> 0.61217975E-01</totfact>
</mgrwt>
</event>
<event>
 6    1  0.9512547E-007  0.2096033E+04  0.7818608E-02  0.8562993E-01
         -1   -1    0    0    0  501 -0.00000000000E+00  0.00000000000E+00  0.12889821538E+04  0.12889821538E+04  0.00000000000E+00 0.  1.
          1   -1    0    0  501    0  0.00000000000E+00 -0.00000000000E+00 -0.85209795012E+03  0.85209795012E+03  0.00000000000E+00 0. -1.
         23    2    1    2    0    0 -0.34151286827E+03  0.87785462980E+03  0.68328664535E+03  0.11674405641E+04  0.93685862121E+02 0.  0.
         11    1    3    3    0    0 -0.25188603422E+03  0.55748646481E+03  0.47991321780E+03  0.77753098286E+03  0.00000000000E+00 0.  1.
        -11    1    3    3    0    0 -0.89626834051E+02  0.32036816499E+03  0.20337342755E+03  0.38990958125E+03  0.00000000000E+00 0. -1.
         22    1    1    2    0    0  0.34151286827E+03 -0.87785462980E+03 -0.24640244165E+03  0.97363953983E+03  0.00000000000E+00 0. -1.
<mgrwt>
<rscale>  0 0.20960334E+04</rscale>
<asrwt>0</asrwt>
<pdfrwt beam="1">  1        1 0.13109199E+00 0.20960334E+04</pdfrwt>
<pdfrwt beam="2">  1       -1 0.19830495E+00 0.20960334E+04</pdfrwt>
<totfact> 0.28371522E+00</totfact>
</mgrwt>
</event>
<event>
 6    1  0.9512547E-007  0.3846211E+04  0.7818608E-02  0.8036310E-01
         -1   -1    0    0    0  501 -0.00000000000E+00  0.00000000000E+00  0.23774658844E+04  0.23774658844E+04  0.00000000000E+00 0.  1.
          1   -1    0    0  501    0  0.00000000000E+00 -0.00000000000E+00 -0.15555782340E+04  0.15555782340E+04  0.00000000000E+00 0. -1.
         23    2    1    2    0    0  0.17724154944E+04  0.73312563364E+03  0.53721159608E+03  0.19939798247E+04  0.91811560138E+02 0.  0.
         11    1    3    3    0    0  0.53671625815E+03  0.21667991647E+03  0.11887826622E+03  0.59088625821E+03  0.00000000000E+00 0. -1.
        -11    1    3    3    0    0  0.12356992363E+04  0.51644571717E+03  0.41833332985E+03  0.14030935665E+04  0.00000000000E+00 0.  1.
         22    1    1    2    0    0 -0.17724154944E+04 -0.73312563364E+03  0.28467605432E+03  0.19390642938E+04  0.00000000000E+00 0.  1.
<mgrwt>
<rscale>  0 0.38462107E+04</rscale>
<asrwt>0</asrwt>
<pdfrwt beam="1">  1        1 0.23931973E+00 0.38462107E+04</pdfrwt>
<pdfrwt beam="2">  1       -1 0.36576398E+00 0.38462107E+04</pdfrwt>
<totfact> 0.57858478E-02</totfact>
</mgrwt>
</event>
<event>
 6    1  0.1037305E-006  0.2718245E+04  0.7818608E-02  0.8329109E-01
          1   -1    0    0  501    0  0.00000000000E+00  0.00000000000E+00  0.16257747095E+04  0.16257747095E+04  0.00000000000E+00 0. -1.
         -1   -1    0    0    0  501 -0.00000000000E+00 -0.00000000000E+00 -0.11362055452E+04  0.11362055452E+04  0.00000000000E+00 0.  1.
         23    2    1    2    0    0 -0.64512505308E+03 -0.68651377552E+03 -0.74824226473E+03  0.12064531313E+04  0.90416664327E+02 0.  0.
         11    1    3    3    0    0 -0.14318089149E+03 -0.10729936015E+03 -0.16413009762E+03  0.24280158426E+03  0.00000000000E+00 0. -1.
        -11    1    3    3    0    0 -0.50194416159E+03 -0.57921441536E+03 -0.58411216711E+03  0.96365154702E+03  0.00000000000E+00 0.  1.
         22    1    1    2    0    0  0.64512505308E+03  0.68651377552E+03  0.12378114290E+04  0.15555271235E+04  0.00000000000E+00 0. -1.
<mgrwt>
<rscale>  0 0.27182452E+04</rscale>
<asrwt>0</asrwt>
<pdfrwt beam="1">  1        1 0.25011919E+00 0.27182452E+04</pdfrwt>
<pdfrwt beam="2">  1       -1 0.17480085E+00 0.27182452E+04</pdfrwt>
<totfact> 0.10599834E+00</totfact>
</mgrwt>
</event>
<event>
 6    1  0.9512547E-007  0.1164429E+04  0.7818608E-02  0.9144575E-01
          2   -1    0    0  501    0  0.00000000000E+00  0.00000000000E+00  0.10546157177E+04  0.10546157177E+04  0.00000000000E+00 0. -1.
         -2   -1    0    0    0  501 -0.00000000000E+00 -0.00000000000E+00 -0.32141898416E+03  0.32141898416E+03  0.00000000000E+00 0.  1.
         23    2    1    2    0    0  0.50434312802E+03  0.24473189399E+03  0.19951264519E+03  0.60203573746E+03  0.91575339884E+02 0.  0.
         11    1    3    3    0    0  0.35739615328E+03  0.12912687376E+03  0.11649202939E+03  0.39746214011E+03  0.00000000000E+00 0. -1.
        -11    1    3    3    0    0  0.14694697474E+03  0.11560502023E+03  0.83020615795E+02  0.20457359735E+03  0.00000000000E+00 0.  1.
         22    1    1    2    0    0 -0.50434312802E+03 -0.24473189399E+03  0.53368408837E+03  0.77399896440E+03  0.00000000000E+00 0. -1.
<mgrwt>
<rscale>  0 0.11644286E+04</rscale>
<asrwt>0</asrwt>
<pdfrwt beam="1">  1        2 0.16224857E+00 0.11644286E+04</pdfrwt>
<pdfrwt beam="2">  1       -2 0.49449075E-01 0.11644286E+04</pdfrwt>
<totfact> 0.88991497E+01</totfact>
</mgrwt>
</event>
<event>
 6    1  0.9512547E-007  0.8673342E+03  0.7818608E-02  0.9467362E-01
          2   -1    0    0  501    0  0.00000000000E+00  0.00000000000E+00  0.22845184146E+03  0.22845184146E+03  0.00000000000E+00 0. -1.
         -2   -1    0    0    0  501 -0.00000000000E+00 -0.00000000000E+00 -0.82322451641E+03  0.82322451641E+03  0.00000000000E+00 0.  1.
         23    2    1    2    0    0 -0.37147661549E+03  0.39435005988E+02 -0.55687790460E+03  0.67619532083E+03  0.87046629581E+02 0.  0.
         13    1    3    3    0    0 -0.22637139905E+03  0.43216460840E+02 -0.40587256838E+03  0.46673784350E+03  0.00000000000E+00 0. -1.
        -13    1    3    3    0    0 -0.14510521644E+03 -0.37814548521E+01 -0.15100533622E+03  0.20945747733E+03  0.00000000000E+00 0.  1.
         22    1    1    2    0    0  0.37147661549E+03 -0.39435005988E+02 -0.37894770348E+02  0.37548103704E+03  0.00000000000E+00 0. -1.
<mgrwt>
<rscale>  0 0.86733421E+03</rscale>
<asrwt>0</asrwt>
<pdfrwt beam="1">  1        2 0.35146437E-01 0.86733421E+03</pdfrwt>
<pdfrwt beam="2">  1       -2 0.12664993E+00 0.86733421E+03</pdfrwt>
<totfact> 0.69368382E+01</totfact>
</mgrwt>
</event>
<event>
 6    1  0.9512547E-007  0.2275773E+04  0.7818608E-02  0.8487535E-01
         -4   -1    0    0    0  501 -0.00000000000E+00  0.00000000000E+00  0.10035895712E+04  0.10035895712E+04  0.00000000000E+00 0.  1.
          4   -1    0    0  501    0  0.00000000000E+00 -0.00000000000E+00 -0.12901547259E+04  0.12901547259E+04  0.00000000000E+00 0. -1.
         23    2    1    2    0    0  0.53644931332E+03 -0.58424393725E+03  0.67623706165E+03  0.10463041376E+04  0.91306849807E+02 0.  0.
         13    1    3    3    0    0  0.26046572012E+03 -0.34777007063E+03  0.38616789957E+03  0.58130203856E+03  0.00000000000E+00 0. -1.
        -13    1    3    3    0    0  0.27598359320E+03 -0.23647386662E+03  0.29006916208E+03  0.46500209903E+03  0.00000000000E+00 0.  1.
         22    1    1    2    0    0 -0.53644931332E+03  0.58424393725E+03 -0.96280221632E+03  0.12474401596E+04  0.00000000000E+00 0. -1.
<mgrwt>
<rscale>  0 0.22757731E+04</rscale>
<asrwt>0</asrwt>
<pdfrwt beam="1">  1        4 0.19848534E+00 0.22757731E+04</pdfrwt>
<pdfrwt beam="2">  1       -4 0.15439840E+00 0.22757731E+04</pdfrwt>
<totfact> 0.67369374E-02</totfact>
</mgrwt>
</event>
<event>
 6    1  0.9512547E-007  0.1030342E+04  0.7818608E-02  0.9275879E-01
          1   -1    0    0  501    0  0.00000000000E+00  0.00000000000E+00  0.81264616967E+02  0.81264616967E+02  0.00000000000E+00 0. -1.
         -1   -1    0    0    0  501 -0.00000000000E+00 -0.00000000000E+00 -0.32658859973E+04  0.32658859973E+04  0.00000000000E+00 0.  1.
         23    2    1    2    0    0  0.45598555234E+03 -0.21331421010E+03 -0.13177015098E+04  0.14135489027E+04  0.91419117733E+02 0.  0.
         13    1    3    3    0    0  0.34927205012E+03 -0.20091914171E+03 -0.99767052774E+03  0.10759674477E+04  0.00000000000E+00 0.  1.
        -13    1    3    3    0    0  0.10671350223E+03 -0.12395068382E+02 -0.32003098208E+03  0.33758145501E+03  0.00000000000E+00 0. -1.
         22    1    1    2    0    0 -0.45598555234E+03  0.21331421010E+03 -0.18669198705E+04  0.19336017116E+04  0.00000000000E+00 0.  1.
<mgrwt>
<rscale>  0 0.10303416E+04</rscale>
<asrwt>0</asrwt>
<pdfrwt beam="1">  1        1 0.12502247E-01 0.10303416E+04</pdfrwt>
<pdfrwt beam="2">  1       -1 0.50244406E+00 0.10303416E+04</pdfrwt>
<totfact> 0.72360815E-01</totfact>
</mgrwt>
</event>
<event>
 6    1  0.9512547E-007  0.1925636E+04  0.7818608E-02  0.8642200E-01
          1   -1    0    0  501    0  0.00000000000E+00  0.00000000000E+00  0.81131073625E+03  0.81131073625E+03  0.00000000000E+00 0. -1.
         -1   -1    0    0    0  501 -0.00000000000E+00 -0.00000000000E+00 -0.11426183256E+04  0.11426183256E+04  0.00000000000E+00 0.  1.
         23    2    1    2    0    0 -0.34374134881E+03 -0.89649073293E+03 -0.19658130640E+03  0.98439055281E+03  0.92340680698E+02 0.  0.
         13    1    3    3    0    0 -0.10891936064E+03 -0.40524527956E+03 -0.70660900222E+02  0.42553510613E+03  0.00000000000E+00 0.  1.
        -13    1    3    3    0    0 -0.23482198818E+03 -0.49124545337E+03 -0.12592040618E+03  0.55885544668E+03  0.00000000000E+00 0. -1.
         22    1    1    2    0    0  0.34374134881E+03  0.89649073293E+03 -0.13472628290E+03  0.96953850899E+03  0.00000000000E+00 0.  1.
<mgrwt>
<rscale>  0 0.19256360E+04</rscale>
<asrwt>0</asrwt>
<pdfrwt beam="1">  1        1 0.12481704E+00 0.19256360E+04</pdfrwt>
<pdfrwt beam="2">  1       -1 0.17578744E+00 0.19256360E+04</pdfrwt>
<totfact> 0.45041391E+00</totfact>
</mgrwt>
</event>
<event>
 6    1  0.9512547E-007  0.5913352E+04  0.7818608E-02  0.7701239E-01
         -2   -1    0    0    0  501 -0.00000000000E+00  0.00000000000E+00  0.30431020796E+04  0.30431020796E+04  0.00000000000E+00 0.  1.
          2   -1    0    0  501    0  0.00000000000E+00 -0.00000000000E+00 -0.28727044572E+04  0.28727044572E+04  0.00000000000E+00 0. -1.
         23    2    1    2    0    0 -0.89159165647E+03  0.21870843198E+04 -0.16930239832E+04  0.29073827661E+04  0.90944144551E+02 0.  0.
         13    1    3    3    0    0 -0.72773896872E+03  0.18315663940E+04 -0.14474477083E+04  0.24452697868E+04  0.00000000000E+00 0. -1.
        -13    1    3    3    0    0 -0.16385268774E+03  0.35551792576E+03 -0.24557627493E+03  0.46211297929E+03  0.00000000000E+00 0.  1.
         22    1    1    2    0    0  0.89159165647E+03 -0.21870843198E+04  0.18634216057E+04  0.30084237707E+04  0.00000000000E+00 0.  1.
<mgrwt>
<rscale>  0 0.59133520E+04</rscale>
<asrwt>0</asrwt>
<pdfrwt beam="1">  1        2 0.44195453E+00 0.59133520E+04</pdfrwt>
<pdfrwt beam="2">  1       -2 0.46816955E+00 0.59133520E+04</pdfrwt>
<totfact> 0.37534982E-03</totfact>
</mgrwt>
</event>
<event>
 6    1  0.9512547E-007  0.2301197E+04  0.7818608E-02  0.8477449E-01
         -2   -1    0    0    0  501 -0.00000000000E+00  0.00000000000E+00  0.79102302416E+03  0.79102302416E+03  0.00000000000E+00 0.  1.
          2   -1    0    0  501    0  0.00000000000E+00 -0.00000000000E+00 -0.16736260672E+04  0.16736260672E+04  0.00000000000E+00 0. -1.
         23    2    1    2    0    0  0.46867656651E+02 -0.10855605176E+04 -0.42641792320E+02  0.10912689119E+04  0.91713144714E+02 0.  0.
         13    1    3    3    0    0  0.37734796062E+02 -0.51705849540E+03 -0.63519377358E+02  0.52231036157E+03  0.00000000000E+00 0.  1.
        -13    1    3    3    0    0  0.91328605898E+01 -0.56850202224E+03  0.20877585038E+02  0.56895855033E+03  0.00000000000E+00 0. -1.
         22    1    1    2    0    0 -0.46867656651E+02  0.10855605176E+04 -0.83996125076E+03  0.13733801795E+04  0.00000000000E+00 0. -1.
<mgrwt>
<rscale>  0 0.23011969E+04</rscale>
<asrwt>0</asrwt>
<pdfrwt beam="1">  1        2 0.25748093E+00 0.23011969E+04</pdfrwt>
<pdfrwt beam="2">  1       -2 0.12169585E+00 0.23011969E+04</pdfrwt>
<totfact> 0.47159109E+00</totfact>
</mgrwt>
</event>
<event>
 6    1  0.9662990E-007  0.3111324E+04  0.7818608E-02  0.8212637E-01
          1   -1    0    0  501    0  0.00000000000E+00  0.00000000000E+00  0.15613026009E+04  0.15613026009E+04  0.00000000000E+00 0. -1.
         -1   -1    0    0    0  501 -0.00000000000E+00 -0.00000000000E+00 -0.15500417213E+04  0.15500417213E+04  0.00000000000E+00 0.  1.
         23    2    1    2    0    0  0.67529055361E+03 -0.30063976639E+03  0.13729956318E+04  0.15619176101E+04  0.89822129905E+02 0.  0.
         11    1    3    3    0    0  0.32628153284E+03 -0.10032848415E+03  0.66770414688E+03  0.74990284115E+03  0.00000000000E+00 0. -1.
        -11    1    3    3    0    0  0.34900902077E+03 -0.20031128224E+03  0.70529148490E+03  0.81201476898E+03  0.00000000000E+00 0.  1.
         22    1    1    2    0    0 -0.67529055361E+03  0.30063976639E+03 -0.13617347522E+04  0.15494267121E+04  0.00000000000E+00 0.  1.
<mgrwt>
<rscale>  0 0.31113239E+04</rscale>
<asrwt>0</asrwt>
<pdfrwt beam="1">  1        1 0.24020040E+00 0.31113239E+04</pdfrwt>
<pdfrwt beam="2">  1       -1 0.23846796E+00 0.31113239E+04</pdfrwt>
<totfact> 0.41503887E-01</totfact>
</mgrwt>
</event>
<event>
 6    1  0.9512547E-007  0.9706121E+03  0.7818608E-02  0.9341377E-01
         -1   -1    0    0    0  501 -0.00000000000E+00  0.00000000000E+00  0.13306655099E+04  0.13306655099E+04  0.00000000000E+00 0.  1.
          1   -1    0    0  501    0  0.00000000000E+00 -0.00000000000E+00 -0.17699563386E+03  0.17699563386E+03  0.00000000000E+00 0. -1.
         23    2    1    2    0    0 -0.21973074257E+03  0.12589792797E+03 -0.51082704878E+02  0.27658004621E+03  0.98768374116E+02 0.  0.
         13    1    3    3    0    0 -0.13649510173E+03  0.11799513134E+03 -0.65082954618E+02  0.19180603431E+03  0.00000000000E+00 0. -1.
        -13    1    3    3    0    0 -0.83235640835E+02  0.79027966307E+01  0.14000249740E+02  0.84774011894E+02  0.00000000000E+00 0.  1.
         22    1    1    2    0    0  0.21973074257E+03 -0.12589792797E+03  0.12047525810E+04  0.12310810976E+04  0.00000000000E+00 0.  1.
<mgrwt>
<rscale>  0 0.97061215E+03</rscale>
<asrwt>0</asrwt>
<pdfrwt beam="1">  1        1 0.27230098E-01 0.97061215E+03</pdfrwt>
<pdfrwt beam="2">  1       -1 0.20471776E+00 0.97061215E+03</pdfrwt>
<totfact> 0.24554780E+01</totfact>
</mgrwt>
</event>
<event>
 6    1  0.9512547E-007  0.4905254E+04  0.7818608E-02  0.7843291E-01
         -2   -1    0    0    0  501 -0.00000000000E+00  0.00000000000E+00  0.15375211306E+04  0.15375211306E+04  0.00000000000E+00 0.  1.
          2   -1    0    0  501    0  0.00000000000E+00 -0.00000000000E+00 -0.39123882090E+04  0.39123882090E+04  0.00000000000E+00 0. -1.
         23    2    1    2    0    0  0.92601925403E+03  0.18865685666E+04  0.21534755084E+03  0.21143637410E+04  0.86642058725E+02 0.  0.
         11    1    3    3    0    0  0.62464294467E+03  0.12283825105E+04  0.10467501152E+03  0.13820489349E+04  0.00000000000E+00 0. -1.
        -11    1    3    3    0    0  0.30137630935E+03  0.65818605613E+03  0.11067253933E+03  0.73231480613E+03  0.00000000000E+00 0.  1.
         22    1    1    2    0    0 -0.92601925403E+03 -0.18865685666E+04 -0.25902146292E+04  0.33355455986E+04  0.00000000000E+00 0. -1.
<mgrwt>
<rscale>  0 0.49052541E+04</rscale>
<asrwt>0</asrwt>
<pdfrwt beam="1">  1        2 0.60190587E+00 0.49052541E+04</pdfrwt>
<pdfrwt beam="2">  1       -2 0.23654172E+00 0.49052541E+04</pdfrwt>
<totfact> 0.22854921E-02</totfact>
</mgrwt>
</event>
<event>
 6    1  0.9512547E-007  0.5336914E+04  0.7818608E-02  0.7778537E-01
         -2   -1    0    0    0  501 -0.00000000000E+00  0.00000000000E+00  0.25755770757E+04  0.25755770757E+04  0.00000000000E+00 0.  1.
          2   -1    0    0  501    0  0.00000000000E+00 -0.00000000000E+00 -0.27646858309E+04  0.27646858309E+04  0.00000000000E+00 0. -1.
         23    2    1    2    0    0 -0.21396038612E+04 -0.40851470015E+03  0.14464475471E+04  0.26163258000E+04  0.90339593379E+02 0.  0.
         11    1    3    3    0    0 -0.75683663379E+03 -0.16161608871E+03  0.56194574997E+03  0.95640183829E+03  0.00000000000E+00 0.  1.
        -11    1    3    3    0    0 -0.13827672274E+04 -0.24689861144E+03  0.88450179713E+03  0.16599239617E+04  0.00000000000E+00 0. -1.
         22    1    1    2    0    0  0.21396038612E+04  0.40851470015E+03 -0.16355563023E+04  0.27239371067E+04  0.00000000000E+00 0. -1.
<mgrwt>
<rscale>  0 0.53369135E+04</rscale>
<asrwt>0</asrwt>
<pdfrwt beam="1">  1        2 0.42533628E+00 0.53369135E+04</pdfrwt>
<pdfrwt beam="2">  1       -2 0.39624263E+00 0.53369135E+04</pdfrwt>
<totfact> 0.13532229E-02</totfact>
</mgrwt>
</event>
<event>
 6    1  0.9512547E-007  0.2553062E+04  0.7818608E-02  0.8384322E-01
         -1   -1    0    0    0  501 -0.00000000000E+00  0.00000000000E+00  0.94849876838E+03  0.94849876838E+03  0.00000000000E+00 0.  1.
          1   -1    0    0  501    0  0.00000000000E+00 -0.00000000000E+00 -0.17180108147E+04  0.17180108147E+04  0.00000000000E+00 0. -1.
         23    2    1    2    0    0 -0.72358827939E+02  0.10283902978E+04  0.39811884109E+03  0.11088882254E+04  0.91170610135E+02 0.  0.
         11    1    3    3    0    0 -0.40578605368E+02  0.25843231914E+03  0.66286818793E+02  0.26986631715E+03  0.00000000000E+00 0. -1.
        -11    1    3    3    0    0 -0.31780222571E+02  0.76995797869E+03  0.33183202229E+03  0.83902190825E+03  0.00000000000E+00 0.  1.
         22    1    1    2    0    0  0.72358827939E+02 -0.10283902978E+04 -0.11676308874E+04  0.15576213577E+04  0.00000000000E+00 0. -1.
<mgrwt>
<rscale>  0 0.25530618E+04</rscale>
<asrwt>0</asrwt>
<pdfrwt beam="1">  1        1 0.26430936E+00 0.25530618E+04</pdfrwt>
<pdfrwt beam="2">  1       -1 0.14592289E+00 0.25530618E+04</pdfrwt>
<totfact> 0.15391584E+00</totfact>
</mgrwt>
</event>
<event>
 6    1  0.9512547E-007  0.4571192E+03  0.7818608E-02  0.1025620E+00
         -1   -1    0    0    0  501 -0.00000000000E+00  0.00000000000E+00  0.40349045535E+02  0.40349045535E+02  0.00000000000E+00 0.  1.
          1   -1    0    0  501    0  0.00000000000E+00 -0.00000000000E+00 -0.12946897549E+04  0.12946897549E+04  0.00000000000E+00 0. -1.
         23    2    1    2    0    0 -0.25845170664E+02  0.20592863528E+03 -0.86200401755E+03  0.89118898865E+03  0.89957276213E+02 0.  0.
         11    1    3    3    0    0 -0.50804747134E+02  0.12114152743E+03 -0.61430552258E+03  0.62819397249E+03  0.00000000000E+00 0. -1.
        -11    1    3    3    0    0  0.24959576470E+02  0.84787107850E+02 -0.24769849497E+03  0.26299501616E+03  0.00000000000E+00 0.  1.
         22    1    1    2    0    0  0.25845170664E+02 -0.20592863528E+03 -0.39233669181E+03  0.44384981178E+03  0.00000000000E+00 0. -1.
<mgrwt>
<rscale>  0 0.45711922E+03</rscale>
<asrwt>0</asrwt>
<pdfrwt beam="1">  1        1 0.19918303E+00 0.45711922E+03</pdfrwt>
<pdfrwt beam="2">  1       -1 0.62075458E-02 0.45711922E+03</pdfrwt>
<totfact> 0.12412543E+03</totfact>
</mgrwt>
</event>
<event>
 6    1  0.9512547E-007  0.2156496E+04  0.7818608E-02  0.8536757E-01
          2   -1    0    0  501    0  0.00000000000E+00  0.00000000000E+00  0.19779377122E+04  0.19779377122E+04  0.00000000000E+00 0. -1.
         -2   -1    0    0    0  501 -0.00000000000E+00 -0.00000000000E+00 -0.58779322044E+03  0.58779322044E+03  0.00000000000E+00 0.  1.
         23    2    1    2    0    0 -0.41127333343E+03 -0.95705779973E+03  0.10186686844E+04  0.14597925699E+04  0.90570809434E+02 0.  0.
         11    1    3    3    0    0 -0.59798435142E+02 -0.14039201969E+03  0.10705306242E+03  0.18640313895E+03  0.00000000000E+00 0.  1.
        -11    1    3    3    0    0 -0.35147489829E+03 -0.81666578004E+03  0.91161562202E+03  0.12733894309E+04  0.00000000000E+00 0. -1.
         22    1    1    2    0    0  0.41127333343E+03  0.95705779973E+03  0.37147580729E+03  0.11059383628E+04  0.00000000000E+00 0. -1.
<mgrwt>
<rscale>  0 0.21564957E+04</rscale>
<asrwt>0</asrwt>
<pdfrwt beam="1">  1        2 0.30429811E+00 0.21564957E+04</pdfrwt>
<pdfrwt beam="2">  1       -2 0.90429727E-01 0.21564957E+04</pdfrwt>
<totfact> 0.65890981E+00</totfact>
</mgrwt>
</event>
<event>
 6    1  0.9512547E-007  0.3277727E+04  0.7818608E-02  0.8168586E-01
         -2   -1    0    0    0  501 -0.00000000000E+00  0.00000000000E+00  0.37966467133E+04  0.37966467133E+04  0.00000000000E+00 0.  1.
          2   -1    0    0  501    0  0.00000000000E+00 -0.00000000000E+00 -0.70743308524E+03  0.70743308524E+03  0.00000000000E+00 0. -1.
         23    2    1    2    0    0 -0.83421047258E+03  0.71904792884E+00 -0.39080577476E+03  0.92547075681E+03  0.88652910493E+02 0.  0.
         13    1    3    3    0    0 -0.61624020643E+03  0.15460479430E+02 -0.24789523925E+03  0.66441182115E+03  0.00000000000E+00 0. -1.
        -13    1    3    3    0    0 -0.21797026615E+03 -0.14741431501E+02 -0.14291053551E+03  0.26105893566E+03  0.00000000000E+00 0.  1.
         22    1    1    2    0    0  0.83421047258E+03 -0.71904792884E+00  0.34800194028E+04  0.35786090417E+04  0.00000000000E+00 0.  1.
<mgrwt>
<rscale>  0 0.32777270E+04</rscale>
<asrwt>0</asrwt>
<pdfrwt beam="1">  1        2 0.10883586E+00 0.32777270E+04</pdfrwt>
<pdfrwt beam="2">  1       -2 0.58409948E+00 0.32777270E+04</pdfrwt>
<totfact> 0.19784566E-02</totfact>
</mgrwt>
</event>
<event>
 6    1  0.9512547E-007  0.2733642E+04  0.7818608E-02  0.8324171E-01
          1   -1    0    0  501    0  0.00000000000E+00  0.00000000000E+00  0.11252736468E+04  0.11252736468E+04  0.00000000000E+00 0. -1.
         -1   -1    0    0    0  501 -0.00000000000E+00 -0.00000000000E+00 -0.16602179523E+04  0.16602179523E+04  0.00000000000E+00 0.  1.
         23    2    1    2    0    0 -0.12132040412E+04 -0.35252271212E+03 -0.79514706276E+03  0.14955916872E+04  0.91647887456E+02 0.  0.
         13    1    3    3    0    0 -0.25688218765E+03 -0.70036798130E+02 -0.21263663181E+03  0.34074616448E+03  0.00000000000E+00 0. -1.
        -13    1    3    3    0    0 -0.95632185352E+03 -0.28248591399E+03 -0.58251043095E+03  0.11548455227E+04  0.00000000000E+00 0.  1.
         22    1    1    2    0    0  0.12132040412E+04  0.35252271212E+03  0.26020275723E+03  0.12898999120E+04  0.00000000000E+00 0. -1.
<mgrwt>
<rscale>  0 0.27336419E+04</rscale>
<asrwt>0</asrwt>
<pdfrwt beam="1">  1        1 0.17311902E+00 0.27336419E+04</pdfrwt>
<pdfrwt beam="2">  1       -1 0.25541815E+00 0.27336419E+04</pdfrwt>
<totfact> 0.67905262E-01</totfact>
</mgrwt>
</event>
<event>
 6    1  0.9512547E-007  0.1452353E+04  0.7818608E-02  0.8916771E-01
         -1   -1    0    0    0  501 -0.00000000000E+00  0.00000000000E+00  0.27837060993E+03  0.27837060993E+03  0.00000000000E+00 0.  1.
          1   -1    0    0  501    0  0.00000000000E+00 -0.00000000000E+00 -0.18943535575E+04  0.18943535575E+04  0.00000000000E+00 0. -1.
         23    2    1    2    0    0 -0.40692264831E+03 -0.48300884725E+03 -0.28518044674E+03  0.69965971383E+03  0.96499946802E+02 0.  0.
         11    1    3    3    0    0 -0.49655693416E+02 -0.11055420911E+03 -0.35192684766E+02  0.12620002417E+03  0.00000000000E+00 0. -1.
        -11    1    3    3    0    0 -0.35726695489E+03 -0.37245463814E+03 -0.24998776197E+03  0.57345968966E+03  0.00000000000E+00 0.  1.
         22    1    1    2    0    0  0.40692264831E+03  0.48300884725E+03 -0.13308025008E+04  0.14730644536E+04  0.00000000000E+00 0. -1.
<mgrwt>
<rscale>  0 0.14523531E+04</rscale>
<asrwt>0</asrwt>
<pdfrwt beam="1">  1        1 0.29143900E+00 0.14523531E+04</pdfrwt>
<pdfrwt beam="2">  1       -1 0.42826249E-01 0.14523531E+04</pdfrwt>
<totfact> 0.18339298E+01</totfact>
</mgrwt>
</event>
<event>
 6    1  0.9512547E-007  0.2490208E+04  0.7818608E-02  0.8406482E-01
          2   -1    0    0  501    0  0.00000000000E+00  0.00000000000E+00  0.76846460968E+03  0.76846460968E+03  0.00000000000E+00 0. -1.
         -2   -1    0    0    0  501 -0.00000000000E+00 -0.00000000000E+00 -0.20173778154E+04  0.20173778154E+04  0.00000000000E+00 0.  1.
         23    2    1    2    0    0  0.97007299185E+03  0.44190279248E+03 -0.13414898391E+04  0.17158470417E+04  0.90644328727E+02 0.  0.
         13    1    3    3    0    0  0.68697266855E+03  0.26775248784E+03 -0.93768948143E+03  0.11928471845E+04  0.00000000000E+00 0. -1.
        -13    1    3    3    0    0  0.28310032330E+03  0.17415030464E+03 -0.40380035771E+03  0.52299985712E+03  0.00000000000E+00 0.  1.
         22    1    1    2    0    0 -0.97007299185E+03 -0.44190279248E+03  0.92576633401E+02  0.10699953834E+04  0.00000000000E+00 0. -1.
<mgrwt>
<rscale>  0 0.24902076E+04</rscale>
<asrwt>0</asrwt>
<pdfrwt beam="1">  1        2 0.11822532E+00 0.24902076E+04</pdfrwt>
<pdfrwt beam="2">  1       -2 0.31036582E+00 0.24902076E+04</pdfrwt>
<totfact> 0.89042551E-01</totfact>
</mgrwt>
</event>
<event>
 6    1  0.9512547E-007  0.2523265E+04  0.7818608E-02  0.8394744E-01
         -2   -1    0    0    0  501 -0.00000000000E+00  0.00000000000E+00  0.92907491474E+03  0.92907491474E+03  0.00000000000E+00 0.  1.
          2   -1    0    0  501    0  0.00000000000E+00 -0.00000000000E+00 -0.17132270224E+04  0.17132270224E+04  0.00000000000E+00 0. -1.
         23    2    1    2    0    0  0.13287597127E+03  0.66445765169E+03  0.71977671200E+03  0.99276809717E+03  0.91378252332E+02 0.  0.
         13    1    3    3    0    0  0.56011550065E+02  0.34961249644E+03  0.43878832575E+03  0.56382744366E+03  0.00000000000E+00 0.  1.
        -13    1    3    3    0    0  0.76864421205E+02  0.31484515524E+03  0.28098838624E+03  0.42894065351E+03  0.00000000000E+00 0. -1.
         22    1    1    2    0    0 -0.13287597127E+03 -0.66445765169E+03 -0.15039288197E+04  0.16495338400E+04  0.00000000000E+00 0. -1.
<mgrwt>
<rscale>  0 0.25232648E+04</rscale>
<asrwt>0</asrwt>
<pdfrwt beam="1">  1        2 0.26357339E+00 0.25232648E+04</pdfrwt>
<pdfrwt beam="2">  1       -2 0.14293460E+00 0.25232648E+04</pdfrwt>
<totfact> 0.29207495E+00</totfact>
</mgrwt>
</event>
<event>
 6    1  0.9512547E-007  0.2834444E+04  0.7818608E-02  0.8292654E-01
          2   -1    0    0  501    0  0.00000000000E+00  0.00000000000E+00  0.16686737103E+04  0.16686737103E+04  0.00000000000E+00 0. -1.
         -2   -1    0    0    0  501 -0.00000000000E+00 -0.00000000000E+00 -0.12036610317E+04  0.12036610317E+04  0.00000000000E+00 0.  1.
         23    2    1    2    0    0  0.31559634737E+03  0.31029118721E+02  0.16309661539E+04  0.16640254409E+04  0.91466999751E+02 0.  0.
         11    1    3    3    0    0  0.72994599508E+02  0.30874735484E+02  0.26185727098E+03  0.27358854365E+03  0.00000000000E+00 0. -1.
        -11    1    3    3    0    0  0.24260174786E+03  0.15438323659E+00  0.13691088829E+04  0.13904368973E+04  0.00000000000E+00 0.  1.
         22    1    1    2    0    0 -0.31559634737E+03 -0.31029118721E+02 -0.11659534753E+04  0.12083093011E+04  0.00000000000E+00 0.  1.
<mgrwt>
<rscale>  0 0.28344435E+04</rscale>
<asrwt>0</asrwt>
<pdfrwt beam="1">  1        2 0.25671903E+00 0.28344435E+04</pdfrwt>
<pdfrwt beam="2">  1       -2 0.18517862E+00 0.28344435E+04</pdfrwt>
<totfact> 0.14803098E+00</totfact>
</mgrwt>
</event>
<event>
 6    1  0.9512547E-007  0.1598290E+04  0.7818608E-02  0.8821599E-01
          2   -1    0    0  501    0  0.00000000000E+00  0.00000000000E+00  0.14998371092E+03  0.14998371092E+03  0.00000000000E+00 0. -1.
         -2   -1    0    0    0  501 -0.00000000000E+00 -0.00000000000E+00 -0.42580149123E+04  0.42580149123E+04  0.00000000000E+00 0.  1.
         23    2    1    2    0    0 -0.57224086855E+03  0.18864918653E+03 -0.34975852682E+04  0.35502735131E+04  0.91055929065E+02 0.  0.
         11    1    3    3    0    0 -0.22177502591E+03  0.55926847293E+02 -0.10944584741E+04  0.11181016617E+04  0.00000000000E+00 0.  1.
        -11    1    3    3    0    0 -0.35046584264E+03  0.13272233924E+03 -0.24031267940E+04  0.24321718513E+04  0.00000000000E+00 0. -1.
         22    1    1    2    0    0  0.57224086855E+03 -0.18864918653E+03 -0.61044593322E+03  0.85772511016E+03  0.00000000000E+00 0. -1.
<mgrwt>
<rscale>  0 0.15982902E+04</rscale>
<asrwt>0</asrwt>
<pdfrwt beam="1">  1        2 0.23074421E-01 0.15982902E+04</pdfrwt>
<pdfrwt beam="2">  1       -2 0.65507911E+00 0.15982902E+04</pdfrwt>
<totfact> 0.73448447E-02</totfact>
</mgrwt>
</event>
<event>
 6    1  0.9512547E-007  0.2269682E+04  0.7818608E-02  0.8489972E-01
          2   -1    0    0  501    0  0.00000000000E+00  0.00000000000E+00  0.21932587317E+04  0.21932587317E+04  0.00000000000E+00 0. -1.
         -2   -1    0    0    0  501 -0.00000000000E+00 -0.00000000000E+00 -0.58719211676E+03  0.58719211676E+03  0.00000000000E+00 0.  1.
         23    2    1    2    0    0 -0.38755760868E+03  0.59497395770E+03  0.18858388395E+04  0.20172553243E+04  0.93466596461E+02 0.  0.
         11    1    3    3    0    0 -0.35779599155E+03  0.50719469188E+03  0.16956403651E+04  0.18056745761E+04  0.00000000000E+00 0. -1.
        -11    1    3    3    0    0 -0.29761617132E+02  0.87779265815E+02  0.19019847438E+03  0.21158074822E+03  0.00000000000E+00 0.  1.
         22    1    1    2    0    0  0.38755760868E+03 -0.59497395770E+03 -0.27977222456E+03  0.76319552411E+03  0.00000000000E+00 0.  1.
<mgrwt>
<rscale>  0 0.22696821E+04</rscale>
<asrwt>0</asrwt>
<pdfrwt beam="1">  1        2 0.33742442E+00 0.22696821E+04</pdfrwt>
<pdfrwt beam="2">  1       -2 0.90337250E-01 0.22696821E+04</pdfrwt>
<totfact> 0.49596128E+00</totfact>
</mgrwt>
</event>
<event>
 6    1  0.9512547E-007  0.2035448E+04  0.7818608E-02  0.8590225E-01
         -1   -1    0    0    0  501 -0.00000000000E+00  0.00000000000E+00  0.19680585329E+04  0.19680585329E+04  0.00000000000E+00 0.  1.
          1   -1    0    0  501    0  0.00000000000E+00 -0.00000000000E+00 -0.52628600870E+03  0.52628600870E+03  0.00000000000E+00 0. -1.
         23    2    1    2    0    0  0.22626401928E+03  0.45523504421E+03 -0.35527592830E+03  0.62677459846E+03  0.90504475867E+02 0.  0.
         11    1    3    3    0    0  0.94741028741E+02  0.25808162145E+03 -0.14968076743E+03  0.31302766331E+03  0.00000000000E+00 0.  1.
        -11    1    3    3    0    0  0.13152299053E+03  0.19715342276E+03 -0.20559516087E+03  0.31374693515E+03  0.00000000000E+00 0. -1.
         22    1    1    2    0    0 -0.22626401928E+03 -0.45523504421E+03  0.17970484525E+04  0.18675699432E+04  0.00000000000E+00 0.  1.
<mgrwt>
<rscale>  0 0.20354475E+04</rscale>
<asrwt>0</asrwt>
<pdfrwt beam="1">  1        1 0.80967080E-01 0.20354475E+04</pdfrwt>
<pdfrwt beam="2">  1       -1 0.30277823E+00 0.20354475E+04</pdfrwt>
<totfact> 0.12101276E+00</totfact>
</mgrwt>
</event>
<event>
 6    1  0.9512547E-007  0.7165462E+03  0.7818608E-02  0.9689347E-01
         -1   -1    0    0    0  501 -0.00000000000E+00  0.00000000000E+00  0.12890814941E+03  0.12890814941E+03  0.00000000000E+00 0.  1.
          1   -1    0    0  501    0  0.00000000000E+00 -0.00000000000E+00 -0.99574482485E+03  0.99574482485E+03  0.00000000000E+00 0. -1.
         23    2    1    2    0    0 -0.16176605301E+03 -0.21854480672E+03 -0.79293839930E+03  0.84288881106E+03  0.88205182727E+02 0.  0.
         11    1    3    3    0    0 -0.89110984703E+02 -0.18537327589E+03 -0.58815241238E+03  0.62307887077E+03  0.00000000000E+00 0.  1.
        -11    1    3    3    0    0 -0.72655068311E+02 -0.33171530831E+02 -0.20478598693E+03  0.21980994029E+03  0.00000000000E+00 0. -1.
         22    1    1    2    0    0  0.16176605301E+03  0.21854480672E+03 -0.73898276132E+02  0.28176416321E+03  0.00000000000E+00 0.  1.
<mgrwt>
<rscale>  0 0.71654622E+03</rscale>
<asrwt>0</asrwt>
<pdfrwt beam="1">  1        1 0.15319152E+00 0.71654622E+03</pdfrwt>
<pdfrwt beam="2">  1       -1 0.19832022E-01 0.71654622E+03</pdfrwt>
<totfact> 0.32011910E+02</totfact>
</mgrwt>
</event>
<event>
 6    1  0.9512547E-007  0.2888332E+04  0.7818608E-02  0.8276358E-01
          2   -1    0    0  501    0  0.00000000000E+00  0.00000000000E+00  0.13356278563E+04  0.13356278563E+04  0.00000000000E+00 0. -1.
         -2   -1    0    0    0  501 -0.00000000000E+00 -0.00000000000E+00 -0.15615239063E+04  0.15615239063E+04  0.00000000000E+00 0.  1.
         23    2    1    2    0    0  0.33875021600E+03  0.85968221003E+03  0.99830717949E+03  0.13633725223E+04  0.91445058696E+02 0.  0.
         13    1    3    3    0    0  0.28692856425E+03  0.67529012184E+03  0.83602303025E+03  0.11123305519E+04  0.00000000000E+00 0.  1.
        -13    1    3    3    0    0  0.51821651745E+02  0.18439208818E+03  0.16228414924E+03  0.25104197033E+03  0.00000000000E+00 0. -1.
         22    1    1    2    0    0 -0.33875021600E+03 -0.85968221003E+03 -0.12242032294E+04  0.15337792403E+04  0.00000000000E+00 0.  1.
<mgrwt>
<rscale>  0 0.28883316E+04</rscale>
<asrwt>0</asrwt>
<pdfrwt beam="1">  1        2 0.20548121E+00 0.28883316E+04</pdfrwt>
<pdfrwt beam="2">  1       -2 0.24023445E+00 0.28883316E+04</pdfrwt>
<totfact> 0.10052408E+00</totfact>
</mgrwt>
</event>
<event>
 6    1  0.9512547E-007  0.2577587E+04  0.7818608E-02  0.8375855E-01
          2   -1    0    0  501    0  0.00000000000E+00  0.00000000000E+00  0.17254595110E+04  0.17254595110E+04  0.00000000000E+00 0. -1.
         -2   -1    0    0    0  501 -0.00000000000E+00 -0.00000000000E+00 -0.96263543931E+03  0.96263543931E+03  0.00000000000E+00 0.  1.
         23    2    1    2    0    0 -0.53701553751E+03 -0.84934464517E+03  0.12207092981E+04  0.15838165007E+04  0.92582414368E+02 0.  0.
         11    1    3    3    0    0 -0.40754129450E+03 -0.65992422649E+03  0.99908514666E+03  0.12648165961E+04  0.00000000000E+00 0. -1.
        -11    1    3    3    0    0 -0.12947424302E+03 -0.18942041869E+03  0.22162415146E+03  0.31899990459E+03  0.00000000000E+00 0.  1.
         22    1    1    2    0    0  0.53701553751E+03  0.84934464517E+03 -0.45788522641E+03  0.11042784497E+04  0.00000000000E+00 0.  1.
<mgrwt>
<rscale>  0 0.25775868E+04</rscale>
<asrwt>0</asrwt>
<pdfrwt beam="1">  1        2 0.26545531E+00 0.25775868E+04</pdfrwt>
<pdfrwt beam="2">  1       -2 0.14809776E+00 0.25775868E+04</pdfrwt>
<totfact> 0.26074273E+00</totfact>
</mgrwt>
</event>
<event>
 6    1  0.9512547E-007  0.1607557E+04  0.7818608E-02  0.8815919E-01
          2   -1    0    0  501    0  0.00000000000E+00  0.00000000000E+00  0.41891079378E+03  0.41891079378E+03  0.00000000000E+00 0. -1.
         -2   -1    0    0    0  501 -0.00000000000E+00 -0.00000000000E+00 -0.15422382063E+04  0.15422382063E+04  0.00000000000E+00 0.  1.
         23    2    1    2    0    0 -0.24136103087E+03 -0.57545426339E+03  0.49720984760E+02  0.63244839466E+03  0.90089062076E+02 0.  0.
         13    1    3    3    0    0 -0.38568945844E+02 -0.18874014498E+03 -0.26473784272E+01  0.19265880339E+03  0.00000000000E+00 0.  1.
        -13    1    3    3    0    0 -0.20279208503E+03 -0.38671411840E+03  0.52368363188E+02  0.43978959126E+03  0.00000000000E+00 0. -1.
         22    1    1    2    0    0  0.24136103087E+03  0.57545426339E+03 -0.11730483973E+04  0.13287006054E+04  0.00000000000E+00 0.  1.
<mgrwt>
<rscale>  0 0.16075574E+04</rscale>
<asrwt>0</asrwt>
<pdfrwt beam="1">  1        2 0.64447814E-01 0.16075574E+04</pdfrwt>
<pdfrwt beam="2">  1       -2 0.23726742E+00 0.16075574E+04</pdfrwt>
<totfact> 0.55695763E+00</totfact>
</mgrwt>
</event>
<event>
 6    1  0.9512547E-007  0.6092601E+03  0.7818608E-02  0.9886378E-01
          2   -1    0    0  501    0  0.00000000000E+00  0.00000000000E+00  0.55672437748E+03  0.55672437748E+03  0.00000000000E+00 0. -1.
         -2   -1    0    0    0  501 -0.00000000000E+00 -0.00000000000E+00 -0.16668834070E+03  0.16668834070E+03  0.00000000000E+00 0.  1.
         23    2    1    2    0    0  0.23569843460E+03  0.16256036368E+03  0.85455833986E+02  0.30538314525E+03  0.63059828179E+02 0.  0.
         13    1    3    3    0    0  0.84536306770E+02  0.35990220116E+02  0.37110970191E+01  0.91953549945E+02  0.00000000000E+00 0.  1.
        -13    1    3    3    0    0  0.15116212783E+03  0.12657014356E+03  0.81744736967E+02  0.21342959531E+03  0.00000000000E+00 0. -1.
         22    1    1    2    0    0 -0.23569843460E+03 -0.16256036368E+03  0.30458020279E+03  0.41802957293E+03  0.00000000000E+00 0. -1.
<mgrwt>
<rscale>  0 0.60926008E+03</rscale>
<asrwt>0</asrwt>
<pdfrwt beam="1">  1        2 0.85649903E-01 0.60926008E+03</pdfrwt>
<pdfrwt beam="2">  1       -2 0.25644360E-01 0.60926008E+03</pdfrwt>
<totfact> 0.74645585E+02</totfact>
</mgrwt>
</event>
<event>
 6    1  0.9512547E-007  0.1990673E+04  0.7818608E-02  0.8610994E-01
         -1   -1    0    0    0  501 -0.00000000000E+00  0.00000000000E+00  0.65937123673E+03  0.65937123673E+03  0.00000000000E+00 0.  1.
          1   -1    0    0  501    0  0.00000000000E+00 -0.00000000000E+00 -0.15024834494E+04  0.15024834494E+04  0.00000000000E+00 0. -1.
         23    2    1    2    0    0  0.91900919229E+03  0.33673506528E+03 -0.23946300618E+03  0.10119152250E+04  0.93067134896E+02 0.  0.
         13    1    3    3    0    0  0.72108094373E+03  0.29083518232E+03 -0.16041433375E+03  0.79389897919E+03  0.00000000000E+00 0. -1.
        -13    1    3    3    0    0  0.19792824856E+03  0.45899882960E+02 -0.79048672426E+02  0.21801624583E+03  0.00000000000E+00 0.  1.
         22    1    1    2    0    0 -0.91900919229E+03 -0.33673506528E+03 -0.60364920647E+03  0.11499394611E+04  0.00000000000E+00 0.  1.
<mgrwt>
<rscale>  0 0.19906726E+04</rscale>
<asrwt>0</asrwt>
<pdfrwt beam="1">  1        1 0.23115130E+00 0.19906726E+04</pdfrwt>
<pdfrwt beam="2">  1       -1 0.10144173E+00 0.19906726E+04</pdfrwt>
<totfact> 0.55786420E+00</totfact>
</mgrwt>
</event>
<event>
 6    1  0.9512547E-007  0.1473274E+04  0.7818608E-02  0.8902423E-01
         -3   -1    0    0    0  501 -0.00000000000E+00  0.00000000000E+00  0.34529277392E+03  0.34529277392E+03  0.00000000000E+00 0.  1.
          3   -1    0    0  501    0  0.00000000000E+00 -0.00000000000E+00 -0.15715184769E+04  0.15715184769E+04  0.00000000000E+00 0. -1.
         23    2    1    2    0    0 -0.57223073154E+03 -0.45288857754E+03 -0.51431352877E+03  0.89731381699E+03  0.89986701787E+02 0.  0.
         11    1    3    3    0    0 -0.46313806530E+03 -0.33080192129E+03 -0.36814042090E+03  0.67783047155E+03  0.00000000000E+00 0.  1.
        -11    1    3    3    0    0 -0.10909266625E+03 -0.12208665625E+03 -0.14617310788E+03  0.21948334545E+03  0.00000000000E+00 0. -1.
         22    1    1    2    0    0  0.57223073154E+03  0.45288857754E+03 -0.71191217422E+03  0.10194974338E+04  0.00000000000E+00 0.  1.
<mgrwt>
<rscale>  0 0.14732739E+04</rscale>
<asrwt>0</asrwt>
<pdfrwt beam="1">  1        3 0.24177208E+00 0.14732739E+04</pdfrwt>
<pdfrwt beam="2">  1       -3 0.53121964E-01 0.14732739E+04</pdfrwt>
<totfact> 0.73364777E-01</totfact>
</mgrwt>
</event>
<event>
 6    1  0.9512547E-007  0.3238857E+04  0.7818608E-02  0.8178630E-01
          2   -1    0    0  501    0  0.00000000000E+00  0.00000000000E+00  0.24176245362E+04  0.24176245362E+04  0.00000000000E+00 0. -1.
         -2   -1    0    0    0  501 -0.00000000000E+00 -0.00000000000E+00 -0.10847628705E+04  0.10847628705E+04  0.00000000000E+00 0.  1.
         23    2    1    2    0    0  0.10085277612E+04  0.81375332159E+03  0.17148208423E+04  0.21513820307E+04  0.92257289373E+02 0.  0.
         13    1    3    3    0    0  0.63999884511E+03  0.52062645733E+03  0.10172432584E+04  0.13097458825E+04  0.00000000000E+00 0. -1.
        -13    1    3    3    0    0  0.36852891610E+03  0.29312686426E+03  0.69757758384E+03  0.84163614824E+03  0.00000000000E+00 0.  1.
         22    1    1    2    0    0 -0.10085277612E+04 -0.81375332159E+03 -0.38195917651E+03  0.13510053760E+04  0.00000000000E+00 0.  1.
<mgrwt>
<rscale>  0 0.32388574E+04</rscale>
<asrwt>0</asrwt>
<pdfrwt beam="1">  1        2 0.37194224E+00 0.32388574E+04</pdfrwt>
<pdfrwt beam="2">  1       -2 0.16688660E+00 0.32388574E+04</pdfrwt>
<totfact> 0.73134522E-01</totfact>
</mgrwt>
</event>
<event>
 6    1  0.9512547E-007  0.4339123E+04  0.7818608E-02  0.7939423E-01
          2   -1    0    0  501    0  0.00000000000E+00  0.00000000000E+00  0.36326722592E+04  0.36326722592E+04  0.00000000000E+00 0. -1.
         -2   -1    0    0    0  501 -0.00000000000E+00 -0.00000000000E+00 -0.12957395128E+04  0.12957395128E+04  0.00000000000E+00 0.  1.
         23    2    1    2    0    0 -0.11915154893E+04 -0.11436088219E+04 -0.42739094887E+03  0.17083130482E+04  0.90111867079E+02 0.  0.
         11    1    3    3    0    0 -0.59387104031E+03 -0.50775174198E+03 -0.19909702191E+03  0.80630904010E+03  0.00000000000E+00 0.  1.
        -11    1    3    3    0    0 -0.59764444900E+03 -0.63585707992E+03 -0.22829392696E+03  0.90200400808E+03  0.00000000000E+00 0. -1.
         22    1    1    2    0    0  0.11915154893E+04  0.11436088219E+04  0.27643236953E+04  0.32200987238E+04  0.00000000000E+00 0. -1.
<mgrwt>
<rscale>  0 0.43391229E+04</rscale>
<asrwt>0</asrwt>
<pdfrwt beam="1">  1        2 0.55887265E+00 0.43391229E+04</pdfrwt>
<pdfrwt beam="2">  1       -2 0.19934454E+00 0.43391229E+04</pdfrwt>
<totfact> 0.67262263E-02</totfact>
</mgrwt>
</event>
<event>
 6    1  0.9512547E-007  0.5431159E+04  0.7818608E-02  0.7765233E-01
         -2   -1    0    0    0  501 -0.00000000000E+00  0.00000000000E+00  0.21380220026E+04  0.21380220026E+04  0.00000000000E+00 0.  1.
          2   -1    0    0  501    0  0.00000000000E+00 -0.00000000000E+00 -0.34491560295E+04  0.34491560295E+04  0.00000000000E+00 0. -1.
         23    2    1    2    0    0 -0.13313717583E+04  0.26787977327E+03 -0.30739964723E+04  0.33618703380E+04  0.91692561466E+02 0.  0.
         11    1    3    3    0    0 -0.11016884477E+04  0.23385535688E+03 -0.24644303720E+04  0.27095798239E+04  0.00000000000E+00 0. -1.
        -11    1    3    3    0    0 -0.22968331063E+03  0.34024416385E+02 -0.60956610036E+03  0.65229051411E+03  0.00000000000E+00 0.  1.
         22    1    1    2    0    0  0.13313717583E+04 -0.26787977327E+03  0.17628624454E+04  0.22253076941E+04  0.00000000000E+00 0.  1.
<mgrwt>
<rscale>  0 0.54311588E+04</rscale>
<asrwt>0</asrwt>
<pdfrwt beam="1">  1        2 0.53063939E+00 0.54311588E+04</pdfrwt>
<pdfrwt beam="2">  1       -2 0.32892646E+00 0.54311588E+04</pdfrwt>
<totfact> 0.13058582E-02</totfact>
</mgrwt>
</event>
<event>
 6    1  0.9512547E-007  0.9380479E+03  0.7818608E-02  0.9379231E-01
         -2   -1    0    0    0  501 -0.00000000000E+00  0.00000000000E+00  0.22408872667E+03  0.22408872667E+03  0.00000000000E+00 0.  1.
          2   -1    0    0  501    0  0.00000000000E+00 -0.00000000000E+00 -0.98168028152E+03  0.98168028152E+03  0.00000000000E+00 0. -1.
         23    2    1    2    0    0 -0.37855611783E+03  0.14286311284E+03 -0.67483094901E+03  0.79277515686E+03  0.96855749651E+02 0.  0.
         13    1    3    3    0    0 -0.26068386898E+03  0.58441007726E+02 -0.38375565367E+03  0.46758938467E+03  0.00000000000E+00 0.  1.
        -13    1    3    3    0    0 -0.11787224885E+03  0.84422105110E+02 -0.29107529534E+03  0.32518577220E+03  0.00000000000E+00 0. -1.
         22    1    1    2    0    0  0.37855611783E+03 -0.14286311284E+03 -0.82760605836E+02  0.41299385132E+03  0.00000000000E+00 0.  1.
<mgrwt>
<rscale>  0 0.93804794E+03</rscale>
<asrwt>0</asrwt>
<pdfrwt beam="1">  1        2 0.15102774E+00 0.93804794E+03</pdfrwt>
<pdfrwt beam="2">  1       -2 0.34475189E-01 0.93804794E+03</pdfrwt>
<totfact> 0.20410377E+02</totfact>
</mgrwt>
</event>
<event>
 6    1  0.9512547E-007  0.6870662E+03  0.7818608E-02  0.9739610E-01
          1   -1    0    0  501    0  0.00000000000E+00  0.00000000000E+00  0.20243645055E+04  0.20243645055E+04  0.00000000000E+00 0. -1.
         -1   -1    0    0    0  501 -0.00000000000E+00 -0.00000000000E+00 -0.58297308311E+02  0.58297308311E+02  0.00000000000E+00 0.  1.
         23    2    1    2    0    0 -0.15654189424E+03 -0.23171196035E+03  0.15737645299E+04  0.16008971617E+04  0.89113016584E+02 0.  0.
         13    1    3    3    0    0 -0.75755076030E+02 -0.12090927269E+03  0.55956470171E+03  0.57746908070E+03  0.00000000000E+00 0.  1.
        -13    1    3    3    0    0 -0.80786818206E+02 -0.11080268766E+03  0.10141998282E+04  0.10234280810E+04  0.00000000000E+00 0. -1.
         22    1    1    2    0    0  0.15654189424E+03  0.23171196035E+03  0.39230266734E+03  0.48176465211E+03  0.00000000000E+00 0.  1.
<mgrwt>
<rscale>  0 0.68706623E+03</rscale>
<asrwt>0</asrwt>
<pdfrwt beam="1">  1        1 0.31144064E+00 0.68706623E+03</pdfrwt>
<pdfrwt beam="2">  1       -1 0.89688182E-02 0.68706623E+03</pdfrwt>
<totfact> 0.22257320E+02</totfact>
</mgrwt>
</event>
<event>
 6    1  0.9512547E-007  0.2794130E+04  0.7818608E-02  0.8305093E-01
         -2   -1    0    0    0  501 -0.00000000000E+00  0.00000000000E+00  0.17097118503E+04  0.17097118503E+04  0.00000000000E+00 0.  1.
          2   -1    0    0  501    0  0.00000000000E+00 -0.00000000000E+00 -0.11415901130E+04  0.11415901130E+04  0.00000000000E+00 0. -1.
         23    2    1    2    0    0  0.18223946171E+03  0.10755946006E+04 -0.60355259149E+03  0.12503848202E+04  0.95244432014E+02 0.  0.
         13    1    3    3    0    0  0.82080626813E+02  0.40435187287E+03 -0.17822200256E+03  0.44944493388E+03  0.00000000000E+00 0. -1.
        -13    1    3    3    0    0  0.10015883490E+03  0.67124272770E+03 -0.42533058893E+03  0.80093988637E+03  0.00000000000E+00 0.  1.
         22    1    1    2    0    0 -0.18223946171E+03 -0.10755946006E+04  0.11716743287E+04  0.16009171430E+04  0.00000000000E+00 0.  1.
<mgrwt>
<rscale>  0 0.27941297E+04</rscale>
<asrwt>0</asrwt>
<pdfrwt beam="1">  1        2 0.17562925E+00 0.27941297E+04</pdfrwt>
<pdfrwt beam="2">  1       -2 0.26303259E+00 0.27941297E+04</pdfrwt>
<totfact> 0.95605958E-01</totfact>
</mgrwt>
</event>
<event>
 6    1  0.9512547E-007  0.3427978E+04  0.7818608E-02  0.8131073E-01
         -1   -1    0    0    0  501 -0.00000000000E+00  0.00000000000E+00  0.17413820248E+04  0.17413820248E+04  0.00000000000E+00 0.  1.
          1   -1    0    0  501    0  0.00000000000E+00 -0.00000000000E+00 -0.16870272608E+04  0.16870272608E+04  0.00000000000E+00 0. -1.
         23    2    1    2    0    0  0.14978789696E+04 -0.69450478247E+03 -0.42933855482E+03  0.17079623880E+04  0.82617333630E+02 0.  0.
         11    1    3    3    0    0  0.11700384378E+04 -0.57268973578E+03 -0.31800486210E+03  0.13409289957E+04  0.00000000000E+00 0. -1.
        -11    1    3    3    0    0  0.32784053184E+03 -0.12181504669E+03 -0.11133369272E+03  0.36703339229E+03  0.00000000000E+00 0.  1.
         22    1    1    2    0    0 -0.14978789696E+04  0.69450478247E+03  0.48369331884E+03  0.17204468975E+04  0.00000000000E+00 0.  1.
<mgrwt>
<rscale>  0 0.34279784E+04</rscale>
<asrwt>0</asrwt>
<pdfrwt beam="1">  1        1 0.25954265E+00 0.34279784E+04</pdfrwt>
<pdfrwt beam="2">  1       -1 0.26790493E+00 0.34279784E+04</pdfrwt>
<totfact> 0.21284283E-01</totfact>
</mgrwt>
</event>
<event>
 6    1  0.9512547E-007  0.1328019E+04  0.7818608E-02  0.9007636E-01
          2   -1    0    0  501    0  0.00000000000E+00  0.00000000000E+00  0.20813677467E+04  0.20813677467E+04  0.00000000000E+00 0. -1.
         -2   -1    0    0    0  501 -0.00000000000E+00 -0.00000000000E+00 -0.21183592948E+03  0.21183592948E+03  0.00000000000E+00 0.  1.
         23    2    1    2    0    0  0.60125165956E+03  0.27269634885E+03  0.88806004079E+03  0.11103453986E+04  0.91375113949E+02 0.  0.
         13    1    3    3    0    0  0.68078623053E+02  0.18246087569E+02  0.56715734222E+02  0.90467083167E+02  0.00000000000E+00 0.  1.
        -13    1    3    3    0    0  0.53317303651E+03  0.25445026128E+03  0.83134430657E+03  0.10198783155E+04  0.00000000000E+00 0. -1.
         22    1    1    2    0    0 -0.60125165956E+03 -0.27269634885E+03  0.98147177644E+03  0.11828582775E+04  0.00000000000E+00 0. -1.
<mgrwt>
<rscale>  0 0.13280188E+04</rscale>
<asrwt>0</asrwt>
<pdfrwt beam="1">  1        2 0.32021041E+00 0.13280188E+04</pdfrwt>
<pdfrwt beam="2">  1       -2 0.32590144E-01 0.13280188E+04</pdfrwt>
<totfact> 0.51731277E+01</totfact>
</mgrwt>
</event>
<event>
 6    1  0.9512547E-007  0.7847816E+03  0.7818608E-02  0.9582310E-01
          2   -1    0    0  501    0  0.00000000000E+00  0.00000000000E+00  0.87869227760E+03  0.87869227760E+03  0.00000000000E+00 0. -1.
         -2   -1    0    0    0  501 -0.00000000000E+00 -0.00000000000E+00 -0.17522690827E+03  0.17522690827E+03  0.00000000000E+00 0.  1.
         23    2    1    2    0    0  0.22782347518E+03 -0.13836796356E+03 -0.18789702054E+02  0.28404801656E+03  0.96337913741E+02 0.  0.
         11    1    3    3    0    0  0.28009392876E+02 -0.64316019557E+02 -0.28025675042E+00  0.70150944432E+02  0.00000000000E+00 0. -1.
        -11    1    3    3    0    0  0.19981408231E+03 -0.74051943999E+02 -0.18509445303E+02  0.21389707213E+03  0.00000000000E+00 0.  1.
         22    1    1    2    0    0 -0.22782347518E+03  0.13836796356E+03  0.72225507139E+03  0.76987116931E+03  0.00000000000E+00 0. -1.
<mgrwt>
<rscale>  0 0.78478158E+03</rscale>
<asrwt>0</asrwt>
<pdfrwt beam="1">  1        2 0.13518342E+00 0.78478158E+03</pdfrwt>
<pdfrwt beam="2">  1       -2 0.26957986E-01 0.78478158E+03</pdfrwt>
<totfact> 0.38061417E+02</totfact>
</mgrwt>
</event>
<event>
 6    1  0.9512547E-007  0.3132801E+04  0.7818608E-02  0.8206793E-01
         -2   -1    0    0    0  501 -0.00000000000E+00  0.00000000000E+00  0.65232898667E+03  0.65232898667E+03  0.00000000000E+00 0.  1.
          2   -1    0    0  501    0  0.00000000000E+00 -0.00000000000E+00 -0.37613078456E+04  0.37613078456E+04  0.00000000000E+00 0. -1.
         23    2    1    2    0    0  0.11352302429E+04  0.10773969153E+04 -0.15519136087E+04  0.22059267039E+04  0.90249413303E+02 0.  0.
         11    1    3    3    0    0  0.39763856966E+03  0.42580151147E+03 -0.54091207302E+03  0.79499008169E+03  0.00000000000E+00 0. -1.
        -11    1    3    3    0    0  0.73759167326E+03  0.65159540380E+03 -0.10110015357E+04  0.14109366222E+04  0.00000000000E+00 0.  1.
         22    1    1    2    0    0 -0.11352302429E+04 -0.10773969153E+04 -0.15570652503E+04  0.22077101284E+04  0.00000000000E+00 0. -1.
<mgrwt>
<rscale>  0 0.31328008E+04</rscale>
<asrwt>0</asrwt>
<pdfrwt beam="1">  1        2 0.57866275E+00 0.31328008E+04</pdfrwt>
<pdfrwt beam="2">  1       -2 0.10035831E+00 0.31328008E+04</pdfrwt>
<totfact> 0.36388164E-01</totfact>
</mgrwt>
</event>
<event>
 6    1  0.9512547E-007  0.4253413E+04  0.7818608E-02  0.7955289E-01
          2   -1    0    0  501    0  0.00000000000E+00  0.00000000000E+00  0.21275237855E+04  0.21275237855E+04  0.00000000000E+00 0. -1.
         -2   -1    0    0    0  501 -0.00000000000E+00 -0.00000000000E+00 -0.21258893158E+04  0.21258893158E+04  0.00000000000E+00 0.  1.
         23    2    1    2    0    0  0.28798222163E+03  0.93862834831E+03  0.18860162963E+04  0.21285950375E+04  0.99510943307E+02 0.  0.
         13    1    3    3    0    0  0.75980891122E+02  0.37830216931E+03  0.80400746105E+03  0.89180357958E+03  0.00000000000E+00 0. -1.
        -13    1    3    3    0    0  0.21200133051E+03  0.56032617900E+03  0.10820088352E+04  0.12367914579E+04  0.00000000000E+00 0.  1.
         22    1    1    2    0    0 -0.28798222163E+03 -0.93862834831E+03 -0.18843818265E+04  0.21248180638E+04  0.00000000000E+00 0.  1.
<mgrwt>
<rscale>  0 0.42534128E+04</rscale>
<asrwt>0</asrwt>
<pdfrwt beam="1">  1        2 0.32731135E+00 0.42534128E+04</pdfrwt>
<pdfrwt beam="2">  1       -2 0.32705990E+00 0.42534128E+04</pdfrwt>
<totfact> 0.94898319E-02</totfact>
</mgrwt>
</event>
<event>
 6    1  0.9512547E-007  0.2622860E+04  0.7818608E-02  0.8360478E-01
         -2   -1    0    0    0  501 -0.00000000000E+00  0.00000000000E+00  0.62053617843E+03  0.62053617843E+03  0.00000000000E+00 0.  1.
          2   -1    0    0  501    0  0.00000000000E+00 -0.00000000000E+00 -0.27715515476E+04  0.27715515476E+04  0.00000000000E+00 0. -1.
         23    2    1    2    0    0 -0.54619189649E+03  0.97914474106E+03 -0.19525903928E+04  0.22534822267E+04  0.92319511763E+02 0.  0.
         13    1    3    3    0    0 -0.37337812586E+03  0.60520079718E+03 -0.12989206315E+04  0.14808355873E+04  0.00000000000E+00 0. -1.
        -13    1    3    3    0    0 -0.17281377063E+03  0.37394394388E+03 -0.65366976134E+03  0.77264663940E+03  0.00000000000E+00 0.  1.
         22    1    1    2    0    0  0.54619189649E+03 -0.97914474106E+03 -0.19842497630E+03  0.11386054993E+04  0.00000000000E+00 0. -1.
<mgrwt>
<rscale>  0 0.26228595E+04</rscale>
<asrwt>0</asrwt>
<pdfrwt beam="1">  1        2 0.42639255E+00 0.26228595E+04</pdfrwt>
<pdfrwt beam="2">  1       -2 0.95467104E-01 0.26228595E+04</pdfrwt>
<totfact> 0.19565656E+00</totfact>
</mgrwt>
</event>
<event>
 6    1  0.9512547E-007  0.2541618E+04  0.7818608E-02  0.8388307E-01
         -2   -1    0    0    0  501 -0.00000000000E+00  0.00000000000E+00  0.12994664841E+04  0.12994664841E+04  0.00000000000E+00 0.  1.
          2   -1    0    0  501    0  0.00000000000E+00 -0.00000000000E+00 -0.12427832812E+04  0.12427832812E+04  0.00000000000E+00 0. -1.
         23    2    1    2    0    0  0.14979657151E+03 -0.10770380324E+04 -0.62575127097E+03  0.12584402984E+04  0.98272047800E+02 0.  0.
         13    1    3    3    0    0  0.89196356160E+02 -0.90464119447E+03 -0.51562430423E+03  0.10450837784E+04  0.00000000000E+00 0. -1.
        -13    1    3    3    0    0  0.60600215348E+02 -0.17239683796E+03 -0.11012696674E+03  0.21335652004E+03  0.00000000000E+00 0.  1.
         22    1    1    2    0    0 -0.14979657151E+03  0.10770380324E+04  0.68243447390E+03  0.12838094669E+04  0.00000000000E+00 0.  1.
<mgrwt>
<rscale>  0 0.25416178E+04</rscale>
<asrwt>0</asrwt>
<pdfrwt beam="1">  1        2 0.19119743E+00 0.25416178E+04</pdfrwt>
<pdfrwt beam="2">  1       -2 0.19991792E+00 0.25416178E+04</pdfrwt>
<totfact> 0.21142104E+00</totfact>
</mgrwt>
</event>
<event>
 6    1  0.9512547E-007  0.4369305E+03  0.7818608E-02  0.1031693E+00
          1   -1    0    0  501    0  0.00000000000E+00  0.00000000000E+00  0.15116144734E+03  0.15116144734E+03  0.00000000000E+00 0. -1.
         -1   -1    0    0    0  501 -0.00000000000E+00 -0.00000000000E+00 -0.31573577148E+03  0.31573577148E+03  0.00000000000E+00 0.  1.
         23    2    1    2    0    0 -0.46352522039E+02 -0.20356191896E+03 -0.82967015384E+02  0.24274154972E+03  0.91945218289E+02 0.  0.
         13    1    3    3    0    0 -0.14674737537E+02 -0.16419927636E+03 -0.26501176159E+02  0.16697024471E+03  0.00000000000E+00 0. -1.
        -13    1    3    3    0    0 -0.31677784502E+02 -0.39362642599E+02 -0.56465839225E+02  0.75771305009E+02  0.00000000000E+00 0.  1.
         22    1    1    2    0    0  0.46352522039E+02  0.20356191896E+03 -0.81607308755E+02  0.22415566911E+03  0.00000000000E+00 0. -1.
<mgrwt>
<rscale>  0 0.43693055E+03</rscale>
<asrwt>0</asrwt>
<pdfrwt beam="1">  1        1 0.23255608E-01 0.43693055E+03</pdfrwt>
<pdfrwt beam="2">  1       -1 0.48574733E-01 0.43693055E+03</pdfrwt>
<totfact> 0.91391337E+02</totfact>
</mgrwt>
</event>
<event>
 6    1  0.9609781E-007  0.3681590E+04  0.7818608E-02  0.8072054E-01
         -1   -1    0    0    0  501 -0.00000000000E+00  0.00000000000E+00  0.13479431374E+04  0.13479431374E+04  0.00000000000E+00 0.  1.
          1   -1    0    0  501    0  0.00000000000E+00 -0.00000000000E+00 -0.25138493277E+04  0.25138493277E+04  0.00000000000E+00 0. -1.
         23    2    1    2    0    0  0.48312314548E+03  0.73949796429E+03 -0.22758713179E+04  0.24432411627E+04  0.97836141222E+02 0.  0.
         13    1    3    3    0    0  0.34115899113E+03  0.54164250658E+03 -0.15261266522E+04  0.16549406699E+04  0.00000000000E+00 0. -1.
        -13    1    3    3    0    0  0.14196415436E+03  0.19785545771E+03 -0.74974466573E+03  0.78830049287E+03  0.00000000000E+00 0.  1.
         22    1    1    2    0    0 -0.48312314548E+03 -0.73949796429E+03  0.11099651277E+04  0.14185513024E+04  0.00000000000E+00 0.  1.
<mgrwt>
<rscale>  0 0.36815898E+04</rscale>
<asrwt>0</asrwt>
<pdfrwt beam="1">  1        1 0.38674605E+00 0.36815898E+04</pdfrwt>
<pdfrwt beam="2">  1       -1 0.20737587E+00 0.36815898E+04</pdfrwt>
<totfact> 0.14261613E-01</totfact>
</mgrwt>
</event>
<event>
 6    1  0.9512547E-007  0.1858246E+04  0.7818608E-02  0.8675924E-01
         -2   -1    0    0    0  501 -0.00000000000E+00  0.00000000000E+00  0.55597712762E+03  0.55597712762E+03  0.00000000000E+00 0.  1.
          2   -1    0    0  501    0  0.00000000000E+00 -0.00000000000E+00 -0.15527073261E+04  0.15527073261E+04  0.00000000000E+00 0. -1.
         23    2    1    2    0    0 -0.23778462550E+03 -0.88106671707E+03 -0.68313334956E+03  0.11437165414E+04  0.92716049450E+02 0.  0.
         11    1    3    3    0    0 -0.41513146039E+02 -0.16681780677E+03 -0.85685160044E+02  0.19207672582E+03  0.00000000000E+00 0. -1.
        -11    1    3    3    0    0 -0.19627147946E+03 -0.71424891029E+03 -0.59744818952E+03  0.95163981562E+03  0.00000000000E+00 0.  1.
         22    1    1    2    0    0  0.23778462550E+03  0.88106671707E+03 -0.31359684890E+03  0.96496791226E+03  0.00000000000E+00 0.  1.
<mgrwt>
<rscale>  0 0.18582462E+04</rscale>
<asrwt>0</asrwt>
<pdfrwt beam="1">  1        2 0.23887805E+00 0.18582462E+04</pdfrwt>
<pdfrwt beam="2">  1       -2 0.85534943E-01 0.18582462E+04</pdfrwt>
<totfact> 0.13231463E+01</totfact>
</mgrwt>
</event>
<event>
 6    1  0.9512547E-007  0.3362131E+04  0.7818608E-02  0.8147264E-01
          2   -1    0    0  501    0  0.00000000000E+00  0.00000000000E+00  0.20315001193E+04  0.20315001193E+04  0.00000000000E+00 0. -1.
         -2   -1    0    0    0  501 -0.00000000000E+00 -0.00000000000E+00 -0.13910809457E+04  0.13910809457E+04  0.00000000000E+00 0.  1.
         23    2    1    2    0    0  0.14997691061E+04  0.67726684214E+03 -0.23174598169E+02  0.16482207744E+04  0.89982843378E+02 0.  0.
         13    1    3    3    0    0  0.56066236948E+03  0.20624735210E+03 -0.20140012562E+01  0.59739795697E+03  0.00000000000E+00 0.  1.
        -13    1    3    3    0    0  0.93910673661E+03  0.47101949005E+03 -0.21160596913E+02  0.10508228174E+04  0.00000000000E+00 0. -1.
         22    1    1    2    0    0 -0.14997691061E+04 -0.67726684214E+03  0.66359377171E+03  0.17743602906E+04  0.00000000000E+00 0. -1.
<mgrwt>
<rscale>  0 0.33621309E+04</rscale>
<asrwt>0</asrwt>
<pdfrwt beam="1">  1        2 0.31253848E+00 0.33621309E+04</pdfrwt>
<pdfrwt beam="2">  1       -2 0.21401245E+00 0.33621309E+04</pdfrwt>
<totfact> 0.57543710E-01</totfact>
</mgrwt>
</event>
<event>
 6    1  0.9512547E-007  0.4096743E+03  0.7818608E-02  0.1040480E+00
          2   -1    0    0  501    0  0.00000000000E+00  0.00000000000E+00  0.34370064469E+04  0.34370064469E+04  0.00000000000E+00 0. -1.
         -2   -1    0    0    0  501 -0.00000000000E+00 -0.00000000000E+00 -0.12207791758E+02  0.12207791758E+02  0.00000000000E+00 0.  1.
         23    2    1    2    0    0 -0.41385034957E+02  0.52196233554E+02  0.33372820521E+04  0.33392309502E+04  0.92599546930E+02 0.  0.
         13    1    3    3    0    0 -0.62373198922E+02  0.28467572288E+02  0.13887810760E+04  0.13904724721E+04  0.00000000000E+00 0.  1.
        -13    1    3    3    0    0  0.20988163966E+02  0.23728661265E+02  0.19485009761E+04  0.19487584781E+04  0.00000000000E+00 0. -1.
         22    1    1    2    0    0  0.41385034957E+02 -0.52196233554E+02  0.87516603043E+02  0.10998328838E+03  0.00000000000E+00 0.  1.
<mgrwt>
<rscale>  0 0.40967430E+03</rscale>
<asrwt>0</asrwt>
<pdfrwt beam="1">  1        2 0.52876945E+00 0.40967430E+03</pdfrwt>
<pdfrwt beam="2">  1       -2 0.18781245E-02 0.40967430E+03</pdfrwt>
<totfact> 0.92343750E+02</totfact>
</mgrwt>
</event>
<event>
 6    1  0.9512547E-007  0.3654821E+04  0.7818608E-02  0.8078048E-01
         -2   -1    0    0    0  501 -0.00000000000E+00  0.00000000000E+00  0.20348619469E+04  0.20348619469E+04  0.00000000000E+00 0.  1.
          2   -1    0    0  501    0  0.00000000000E+00 -0.00000000000E+00 -0.16411087359E+04  0.16411087359E+04  0.00000000000E+00 0. -1.
         23    2    1    2    0    0 -0.16215853246E+04  0.34429548592E+03  0.96762170840E+03  0.19217177368E+04  0.92892102353E+02 0.  0.
         13    1    3    3    0    0 -0.88453336046E+03  0.16979678769E+03  0.47597396204E+03  0.10187155773E+04  0.00000000000E+00 0. -1.
        -13    1    3    3    0    0 -0.73705196411E+03  0.17449869822E+03  0.49164774636E+03  0.90300215946E+03  0.00000000000E+00 0.  1.
         22    1    1    2    0    0  0.16215853246E+04 -0.34429548592E+03 -0.57386849743E+03  0.17542529461E+04  0.00000000000E+00 0. -1.
<mgrwt>
<rscale>  0 0.36548213E+04</rscale>
<asrwt>0</asrwt>
<pdfrwt beam="1">  1        2 0.25247827E+00 0.36548213E+04</pdfrwt>
<pdfrwt beam="2">  1       -2 0.31305568E+00 0.36548213E+04</pdfrwt>
<totfact> 0.22675983E-01</totfact>
</mgrwt>
</event>
<event>
 6    1  0.9512547E-007  0.3060091E+04  0.7818608E-02  0.8226777E-01
          2   -1    0    0  501    0  0.00000000000E+00  0.00000000000E+00  0.16916545149E+04  0.16916545149E+04  0.00000000000E+00 0. -1.
         -2   -1    0    0    0  501 -0.00000000000E+00 -0.00000000000E+00 -0.13838755068E+04  0.13838755068E+04  0.00000000000E+00 0.  1.
         23    2    1    2    0    0 -0.54627667641E+03 -0.19198837137E+03 -0.12679305875E+04  0.13967988128E+04  0.90117737363E+02 0.  0.
         11    1    3    3    0    0 -0.26072057815E+03 -0.48662447344E+02 -0.52956028459E+03  0.59226459346E+03  0.00000000000E+00 0.  1.
        -11    1    3    3    0    0 -0.28555609827E+03 -0.14332592402E+03 -0.73837030295E+03  0.80453421931E+03  0.00000000000E+00 0. -1.
         22    1    1    2    0    0  0.54627667641E+03  0.19198837137E+03  0.15757095957E+04  0.16787312090E+04  0.00000000000E+00 0. -1.
<mgrwt>
<rscale>  0 0.30600910E+04</rscale>
<asrwt>0</asrwt>
<pdfrwt beam="1">  1        2 0.26025454E+00 0.30600910E+04</pdfrwt>
<pdfrwt beam="2">  1       -2 0.21290392E+00 0.30600910E+04</pdfrwt>
<totfact> 0.92624450E-01</totfact>
</mgrwt>
</event>
<event>
 6    1  0.9512547E-007  0.3923302E+04  0.7818608E-02  0.8020200E-01
         -2   -1    0    0    0  501 -0.00000000000E+00  0.00000000000E+00  0.13252172751E+04  0.13252172751E+04  0.00000000000E+00 0.  1.
          2   -1    0    0  501    0  0.00000000000E+00 -0.00000000000E+00 -0.29037307443E+04  0.29037307443E+04  0.00000000000E+00 0. -1.
         23    2    1    2    0    0 -0.18465448787E+04  0.60046825556E+03 -0.49781404607E+03  0.20067416028E+04  0.94355291402E+02 0.  0.
         11    1    3    3    0    0 -0.11809204241E+04  0.43143595769E+03 -0.32164069994E+03  0.12977529709E+04  0.00000000000E+00 0.  1.
        -11    1    3    3    0    0 -0.66562445461E+03  0.16903229787E+03 -0.17617334613E+03  0.70898863191E+03  0.00000000000E+00 0. -1.
         22    1    1    2    0    0  0.18465448787E+04 -0.60046825556E+03 -0.10806994231E+04  0.22222064166E+04  0.00000000000E+00 0. -1.
<mgrwt>
<rscale>  0 0.39233017E+04</rscale>
<asrwt>0</asrwt>
<pdfrwt beam="1">  1        2 0.44672781E+00 0.39233017E+04</pdfrwt>
<pdfrwt beam="2">  1       -2 0.20387958E+00 0.39233017E+04</pdfrwt>
<totfact> 0.19891206E-01</totfact>
</mgrwt>
</event>
<event>
 6    1  0.9512547E-007  0.2930485E+04  0.7818608E-02  0.8263865E-01
          1   -1    0    0  501    0  0.00000000000E+00  0.00000000000E+00  0.13330213136E+04  0.13330213136E+04  0.00000000000E+00 0. -1.
         -1   -1    0    0    0  501 -0.00000000000E+00 -0.00000000000E+00 -0.16105783289E+04  0.16105783289E+04  0.00000000000E+00 0.  1.
         23    2    1    2    0    0 -0.10212605430E+04 -0.95584974708E+03 -0.57187362069E+03  0.15141787458E+04  0.95268046014E+02 0.  0.
         11    1    3    3    0    0 -0.40754904533E+03 -0.41301843047E+03 -0.28141617615E+03  0.64488410777E+03  0.00000000000E+00 0.  1.
        -11    1    3    3    0    0 -0.61371149765E+03 -0.54283131662E+03 -0.29045744454E+03  0.86929463804E+03  0.00000000000E+00 0. -1.
         22    1    1    2    0    0  0.10212605430E+04  0.95584974708E+03  0.29431660544E+03  0.14294208967E+04  0.00000000000E+00 0. -1.
<mgrwt>
<rscale>  0 0.29304848E+04</rscale>
<asrwt>0</asrwt>
<pdfrwt beam="1">  1        1 0.20508020E+00 0.29304848E+04</pdfrwt>
<pdfrwt beam="2">  1       -1 0.24778128E+00 0.29304848E+04</pdfrwt>
<totfact> 0.52878230E-01</totfact>
</mgrwt>
</event>
<event>
 6    1  0.9512547E-007  0.3281607E+04  0.7818608E-02  0.8167591E-01
         -2   -1    0    0    0  501 -0.00000000000E+00  0.00000000000E+00  0.74884127700E+03  0.74884127700E+03  0.00000000000E+00 0.  1.
          2   -1    0    0  501    0  0.00000000000E+00 -0.00000000000E+00 -0.35952035132E+04  0.35952035132E+04  0.00000000000E+00 0. -1.
         23    2    1    2    0    0  0.15772142877E+04  0.43574747903E+02 -0.83413008616E+03  0.17869796965E+04  0.89553151621E+02 0.  0.
         11    1    3    3    0    0  0.89463873866E+03  0.67110836732E+01 -0.51856325200E+03  0.10340847923E+04  0.00000000000E+00 0. -1.
        -11    1    3    3    0    0  0.68257554904E+03  0.36863664229E+02 -0.31556683416E+03  0.75289490416E+03  0.00000000000E+00 0.  1.
         22    1    1    2    0    0 -0.15772142877E+04 -0.43574747903E+02 -0.20122321500E+04  0.25570650937E+04  0.00000000000E+00 0. -1.
<mgrwt>
<rscale>  0 0.32816074E+04</rscale>
<asrwt>0</asrwt>
<pdfrwt beam="1">  1        2 0.55310822E+00 0.32816074E+04</pdfrwt>
<pdfrwt beam="2">  1       -2 0.11520635E+00 0.32816074E+04</pdfrwt>
<totfact> 0.34120743E-01</totfact>
</mgrwt>
</event>
<event>
 6    1  0.9512547E-007  0.4149064E+04  0.7818608E-02  0.7975133E-01
          2   -1    0    0  501    0  0.00000000000E+00  0.00000000000E+00  0.17029610896E+04  0.17029610896E+04  0.00000000000E+00 0. -1.
         -2   -1    0    0    0  501 -0.00000000000E+00 -0.00000000000E+00 -0.25271761595E+04  0.25271761595E+04  0.00000000000E+00 0.  1.
         23    2    1    2    0    0 -0.15450869902E+04 -0.33168292604E+03  0.95634474796E+03  0.18494439392E+04  0.92413400903E+02 0.  0.
         11    1    3    3    0    0 -0.10485151309E+04 -0.21368303448E+03  0.59817326123E+03  0.12259101392E+04  0.00000000000E+00 0. -1.
        -11    1    3    3    0    0 -0.49657185924E+03 -0.11799989155E+03  0.35817148673E+03  0.62353379997E+03  0.00000000000E+00 0.  1.
         22    1    1    2    0    0  0.15450869902E+04  0.33168292604E+03 -0.17805598179E+04  0.23806933099E+04  0.00000000000E+00 0.  1.
<mgrwt>
<rscale>  0 0.41490638E+04</rscale>
<asrwt>0</asrwt>
<pdfrwt beam="1">  1        2 0.26199401E+00 0.41490638E+04</pdfrwt>
<pdfrwt beam="2">  1       -2 0.38879633E+00 0.41490638E+04</pdfrwt>
<totfact> 0.66852171E-02</totfact>
</mgrwt>
</event>
<event>
 6    1  0.9512547E-007  0.2250208E+04  0.7818608E-02  0.8497816E-01
          1   -1    0    0  501    0  0.00000000000E+00  0.00000000000E+00  0.19945722218E+04  0.19945722218E+04  0.00000000000E+00 0. -1.
         -1   -1    0    0    0  501 -0.00000000000E+00 -0.00000000000E+00 -0.63465201045E+03  0.63465201045E+03  0.00000000000E+00 0.  1.
         23    2    1    2    0    0  0.10414573949E+04 -0.34468519767E+03  0.96330917383E+03  0.14627158928E+04  0.90176647852E+02 0.  0.
         11    1    3    3    0    0  0.72419219259E+03 -0.19636344858E+03  0.66794177162E+03  0.10045691345E+04  0.00000000000E+00 0. -1.
        -11    1    3    3    0    0  0.31726520231E+03 -0.14832174909E+03  0.29536740221E+03  0.45814675830E+03  0.00000000000E+00 0.  1.
         22    1    1    2    0    0 -0.10414573949E+04  0.34468519767E+03  0.39661103751E+03  0.11665083394E+04  0.00000000000E+00 0. -1.
<mgrwt>
<rscale>  0 0.22502082E+04</rscale>
<asrwt>0</asrwt>
<pdfrwt beam="1">  1        1 0.30685726E+00 0.22502082E+04</pdfrwt>
<pdfrwt beam="2">  1       -1 0.97638772E-01 0.22502082E+04</pdfrwt>
<totfact> 0.27453829E+00</totfact>
</mgrwt>
</event>
<event>
 6    1  0.9512547E-007  0.1236042E+04  0.7818608E-02  0.9081881E-01
         -2   -1    0    0    0  501 -0.00000000000E+00  0.00000000000E+00  0.96141588185E+03  0.96141588185E+03  0.00000000000E+00 0.  1.
          2   -1    0    0  501    0  0.00000000000E+00 -0.00000000000E+00 -0.39727888319E+03  0.39727888319E+03  0.00000000000E+00 0. -1.
         23    2    1    2    0    0 -0.19967929341E+03 -0.41865977756E+01 -0.35531629451E+03  0.41779960291E+03  0.91746886749E+02 0.  0.
         11    1    3    3    0    0 -0.56035547318E+02 -0.21652675182E+01 -0.33367883594E+02  0.65254015985E+02  0.00000000000E+00 0. -1.
        -11    1    3    3    0    0 -0.14364374609E+03 -0.20213302574E+01 -0.32194841092E+03  0.35254558692E+03  0.00000000000E+00 0.  1.
         22    1    1    2    0    0  0.19967929341E+03  0.41865977756E+01  0.91945329316E+03  0.94089516213E+03  0.00000000000E+00 0.  1.
<mgrwt>
<rscale>  0 0.12360424E+04</rscale>
<asrwt>0</asrwt>
<pdfrwt beam="1">  1        2 0.61119828E-01 0.12360424E+04</pdfrwt>
<pdfrwt beam="2">  1       -2 0.14791014E+00 0.12360424E+04</pdfrwt>
<totfact> 0.24505591E+01</totfact>
</mgrwt>
</event>
<event>
 6    1  0.9512547E-007  0.2438238E+04  0.7818608E-02  0.8425325E-01
          1   -1    0    0  501    0  0.00000000000E+00  0.00000000000E+00  0.13868661385E+04  0.13868661385E+04  0.00000000000E+00 0. -1.
         -1   -1    0    0    0  501 -0.00000000000E+00 -0.00000000000E+00 -0.10716612454E+04  0.10716612454E+04  0.00000000000E+00 0.  1.
         23    2    1    2    0    0  0.21708586484E+03 -0.99437617031E+03  0.83122015204E+03  0.13173954948E+04  0.93240055120E+02 0.  0.
         13    1    3    3    0    0  0.17474316167E+03 -0.70031630482E+03  0.63498076323E+03  0.96134211862E+03  0.00000000000E+00 0. -1.
        -13    1    3    3    0    0  0.42342703171E+02 -0.29405986548E+03  0.19623938881E+03  0.35605337622E+03  0.00000000000E+00 0.  1.
         22    1    1    2    0    0 -0.21708586484E+03  0.99437617031E+03 -0.51601525890E+03  0.11411318890E+04  0.00000000000E+00 0.  1.
<mgrwt>
<rscale>  0 0.24382376E+04</rscale>
<asrwt>0</asrwt>
<pdfrwt beam="1">  1        1 0.21336402E+00 0.24382376E+04</pdfrwt>
<pdfrwt beam="2">  1       -1 0.16487096E+00 0.24382376E+04</pdfrwt>
<totfact> 0.18827933E+00</totfact>
</mgrwt>
</event>
<event>
 6    1  0.9512547E-007  0.1227936E+04  0.7818608E-02  0.9088749E-01
         -2   -1    0    0    0  501 -0.00000000000E+00  0.00000000000E+00  0.50649341119E+03  0.50649341119E+03  0.00000000000E+00 0.  1.
          2   -1    0    0  501    0  0.00000000000E+00 -0.00000000000E+00 -0.74424838434E+03  0.74424838434E+03  0.00000000000E+00 0. -1.
         23    2    1    2    0    0 -0.15737525872E+03  0.52317224222E+03 -0.39756786884E+03  0.68151747356E+03  0.89048803158E+02 0.  0.
         13    1    3    3    0    0  0.27931199596E+01  0.95186145989E+02 -0.51270354154E+02  0.10815199084E+03  0.00000000000E+00 0. -1.
        -13    1    3    3    0    0 -0.16016837868E+03  0.42798609623E+03 -0.34629751469E+03  0.57336548272E+03  0.00000000000E+00 0.  1.
         22    1    1    2    0    0  0.15737525872E+03 -0.52317224222E+03  0.15981289569E+03  0.56922432196E+03  0.00000000000E+00 0.  1.
<mgrwt>
<rscale>  0 0.12279363E+04</rscale>
<asrwt>0</asrwt>
<pdfrwt beam="1">  1        2 0.11449975E+00 0.12279363E+04</pdfrwt>
<pdfrwt beam="2">  1       -2 0.77922063E-01 0.12279363E+04</pdfrwt>
<totfact> 0.54732957E+01</totfact>
</mgrwt>
</event>
<event>
 6    1  0.9512547E-007  0.7511818E+03  0.7818608E-02  0.9633498E-01
          2   -1    0    0  501    0  0.00000000000E+00  0.00000000000E+00  0.28541787566E+04  0.28541787566E+04  0.00000000000E+00 0. -1.
         -2   -1    0    0    0  501 -0.00000000000E+00 -0.00000000000E+00 -0.49425253713E+02  0.49425253713E+02  0.00000000000E+00 0.  1.
         23    2    1    2    0    0  0.25745016246E+03 -0.26589771978E+03  0.14195508265E+04  0.14698088234E+04  0.90726206744E+02 0.  0.
         13    1    3    3    0    0  0.10640017440E+03 -0.15111818131E+03  0.83636839749E+03  0.85654526919E+03  0.00000000000E+00 0.  1.
        -13    1    3    3    0    0  0.15104998806E+03 -0.11477953847E+03  0.58318242903E+03  0.61326355417E+03  0.00000000000E+00 0. -1.
         22    1    1    2    0    0 -0.25745016246E+03  0.26589771978E+03  0.13852026763E+04  0.14337951869E+04  0.00000000000E+00 0.  1.
<mgrwt>
<rscale>  0 0.75118176E+03</rscale>
<asrwt>0</asrwt>
<pdfrwt beam="1">  1        2 0.43910429E+00 0.75118176E+03</pdfrwt>
<pdfrwt beam="2">  1       -2 0.76038874E-02 0.75118176E+03</pdfrwt>
<totfact> 0.24011656E+02</totfact>
</mgrwt>
</event>
<event>
 6    1  0.1442683E-006  0.4029975E+04  0.7818608E-02  0.7998527E-01
         -2   -1    0    0    0  501 -0.00000000000E+00  0.00000000000E+00  0.14660513203E+04  0.14660513203E+04  0.00000000000E+00 0.  1.
          2   -1    0    0  501    0  0.00000000000E+00 -0.00000000000E+00 -0.27694621411E+04  0.27694621411E+04  0.00000000000E+00 0. -1.
         23    2    1    2    0    0  0.19596268586E+04 -0.46319567590E+03 -0.61422376105E+03  0.21072121523E+04  0.91567281375E+02 0.  0.
         11    1    3    3    0    0  0.81099747655E+03 -0.14558831424E+03 -0.25483182595E+03  0.86246862188E+03  0.00000000000E+00 0.  1.
        -11    1    3    3    0    0  0.11486293821E+04 -0.31760736166E+03 -0.35939193510E+03  0.12447435304E+04  0.00000000000E+00 0. -1.
         22    1    1    2    0    0 -0.19596268586E+04  0.46319567590E+03 -0.68918705975E+03  0.21283013092E+04  0.00000000000E+00 0.  1.
<mgrwt>
<rscale>  0 0.40299745E+04</rscale>
<asrwt>0</asrwt>
<pdfrwt beam="1">  1        2 0.42607110E+00 0.40299745E+04</pdfrwt>
<pdfrwt beam="2">  1       -2 0.22554636E+00 0.40299745E+04</pdfrwt>
<totfact> 0.17308971E-01</totfact>
</mgrwt>
</event>
<event>
 6    1  0.9512547E-007  0.2137858E+04  0.7818608E-02  0.8544748E-01
         -1   -1    0    0    0  501 -0.00000000000E+00  0.00000000000E+00  0.27129200325E+03  0.27129200325E+03  0.00000000000E+00 0.  1.
          1   -1    0    0  501    0  0.00000000000E+00 -0.00000000000E+00 -0.42117323952E+04  0.42117323952E+04  0.00000000000E+00 0. -1.
         23    2    1    2    0    0  0.41156273134E+03  0.86031908460E+03 -0.29770547672E+04  0.31274268656E+04  0.91710978149E+02 0.  0.
         11    1    3    3    0    0  0.15447379623E+03  0.42409663878E+03 -0.13582663388E+04  0.14312957626E+04  0.00000000000E+00 0.  1.
        -11    1    3    3    0    0  0.25708893511E+03  0.43622244582E+03 -0.16187884284E+04  0.16961311030E+04  0.00000000000E+00 0. -1.
         22    1    1    2    0    0 -0.41156273134E+03 -0.86031908460E+03 -0.96338562477E+03  0.13555975329E+04  0.00000000000E+00 0.  1.
<mgrwt>
<rscale>  0 0.21378581E+04</rscale>
<asrwt>0</asrwt>
<pdfrwt beam="1">  1        1 0.64795882E+00 0.21378581E+04</pdfrwt>
<pdfrwt beam="2">  1       -1 0.41737232E-01 0.21378581E+04</pdfrwt>
<totfact> 0.32102219E-01</totfact>
</mgrwt>
</event>
<event>
 6    1  0.9512547E-007  0.1706964E+04  0.7818608E-02  0.8757403E-01
          2   -1    0    0  501    0  0.00000000000E+00  0.00000000000E+00  0.16509234641E+04  0.16509234641E+04  0.00000000000E+00 0. -1.
         -2   -1    0    0    0  501 -0.00000000000E+00 -0.00000000000E+00 -0.44122654248E+03  0.44122654248E+03  0.00000000000E+00 0.  1.
         23    2    1    2    0    0 -0.41258130732E+03 -0.93530947180E+02  0.15117318738E+04  0.15723457304E+04  0.89255051247E+02 0.  0.
         13    1    3    3    0    0 -0.16608926140E+03 -0.26501924267E+02  0.76035616593E+03  0.77873583057E+03  0.00000000000E+00 0.  1.
        -13    1    3    3    0    0 -0.24649204592E+03 -0.67029022913E+02  0.75137570792E+03  0.79360989980E+03  0.00000000000E+00 0. -1.
         22    1    1    2    0    0  0.41258130732E+03  0.93530947180E+02 -0.30203495221E+03  0.51980427623E+03  0.00000000000E+00 0.  1.
<mgrwt>
<rscale>  0 0.17069637E+04</rscale>
<asrwt>0</asrwt>
<pdfrwt beam="1">  1        2 0.25398822E+00 0.17069637E+04</pdfrwt>
<pdfrwt beam="2">  1       -2 0.67881008E-01 0.17069637E+04</pdfrwt>
<totfact> 0.19741965E+01</totfact>
</mgrwt>
</event>
<event>
 6    1  0.9512547E-007  0.2439459E+04  0.7818608E-02  0.8424877E-01
         -1   -1    0    0    0  501 -0.00000000000E+00  0.00000000000E+00  0.78287881520E+03  0.78287881520E+03  0.00000000000E+00 0.  1.
          1   -1    0    0  501    0  0.00000000000E+00 -0.00000000000E+00 -0.19003447136E+04  0.19003447136E+04  0.00000000000E+00 0. -1.
         23    2    1    2    0    0 -0.10294383808E+04  0.63353103795E+03 -0.39529601551E+03  0.12751630558E+04  0.93150002756E+02 0.  0.
         13    1    3    3    0    0 -0.63599556693E+03  0.36864830631E+03 -0.28334685608E+03  0.78783080402E+03  0.00000000000E+00 0.  1.
        -13    1    3    3    0    0 -0.39344281388E+03  0.26488273163E+03 -0.11194915943E+03  0.48733225176E+03  0.00000000000E+00 0. -1.
         22    1    1    2    0    0  0.10294383808E+04 -0.63353103795E+03 -0.72216988290E+03  0.14080604730E+04  0.00000000000E+00 0. -1.
<mgrwt>
<rscale>  0 0.24394586E+04</rscale>
<asrwt>0</asrwt>
<pdfrwt beam="1">  1        1 0.29236072E+00 0.24394586E+04</pdfrwt>
<pdfrwt beam="2">  1       -1 0.12044290E+00 0.24394586E+04</pdfrwt>
<totfact> 0.19076692E+00</totfact>
</mgrwt>
</event>
<event>
 6    1  0.9512547E-007  0.3474860E+04  0.7818608E-02  0.8119774E-01
         -1   -1    0    0    0  501 -0.00000000000E+00  0.00000000000E+00  0.22173641788E+04  0.22173641788E+04  0.00000000000E+00 0.  1.
          1   -1    0    0  501    0  0.00000000000E+00 -0.00000000000E+00 -0.13613740969E+04  0.13613740969E+04  0.00000000000E+00 0. -1.
         23    2    1    2    0    0  0.35068576103E+03 -0.10813937049E+04 -0.92317885322E+03  0.14673797208E+04  0.92472708948E+02 0.  0.
         13    1    3    3    0    0  0.18618046538E+03 -0.71628160337E+03 -0.60530307406E+03  0.95609325512E+03  0.00000000000E+00 0. -1.
        -13    1    3    3    0    0  0.16450529565E+03 -0.36511210155E+03 -0.31787577916E+03  0.51128646566E+03  0.00000000000E+00 0.  1.
         22    1    1    2    0    0 -0.35068576103E+03  0.10813937049E+04  0.17791689351E+04  0.21113585550E+04  0.00000000000E+00 0.  1.
<mgrwt>
<rscale>  0 0.34748595E+04</rscale>
<asrwt>0</asrwt>
<pdfrwt beam="1">  1        1 0.20944217E+00 0.34748595E+04</pdfrwt>
<pdfrwt beam="2">  1       -1 0.34113295E+00 0.34748595E+04</pdfrwt>
<totfact> 0.11889803E-01</totfact>
</mgrwt>
</event>
<event>
 6    1  0.1959995E-006  0.3238846E+04  0.7818608E-02  0.8178633E-01
          2   -1    0    0  501    0  0.00000000000E+00  0.00000000000E+00  0.23872370867E+04  0.23872370867E+04  0.00000000000E+00 0. -1.
         -2   -1    0    0    0  501 -0.00000000000E+00 -0.00000000000E+00 -0.10985630772E+04  0.10985630772E+04  0.00000000000E+00 0.  1.
         23    2    1    2    0    0  0.71555427787E+03 -0.12336150485E+04  0.14672696826E+04  0.20485387308E+04  0.99028267513E+02 0.  0.
         11    1    3    3    0    0  0.41066971995E+03 -0.80225960091E+03  0.91525252217E+03  0.12845066234E+04  0.00000000000E+00 0.  1.
        -11    1    3    3    0    0  0.30488455792E+03 -0.43135544758E+03  0.55201716038E+03  0.76403210742E+03  0.00000000000E+00 0. -1.
         22    1    1    2    0    0 -0.71555427787E+03  0.12336150485E+04 -0.17859567305E+03  0.14372614330E+04  0.00000000000E+00 0.  1.
<mgrwt>
<rscale>  0 0.32388458E+04</rscale>
<asrwt>0</asrwt>
<pdfrwt beam="1">  1        2 0.36726724E+00 0.32388458E+04</pdfrwt>
<pdfrwt beam="2">  1       -2 0.16900970E+00 0.32388458E+04</pdfrwt>
<totfact> 0.73507510E-01</totfact>
</mgrwt>
</event>
<event>
 6    1  0.9512547E-007  0.1358759E+04  0.7818608E-02  0.8984224E-01
         -2   -1    0    0    0  501 -0.00000000000E+00  0.00000000000E+00  0.16627042137E+03  0.16627042137E+03  0.00000000000E+00 0.  1.
          2   -1    0    0  501    0  0.00000000000E+00 -0.00000000000E+00 -0.27759377068E+04  0.27759377068E+04  0.00000000000E+00 0. -1.
         23    2    1    2    0    0 -0.66088419704E+03 -0.17494964458E+02 -0.10017582243E+04  0.12036899245E+04  0.90971966498E+02 0.  0.
         13    1    3    3    0    0 -0.61933678813E+03 -0.13768239115E+02 -0.88977499409E+03  0.10841896336E+04  0.00000000000E+00 0. -1.
        -13    1    3    3    0    0 -0.41547408908E+02 -0.37267253433E+01 -0.11198323025E+03  0.11950029090E+03  0.00000000000E+00 0.  1.
         22    1    1    2    0    0  0.66088419704E+03  0.17494964458E+02 -0.16079090611E+04  0.17385182037E+04  0.00000000000E+00 0.  1.
<mgrwt>
<rscale>  0 0.13587587E+04</rscale>
<asrwt>0</asrwt>
<pdfrwt beam="1">  1        2 0.42706730E+00 0.13587587E+04</pdfrwt>
<pdfrwt beam="2">  1       -2 0.25580067E-01 0.13587587E+04</pdfrwt>
<totfact> 0.32345434E+01</totfact>
</mgrwt>
</event>
<event>
 6    1  0.9512547E-007  0.7990995E+03  0.7818608E-02  0.9561321E-01
          1   -1    0    0  501    0  0.00000000000E+00  0.00000000000E+00  0.38328693479E+03  0.38328693479E+03  0.00000000000E+00 0. -1.
         -1   -1    0    0    0  501 -0.00000000000E+00 -0.00000000000E+00 -0.41650258514E+03  0.41650258514E+03  0.00000000000E+00 0.  1.
         23    2    1    2    0    0  0.20124617947E+03  0.65066666052E+02 -0.34978684515E+03  0.41906518768E+03  0.92363946979E+02 0.  0.
         13    1    3    3    0    0  0.15879809500E+02 -0.19526394057E+02 -0.57501607771E+02  0.62768489793E+02  0.00000000000E+00 0. -1.
        -13    1    3    3    0    0  0.18536636997E+03  0.84593060108E+02 -0.29228523738E+03  0.35629669789E+03  0.00000000000E+00 0.  1.
         22    1    1    2    0    0 -0.20124617947E+03 -0.65066666052E+02  0.31657119480E+03  0.38072433224E+03  0.00000000000E+00 0. -1.
<mgrwt>
<rscale>  0 0.79909949E+03</rscale>
<asrwt>0</asrwt>
<pdfrwt beam="1">  1        1 0.58967221E-01 0.79909949E+03</pdfrwt>
<pdfrwt beam="2">  1       -1 0.64077321E-01 0.79909949E+03</pdfrwt>
<totfact> 0.15877559E+02</totfact>
</mgrwt>
</event>
<event>
 6    1  0.9512547E-007  0.1907152E+04  0.7818608E-02  0.8651305E-01
          1   -1    0    0  501    0  0.00000000000E+00  0.00000000000E+00  0.43350946300E+03  0.43350946300E+03  0.00000000000E+00 0. -1.
         -1   -1    0    0    0  501 -0.00000000000E+00 -0.00000000000E+00 -0.20975487508E+04  0.20975487508E+04  0.00000000000E+00 0.  1.
         23    2    1    2    0    0  0.14187213397E+03  0.44800082214E+03 -0.19318137072E+04  0.19901926309E+04  0.90166898999E+02 0.  0.
         13    1    3    3    0    0  0.15114825510E+03  0.43608608519E+03 -0.18951534885E+04  0.19505444403E+04  0.00000000000E+00 0. -1.
        -13    1    3    3    0    0 -0.92761211297E+01  0.11914736947E+02 -0.36660218763E+02  0.39648190620E+02  0.00000000000E+00 0.  1.
         22    1    1    2    0    0 -0.14187213397E+03 -0.44800082214E+03  0.26777441944E+03  0.54086558288E+03  0.00000000000E+00 0. -1.
<mgrwt>
<rscale>  0 0.19071520E+04</rscale>
<asrwt>0</asrwt>
<pdfrwt beam="1">  1        1 0.66693765E-01 0.19071520E+04</pdfrwt>
<pdfrwt beam="2">  1       -1 0.32269980E+00 0.19071520E+04</pdfrwt>
<totfact> 0.11851161E+00</totfact>
</mgrwt>
</event>
<event>
 6    1  0.9512547E-007  0.1420025E+04  0.7818608E-02  0.8939450E-01
         -1   -1    0    0    0  501 -0.00000000000E+00  0.00000000000E+00  0.55983858852E+03  0.55983858852E+03  0.00000000000E+00 0.  1.
          1   -1    0    0  501    0  0.00000000000E+00 -0.00000000000E+00 -0.90047005505E+03  0.90047005505E+03  0.00000000000E+00 0. -1.
         23    2    1    2    0    0 -0.23438311663E+03  0.19906029568E+02  0.51478581998E+03  0.57313874472E+03  0.90287789141E+02 0.  0.
         13    1    3    3    0    0 -0.18798114129E+03 -0.18349583937E+02  0.34980456702E+03  0.39753849099E+03  0.00000000000E+00 0. -1.
        -13    1    3    3    0    0 -0.46401975343E+02  0.38255613505E+02  0.16498125297E+03  0.17560025373E+03  0.00000000000E+00 0.  1.
         22    1    1    2    0    0  0.23438311663E+03 -0.19906029568E+02 -0.85541728651E+03  0.88716989886E+03  0.00000000000E+00 0. -1.
<mgrwt>
<rscale>  0 0.14200252E+04</rscale>
<asrwt>0</asrwt>
<pdfrwt beam="1">  1        1 0.13853385E+00 0.14200252E+04</pdfrwt>
<pdfrwt beam="2">  1       -1 0.86129014E-01 0.14200252E+04</pdfrwt>
<totfact> 0.23553789E+01</totfact>
</mgrwt>
</event>
<event>
 6    1  0.9512547E-007  0.3037047E+04  0.7818608E-02  0.8233230E-01
          1   -1    0    0  501    0  0.00000000000E+00  0.00000000000E+00  0.36763506431E+04  0.36763506431E+04  0.00000000000E+00 0. -1.
         -1   -1    0    0    0  501 -0.00000000000E+00 -0.00000000000E+00 -0.62722909018E+03  0.62722909018E+03  0.00000000000E+00 0.  1.
         23    2    1    2    0    0 -0.13734457426E+04  0.17317377649E+03  0.24055603814E+04  0.27769778382E+04  0.92427272667E+02 0.  0.
         11    1    3    3    0    0 -0.66679325751E+03  0.47060545007E+02  0.12160776827E+04  0.13876861582E+04  0.00000000000E+00 0. -1.
        -11    1    3    3    0    0 -0.70665248505E+03  0.12611323148E+03  0.11894826987E+04  0.13892916801E+04  0.00000000000E+00 0.  1.
         22    1    1    2    0    0  0.13734457426E+04 -0.17317377649E+03  0.64356117155E+03  0.15266018951E+04  0.00000000000E+00 0.  1.
<mgrwt>
<rscale>  0 0.30370473E+04</rscale>
<asrwt>0</asrwt>
<pdfrwt beam="1">  1        1 0.56559239E+00 0.30370473E+04</pdfrwt>
<pdfrwt beam="2">  1       -1 0.96496785E-01 0.30370473E+04</pdfrwt>
<totfact> 0.15804483E-01</totfact>
</mgrwt>
</event>
<event>
 6    1  0.9512547E-007  0.4885366E+04  0.7818608E-02  0.7846438E-01
          1   -1    0    0  501    0  0.00000000000E+00  0.00000000000E+00  0.28493231187E+04  0.28493231187E+04  0.00000000000E+00 0. -1.
         -1   -1    0    0    0  501 -0.00000000000E+00 -0.00000000000E+00 -0.20940767263E+04  0.20940767263E+04  0.00000000000E+00 0.  1.
         23    2    1    2    0    0  0.39293156678E+03 -0.37503157232E+03  0.27867288472E+04  0.28405529983E+04  0.88542488833E+02 0.  0.
         13    1    3    3    0    0  0.18593259093E+03 -0.22419732054E+03  0.16286483154E+04  0.16544880483E+04  0.00000000000E+00 0. -1.
        -13    1    3    3    0    0  0.20699897585E+03 -0.15083425178E+03  0.11580805318E+04  0.11860649500E+04  0.00000000000E+00 0.  1.
         22    1    1    2    0    0 -0.39293156678E+03  0.37503157232E+03 -0.20314824547E+04  0.21028468466E+04  0.00000000000E+00 0.  1.
<mgrwt>
<rscale>  0 0.48853664E+04</rscale>
<asrwt>0</asrwt>
<pdfrwt beam="1">  1        1 0.43835740E+00 0.48853664E+04</pdfrwt>
<pdfrwt beam="2">  1       -1 0.32216565E+00 0.48853664E+04</pdfrwt>
<totfact> 0.13261712E-02</totfact>
</mgrwt>
</event>
<event>
 6    1  0.9921711E-007  0.3701569E+04  0.7818608E-02  0.8067614E-01
          2   -1    0    0  501    0  0.00000000000E+00  0.00000000000E+00  0.23969669663E+04  0.23969669663E+04  0.00000000000E+00 0. -1.
         -2   -1    0    0    0  501 -0.00000000000E+00 -0.00000000000E+00 -0.14290577163E+04  0.14290577163E+04  0.00000000000E+00 0.  1.
         23    2    1    2    0    0  0.24376803043E+03 -0.73811095492E+03 -0.12505198500E+04  0.14753527986E+04  0.92926587917E+02 0.  0.
         13    1    3    3    0    0  0.86558782570E+02 -0.25438998080E+03 -0.35176874307E+03  0.44266006571E+03  0.00000000000E+00 0. -1.
        -13    1    3    3    0    0  0.15720924786E+03 -0.48372097412E+03 -0.89875110695E+03  0.10326927329E+04  0.00000000000E+00 0.  1.
         22    1    1    2    0    0 -0.24376803043E+03  0.73811095492E+03  0.22184291000E+04  0.23506718840E+04  0.00000000000E+00 0. -1.
<mgrwt>
<rscale>  0 0.37015695E+04</rscale>
<asrwt>0</asrwt>
<pdfrwt beam="1">  1        2 0.36876415E+00 0.37015695E+04</pdfrwt>
<pdfrwt beam="2">  1       -2 0.21985503E+00 0.37015695E+04</pdfrwt>
<totfact> 0.31954355E-01</totfact>
</mgrwt>
</event>
<event>
 6    1  0.9512547E-007  0.1541989E+04  0.7818608E-02  0.8857001E-01
         -2   -1    0    0    0  501 -0.00000000000E+00  0.00000000000E+00  0.25852535044E+04  0.25852535044E+04  0.00000000000E+00 0.  1.
          2   -1    0    0  501    0  0.00000000000E+00 -0.00000000000E+00 -0.22993201658E+03  0.22993201658E+03  0.00000000000E+00 0. -1.
         23    2    1    2    0    0 -0.30781443229E+03 -0.86059084056E+02  0.24571900823E+04  0.24797259836E+04  0.95404206687E+02 0.  0.
         11    1    3    3    0    0 -0.19676359530E+03 -0.10118891363E+03  0.15880763425E+04  0.16034155975E+04  0.00000000000E+00 0.  1.
        -11    1    3    3    0    0 -0.11105083699E+03  0.15129829572E+02  0.86911373978E+03  0.87631038612E+03  0.00000000000E+00 0. -1.
         22    1    1    2    0    0  0.30781443229E+03  0.86059084056E+02 -0.10186859446E+03  0.33545953737E+03  0.00000000000E+00 0. -1.
<mgrwt>
<rscale>  0 0.15419890E+04</rscale>
<asrwt>0</asrwt>
<pdfrwt beam="1">  1        2 0.35374158E-01 0.15419890E+04</pdfrwt>
<pdfrwt beam="2">  1       -2 0.39773129E+00 0.15419890E+04</pdfrwt>
<totfact> 0.11030177E+00</totfact>
</mgrwt>
</event>
<event>
 6    1  0.9512547E-007  0.2142336E+04  0.7818608E-02  0.8542820E-01
         -2   -1    0    0    0  501 -0.00000000000E+00  0.00000000000E+00  0.11978075826E+04  0.11978075826E+04  0.00000000000E+00 0.  1.
          2   -1    0    0  501    0  0.00000000000E+00 -0.00000000000E+00 -0.95791791798E+03  0.95791791798E+03  0.00000000000E+00 0. -1.
         23    2    1    2    0    0  0.48431893225E+03  0.88546983598E+03  0.47524732708E+03  0.11193786050E+04  0.92340570309E+02 0.  0.
         11    1    3    3    0    0  0.22418209568E+03  0.32189767903E+03  0.16695818927E+03  0.42632237187E+03  0.00000000000E+00 0. -1.
        -11    1    3    3    0    0  0.26013683657E+03  0.56357215695E+03  0.30828913781E+03  0.69305623316E+03  0.00000000000E+00 0.  1.
         22    1    1    2    0    0 -0.48431893225E+03 -0.88546983598E+03 -0.23535766249E+03  0.10363468955E+04  0.00000000000E+00 0. -1.
<mgrwt>
<rscale>  0 0.21423364E+04</rscale>
<asrwt>0</asrwt>
<pdfrwt beam="1">  1        2 0.14737199E+00 0.21423364E+04</pdfrwt>
<pdfrwt beam="2">  1       -2 0.18427809E+00 0.21423364E+04</pdfrwt>
<totfact> 0.41737736E+00</totfact>
</mgrwt>
</event>
<event>
 6    1  0.9512547E-007  0.2132995E+04  0.7818608E-02  0.8546847E-01
          2   -1    0    0  501    0  0.00000000000E+00  0.00000000000E+00  0.14987442517E+04  0.14987442517E+04  0.00000000000E+00 0. -1.
         -2   -1    0    0    0  501 -0.00000000000E+00 -0.00000000000E+00 -0.75891325780E+03  0.75891325780E+03  0.00000000000E+00 0.  1.
         23    2    1    2    0    0 -0.31441768660E+03 -0.79577541476E+03  0.10409291130E+04  0.13505869115E+04  0.91840050789E+02 0.  0.
         11    1    3    3    0    0  0.27077640659E+00 -0.63536610966E+02  0.74471394648E+02  0.97892608882E+02  0.00000000000E+00 0. -1.
        -11    1    3    3    0    0 -0.31468846301E+03 -0.73223880380E+03  0.96645771835E+03  0.12526943027E+04  0.00000000000E+00 0.  1.
         22    1    1    2    0    0  0.31441768660E+03  0.79577541476E+03 -0.30109811909E+03  0.90707059797E+03  0.00000000000E+00 0.  1.
<mgrwt>
<rscale>  0 0.21329950E+04</rscale>
<asrwt>0</asrwt>
<pdfrwt beam="1">  1        2 0.23057604E+00 0.21329950E+04</pdfrwt>
<pdfrwt beam="2">  1       -2 0.11675589E+00 0.21329950E+04</pdfrwt>
<totfact> 0.66405998E+00</totfact>
</mgrwt>
</event>
<event>
 6    1  0.9512547E-007  0.2230137E+04  0.7818608E-02  0.8505988E-01
          1   -1    0    0  501    0  0.00000000000E+00  0.00000000000E+00  0.21804241427E+04  0.21804241427E+04  0.00000000000E+00 0. -1.
         -1   -1    0    0    0  501 -0.00000000000E+00 -0.00000000000E+00 -0.57024569965E+03  0.57024569965E+03  0.00000000000E+00 0.  1.
         23    2    1    2    0    0 -0.25292129548E+03 -0.10765254124E+04  0.64865153500E+03  0.12852654135E+04  0.91006725941E+02 0.  0.
         13    1    3    3    0    0 -0.67694324187E+02 -0.22998452215E+03  0.18230821971E+03  0.30118381253E+03  0.00000000000E+00 0. -1.
        -13    1    3    3    0    0 -0.18522697129E+03 -0.84654089020E+03  0.46634331529E+03  0.98408160098E+03  0.00000000000E+00 0.  1.
         22    1    1    2    0    0  0.25292129548E+03  0.10765254124E+04  0.96152690804E+03  0.14654044288E+04  0.00000000000E+00 0.  1.
<mgrwt>
<rscale>  0 0.22301368E+04</rscale>
<asrwt>0</asrwt>
<pdfrwt beam="1">  1        1 0.33544986E+00 0.22301368E+04</pdfrwt>
<pdfrwt beam="2">  1       -1 0.87730109E-01 0.22301368E+04</pdfrwt>
<totfact> 0.26099591E+00</totfact>
</mgrwt>
</event>
<event>
 6    1  0.9512547E-007  0.2449221E+04  0.7818608E-02  0.8421302E-01
         -1   -1    0    0    0  501 -0.00000000000E+00  0.00000000000E+00  0.82190505005E+03  0.82190505005E+03  0.00000000000E+00 0.  1.
          1   -1    0    0  501    0  0.00000000000E+00 -0.00000000000E+00 -0.18246284271E+04  0.18246284271E+04  0.00000000000E+00 0. -1.
         23    2    1    2    0    0 -0.32229412924E+03 -0.57947731624E+03  0.60827195247E+03  0.90441596748E+03  0.91137304564E+02 0.  0.
         13    1    3    3    0    0 -0.22180758841E+03 -0.34100333030E+03  0.32450597775E+03  0.52037102835E+03  0.00000000000E+00 0. -1.
        -13    1    3    3    0    0 -0.10048654083E+03 -0.23847398594E+03  0.28376597472E+03  0.38404493912E+03  0.00000000000E+00 0.  1.
         22    1    1    2    0    0  0.32229412924E+03  0.57947731624E+03 -0.16109953296E+04  0.17421175097E+04  0.00000000000E+00 0. -1.
<mgrwt>
<rscale>  0 0.24492214E+04</rscale>
<asrwt>0</asrwt>
<pdfrwt beam="1">  1        1 0.28071206E+00 0.24492214E+04</pdfrwt>
<pdfrwt beam="2">  1       -1 0.12644693E+00 0.24492214E+04</pdfrwt>
<totfact> 0.19018301E+00</totfact>
</mgrwt>
</event>
<event>
 6    1  0.9512547E-007  0.5955148E+03  0.7818608E-02  0.9914755E-01
          2   -1    0    0  501    0  0.00000000000E+00  0.00000000000E+00  0.10393675543E+04  0.10393675543E+04  0.00000000000E+00 0. -1.
         -2   -1    0    0    0  501 -0.00000000000E+00 -0.00000000000E+00 -0.85301374906E+02  0.85301374906E+02  0.00000000000E+00 0.  1.
         23    2    1    2    0    0  0.23133046072E+03  0.11930720629E+03  0.24455759005E+03  0.36892397892E+03  0.92458076129E+02 0.  0.
         11    1    3    3    0    0  0.15573744818E+03  0.10026491429E+03  0.11590794464E+03  0.21849910168E+03  0.00000000000E+00 0.  1.
        -11    1    3    3    0    0  0.75593012535E+02  0.19042292002E+02  0.12864964541E+03  0.15042487724E+03  0.00000000000E+00 0. -1.
         22    1    1    2    0    0 -0.23133046072E+03 -0.11930720629E+03  0.70950858930E+03  0.75574495024E+03  0.00000000000E+00 0. -1.
<mgrwt>
<rscale>  0 0.59551484E+03</rscale>
<asrwt>0</asrwt>
<pdfrwt beam="1">  1        2 0.15990269E+00 0.59551484E+03</pdfrwt>
<pdfrwt beam="2">  1       -2 0.13123289E-01 0.59551484E+03</pdfrwt>
<totfact> 0.10518069E+03</totfact>
</mgrwt>
</event>
<event>
 6    1  0.9512547E-007  0.3824309E+04  0.7818608E-02  0.8040958E-01
          2   -1    0    0  501    0  0.00000000000E+00  0.00000000000E+00  0.37647494085E+04  0.37647494085E+04  0.00000000000E+00 0. -1.
         -2   -1    0    0    0  501 -0.00000000000E+00 -0.00000000000E+00 -0.97120250470E+03  0.97120250470E+03  0.00000000000E+00 0.  1.
         23    2    1    2    0    0 -0.14114188039E+04 -0.23149137267E+02 -0.19774975178E+03  0.14283100638E+04  0.91245555669E+02 0.  0.
         11    1    3    3    0    0 -0.27091213993E+03 -0.11431886599E+02 -0.25812228783E+01  0.27116551828E+03  0.00000000000E+00 0. -1.
        -11    1    3    3    0    0 -0.11405066639E+04 -0.11717250668E+02 -0.19516852891E+03  0.11571445455E+04  0.00000000000E+00 0.  1.
         22    1    1    2    0    0  0.14114188039E+04  0.23149137267E+02  0.29912966556E+04  0.33076418494E+04  0.00000000000E+00 0. -1.
<mgrwt>
<rscale>  0 0.38243086E+04</rscale>
<asrwt>0</asrwt>
<pdfrwt beam="1">  1        2 0.57919221E+00 0.38243086E+04</pdfrwt>
<pdfrwt beam="2">  1       -2 0.14941577E+00 0.38243086E+04</pdfrwt>
<totfact> 0.12619177E-01</totfact>
</mgrwt>
</event>
<event>
 6    1  0.9512547E-007  0.3535608E+04  0.7818608E-02  0.8105403E-01
         -2   -1    0    0    0  501 -0.00000000000E+00  0.00000000000E+00  0.13865529937E+04  0.13865529937E+04  0.00000000000E+00 0.  1.
          2   -1    0    0  501    0  0.00000000000E+00 -0.00000000000E+00 -0.22538854683E+04  0.22538854683E+04  0.00000000000E+00 0. -1.
         23    2    1    2    0    0 -0.41521905515E+03  0.39881344729E+03 -0.21535884212E+04  0.22312140690E+04  0.94414532896E+02 0.  0.
         11    1    3    3    0    0 -0.28581133510E+03  0.26808889804E+03 -0.16232973864E+04  0.16699264000E+04  0.00000000000E+00 0.  1.
        -11    1    3    3    0    0 -0.12940772004E+03  0.13072454925E+03 -0.53029103480E+03  0.56128766900E+03  0.00000000000E+00 0. -1.
         22    1    1    2    0    0  0.41521905515E+03 -0.39881344729E+03  0.12862559467E+04  0.14092243930E+04  0.00000000000E+00 0.  1.
<mgrwt>
<rscale>  0 0.35356084E+04</rscale>
<asrwt>0</asrwt>
<pdfrwt beam="1">  1        2 0.34675161E+00 0.35356084E+04</pdfrwt>
<pdfrwt beam="2">  1       -2 0.21331585E+00 0.35356084E+04</pdfrwt>
<totfact> 0.43009093E-01</totfact>
</mgrwt>
</event>
<event>
 6    1  0.9512547E-007  0.2495798E+04  0.7818608E-02  0.8404484E-01
          2   -1    0    0  501    0  0.00000000000E+00  0.00000000000E+00  0.13889774298E+04  0.13889774298E+04  0.00000000000E+00 0. -1.
         -2   -1    0    0    0  501 -0.00000000000E+00 -0.00000000000E+00 -0.11211498095E+04  0.11211498095E+04  0.00000000000E+00 0.  1.
         23    2    1    2    0    0 -0.13622539026E+03 -0.48118723461E+03 -0.10139930436E+04  0.11342047393E+04  0.90221873579E+02 0.  0.
         11    1    3    3    0    0 -0.53797306254E+02 -0.20123558835E+03 -0.32589472365E+03  0.38677807989E+03  0.00000000000E+00 0. -1.
        -11    1    3    3    0    0 -0.82428084009E+02 -0.27995164625E+03 -0.68809831997E+03  0.74742665942E+03  0.00000000000E+00 0.  1.
         22    1    1    2    0    0  0.13622539026E+03  0.48118723461E+03  0.12818206638E+04  0.13759225000E+04  0.00000000000E+00 0. -1.
<mgrwt>
<rscale>  0 0.24957979E+04</rscale>
<asrwt>0</asrwt>
<pdfrwt beam="1">  1        2 0.21368884E+00 0.24957979E+04</pdfrwt>
<pdfrwt beam="2">  1       -2 0.17248459E+00 0.24957979E+04</pdfrwt>
<totfact> 0.26813552E+00</totfact>
</mgrwt>
</event>
<event>
 6    1  0.9512547E-007  0.3326569E+04  0.7818608E-02  0.8156168E-01
          1   -1    0    0  501    0  0.00000000000E+00  0.00000000000E+00  0.17753792158E+04  0.17753792158E+04  0.00000000000E+00 0. -1.
         -1   -1    0    0    0  501 -0.00000000000E+00 -0.00000000000E+00 -0.15582675214E+04  0.15582675214E+04  0.00000000000E+00 0.  1.
         23    2    1    2    0    0 -0.51842541038E+03 -0.12056391635E+04  0.11308705489E+04  0.17344951050E+04  0.85289930558E+02 0.  0.
         11    1    3    3    0    0 -0.28508355992E+03 -0.57091792169E+03  0.51973274641E+03  0.82300792046E+03  0.00000000000E+00 0. -1.
        -11    1    3    3    0    0 -0.23334185046E+03 -0.63472124182E+03  0.61113780245E+03  0.91148718454E+03  0.00000000000E+00 0.  1.
         22    1    1    2    0    0  0.51842541038E+03  0.12056391635E+04 -0.91375885446E+03  0.15991516322E+04  0.00000000000E+00 0.  1.
<mgrwt>
<rscale>  0 0.33265693E+04</rscale>
<asrwt>0</asrwt>
<pdfrwt beam="1">  1        1 0.27313527E+00 0.33265693E+04</pdfrwt>
<pdfrwt beam="2">  1       -1 0.23973346E+00 0.33265693E+04</pdfrwt>
<totfact> 0.28532681E-01</totfact>
</mgrwt>
</event>
<event>
 6    1  0.9512547E-007  0.1866754E+04  0.7818608E-02  0.8671584E-01
          1   -1    0    0  501    0  0.00000000000E+00  0.00000000000E+00  0.20770872857E+04  0.20770872857E+04  0.00000000000E+00 0. -1.
         -1   -1    0    0    0  501 -0.00000000000E+00 -0.00000000000E+00 -0.41942989789E+03  0.41942989789E+03  0.00000000000E+00 0.  1.
         23    2    1    2    0    0 -0.55008663223E+03 -0.13315097375E+02 -0.17346943283E+03  0.58450305498E+03  0.93699425699E+02 0.  0.
         13    1    3    3    0    0 -0.35275336533E+03 -0.80977060614E+01 -0.63429710292E+02  0.35850221441E+03  0.00000000000E+00 0. -1.
        -13    1    3    3    0    0 -0.19733326690E+03 -0.52173913139E+01 -0.11003972254E+03  0.22600084056E+03  0.00000000000E+00 0.  1.
         22    1    1    2    0    0  0.55008663223E+03  0.13315097375E+02  0.18311268206E+04  0.19120141286E+04  0.00000000000E+00 0. -1.
<mgrwt>
<rscale>  0 0.18667539E+04</rscale>
<asrwt>0</asrwt>
<pdfrwt beam="1">  1        1 0.31955188E+00 0.18667539E+04</pdfrwt>
<pdfrwt beam="2">  1       -1 0.64527678E-01 0.18667539E+04</pdfrwt>
<totfact> 0.60363072E+00</totfact>
</mgrwt>
</event>
<event>
 6    1  0.9512547E-007  0.1052940E+04  0.7818608E-02  0.9252314E-01
          2   -1    0    0  501    0  0.00000000000E+00  0.00000000000E+00  0.11131384378E+04  0.11131384378E+04  0.00000000000E+00 0. -1.
         -2   -1    0    0    0  501 -0.00000000000E+00 -0.00000000000E+00 -0.24899916743E+03  0.24899916743E+03  0.00000000000E+00 0.  1.
         23    2    1    2    0    0  0.77151514404E+02  0.24702669413E+03  0.10225542981E+04  0.10587074406E+04  0.90937387611E+02 0.  0.
         13    1    3    3    0    0  0.29663594872E+02  0.19494645202E+03  0.63909173728E+03  0.66882157312E+03  0.00000000000E+00 0. -1.
        -13    1    3    3    0    0  0.47487919532E+02  0.52080242114E+02  0.38346256084E+03  0.38988586751E+03  0.00000000000E+00 0.  1.
         22    1    1    2    0    0 -0.77151514404E+02 -0.24702669413E+03 -0.15841502773E+03  0.30343016462E+03  0.00000000000E+00 0.  1.
<mgrwt>
<rscale>  0 0.10529398E+04</rscale>
<asrwt>0</asrwt>
<pdfrwt beam="1">  1        2 0.17125206E+00 0.10529398E+04</pdfrwt>
<pdfrwt beam="2">  1       -2 0.38307565E-01 0.10529398E+04</pdfrwt>
<totfact> 0.13686574E+02</totfact>
</mgrwt>
</event>
<event>
 6    1  0.9512547E-007  0.6130194E+03  0.7818608E-02  0.9878757E-01
         -2   -1    0    0    0  501 -0.00000000000E+00  0.00000000000E+00  0.10772290344E+03  0.10772290344E+03  0.00000000000E+00 0.  1.
          2   -1    0    0  501    0  0.00000000000E+00 -0.00000000000E+00 -0.87212836111E+03  0.87212836111E+03  0.00000000000E+00 0. -1.
         23    2    1    2    0    0  0.14388749336E+03  0.37136231053E+02 -0.80673086117E+03  0.82533864310E+03  0.91030121574E+02 0.  0.
         11    1    3    3    0    0  0.70118077948E+02 -0.14639103653E+02 -0.51630635268E+03  0.52125147292E+03  0.00000000000E+00 0. -1.
        -11    1    3    3    0    0  0.73769415417E+02  0.51775334706E+02 -0.29042450849E+03  0.30408717018E+03  0.00000000000E+00 0.  1.
         22    1    1    2    0    0 -0.14388749336E+03 -0.37136231053E+02  0.42325403498E+02  0.15451262144E+03  0.00000000000E+00 0.  1.
<mgrwt>
<rscale>  0 0.61301941E+03</rscale>
<asrwt>0</asrwt>
<pdfrwt beam="1">  1        2 0.13417359E+00 0.61301941E+03</pdfrwt>
<pdfrwt beam="2">  1       -2 0.16572754E-01 0.61301941E+03</pdfrwt>
<totfact> 0.91138026E+02</totfact>
</mgrwt>
</event>
<event>
 6    1  0.9512547E-007  0.2096616E+04  0.7818608E-02  0.8562736E-01
          1   -1    0    0  501    0  0.00000000000E+00  0.00000000000E+00  0.73619124493E+03  0.73619124493E+03  0.00000000000E+00 0. -1.
         -1   -1    0    0    0  501 -0.00000000000E+00 -0.00000000000E+00 -0.14927498996E+04  0.14927498996E+04  0.00000000000E+00 0.  1.
         23    2    1    2    0    0 -0.75529308747E+03 -0.31276626757E+03  0.31530199632E+03  0.88091457162E+03  0.91130387350E+02 0.  0.
         13    1    3    3    0    0 -0.35982614869E+03 -0.19246718846E+03  0.13358033687E+03  0.42937417518E+03  0.00000000000E+00 0.  1.
        -13    1    3    3    0    0 -0.39546693878E+03 -0.12029907912E+03  0.18172165944E+03  0.45154039644E+03  0.00000000000E+00 0. -1.
         22    1    1    2    0    0  0.75529308747E+03  0.31276626757E+03 -0.10718606509E+04  0.13480265729E+04  0.00000000000E+00 0.  1.
<mgrwt>
<rscale>  0 0.20966158E+04</rscale>
<asrwt>0</asrwt>
<pdfrwt beam="1">  1        1 0.11326019E+00 0.20966158E+04</pdfrwt>
<pdfrwt beam="2">  1       -1 0.22965383E+00 0.20966158E+04</pdfrwt>
<totfact> 0.22006917E+00</totfact>
</mgrwt>
</event>
<event>
 6    1  0.9512547E-007  0.5119670E+04  0.7818608E-02  0.7810308E-01
          2   -1    0    0  501    0  0.00000000000E+00  0.00000000000E+00  0.32737543008E+04  0.32737543008E+04  0.00000000000E+00 0. -1.
         -2   -1    0    0    0  501 -0.00000000000E+00 -0.00000000000E+00 -0.20016027162E+04  0.20016027162E+04  0.00000000000E+00 0.  1.
         23    2    1    2    0    0 -0.96913170576E+03  0.11926957552E+04  0.27446591224E+04  0.31469731521E+04  0.92449416698E+02 0.  0.
         13    1    3    3    0    0 -0.53914804687E+03  0.60529191043E+03  0.15031002259E+04  0.17077380369E+04  0.00000000000E+00 0.  1.
        -13    1    3    3    0    0 -0.42998365889E+03  0.58740384475E+03  0.12415588964E+04  0.14392351153E+04  0.00000000000E+00 0. -1.
         22    1    1    2    0    0  0.96913170576E+03 -0.11926957552E+04 -0.14725075377E+04  0.21283838649E+04  0.00000000000E+00 0.  1.
<mgrwt>
<rscale>  0 0.51196701E+04</rscale>
<asrwt>0</asrwt>
<pdfrwt beam="1">  1        2 0.50365451E+00 0.51196701E+04</pdfrwt>
<pdfrwt beam="2">  1       -2 0.30793888E+00 0.51196701E+04</pdfrwt>
<totfact> 0.23731370E-02</totfact>
</mgrwt>
</event>
<event>
 6    1  0.9512547E-007  0.1541055E+04  0.7818608E-02  0.8857602E-01
         -2   -1    0    0    0  501 -0.00000000000E+00  0.00000000000E+00  0.22697643229E+03  0.22697643229E+03  0.00000000000E+00 0.  1.
          2   -1    0    0  501    0  0.00000000000E+00 -0.00000000000E+00 -0.26157442690E+04  0.26157442690E+04  0.00000000000E+00 0. -1.
         23    2    1    2    0    0 -0.51149581274E+02  0.60063489392E+03 -0.32129865372E+03  0.68916378816E+03  0.91298119226E+02 0.  0.
         11    1    3    3    0    0  0.93588204295E+00  0.45419768132E+03 -0.23514051894E+03  0.51145622807E+03  0.00000000000E+00 0.  1.
        -11    1    3    3    0    0 -0.52085463317E+02  0.14643721260E+03 -0.86158134774E+02  0.17770756009E+03  0.00000000000E+00 0. -1.
         22    1    1    2    0    0  0.51149581274E+02 -0.60063489392E+03 -0.20674691830E+04  0.21535569132E+04  0.00000000000E+00 0. -1.
<mgrwt>
<rscale>  0 0.15410546E+04</rscale>
<asrwt>0</asrwt>
<pdfrwt beam="1">  1        2 0.40242218E+00 0.15410546E+04</pdfrwt>
<pdfrwt beam="2">  1       -2 0.34919452E-01 0.15410546E+04</pdfrwt>
<totfact> 0.22152364E+01</totfact>
</mgrwt>
</event>
<event>
 6    1  0.9512547E-007  0.1903371E+04  0.7818608E-02  0.8653180E-01
          1   -1    0    0  501    0  0.00000000000E+00  0.00000000000E+00  0.58721948506E+03  0.58721948506E+03  0.00000000000E+00 0. -1.
         -1   -1    0    0    0  501 -0.00000000000E+00 -0.00000000000E+00 -0.15423622838E+04  0.15423622838E+04  0.00000000000E+00 0.  1.
         23    2    1    2    0    0 -0.39622445323E+03  0.76208450343E+03 -0.25620110461E+02  0.86396767455E+03  0.89538510731E+02 0.  0.
         11    1    3    3    0    0 -0.27763126724E+03  0.45196508495E+03  0.58482969065E+01  0.53045806728E+03  0.00000000000E+00 0.  1.
        -11    1    3    3    0    0 -0.11859318599E+03  0.31011941847E+03 -0.31468407367E+02  0.33350960727E+03  0.00000000000E+00 0. -1.
         22    1    1    2    0    0  0.39622445323E+03 -0.76208450343E+03 -0.92952268833E+03  0.12656140944E+04  0.00000000000E+00 0.  1.
<mgrwt>
<rscale>  0 0.19033709E+04</rscale>
<asrwt>0</asrwt>
<pdfrwt beam="1">  1        1 0.90341459E-01 0.19033709E+04</pdfrwt>
<pdfrwt beam="2">  1       -1 0.23728651E+00 0.19033709E+04</pdfrwt>
<totfact> 0.27914505E+00</totfact>
</mgrwt>
</event>
<event>
 6    1  0.9512547E-007  0.4095788E+04  0.7818608E-02  0.7985497E-01
          2   -1    0    0  501    0  0.00000000000E+00  0.00000000000E+00  0.28812724975E+04  0.28812724975E+04  0.00000000000E+00 0. -1.
         -2   -1    0    0    0  501 -0.00000000000E+00 -0.00000000000E+00 -0.14555620129E+04  0.14555620129E+04  0.00000000000E+00 0.  1.
         23    2    1    2    0    0  0.13062581661E+04  0.15068360804E+04  0.22569049857E+03  0.20094081772E+04  0.99597447544E+02 0.  0.
         13    1    3    3    0    0  0.39289228025E+03  0.45981101456E+03  0.22677400064E+02  0.60523117688E+03  0.00000000000E+00 0. -1.
        -13    1    3    3    0    0  0.91336588584E+03  0.10470250659E+04  0.20301309851E+03  0.14041770003E+04  0.00000000000E+00 0.  1.
         22    1    1    2    0    0 -0.13062581661E+04 -0.15068360804E+04  0.12000199860E+04  0.23274263332E+04  0.00000000000E+00 0.  1.
<mgrwt>
<rscale>  0 0.40957885E+04</rscale>
<asrwt>0</asrwt>
<pdfrwt beam="1">  1        2 0.44327269E+00 0.40957885E+04</pdfrwt>
<pdfrwt beam="2">  1       -2 0.22393262E+00 0.40957885E+04</pdfrwt>
<totfact> 0.15068129E-01</totfact>
</mgrwt>
</event>
<event>
 6    1  0.9512547E-007  0.2116332E+04  0.7818608E-02  0.8554083E-01
          2   -1    0    0  501    0  0.00000000000E+00  0.00000000000E+00  0.21325084702E+04  0.21325084702E+04  0.00000000000E+00 0. -1.
         -2   -1    0    0    0  501 -0.00000000000E+00 -0.00000000000E+00 -0.52506955670E+03  0.52506955670E+03  0.00000000000E+00 0.  1.
         23    2    1    2    0    0 -0.21252357359E+03  0.56614756321E+03 -0.28217185101E+03  0.67356235809E+03  0.91520293216E+02 0.  0.
         13    1    3    3    0    0 -0.67149519116E+02  0.24159241569E+03 -0.16040748043E+03  0.29766846157E+03  0.00000000000E+00 0. -1.
        -13    1    3    3    0    0 -0.14537405448E+03  0.32455514752E+03 -0.12176437059E+03  0.37589389652E+03  0.00000000000E+00 0.  1.
         22    1    1    2    0    0  0.21252357359E+03 -0.56614756321E+03  0.18896107645E+04  0.19840156688E+04  0.00000000000E+00 0. -1.
<mgrwt>
<rscale>  0 0.21163320E+04</rscale>
<asrwt>0</asrwt>
<pdfrwt beam="1">  1        2 0.32807822E+00 0.21163320E+04</pdfrwt>
<pdfrwt beam="2">  1       -2 0.80779933E-01 0.21163320E+04</pdfrwt>
<totfact> 0.70126453E+00</totfact>
</mgrwt>
</event>
<event>
 6    1  0.9512547E-007  0.2269634E+04  0.7818608E-02  0.8489991E-01
         -2   -1    0    0    0  501 -0.00000000000E+00  0.00000000000E+00  0.11921784290E+04  0.11921784290E+04  0.00000000000E+00 0.  1.
          2   -1    0    0  501    0  0.00000000000E+00 -0.00000000000E+00 -0.10802158373E+04  0.10802158373E+04  0.00000000000E+00 0. -1.
         23    2    1    2    0    0 -0.10494064023E+03  0.62619734140E+03  0.99527102359E+03  0.11845664149E+04  0.97455284316E+02 0.  0.
         11    1    3    3    0    0 -0.29262049918E+01  0.14361349367E+03  0.29383303835E+03  0.32706460014E+03  0.00000000000E+00 0.  1.
        -11    1    3    3    0    0 -0.10201443524E+03  0.48258384773E+03  0.70143798524E+03  0.85750181471E+03  0.00000000000E+00 0. -1.
         22    1    1    2    0    0  0.10494064023E+03 -0.62619734140E+03 -0.88330843195E+03  0.10878278514E+04  0.00000000000E+00 0. -1.
<mgrwt>
<rscale>  0 0.22696343E+04</rscale>
<asrwt>0</asrwt>
<pdfrwt beam="1">  1        2 0.16618705E+00 0.22696343E+04</pdfrwt>
<pdfrwt beam="2">  1       -2 0.18341207E+00 0.22696343E+04</pdfrwt>
<totfact> 0.34985589E+00</totfact>
</mgrwt>
</event>
<event>
 6    1  0.9512547E-007  0.4033841E+04  0.7818608E-02  0.7997754E-01
          1   -1    0    0  501    0  0.00000000000E+00  0.00000000000E+00  0.21804457923E+04  0.21804457923E+04  0.00000000000E+00 0. -1.
         -1   -1    0    0    0  501 -0.00000000000E+00 -0.00000000000E+00 -0.18656588057E+04  0.18656588057E+04  0.00000000000E+00 0.  1.
         23    2    1    2    0    0  0.28368398546E+03  0.10108614573E+04  0.18836875499E+04  0.21583105237E+04  0.87795453132E+02 0.  0.
         13    1    3    3    0    0  0.72499345841E+02  0.41449637297E+03  0.76940192628E+03  0.87695080963E+03  0.00000000000E+00 0. -1.
        -13    1    3    3    0    0  0.21118463962E+03  0.59636508428E+03  0.11142856236E+04  0.12813597140E+04  0.00000000000E+00 0.  1.
         22    1    1    2    0    0 -0.28368398546E+03 -0.10108614573E+04 -0.15689005633E+04  0.18877940743E+04  0.00000000000E+00 0.  1.
<mgrwt>
<rscale>  0 0.40338408E+04</rscale>
<asrwt>0</asrwt>
<pdfrwt beam="1">  1        1 0.33545320E+00 0.40338408E+04</pdfrwt>
<pdfrwt beam="2">  1       -1 0.28702443E+00 0.40338408E+04</pdfrwt>
<totfact> 0.70278564E-02</totfact>
</mgrwt>
</event>
<event>
 6    1  0.9512547E-007  0.1593535E+04  0.7818608E-02  0.8824529E-01
         -2   -1    0    0    0  501 -0.00000000000E+00  0.00000000000E+00  0.91002430105E+03  0.91002430105E+03  0.00000000000E+00 0.  1.
          2   -1    0    0  501    0  0.00000000000E+00 -0.00000000000E+00 -0.69760641258E+03  0.69760641258E+03  0.00000000000E+00 0. -1.
         23    2    1    2    0    0  0.23830470611E+03  0.18250380292E+02  0.87085875189E+03  0.90715474691E+03  0.86096223843E+02 0.  0.
         13    1    3    3    0    0  0.24377866764E+02 -0.80998562219E+01  0.22088747005E+03  0.22237617337E+03  0.00000000000E+00 0.  1.
        -13    1    3    3    0    0  0.21392683935E+03  0.26350236513E+02  0.64997128184E+03  0.68477857354E+03  0.00000000000E+00 0. -1.
         22    1    1    2    0    0 -0.23830470611E+03 -0.18250380292E+02 -0.65844086342E+03  0.70047596672E+03  0.00000000000E+00 0. -1.
<mgrwt>
<rscale>  0 0.15935354E+04</rscale>
<asrwt>0</asrwt>
<pdfrwt beam="1">  1        2 0.10732406E+00 0.15935354E+04</pdfrwt>
<pdfrwt beam="2">  1       -2 0.14000374E+00 0.15935354E+04</pdfrwt>
<totfact> 0.14172636E+01</totfact>
</mgrwt>
</event>
<event>
 6    1  0.9512547E-007  0.8570169E+03  0.7818608E-02  0.9480967E-01
         -1   -1    0    0    0  501 -0.00000000000E+00  0.00000000000E+00  0.58490238321E+03  0.58490238321E+03  0.00000000000E+00 0.  1.
          1   -1    0    0  501    0  0.00000000000E+00 -0.00000000000E+00 -0.31393182589E+03  0.31393182589E+03  0.00000000000E+00 0. -1.
         23    2    1    2    0    0  0.24873018854E+03  0.33718706603E+03  0.72531786018E+02  0.43521823639E+03  0.92694277658E+02 0.  0.
         11    1    3    3    0    0  0.13511026928E+03  0.15528731619E+03 -0.83454202802E+01  0.20600626562E+03  0.00000000000E+00 0. -1.
        -11    1    3    3    0    0  0.11361991926E+03  0.18189974984E+03  0.80877206298E+02  0.22921197077E+03  0.00000000000E+00 0.  1.
         22    1    1    2    0    0 -0.24873018854E+03 -0.33718706603E+03  0.19843877130E+03  0.46361597270E+03  0.00000000000E+00 0.  1.
<mgrwt>
<rscale>  0 0.85701686E+03</rscale>
<asrwt>0</asrwt>
<pdfrwt beam="1">  1        1 0.48297204E-01 0.85701686E+03</pdfrwt>
<pdfrwt beam="2">  1       -1 0.89984982E-01 0.85701686E+03</pdfrwt>
<totfact> 0.10087972E+02</totfact>
</mgrwt>
</event>
<event>
 6    1  0.9512547E-007  0.1106539E+04  0.7818608E-02  0.9198842E-01
         -2   -1    0    0    0  501 -0.00000000000E+00  0.00000000000E+00  0.32173640269E+03  0.32173640269E+03  0.00000000000E+00 0.  1.
          2   -1    0    0  501    0  0.00000000000E+00 -0.00000000000E+00 -0.95142240138E+03  0.95142240138E+03  0.00000000000E+00 0. -1.
         23    2    1    2    0    0 -0.49899813859E+02 -0.14614030956E+03  0.28972319764E+03  0.34087115973E+03  0.91687702464E+02 0.  0.
         11    1    3    3    0    0 -0.23747858558E+02 -0.11710624338E+03  0.27368471338E+03  0.29863214054E+03  0.00000000000E+00 0.  1.
        -11    1    3    3    0    0 -0.26151955301E+02 -0.29034066171E+02  0.16038484259E+02  0.42239019186E+02  0.00000000000E+00 0. -1.
         22    1    1    2    0    0  0.49899813859E+02  0.14614030956E+03 -0.91940919633E+03  0.93228764434E+03  0.00000000000E+00 0. -1.
<mgrwt>
<rscale>  0 0.11065391E+04</rscale>
<asrwt>0</asrwt>
<pdfrwt beam="1">  1        2 0.14637267E+00 0.11065391E+04</pdfrwt>
<pdfrwt beam="2">  1       -2 0.49497910E-01 0.11065391E+04</pdfrwt>
<totfact> 0.10384850E+02</totfact>
</mgrwt>
</event>
<event>
 6    1  0.9512547E-007  0.2036036E+04  0.7818608E-02  0.8589955E-01
         -1   -1    0    0    0  501 -0.00000000000E+00  0.00000000000E+00  0.22954872772E+04  0.22954872772E+04  0.00000000000E+00 0.  1.
          1   -1    0    0  501    0  0.00000000000E+00 -0.00000000000E+00 -0.45147750035E+03  0.45147750035E+03  0.00000000000E+00 0. -1.
         23    2    1    2    0    0  0.19099876368E+03 -0.71856586164E+03  0.18580163003E+04  0.20033159303E+04  0.90734334099E+02 0.  0.
         13    1    3    3    0    0  0.84558478277E+02 -0.41887845543E+03  0.96584688382E+03  0.10561578952E+04  0.00000000000E+00 0.  1.
        -13    1    3    3    0    0  0.10644028540E+03 -0.29968740621E+03  0.89216941645E+03  0.94715803510E+03  0.00000000000E+00 0. -1.
         22    1    1    2    0    0 -0.19099876368E+03  0.71856586164E+03 -0.14006523450E+02  0.74364884720E+03  0.00000000000E+00 0.  1.
<mgrwt>
<rscale>  0 0.20360362E+04</rscale>
<asrwt>0</asrwt>
<pdfrwt beam="1">  1        1 0.69458078E-01 0.20360362E+04</pdfrwt>
<pdfrwt beam="2">  1       -1 0.35315188E+00 0.20360362E+04</pdfrwt>
<totfact> 0.69905411E-01</totfact>
</mgrwt>
</event>
<event>
 6    1  0.9512547E-007  0.1256226E+04  0.7818608E-02  0.9065017E-01
          2   -1    0    0  501    0  0.00000000000E+00  0.00000000000E+00  0.58959620904E+03  0.58959620904E+03  0.00000000000E+00 0. -1.
         -2   -1    0    0    0  501 -0.00000000000E+00 -0.00000000000E+00 -0.66914580230E+03  0.66914580230E+03  0.00000000000E+00 0.  1.
         23    2    1    2    0    0  0.21774179658E+03 -0.29350756303E+03  0.46771384502E+03  0.60067252382E+03  0.92157802270E+02 0.  0.
         13    1    3    3    0    0  0.77195642580E+02 -0.40173644078E+02  0.10067202219E+03  0.13307120261E+03  0.00000000000E+00 0.  1.
        -13    1    3    3    0    0  0.14054615400E+03 -0.25333391895E+03  0.36704182283E+03  0.46760132121E+03  0.00000000000E+00 0. -1.
         22    1    1    2    0    0 -0.21774179658E+03  0.29350756303E+03 -0.54726343828E+03  0.65806948752E+03  0.00000000000E+00 0.  1.
<mgrwt>
<rscale>  0 0.12562258E+04</rscale>
<asrwt>0</asrwt>
<pdfrwt beam="1">  1        2 0.90707110E-01 0.12562258E+04</pdfrwt>
<pdfrwt beam="2">  1       -2 0.10294551E+00 0.12562258E+04</pdfrwt>
<totfact> 0.38390615E+01</totfact>
</mgrwt>
</event>
<event>
 6    1  0.9512547E-007  0.1569714E+04  0.7818608E-02  0.8839373E-01
          1   -1    0    0  501    0  0.00000000000E+00  0.00000000000E+00  0.10777223733E+04  0.10777223733E+04  0.00000000000E+00 0. -1.
         -1   -1    0    0    0  501 -0.00000000000E+00 -0.00000000000E+00 -0.57157621479E+03  0.57157621479E+03  0.00000000000E+00 0.  1.
         23    2    1    2    0    0 -0.40747988760E+03 -0.34065925037E+02 -0.44682831651E+03  0.61230259192E+03  0.89769558239E+02 0.  0.
         11    1    3    3    0    0 -0.20604821824E+03  0.14623595963E+02 -0.17664303431E+03  0.27179492153E+03  0.00000000000E+00 0.  1.
        -11    1    3    3    0    0 -0.20143166936E+03 -0.48689521000E+02 -0.27018528220E+03  0.34050767039E+03  0.00000000000E+00 0. -1.
         22    1    1    2    0    0  0.40747988760E+03  0.34065925037E+02  0.95297447500E+03  0.10369959962E+04  0.00000000000E+00 0. -1.
<mgrwt>
<rscale>  0 0.15697140E+04</rscale>
<asrwt>0</asrwt>
<pdfrwt beam="1">  1        1 0.16580344E+00 0.15697140E+04</pdfrwt>
<pdfrwt beam="2">  1       -1 0.87934802E-01 0.15697140E+04</pdfrwt>
<totfact> 0.16121434E+01</totfact>
</mgrwt>
</event>
<event>
 6    1  0.9512547E-007  0.2010625E+04  0.7818608E-02  0.8601669E-01
          1   -1    0    0  501    0  0.00000000000E+00  0.00000000000E+00  0.76910706968E+03  0.76910706968E+03  0.00000000000E+00 0. -1.
         -1   -1    0    0    0  501 -0.00000000000E+00 -0.00000000000E+00 -0.13140600725E+04  0.13140600725E+04  0.00000000000E+00 0.  1.
         23    2    1    2    0    0  0.10746540526E+03 -0.99142768327E+03 -0.38463144473E+03  0.10731272090E+04  0.95827939693E+02 0.  0.
         11    1    3    3    0    0 -0.13767442790E+02 -0.16616878305E+03 -0.46681753580E+02  0.17314962622E+03  0.00000000000E+00 0. -1.
        -11    1    3    3    0    0  0.12123284805E+03 -0.82525890022E+03 -0.33794969115E+03  0.89997758282E+03  0.00000000000E+00 0.  1.
         22    1    1    2    0    0 -0.10746540526E+03  0.99142768327E+03 -0.16032155806E+03  0.10100399331E+04  0.00000000000E+00 0. -1.
<mgrwt>
<rscale>  0 0.20106247E+04</rscale>
<asrwt>0</asrwt>
<pdfrwt beam="1">  1        1 0.11832417E+00 0.20106247E+04</pdfrwt>
<pdfrwt beam="2">  1       -1 0.20216309E+00 0.20106247E+04</pdfrwt>
<totfact> 0.31727697E+00</totfact>
</mgrwt>
</event>
<event>
 6    1  0.9512547E-007  0.2660991E+04  0.7818608E-02  0.8347774E-01
         -2   -1    0    0    0  501 -0.00000000000E+00  0.00000000000E+00  0.66582962191E+03  0.66582962191E+03  0.00000000000E+00 0.  1.
          2   -1    0    0  501    0  0.00000000000E+00 -0.00000000000E+00 -0.26586658016E+04  0.26586658016E+04  0.00000000000E+00 0. -1.
         23    2    1    2    0    0  0.95748374019E+03 -0.68025700154E+03 -0.17743076357E+04  0.21298074201E+04  0.91582530013E+02 0.  0.
         13    1    3    3    0    0  0.17847899520E+03 -0.11021627244E+03 -0.37828069996E+03  0.43254903352E+03  0.00000000000E+00 0. -1.
        -13    1    3    3    0    0  0.77900474499E+03 -0.57004072910E+03 -0.13960269357E+04  0.16972583866E+04  0.00000000000E+00 0.  1.
         22    1    1    2    0    0 -0.95748374019E+03  0.68025700154E+03 -0.21852854396E+03  0.11946880034E+04  0.00000000000E+00 0. -1.
<mgrwt>
<rscale>  0 0.26609911E+04</rscale>
<asrwt>0</asrwt>
<pdfrwt beam="1">  1        2 0.40902551E+00 0.26609911E+04</pdfrwt>
<pdfrwt beam="2">  1       -2 0.10243533E+00 0.26609911E+04</pdfrwt>
<totfact> 0.19284658E+00</totfact>
</mgrwt>
</event>
<event>
 6    1  0.9512547E-007  0.1059393E+04  0.7818608E-02  0.9245700E-01
          1   -1    0    0  501    0  0.00000000000E+00  0.00000000000E+00  0.44423196476E+03  0.44423196476E+03  0.00000000000E+00 0. -1.
         -1   -1    0    0    0  501 -0.00000000000E+00 -0.00000000000E+00 -0.63160356170E+03  0.63160356170E+03  0.00000000000E+00 0.  1.
         23    2    1    2    0    0  0.25934613961E+03  0.57170907530E+02 -0.55519735139E+03  0.62215643455E+03  0.91135049613E+02 0.  0.
         11    1    3    3    0    0 -0.76658036336E+01  0.34778263711E+01 -0.16572422808E+02  0.18587765314E+02  0.00000000000E+00 0.  1.
        -11    1    3    3    0    0  0.26701194324E+03  0.53693081159E+02 -0.53862492858E+03  0.60356866924E+03  0.00000000000E+00 0. -1.
         22    1    1    2    0    0 -0.25934613961E+03 -0.57170907530E+02  0.36782575446E+03  0.45367909191E+03  0.00000000000E+00 0. -1.
<mgrwt>
<rscale>  0 0.10593932E+04</rscale>
<asrwt>0</asrwt>
<pdfrwt beam="1">  1        1 0.68343380E-01 0.10593932E+04</pdfrwt>
<pdfrwt beam="2">  1       -1 0.97169778E-01 0.10593932E+04</pdfrwt>
<totfact> 0.53002487E+01</totfact>
</mgrwt>
</event>
<event>
 6    1  0.9512547E-007  0.1213839E+04  0.7818608E-02  0.9100829E-01
         -2   -1    0    0    0  501 -0.00000000000E+00  0.00000000000E+00  0.70587720079E+03  0.70587720079E+03  0.00000000000E+00 0.  1.
          2   -1    0    0  501    0  0.00000000000E+00 -0.00000000000E+00 -0.52183444951E+03  0.52183444951E+03  0.00000000000E+00 0. -1.
         23    2    1    2    0    0 -0.22888732708E+03 -0.21316350284E+03 -0.42955899648E+03  0.53899168377E+03  0.90349412140E+02 0.  0.
         11    1    3    3    0    0 -0.19777606485E+01 -0.39374163785E+02 -0.44545578575E+02  0.59485669547E+02  0.00000000000E+00 0. -1.
        -11    1    3    3    0    0 -0.22690956643E+03 -0.17378933905E+03 -0.38501341791E+03  0.47950601422E+03  0.00000000000E+00 0.  1.
         22    1    1    2    0    0  0.22888732708E+03  0.21316350284E+03  0.61360174776E+03  0.68871996653E+03  0.00000000000E+00 0.  1.
<mgrwt>
<rscale>  0 0.12138386E+04</rscale>
<asrwt>0</asrwt>
<pdfrwt beam="1">  1        2 0.80282223E-01 0.12138386E+04</pdfrwt>
<pdfrwt beam="2">  1       -2 0.10859649E+00 0.12138386E+04</pdfrwt>
<totfact> 0.39140931E+01</totfact>
</mgrwt>
</event>
<event>
 6    1  0.9512547E-007  0.1896910E+04  0.7818608E-02  0.8656396E-01
          2   -1    0    0  501    0  0.00000000000E+00  0.00000000000E+00  0.10498148464E+04  0.10498148464E+04  0.00000000000E+00 0. -1.
         -2   -1    0    0    0  501 -0.00000000000E+00 -0.00000000000E+00 -0.85688112109E+03  0.85688112109E+03  0.00000000000E+00 0.  1.
         23    2    1    2    0    0 -0.49909380189E+03 -0.48336610682E+03  0.74271515519E+03  0.10206953824E+04  0.86347238108E+02 0.  0.
         11    1    3    3    0    0 -0.42152245599E+03 -0.42554464344E+03  0.67592567487E+03  0.90313063419E+03  0.00000000000E+00 0. -1.
        -11    1    3    3    0    0 -0.77571345906E+02 -0.57821463374E+02  0.66789480319E+02  0.11756474818E+03  0.00000000000E+00 0.  1.
         22    1    1    2    0    0  0.49909380189E+03  0.48336610682E+03 -0.54978142984E+03  0.88600058516E+03  0.00000000000E+00 0.  1.
<mgrwt>
<rscale>  0 0.18969096E+04</rscale>
<asrwt>0</asrwt>
<pdfrwt beam="1">  1        2 0.16150998E+00 0.18969096E+04</pdfrwt>
<pdfrwt beam="2">  1       -2 0.13182786E+00 0.18969096E+04</pdfrwt>
<totfact> 0.91948785E+00</totfact>
</mgrwt>
</event>
