<event>
 6    1  0.3062576E-002  0.9706239E+02  0.7546771E-02  0.1349687E+00
         -2   -1    0    0    0  501 -0.00000000000E+00  0.00000000000E+00  0.11114972941E+02  0.11114972941E+02  0.00000000000E+00 0.  1.
          2   -1    0    0  501    0  0.00000000000E+00 -0.00000000000E+00 -0.40889776504E+03  0.40889776504E+03  0.00000000000E+00 0. -1.
         23    2    1    2    0    0  0.16148357582E+02  0.26832481243E+02 -0.34727138600E+03  0.36058081350E+03  0.91871410259E+02 0.  0.
         13    1    3    3    0    0  0.50167578212E+02  0.32477986626E+02 -0.25916269245E+03  0.26596410787E+03  0.00000000000E+00 0. -1.
        -13    1    3    3    0    0 -0.34019220630E+02 -0.56455053831E+01 -0.88108693556E+02  0.94616705626E+02  0.00000000000E+00 0.  1.
         22    1    1    2    0    0 -0.16148357582E+02 -0.26832481243E+02 -0.50511406099E+02  0.59431924488E+02  0.00000000000E+00 0. -1.
<mgrwt>
<rscale>  0 0.73153163E+02</rscale>
<asrwt>0</asrwt>
<pdfrwt beam="1">  1        2 0.62907346E-01 0.97062390E+02</pdfrwt>
<pdfrwt beam="2">  1       -2 0.17099959E-02 0.97062390E+02</pdfrwt>
<totfact> 0.66806228E+04</totfact>
</mgrwt>
</event>
<event>
 6    1  0.3062576E-002  0.9248497E+02  0.7546771E-02  0.1358287E+00
          2   -1    0    0  501    0  0.00000000000E+00  0.00000000000E+00  0.11246684921E+04  0.11246684921E+04  0.00000000000E+00 0. -1.
         -2   -1    0    0    0  501 -0.00000000000E+00 -0.00000000000E+00 -0.40671090505E+01  0.40671090505E+01  0.00000000000E+00 0.  1.
         23    2    1    2    0    0 -0.29767076652E+02  0.96362463195E+01  0.99527099063E+03  0.99955881005E+03  0.87031797979E+02 0.  0.
         13    1    3    3    0    0 -0.44970408492E+02  0.36103837451E+02  0.78077526644E+03  0.78290219147E+03  0.00000000000E+00 0. -1.
        -13    1    3    3    0    0  0.15203331841E+02 -0.26467591131E+02  0.21449572419E+03  0.21665661858E+03  0.00000000000E+00 0.  1.
         22    1    1    2    0    0  0.29767076652E+02 -0.96362463195E+01  0.12533039242E+03  0.12917679111E+03  0.00000000000E+00 0.  1.
<mgrwt>
<rscale>  0 0.70533863E+02</rscale>
<asrwt>0</asrwt>
<pdfrwt beam="1">  1        2 0.17302567E+00 0.92484972E+02</pdfrwt>
<pdfrwt beam="2">  1       -2 0.62570998E-03 0.92484972E+02</pdfrwt>
<totfact> 0.83084270E+04</totfact>
</mgrwt>
</event>
<event>
 6    1  0.3062576E-002  0.1095266E+03  0.7546771E-02  0.1330476E+00
          2   -1    0    0  501    0  0.00000000000E+00  0.00000000000E+00  0.94550244499E+03  0.94550244499E+03  0.00000000000E+00 0. -1.
         -2   -1    0    0    0  501 -0.00000000000E+00 -0.00000000000E+00 -0.14109183641E+02  0.14109183641E+02  0.00000000000E+00 0.  1.
         23    2    1    2    0    0  0.21087276894E+01 -0.30329438729E+02  0.92098789579E+03  0.92747764010E+03  0.10522236985E+03 0.  0.
         11    1    3    3    0    0  0.44224053487E+02  0.14595118577E+02  0.32555293969E+03  0.32886699581E+03  0.00000000000E+00 0.  1.
        -11    1    3    3    0    0 -0.42115325798E+02 -0.44924557307E+02  0.59543495610E+03  0.59861064429E+03  0.00000000000E+00 0. -1.
         22    1    1    2    0    0 -0.21087276894E+01  0.30329438729E+02  0.10405365558E+02  0.32133988525E+02  0.00000000000E+00 0.  1.
<mgrwt>
<rscale>  0 0.79500066E+02</rscale>
<asrwt>0</asrwt>
<pdfrwt beam="1">  1        2 0.14546187E+00 0.10952657E+03</pdfrwt>
<pdfrwt beam="2">  1       -2 0.21706444E-02 0.10952657E+03</pdfrwt>
<totfact> 0.18254880E+04</totfact>
</mgrwt>
</event>
<event>
 6    1  0.3062576E-002  0.9661259E+02  0.7546771E-02  0.1353575E+00
          2   -1    0    0  501    0  0.00000000000E+00  0.00000000000E+00  0.98806299305E+03  0.98806299305E+03  0.00000000000E+00 0. -1.
         -2   -1    0    0    0  501 -0.00000000000E+00 -0.00000000000E+00 -0.61203290756E+01  0.61203290756E+01  0.00000000000E+00 0.  1.
         23    2    1    2    0    0  0.44954396213E+01 -0.29381305839E+02  0.92423378380E+03  0.92926964898E+03  0.91926727837E+02 0.  0.
         11    1    3    3    0    0  0.22737247494E+02 -0.51911620426E+02  0.78537598674E+03  0.78741808419E+03  0.00000000000E+00 0. -1.
        -11    1    3    3    0    0 -0.18241807873E+02  0.22530314588E+02  0.13885779706E+03  0.14185156479E+03  0.00000000000E+00 0.  1.
         22    1    1    2    0    0 -0.44954396213E+01  0.29381305839E+02  0.57708880181E+02  0.64913673151E+02  0.00000000000E+00 0.  1.
<mgrwt>
<rscale>  0 0.71953064E+02</rscale>
<asrwt>0</asrwt>
<pdfrwt beam="1">  1        2 0.15200956E+00 0.96612594E+02</pdfrwt>
<pdfrwt beam="2">  1       -2 0.94158988E-03 0.96612594E+02</pdfrwt>
<totfact> 0.56176649E+04</totfact>
</mgrwt>
</event>
<event>
 6    1  0.3062576E-002  0.9220674E+02  0.7546771E-02  0.1408402E+00
          2   -1    0    0  501    0  0.00000000000E+00  0.00000000000E+00  0.70725284208E+03  0.70725284208E+03  0.00000000000E+00 0. -1.
         -2   -1    0    0    0  501 -0.00000000000E+00 -0.00000000000E+00 -0.90700463827E+01  0.90700463827E+01  0.00000000000E+00 0.  1.
         23    2    1    2    0    0  0.13767031496E+02  0.25120675952E+01  0.69609290985E+03  0.70217335622E+03  0.91138583503E+02 0.  0.
         13    1    3    3    0    0 -0.18426670523E+02 -0.36636594040E+02  0.34844560806E+03  0.35085057217E+03  0.00000000000E+00 0.  1.
        -13    1    3    3    0    0  0.32193702019E+02  0.39148661636E+02  0.34764730178E+03  0.35132278405E+03  0.00000000000E+00 0. -1.
         22    1    1    2    0    0 -0.13767031496E+02 -0.25120675952E+01  0.20898858472E+01  0.14149532242E+02  0.00000000000E+00 0.  1.
<mgrwt>
<rscale>  0 0.57551962E+02</rscale>
<asrwt>0</asrwt>
<pdfrwt beam="1">  1        2 0.10880809E+00 0.92206741E+02</pdfrwt>
<pdfrwt beam="2">  1       -2 0.13953923E-02 0.92206741E+02</pdfrwt>
<totfact> 0.48530317E+04</totfact>
</mgrwt>
</event>
<event>
 6    1  0.3062576E-002  0.9615180E+02  0.7546771E-02  0.1383250E+00
         -4   -1    0    0    0  501 -0.00000000000E+00  0.00000000000E+00  0.35863128581E+02  0.35863128581E+02  0.00000000000E+00 0.  1.
          4   -1    0    0  501    0  0.00000000000E+00 -0.00000000000E+00 -0.91584605434E+02  0.91584605434E+02  0.00000000000E+00 0. -1.
         23    2    1    2    0    0 -0.71826870440E+00  0.18411629964E+02 -0.45450737951E+02  0.10635289802E+03  0.94369832628E+02 0.  0.
         11    1    3    3    0    0  0.35143715634E+02 -0.22441994727E+02 -0.22052794319E+02  0.47170431556E+02  0.00000000000E+00 0. -1.
        -11    1    3    3    0    0 -0.35861984339E+02  0.40853624691E+02 -0.23397943632E+02  0.59182466469E+02  0.00000000000E+00 0.  1.
         22    1    1    2    0    0  0.71826870440E+00 -0.18411629964E+02 -0.10270738903E+02  0.21094835990E+02  0.00000000000E+00 0. -1.
<mgrwt>
<rscale>  0 0.63617074E+02</rscale>
<asrwt>0</asrwt>
<pdfrwt beam="1">  1        4 0.14089939E-01 0.96151804E+02</pdfrwt>
<pdfrwt beam="2">  1       -4 0.55174044E-02 0.96151804E+02</pdfrwt>
<totfact> 0.12605666E+04</totfact>
</mgrwt>
</event>
<event>
 6    1  0.3062576E-002  0.9382312E+02  0.7546771E-02  0.1379975E+00
          2   -1    0    0  501    0  0.00000000000E+00  0.00000000000E+00  0.18432771249E+04  0.18432771249E+04  0.00000000000E+00 0. -1.
         -2   -1    0    0    0  501 -0.00000000000E+00 -0.00000000000E+00 -0.11494325821E+02  0.11494325821E+02  0.00000000000E+00 0.  1.
         23    2    1    2    0    0 -0.12321903835E+02 -0.16903190321E+02  0.18314495157E+04  0.18338511679E+04  0.91461632619E+02 0.  0.
         13    1    3    3    0    0 -0.13730479920E+02 -0.54457941799E+02  0.10598740761E+04  0.10613610369E+04  0.00000000000E+00 0. -1.
        -13    1    3    3    0    0  0.14085760855E+01  0.37554751477E+02  0.77157543963E+03  0.77249013100E+03  0.00000000000E+00 0.  1.
         22    1    1    2    0    0  0.12321903835E+02  0.16903190321E+02  0.33328340449E+00  0.20920282861E+02  0.00000000000E+00 0.  1.
<mgrwt>
<rscale>  0 0.64470421E+02</rscale>
<asrwt>0</asrwt>
<pdfrwt beam="1">  1        2 0.28358086E+00 0.93823118E+02</pdfrwt>
<pdfrwt beam="2">  1       -2 0.17683593E-02 0.93823118E+02</pdfrwt>
<totfact> 0.80859878E+03</totfact>
</mgrwt>
</event>
<event>
 6    1  0.3062576E-002  0.7168589E+02  0.7546771E-02  0.1467884E+00
         -3   -1    0    0    0  501 -0.00000000000E+00  0.00000000000E+00  0.56744128248E+02  0.56744128248E+02  0.00000000000E+00 0.  1.
          3   -1    0    0  501    0  0.00000000000E+00 -0.00000000000E+00 -0.31859159504E+02  0.31859159504E+02  0.00000000000E+00 0. -1.
         23    2    1    2    0    0  0.62047351597E+01  0.10514131522E+02  0.15855216468E+02  0.73418356858E+02  0.70638668833E+02 0.  0.
         11    1    3    3    0    0 -0.19851659609E+02 -0.16957883066E+02 -0.95734557942E+01  0.27808438344E+02  0.00000000000E+00 0. -1.
        -11    1    3    3    0    0  0.26056394768E+02  0.27472014588E+02  0.25428672262E+02  0.45609918514E+02  0.00000000000E+00 0.  1.
         22    1    1    2    0    0 -0.62047351597E+01 -0.10514131522E+02  0.90297522766E+01  0.15184930894E+02  0.00000000000E+00 0.  1.
<mgrwt>
<rscale>  0 0.46051121E+02</rscale>
<asrwt>0</asrwt>
<pdfrwt beam="1">  1        3 0.49014092E-02 0.71685893E+02</pdfrwt>
<pdfrwt beam="2">  1       -3 0.87298659E-02 0.71685893E+02</pdfrwt>
<totfact> 0.40842673E+04</totfact>
</mgrwt>
</event>
<event>
 6    1  0.3062576E-002  0.9246453E+02  0.7546771E-02  0.1421019E+00
          3   -1    0    0  501    0  0.00000000000E+00  0.00000000000E+00  0.18526113948E+03  0.18526113948E+03  0.00000000000E+00 0. -1.
         -3   -1    0    0    0  501 -0.00000000000E+00 -0.00000000000E+00 -0.17551989612E+02  0.17551989612E+02  0.00000000000E+00 0.  1.
         23    2    1    2    0    0  0.99068938012E+01  0.56655797915E+01  0.16758354043E+03  0.19139992985E+03  0.91757532582E+02 0.  0.
         13    1    3    3    0    0 -0.46283598636E+01  0.23823349076E+02  0.21771456102E+01  0.24366239743E+02  0.00000000000E+00 0.  1.
        -13    1    3    3    0    0  0.14535253665E+02 -0.18157769285E+02  0.16540639482E+03  0.16703369011E+03  0.00000000000E+00 0. -1.
         22    1    1    2    0    0 -0.99068938012E+01 -0.56655797915E+01  0.12560944016E+00  0.11413199240E+02  0.00000000000E+00 0. -1.
<mgrwt>
<rscale>  0 0.54805818E+02</rscale>
<asrwt>0</asrwt>
<pdfrwt beam="1">  1        3 0.28501712E-01 0.92464534E+02</pdfrwt>
<pdfrwt beam="2">  1       -3 0.27003062E-02 0.92464534E+02</pdfrwt>
<totfact> 0.14617268E+04</totfact>
</mgrwt>
</event>
<event>
 6    1  0.3062576E-002  0.9336180E+02  0.7546771E-02  0.1386894E+00
          2   -1    0    0  501    0  0.00000000000E+00  0.00000000000E+00  0.75340318405E+03  0.75340318405E+03  0.00000000000E+00 0. -1.
         -2   -1    0    0    0  501 -0.00000000000E+00 -0.00000000000E+00 -0.73038479384E+01  0.73038479384E+01  0.00000000000E+00 0.  1.
         23    2    1    2    0    0 -0.14578192294E+02  0.12145103591E+02  0.72963917893E+03  0.73558803506E+03  0.91413339704E+02 0.  0.
         11    1    3    3    0    0  0.19608333902E+02  0.19903601942E+02  0.61671719115E+03  0.61734976633E+03  0.00000000000E+00 0. -1.
        -11    1    3    3    0    0 -0.34186526197E+02 -0.77584983512E+01  0.11292198777E+03  0.11823826873E+03  0.00000000000E+00 0.  1.
         22    1    1    2    0    0  0.14578192294E+02 -0.12145103591E+02  0.16460157184E+02  0.25118996922E+02  0.00000000000E+00 0.  1.
<mgrwt>
<rscale>  0 0.62685751E+02</rscale>
<asrwt>0</asrwt>
<pdfrwt beam="1">  1        2 0.11590812E+00 0.93361801E+02</pdfrwt>
<pdfrwt beam="2">  1       -2 0.11236695E-02 0.93361801E+02</pdfrwt>
<totfact> 0.61364780E+04</totfact>
</mgrwt>
</event>
<event>
 6    1  0.3062576E-002  0.9049963E+02  0.7546771E-02  0.1426187E+00
          1   -1    0    0  501    0  0.00000000000E+00  0.00000000000E+00  0.79744479424E+03  0.79744479424E+03  0.00000000000E+00 0. -1.
         -1   -1    0    0    0  501 -0.00000000000E+00 -0.00000000000E+00 -0.35369894363E+01  0.35369894363E+01  0.00000000000E+00 0.  1.
         23    2    1    2    0    0  0.10059837235E+02 -0.50288016985E+01  0.75721827412E+03  0.76260717184E+03  0.89798077433E+02 0.  0.
         11    1    3    3    0    0 -0.66132395300E+01 -0.53290337192E+01  0.73384933515E+03  0.73389848088E+03  0.00000000000E+00 0. -1.
        -11    1    3    3    0    0  0.16673076765E+02  0.30023202069E+00  0.23368938964E+02  0.28708690955E+02  0.00000000000E+00 0.  1.
         22    1    1    2    0    0 -0.10059837235E+02  0.50288016985E+01  0.36689530687E+02  0.38374611839E+02  0.00000000000E+00 0.  1.
<mgrwt>
<rscale>  0 0.53733087E+02</rscale>
<asrwt>0</asrwt>
<pdfrwt beam="1">  1        1 0.12268367E+00 0.90499635E+02</pdfrwt>
<pdfrwt beam="2">  1       -1 0.54415286E-03 0.90499635E+02</pdfrwt>
<totfact> 0.92133395E+04</totfact>
</mgrwt>
</event>
<event>
 6    1  0.3062576E-002  0.9597943E+02  0.7546771E-02  0.1354921E+00
         -2   -1    0    0    0  501 -0.00000000000E+00  0.00000000000E+00  0.96080160605E+01  0.96080160605E+01  0.00000000000E+00 0. -1.
          2   -1    0    0  501    0  0.00000000000E+00 -0.00000000000E+00 -0.52851553539E+03  0.52851553539E+03  0.00000000000E+00 0.  1.
         23    2    1    2    0    0  0.26919558048E+02 -0.12382889772E+02 -0.47841344000E+03  0.48794617582E+03  0.91291031096E+02 0.  0.
         13    1    3    3    0    0  0.24511235299E+01 -0.39995647888E+02 -0.99867383137E+02  0.10760647783E+03  0.00000000000E+00 0. -1.
        -13    1    3    3    0    0  0.24468434518E+02  0.27612758117E+02 -0.37854605686E+03  0.38033969799E+03  0.00000000000E+00 0.  1.
         22    1    1    2    0    0 -0.26919558048E+02  0.12382889772E+02 -0.40494079330E+02  0.50177375633E+02  0.00000000000E+00 0. -1.
<mgrwt>
<rscale>  0 0.71543527E+02</rscale>
<asrwt>0</asrwt>
<pdfrwt beam="1">  1        2 0.81310117E-01 0.95979430E+02</pdfrwt>
<pdfrwt beam="2">  1       -2 0.14781557E-02 0.95979430E+02</pdfrwt>
<totfact> 0.62390490E+04</totfact>
</mgrwt>
</event>
<event>
 6    1  0.3062576E-002  0.9423442E+02  0.7546771E-02  0.1363143E+00
          4   -1    0    0  501    0  0.00000000000E+00  0.00000000000E+00  0.44551166915E+02  0.44551166915E+02  0.00000000000E+00 0. -1.
         -4   -1    0    0    0  501 -0.00000000000E+00 -0.00000000000E+00 -0.83011183868E+02  0.83011183868E+02  0.00000000000E+00 0.  1.
         23    2    1    2    0    0 -0.15557571086E+02  0.22386726206E+02 -0.27344490322E+02  0.98121588894E+02  0.90204886386E+02 0.  0.
         11    1    3    3    0    0  0.68089073508E+00  0.53639494592E+02 -0.18161562729E+00  0.53644123411E+02  0.00000000000E+00 0.  1.
        -11    1    3    3    0    0 -0.16238461821E+02 -0.31252768386E+02 -0.27162874695E+02  0.44477465483E+02  0.00000000000E+00 0. -1.
         22    1    1    2    0    0  0.15557571086E+02 -0.22386726206E+02 -0.11115526630E+02  0.29440761889E+02  0.00000000000E+00 0. -1.
<mgrwt>
<rscale>  0 0.69110753E+02</rscale>
<asrwt>0</asrwt>
<pdfrwt beam="1">  1        4 0.68540257E-02 0.94234415E+02</pdfrwt>
<pdfrwt beam="2">  1       -4 0.12770951E-01 0.94234415E+02</pdfrwt>
<totfact> 0.10447127E+04</totfact>
</mgrwt>
</event>
<event>
 6    1  0.3062576E-002  0.9296805E+02  0.7546771E-02  0.1399741E+00
         -2   -1    0    0    0  501 -0.00000000000E+00  0.00000000000E+00  0.18549035339E+03  0.18549035339E+03  0.00000000000E+00 0.  1.
          2   -1    0    0  501    0  0.00000000000E+00 -0.00000000000E+00 -0.16233921350E+02  0.16233921350E+02  0.00000000000E+00 0. -1.
         23    2    1    2    0    0 -0.12227080022E+02  0.97646723072E+01  0.15389643575E+03  0.17979758331E+03  0.91641735665E+02 0.  0.
         13    1    3    3    0    0  0.92885191866E+01  0.42971292204E+02  0.11963727063E+03  0.12745934672E+03  0.00000000000E+00 0. -1.
        -13    1    3    3    0    0 -0.21515599208E+02 -0.33206619897E+02  0.34259165113E+02  0.52338236582E+02  0.00000000000E+00 0.  1.
         22    1    1    2    0    0  0.12227080022E+02 -0.97646723072E+01  0.15359996289E+02  0.21926691431E+02  0.00000000000E+00 0.  1.
<mgrwt>
<rscale>  0 0.59547409E+02</rscale>
<asrwt>0</asrwt>
<pdfrwt beam="1">  1        2 0.24975265E-02 0.92968048E+02</pdfrwt>
<pdfrwt beam="2">  1       -2 0.28536976E-01 0.92968048E+02</pdfrwt>
<totfact> 0.39154853E+04</totfact>
</mgrwt>
</event>
<event>
 6    1  0.3062576E-002  0.1165050E+03  0.7546771E-02  0.1273542E+00
         -1   -1    0    0    0  501 -0.00000000000E+00  0.00000000000E+00  0.60453845672E+02  0.60453845672E+02  0.00000000000E+00 0.  1.
          1   -1    0    0  501    0  0.00000000000E+00 -0.00000000000E+00 -0.16053472609E+03  0.16053472609E+03  0.00000000000E+00 0. -1.
         23    2    1    2    0    0  0.43024719149E+02  0.57675527422E+02 -0.92256010846E+02  0.14860886808E+03  0.91628768483E+02 0.  0.
         11    1    3    3    0    0 -0.28017918141E+02  0.73132089487E+01 -0.17454757384E+02  0.33810579963E+02  0.00000000000E+00 0. -1.
        -11    1    3    3    0    0  0.71042637290E+02  0.50362318474E+02 -0.74801253463E+02  0.11479828812E+03  0.00000000000E+00 0.  1.
         22    1    1    2    0    0 -0.43024719149E+02 -0.57675527422E+02 -0.78248695735E+01  0.72379703682E+02  0.00000000000E+00 0. -1.
<mgrwt>
<rscale>  0 0.10328197E+03</rscale>
<asrwt>0</asrwt>
<pdfrwt beam="1">  1        1 0.24697650E-01 0.11650504E+03</pdfrwt>
<pdfrwt beam="2">  1       -1 0.93005918E-02 0.11650504E+03</pdfrwt>
<totfact> 0.12261110E+04</totfact>
</mgrwt>
</event>
<event>
 6    1  0.3062576E-002  0.9216545E+02  0.7546771E-02  0.1429063E+00
         -1   -1    0    0    0  501 -0.00000000000E+00  0.00000000000E+00  0.12739491718E+02  0.12739491718E+02  0.00000000000E+00 0.  1.
          1   -1    0    0  501    0  0.00000000000E+00 -0.00000000000E+00 -0.73906463646E+03  0.73906463646E+03  0.00000000000E+00 0. -1.
         23    2    1    2    0    0  0.20100802884E+00 -0.10190077157E+02 -0.73354602937E+03  0.73931336152E+03  0.91600170484E+02 0.  0.
         13    1    3    3    0    0 -0.73522049262E+01  0.24177013217E+01 -0.25197715384E+01  0.81393762392E+01  0.00000000000E+00 0.  1.
        -13    1    3    3    0    0  0.75532129550E+01 -0.12607778478E+02 -0.73102625784E+03  0.73117398528E+03  0.00000000000E+00 0. -1.
         22    1    1    2    0    0 -0.20100802884E+00  0.10190077157E+02  0.72208846362E+01  0.12490766654E+02  0.00000000000E+00 0.  1.
<mgrwt>
<rscale>  0 0.53148570E+02</rscale>
<asrwt>0</asrwt>
<pdfrwt beam="1">  1        1 0.11370227E+00 0.92165445E+02</pdfrwt>
<pdfrwt beam="2">  1       -1 0.19599214E-02 0.92165445E+02</pdfrwt>
<totfact> 0.16889537E+04</totfact>
</mgrwt>
</event>
<event>
 6    1  0.3062576E-002  0.9349755E+02  0.7546771E-02  0.1407451E+00
          2   -1    0    0  501    0  0.00000000000E+00  0.00000000000E+00  0.23207036470E+02  0.23207036470E+02  0.00000000000E+00 0. -1.
         -2   -1    0    0    0  501 -0.00000000000E+00 -0.00000000000E+00 -0.14870909308E+03  0.14870909308E+03  0.00000000000E+00 0.  1.
         23    2    1    2    0    0  0.13587494413E+02 -0.99743628390E+00 -0.75749626420E+02  0.12033203129E+03  0.92499605232E+02 0.  0.
         13    1    3    3    0    0 -0.78422957162E+01 -0.80233354512E+01  0.19473774680E+02  0.22474505871E+02  0.00000000000E+00 0. -1.
        -13    1    3    3    0    0  0.21429790130E+02  0.70258991673E+01 -0.95223401100E+02  0.97857525419E+02  0.00000000000E+00 0.  1.
         22    1    1    2    0    0 -0.13587494413E+02  0.99743628390E+00 -0.49752430194E+02  0.51584098265E+02  0.00000000000E+00 0.  1.
<mgrwt>
<rscale>  0 0.57766595E+02</rscale>
<asrwt>0</asrwt>
<pdfrwt beam="1">  1        2 0.35703132E-02 0.93497550E+02</pdfrwt>
<pdfrwt beam="2">  1       -2 0.22878323E-01 0.93497550E+02</pdfrwt>
<totfact> 0.35781577E+04</totfact>
</mgrwt>
</event>
<event>
 6    1  0.3062576E-002  0.9427940E+02  0.7546771E-02  0.1387766E+00
          2   -1    0    0  501    0  0.00000000000E+00  0.00000000000E+00  0.31007087170E+03  0.31007087170E+03  0.00000000000E+00 0. -1.
         -2   -1    0    0    0  501 -0.00000000000E+00 -0.00000000000E+00 -0.12984817996E+02  0.12984817996E+02  0.00000000000E+00 0.  1.
         23    2    1    2    0    0 -0.17225019348E+02  0.57783279136E+01  0.28739547769E+03  0.30246448700E+03  0.92512242080E+02 0.  0.
         13    1    3    3    0    0  0.26463885765E+02 -0.64827518644E+01  0.27772899187E+02  0.38906262359E+02  0.00000000000E+00 0.  1.
        -13    1    3    3    0    0 -0.43688905114E+02  0.12261079778E+02  0.25962257850E+03  0.26355822464E+03  0.00000000000E+00 0. -1.
         22    1    1    2    0    0  0.17225019348E+02 -0.57783279136E+01  0.96905760179E+01  0.20591202699E+02  0.00000000000E+00 0.  1.
<mgrwt>
<rscale>  0 0.62465715E+02</rscale>
<asrwt>0</asrwt>
<pdfrwt beam="1">  1        2 0.47703206E-01 0.94279400E+02</pdfrwt>
<pdfrwt beam="2">  1       -2 0.19976645E-02 0.94279400E+02</pdfrwt>
<totfact> 0.71180322E+04</totfact>
</mgrwt>
</event>
<event>
 6    1  0.3062576E-002  0.9628937E+02  0.7546771E-02  0.1348533E+00
         -1   -1    0    0    0  501 -0.00000000000E+00  0.00000000000E+00  0.20452293659E+03  0.20452293659E+03  0.00000000000E+00 0.  1.
          1   -1    0    0  501    0  0.00000000000E+00 -0.00000000000E+00 -0.25511864540E+02  0.25511864540E+02  0.00000000000E+00 0. -1.
         23    2    1    2    0    0 -0.32716174171E+02 -0.64545632666E-01  0.78187475876E+02  0.12403598150E+03  0.90560980026E+02 0.  0.
         11    1    3    3    0    0  0.16555547021E+02  0.32620865531E+02  0.36606240624E+02  0.51751558989E+02  0.00000000000E+00 0.  1.
        -11    1    3    3    0    0 -0.49271721191E+02 -0.32685411164E+02  0.41581235252E+02  0.72284422507E+02  0.00000000000E+00 0. -1.
         22    1    1    2    0    0  0.32716174171E+02  0.64545632666E-01  0.10082359617E+03  0.10599881964E+03  0.00000000000E+00 0.  1.
<mgrwt>
<rscale>  0 0.73514771E+02</rscale>
<asrwt>0</asrwt>
<pdfrwt beam="1">  1        1 0.39249024E-02 0.96289373E+02</pdfrwt>
<pdfrwt beam="2">  1       -1 0.31465066E-01 0.96289373E+02</pdfrwt>
<totfact> 0.19612419E+04</totfact>
</mgrwt>
</event>
<event>
 6    1  0.3062576E-002  0.9025716E+02  0.7546771E-02  0.1381125E+00
          2   -1    0    0  501    0  0.00000000000E+00  0.00000000000E+00  0.32032962083E+04  0.32032962083E+04  0.00000000000E+00 0.  1.
         -2   -1    0    0    0  501 -0.00000000000E+00 -0.00000000000E+00 -0.12542925050E+02  0.12542925050E+02  0.00000000000E+00 0. -1.
         23    2    1    2    0    0 -0.22504281776E-01  0.23059974324E+02  0.31914913338E+04  0.31927673402E+04  0.87261629646E+02 0.  0.
         11    1    3    3    0    0  0.27500269440E+02 -0.80192136086E+01  0.42488041383E+03  0.42584497022E+03  0.00000000000E+00 0. -1.
        -11    1    3    3    0    0 -0.27522773722E+02  0.31079187933E+02  0.27666109200E+04  0.27669223700E+04  0.00000000000E+00 0.  1.
         22    1    1    2    0    0  0.22504281776E-01 -0.23059974324E+02 -0.73805051299E+00  0.23071793186E+02  0.00000000000E+00 0. -1.
<mgrwt>
<rscale>  0 0.64169108E+02</rscale>
<asrwt>0</asrwt>
<pdfrwt beam="1">  1        2 0.49281415E+00 0.90257160E+02</pdfrwt>
<pdfrwt beam="2">  1       -2 0.19296833E-02 0.90257160E+02</pdfrwt>
<totfact> 0.13414084E+03</totfact>
</mgrwt>
</event>
<event>
 6    1  0.3062576E-002  0.9066635E+02  0.7546771E-02  0.1410300E+00
          1   -1    0    0  501    0  0.00000000000E+00  0.00000000000E+00  0.13394073237E+02  0.13394073237E+02  0.00000000000E+00 0. -1.
         -1   -1    0    0    0  501 -0.00000000000E+00 -0.00000000000E+00 -0.20956642038E+03  0.20956642038E+03  0.00000000000E+00 0.  1.
         23    2    1    2    0    0 -0.14275831047E+02  0.63368363367E+00 -0.17873322523E+03  0.20041445449E+03  0.89533160685E+02 0.  0.
         13    1    3    3    0    0  0.26775322579E+02 -0.29289557330E+02 -0.72115461235E+02  0.82313035523E+02  0.00000000000E+00 0. -1.
        -13    1    3    3    0    0 -0.41051153626E+02  0.29923240964E+02 -0.10661776399E+03  0.11810141897E+03  0.00000000000E+00 0.  1.
         22    1    1    2    0    0  0.14275831047E+02 -0.63368363367E+00 -0.17439121915E+02  0.22546039125E+02  0.00000000000E+00 0. -1.
<mgrwt>
<rscale>  0 0.57127053E+02</rscale>
<asrwt>0</asrwt>
<pdfrwt beam="1">  1        1 0.20606268E-02 0.90666354E+02</pdfrwt>
<pdfrwt beam="2">  1       -1 0.32240986E-01 0.90666354E+02</pdfrwt>
<totfact> 0.45197041E+04</totfact>
</mgrwt>
</event>
<event>
 6    1  0.3062576E-002  0.1056824E+03  0.7546771E-02  0.1310373E+00
         -3   -1    0    0    0  501 -0.00000000000E+00  0.00000000000E+00  0.38073174424E+02  0.38073174424E+02  0.00000000000E+00 0.  1.
          3   -1    0    0  501    0  0.00000000000E+00 -0.00000000000E+00 -0.15641220325E+03  0.15641220325E+03  0.00000000000E+00 0. -1.
         23    2    1    2    0    0 -0.42165827006E+02  0.23878699819E+02 -0.76499415356E+02  0.13046426766E+03  0.93918130912E+02 0.  0.
         11    1    3    3    0    0 -0.72436174732E+02  0.13828124992E+02 -0.55095499636E+02  0.92052868129E+02  0.00000000000E+00 0.  1.
        -11    1    3    3    0    0  0.30270347726E+02  0.10050574827E+02 -0.21403915720E+02  0.38411399531E+02  0.00000000000E+00 0. -1.
         22    1    1    2    0    0  0.42165827006E+02 -0.23878699819E+02 -0.41839613471E+02  0.64021110015E+02  0.00000000000E+00 0. -1.
<mgrwt>
<rscale>  0 0.86964627E+02</rscale>
<asrwt>0</asrwt>
<pdfrwt beam="1">  1        3 0.24063416E-01 0.10568238E+03</pdfrwt>
<pdfrwt beam="2">  1       -3 0.58574115E-02 0.10568238E+03</pdfrwt>
<totfact> 0.61422458E+03</totfact>
</mgrwt>
</event>
<event>
 6    1  0.3062576E-002  0.9222960E+02  0.7546771E-02  0.1429237E+00
          2   -1    0    0  501    0  0.00000000000E+00  0.00000000000E+00  0.14281377803E+03  0.14281377803E+03  0.00000000000E+00 0. -1.
         -2   -1    0    0    0  501 -0.00000000000E+00 -0.00000000000E+00 -0.18707213533E+02  0.18707213533E+02  0.00000000000E+00 0.  1.
         23    2    1    2    0    0  0.62107706854E+01 -0.80203574913E+01  0.11766865769E+03  0.14950656478E+03  0.91670061107E+02 0.  0.
         11    1    3    3    0    0  0.13738794105E+02 -0.45614427666E+02  0.91277191467E+02  0.10296094481E+03  0.00000000000E+00 0.  1.
        -11    1    3    3    0    0 -0.75280234191E+01  0.37594070175E+02  0.26391466228E+02  0.46545619971E+02  0.00000000000E+00 0. -1.
         22    1    1    2    0    0 -0.62107706854E+01  0.80203574913E+01  0.64379068009E+01  0.12014426777E+02  0.00000000000E+00 0. -1.
<mgrwt>
<rscale>  0 0.53113458E+02</rscale>
<asrwt>0</asrwt>
<pdfrwt beam="1">  1        2 0.21971350E-01 0.92229604E+02</pdfrwt>
<pdfrwt beam="2">  1       -2 0.28780329E-02 0.92229604E+02</pdfrwt>
<totfact> 0.95793024E+04</totfact>
</mgrwt>
</event>
<event>
 6    1  0.3062576E-002  0.9570395E+02  0.7546771E-02  0.1357994E+00
          2   -1    0    0  501    0  0.00000000000E+00  0.00000000000E+00  0.11606129733E+03  0.11606129733E+03  0.00000000000E+00 0. -1.
         -2   -1    0    0    0  501 -0.00000000000E+00 -0.00000000000E+00 -0.55434631118E+02  0.55434631118E+02  0.00000000000E+00 0.  1.
         23    2    1    2    0    0 -0.15916359956E+02  0.23491310774E+02  0.89486317191E+02  0.13102307766E+03  0.91400622096E+02 0.  0.
         13    1    3    3    0    0  0.23257746162E+02  0.26538692023E+02  0.22656166144E+01  0.35360400867E+02  0.00000000000E+00 0.  1.
        -13    1    3    3    0    0 -0.39174106117E+02 -0.30473812493E+01  0.87220700577E+02  0.95662676796E+02  0.00000000000E+00 0. -1.
         22    1    1    2    0    0  0.15916359956E+02 -0.23491310774E+02 -0.28859650979E+02  0.40472850786E+02  0.00000000000E+00 0. -1.
<mgrwt>
<rscale>  0 0.70620940E+02</rscale>
<asrwt>0</asrwt>
<pdfrwt beam="1">  1        2 0.17855584E-01 0.95703949E+02</pdfrwt>
<pdfrwt beam="2">  1       -2 0.85284048E-02 0.95703949E+02</pdfrwt>
<totfact> 0.24083860E+04</totfact>
</mgrwt>
</event>
<event>
 6    1  0.3062576E-002  0.9162934E+02  0.7546771E-02  0.1428261E+00
          2   -1    0    0  501    0  0.00000000000E+00  0.00000000000E+00  0.51198579976E+03  0.51198579976E+03  0.00000000000E+00 0. -1.
         -2   -1    0    0    0  501 -0.00000000000E+00 -0.00000000000E+00 -0.52471890127E+01  0.52471890127E+01  0.00000000000E+00 0.  1.
         23    2    1    2    0    0 -0.28414989271E+01 -0.10107239459E+02  0.47632499834E+03  0.48505818146E+03  0.91025847742E+02 0.  0.
         11    1    3    3    0    0  0.39995724673E+01  0.21183618619E+02  0.41768336069E+03  0.41823932392E+03  0.00000000000E+00 0. -1.
        -11    1    3    3    0    0 -0.68410713944E+01 -0.31290858078E+02  0.58641637651E+02  0.66818857544E+02  0.00000000000E+00 0.  1.
         22    1    1    2    0    0  0.28414989271E+01  0.10107239459E+02  0.30413612413E+02  0.32174807313E+02  0.00000000000E+00 0.  1.
<mgrwt>
<rscale>  0 0.53310602E+02</rscale>
<asrwt>0</asrwt>
<pdfrwt beam="1">  1        2 0.78767007E-01 0.91629337E+02</pdfrwt>
<pdfrwt beam="2">  1       -2 0.80726025E-03 0.91629337E+02</pdfrwt>
<totfact> 0.15140067E+05</totfact>
</mgrwt>
</event>
<event>
 6    1  0.3062576E-002  0.9966643E+02  0.7546771E-02  0.1404888E+00
          4   -1    0    0  501    0  0.00000000000E+00  0.00000000000E+00  0.47244611960E+02  0.47244611960E+02  0.00000000000E+00 0. -1.
         -4   -1    0    0    0  501 -0.00000000000E+00 -0.00000000000E+00 -0.80332337948E+02  0.80332337948E+02  0.00000000000E+00 0.  1.
         23    2    1    2    0    0 -0.36939838574E+01 -0.11111282768E+02 -0.81160619842E+01  0.99996338518E+02  0.98976214988E+02 0.  0.
         13    1    3    3    0    0 -0.45365915035E+02  0.25254284442E+00 -0.27067788144E+02  0.52827977246E+02  0.00000000000E+00 0.  1.
        -13    1    3    3    0    0  0.41671931178E+02 -0.11363825613E+02  0.18951726160E+02  0.47168361272E+02  0.00000000000E+00 0. -1.
         22    1    1    2    0    0  0.36939838574E+01  0.11111282768E+02 -0.24971664004E+02  0.27580611390E+02  0.00000000000E+00 0. -1.
<mgrwt>
<rscale>  0 0.58350393E+02</rscale>
<asrwt>0</asrwt>
<pdfrwt beam="1">  1        4 0.72684019E-02 0.99666430E+02</pdfrwt>
<pdfrwt beam="2">  1       -4 0.12358821E-01 0.99666430E+02</pdfrwt>
<totfact> 0.10204883E+04</totfact>
</mgrwt>
</event>
<event>
 6    1  0.3062576E-002  0.9332111E+02  0.7546771E-02  0.1426983E+00
         -2   -1    0    0    0  501 -0.00000000000E+00  0.00000000000E+00  0.87776447934E+01  0.87776447934E+01  0.00000000000E+00 0.  1.
          2   -1    0    0  501    0  0.00000000000E+00 -0.00000000000E+00 -0.32686574320E+03  0.32686574320E+03  0.00000000000E+00 0. -1.
         23    2    1    2    0    0 -0.76215683683E+01  0.66782440208E+01 -0.30576432762E+03  0.31968837079E+03  0.92769300551E+02 0.  0.
         11    1    3    3    0    0 -0.12981082795E+02 -0.27168431182E+02 -0.26378569833E+03  0.26549863805E+03  0.00000000000E+00 0. -1.
        -11    1    3    3    0    0  0.53595144263E+01  0.33846675203E+02 -0.41978629293E+02  0.54189732741E+02  0.00000000000E+00 0.  1.
         22    1    1    2    0    0  0.76215683683E+01 -0.66782440208E+01 -0.12323770784E+02  0.15955017202E+02  0.00000000000E+00 0. -1.
<mgrwt>
<rscale>  0 0.53570352E+02</rscale>
<asrwt>0</asrwt>
<pdfrwt beam="1">  1        2 0.50287035E-01 0.93321114E+02</pdfrwt>
<pdfrwt beam="2">  1       -2 0.13504070E-02 0.93321114E+02</pdfrwt>
<totfact> 0.11778030E+05</totfact>
</mgrwt>
</event>
<event>
 6    1  0.3062576E-002  0.9544790E+02  0.7546771E-02  0.1361777E+00
          2   -1    0    0  501    0  0.00000000000E+00  0.00000000000E+00  0.12748655340E+03  0.12748655340E+03  0.00000000000E+00 0. -1.
         -2   -1    0    0    0  501 -0.00000000000E+00 -0.00000000000E+00 -0.48947579151E+02  0.48947579151E+02  0.00000000000E+00 0.  1.
         23    2    1    2    0    0  0.26673964019E+02  0.30025440055E+01  0.10278123397E+03  0.14026504653E+03  0.91595772799E+02 0.  0.
         11    1    3    3    0    0 -0.25314316728E+02 -0.78999438757E+01  0.23135443119E+01  0.26619095250E+02  0.00000000000E+00 0.  1.
        -11    1    3    3    0    0  0.51988280747E+02  0.10902487881E+02  0.10046768966E+03  0.11364595128E+03  0.00000000000E+00 0. -1.
         22    1    1    2    0    0 -0.26673964019E+02 -0.30025440055E+01 -0.24242259723E+02  0.36169086019E+02  0.00000000000E+00 0.  1.
<mgrwt>
<rscale>  0 0.69507265E+02</rscale>
<asrwt>0</asrwt>
<pdfrwt beam="1">  1        2 0.19613316E-01 0.95447898E+02</pdfrwt>
<pdfrwt beam="2">  1       -2 0.75303968E-02 0.95447898E+02</pdfrwt>
<totfact> 0.26202316E+04</totfact>
</mgrwt>
</event>
<event>
 6    1  0.3062576E-002  0.9199903E+02  0.7546771E-02  0.1399341E+00
         -2   -1    0    0    0  501 -0.00000000000E+00  0.00000000000E+00  0.41433055500E+01  0.41433055500E+01  0.00000000000E+00 0.  1.
          2   -1    0    0  501    0  0.00000000000E+00 -0.00000000000E+00 -0.73814934580E+03  0.73814934580E+03  0.00000000000E+00 0. -1.
         23    2    1    2    0    0 -0.68993288380E+01 -0.14712718800E+02 -0.66851794732E+03  0.67481854411E+03  0.90552508228E+02 0.  0.
         13    1    3    3    0    0  0.38996652471E+02  0.76195278300E+01 -0.34816660834E+03  0.35042657330E+03  0.00000000000E+00 0.  1.
        -13    1    3    3    0    0 -0.45895981309E+02 -0.22332246630E+02 -0.32035133898E+03  0.32439197081E+03  0.00000000000E+00 0. -1.
         22    1    1    2    0    0  0.68993288380E+01  0.14712718800E+02 -0.65488092934E+02  0.67474107249E+02  0.00000000000E+00 0.  1.
<mgrwt>
<rscale>  0 0.59641871E+02</rscale>
<asrwt>0</asrwt>
<pdfrwt beam="1">  1        2 0.11356142E+00 0.91999030E+02</pdfrwt>
<pdfrwt beam="2">  1       -2 0.63743174E-03 0.91999030E+02</pdfrwt>
<totfact> 0.13977466E+05</totfact>
</mgrwt>
</event>
<event>
 6    1  0.3062576E-002  0.8933853E+02  0.7546771E-02  0.1408560E+00
          2   -1    0    0  501    0  0.00000000000E+00  0.00000000000E+00  0.27205685155E+03  0.27205685155E+03  0.00000000000E+00 0. -1.
         -2   -1    0    0    0  501 -0.00000000000E+00 -0.00000000000E+00 -0.96671723543E+02  0.96671723543E+02  0.00000000000E+00 0.  1.
         23    2    1    2    0    0 -0.82101726802E+01  0.12967390750E+02  0.26404542823E+03  0.27874963870E+03  0.88010299113E+02 0.  0.
         11    1    3    3    0    0  0.11515002343E+02  0.81805486527E+01  0.20187560131E+00  0.14126479001E+02  0.00000000000E+00 0.  1.
        -11    1    3    3    0    0 -0.19725175023E+02  0.47868420970E+01  0.26384355263E+03  0.26462315970E+03  0.00000000000E+00 0. -1.
         22    1    1    2    0    0  0.82101726802E+01 -0.12967390750E+02 -0.88660300223E+02  0.89978936390E+02  0.00000000000E+00 0.  1.
<mgrwt>
<rscale>  0 0.57516418E+02</rscale>
<asrwt>0</asrwt>
<pdfrwt beam="1">  1        2 0.41854900E-01 0.89338530E+02</pdfrwt>
<pdfrwt beam="2">  1       -2 0.14872573E-01 0.89338530E+02</pdfrwt>
<totfact> 0.39654711E+03</totfact>
</mgrwt>
</event>
<event>
 6    1  0.3062576E-002  0.9198891E+02  0.7546771E-02  0.1408335E+00
         -4   -1    0    0    0  501 -0.00000000000E+00  0.00000000000E+00  0.24152529391E+02  0.24152529391E+02  0.00000000000E+00 0.  1.
          4   -1    0    0  501    0  0.00000000000E+00 -0.00000000000E+00 -0.11737810237E+03  0.11737810237E+03  0.00000000000E+00 0. -1.
         23    2    1    2    0    0  0.98170129981E+01 -0.10133309993E+02 -0.76443755657E+02  0.11960605404E+03  0.90900509725E+02 0.  0.
         11    1    3    3    0    0 -0.20806379670E+02 -0.25791120274E+02  0.27646543659E+01  0.33252528230E+02  0.00000000000E+00 0.  1.
        -11    1    3    3    0    0  0.30623392668E+02  0.15657810281E+02 -0.79208410023E+02  0.86353525809E+02  0.00000000000E+00 0. -1.
         22    1    1    2    0    0 -0.98170129981E+01  0.10133309993E+02 -0.16781817323E+02  0.21924577721E+02  0.00000000000E+00 0. -1.
<mgrwt>
<rscale>  0 0.57567053E+02</rscale>
<asrwt>0</asrwt>
<pdfrwt beam="1">  1        4 0.18058170E-01 0.91988914E+02</pdfrwt>
<pdfrwt beam="2">  1       -4 0.37157737E-02 0.91988914E+02</pdfrwt>
<totfact> 0.15113393E+04</totfact>
</mgrwt>
</event>
<event>
 6    1  0.3062576E-002  0.9158781E+02  0.7546771E-02  0.1414902E+00
          2   -1    0    0  501    0  0.00000000000E+00  0.00000000000E+00  0.30541033154E+03  0.30541033154E+03  0.00000000000E+00 0. -1.
         -2   -1    0    0    0  501 -0.00000000000E+00 -0.00000000000E+00 -0.10844139430E+02  0.10844139430E+02  0.00000000000E+00 0.  1.
         23    2    1    2    0    0  0.88903382027E+01 -0.93551427229E+01  0.28707757589E+03  0.30133347296E+03  0.90673979390E+02 0.  0.
         11    1    3    3    0    0  0.37981143273E+02  0.92791987849E+01  0.23873434973E+03  0.24191477945E+03  0.00000000000E+00 0. -1.
        -11    1    3    3    0    0 -0.29090805070E+02 -0.18634341508E+02  0.48343226158E+02  0.59418693510E+02  0.00000000000E+00 0.  1.
         22    1    1    2    0    0 -0.88903382027E+01  0.93551427229E+01  0.74886162198E+01  0.14920998010E+02  0.00000000000E+00 0.  1.
<mgrwt>
<rscale>  0 0.56114302E+02</rscale>
<asrwt>0</asrwt>
<pdfrwt beam="1">  1        2 0.46986198E-01 0.91587812E+02</pdfrwt>
<pdfrwt beam="2">  1       -2 0.16683294E-02 0.91587812E+02</pdfrwt>
<totfact> 0.93248883E+04</totfact>
</mgrwt>
</event>
<event>
 6    1  0.3062576E-002  0.8695547E+02  0.7546771E-02  0.1415713E+00
          1   -1    0    0  501    0  0.00000000000E+00  0.00000000000E+00  0.24607543085E+03  0.24607543085E+03  0.00000000000E+00 0. -1.
         -1   -1    0    0    0  501 -0.00000000000E+00 -0.00000000000E+00 -0.66916631908E+02  0.66916631908E+02  0.00000000000E+00 0.  1.
         23    2    1    2    0    0  0.78851316822E+01 -0.12632943792E+02  0.23742781240E+03  0.25285019299E+03  0.85670808463E+02 0.  0.
         11    1    3    3    0    0  0.39776013056E+02 -0.60186784320E+01  0.19634249089E+03  0.20042137969E+03  0.00000000000E+00 0. -1.
        -11    1    3    3    0    0 -0.31890881374E+02 -0.66142653602E+01  0.41085321504E+02  0.52428813301E+02  0.00000000000E+00 0.  1.
         22    1    1    2    0    0 -0.78851316822E+01  0.12632943792E+02 -0.58269013456E+02  0.60141869772E+02  0.00000000000E+00 0.  1.
<mgrwt>
<rscale>  0 0.55938356E+02</rscale>
<asrwt>0</asrwt>
<pdfrwt beam="1">  1        1 0.37857758E-01 0.86955471E+02</pdfrwt>
<pdfrwt beam="2">  1       -1 0.10294867E-01 0.86955471E+02</pdfrwt>
<totfact> 0.60632494E+03</totfact>
</mgrwt>
</event>
<event>
 6    1  0.3062576E-002  0.9399241E+02  0.7546771E-02  0.1422848E+00
          2   -1    0    0  501    0  0.00000000000E+00  0.00000000000E+00  0.36990929934E+02  0.36990929934E+02  0.00000000000E+00 0. -1.
         -2   -1    0    0    0  501 -0.00000000000E+00 -0.00000000000E+00 -0.90847557790E+02  0.90847557790E+02  0.00000000000E+00 0.  1.
         23    2    1    2    0    0 -0.90758870347E+01 -0.54069948204E+01 -0.25222653520E+02  0.97317809410E+02  0.93396822534E+02 0.  0.
         11    1    3    3    0    0  0.26826346155E+02 -0.25550830771E+02  0.14807558375E+02  0.39896886923E+02  0.00000000000E+00 0. -1.
        -11    1    3    3    0    0 -0.35902233190E+02  0.20143835950E+02 -0.40030211896E+02  0.57420922487E+02  0.00000000000E+00 0.  1.
         22    1    1    2    0    0  0.90758870347E+01  0.54069948204E+01 -0.28633974336E+02  0.30520678313E+02  0.00000000000E+00 0. -1.
<mgrwt>
<rscale>  0 0.54422838E+02</rscale>
<asrwt>0</asrwt>
<pdfrwt beam="1">  1        2 0.56909123E-02 0.93992413E+02</pdfrwt>
<pdfrwt beam="2">  1       -2 0.13976547E-01 0.93992413E+02</pdfrwt>
<totfact> 0.44158935E+04</totfact>
</mgrwt>
</event>
<event>
 6    1  0.3062576E-002  0.9394331E+02  0.7546771E-02  0.1413370E+00
         -2   -1    0    0    0  501 -0.00000000000E+00  0.00000000000E+00  0.18645714480E+02  0.18645714480E+02  0.00000000000E+00 0. -1.
          2   -1    0    0  501    0  0.00000000000E+00 -0.00000000000E+00 -0.26135225236E+03  0.26135225236E+03  0.00000000000E+00 0.  1.
         23    2    1    2    0    0 -0.96960395076E+01 -0.74809988140E+01 -0.24906936215E+03  0.26619709519E+03  0.93141654503E+02 0.  0.
         11    1    3    3    0    0 -0.38831965931E+02 -0.29828422045E+02 -0.85240014439E+02  0.98303186120E+02  0.00000000000E+00 0. -1.
        -11    1    3    3    0    0  0.29135926423E+02  0.22347423231E+02 -0.16382934771E+03  0.16789390907E+03  0.00000000000E+00 0.  1.
         22    1    1    2    0    0  0.96960395076E+01  0.74809988140E+01  0.63628242708E+01  0.13800871642E+02  0.00000000000E+00 0. -1.
<mgrwt>
<rscale>  0 0.56448583E+02</rscale>
<asrwt>0</asrwt>
<pdfrwt beam="1">  1        2 0.40208036E-01 0.93943314E+02</pdfrwt>
<pdfrwt beam="2">  1       -2 0.28685717E-02 0.93943314E+02</pdfrwt>
<totfact> 0.50440356E+04</totfact>
</mgrwt>
</event>
<event>
 6    1  0.3062576E-002  0.9691215E+02  0.7546771E-02  0.1344461E+00
         -2   -1    0    0    0  501 -0.00000000000E+00  0.00000000000E+00  0.14650731553E+03  0.14650731553E+03  0.00000000000E+00 0.  1.
          2   -1    0    0  501    0  0.00000000000E+00 -0.00000000000E+00 -0.61792685979E+02  0.61792685979E+02  0.00000000000E+00 0. -1.
         23    2    1    2    0    0  0.10047775664E+02  0.32911562609E+02 -0.19235119161E+02  0.98802608816E+02  0.90597113368E+02 0.  0.
         13    1    3    3    0    0  0.89656895285E+01  0.55240693114E+02  0.14978092121E+02  0.57933246137E+02  0.00000000000E+00 0.  1.
        -13    1    3    3    0    0  0.10820861351E+01 -0.22329130505E+02 -0.34213211283E+02  0.40869362679E+02  0.00000000000E+00 0. -1.
         22    1    1    2    0    0 -0.10047775664E+02 -0.32911562609E+02  0.10394974871E+03  0.10949739269E+03  0.00000000000E+00 0.  1.
<mgrwt>
<rscale>  0 0.74809810E+02</rscale>
<asrwt>0</asrwt>
<pdfrwt beam="1">  1        2 0.95065671E-02 0.96912155E+02</pdfrwt>
<pdfrwt beam="2">  1       -2 0.22539587E-01 0.96912155E+02</pdfrwt>
<totfact> 0.10581653E+04</totfact>
</mgrwt>
</event>
<event>
 6    1  0.3062576E-002  0.9415119E+02  0.7546771E-02  0.1363650E+00
         -2   -1    0    0    0  501 -0.00000000000E+00  0.00000000000E+00  0.27818301010E+02  0.27818301010E+02  0.00000000000E+00 0.  1.
          2   -1    0    0  501    0  0.00000000000E+00 -0.00000000000E+00 -0.13809361936E+03  0.13809361936E+03  0.00000000000E+00 0. -1.
         23    2    1    2    0    0  0.77086580189E+01  0.25984311195E+02 -0.98807231764E+02  0.13648192128E+03  0.90165614009E+02 0.  0.
         11    1    3    3    0    0 -0.80372890308E+01  0.38085414056E+02 -0.34478271850E+01  0.39076646365E+02  0.00000000000E+00 0.  1.
        -11    1    3    3    0    0  0.15745947050E+02 -0.12101102862E+02 -0.95359404579E+02  0.97405274911E+02  0.00000000000E+00 0. -1.
         22    1    1    2    0    0 -0.77086580189E+01 -0.25984311195E+02 -0.11468086587E+02  0.29429999094E+02  0.00000000000E+00 0. -1.
<mgrwt>
<rscale>  0 0.68964611E+02</rscale>
<asrwt>0</asrwt>
<pdfrwt beam="1">  1        2 0.21245172E-01 0.94151186E+02</pdfrwt>
<pdfrwt beam="2">  1       -2 0.42797386E-02 0.94151186E+02</pdfrwt>
<totfact> 0.55789137E+04</totfact>
</mgrwt>
</event>
<event>
 6    1  0.3062576E-002  0.9152840E+02  0.7546771E-02  0.1426023E+00
          2   -1    0    0  501    0  0.00000000000E+00  0.00000000000E+00  0.13465152723E+03  0.13465152723E+03  0.00000000000E+00 0. -1.
         -2   -1    0    0    0  501 -0.00000000000E+00 -0.00000000000E+00 -0.21633200805E+02  0.21633200805E+02  0.00000000000E+00 0.  1.
         23    2    1    2    0    0  0.70704257972E+01  0.82942983814E+01  0.11295813252E+03  0.14538564872E+03  0.90877174501E+02 0.  0.
         11    1    3    3    0    0  0.28189483471E+02 -0.12123959461E+02  0.11185673533E+03  0.11598951078E+03  0.00000000000E+00 0. -1.
        -11    1    3    3    0    0 -0.21119057673E+02  0.20418257842E+02  0.11013971901E+01  0.29396137945E+02  0.00000000000E+00 0.  1.
         22    1    1    2    0    0 -0.70704257972E+01 -0.82942983814E+01  0.60193904560E-01  0.10899079314E+02  0.00000000000E+00 0. -1.
<mgrwt>
<rscale>  0 0.53766614E+02</rscale>
<asrwt>0</asrwt>
<pdfrwt beam="1">  1        2 0.20715619E-01 0.91528395E+02</pdfrwt>
<pdfrwt beam="2">  1       -2 0.33281848E-02 0.91528395E+02</pdfrwt>
<totfact> 0.82656709E+04</totfact>
</mgrwt>
</event>
<event>
 6    1  0.3062576E-002  0.8866596E+02  0.7546771E-02  0.1368941E+00
          2   -1    0    0  501    0  0.00000000000E+00  0.00000000000E+00  0.16695729963E+02  0.16695729963E+02  0.00000000000E+00 0. -1.
         -2   -1    0    0    0  501 -0.00000000000E+00 -0.00000000000E+00 -0.22430441333E+03  0.22430441333E+03  0.00000000000E+00 0.  1.
         23    2    1    2    0    0  0.44122175329E+01 -0.29385897828E+02 -0.17897508814E+03  0.19973415935E+03  0.83538336014E+02 0.  0.
         11    1    3    3    0    0  0.23554310816E+02 -0.22973017398E+02 -0.18011820773E+02  0.37509875686E+02  0.00000000000E+00 0. -1.
        -11    1    3    3    0    0 -0.19142093284E+02 -0.64128804299E+01 -0.16096326737E+03  0.16222428367E+03  0.00000000000E+00 0.  1.
         22    1    1    2    0    0 -0.44122175329E+01  0.29385897828E+02 -0.28633595230E+02  0.41265983940E+02  0.00000000000E+00 0. -1.
<mgrwt>
<rscale>  0 0.67462540E+02</rscale>
<asrwt>0</asrwt>
<pdfrwt beam="1">  1        2 0.25685740E-02 0.88665959E+02</pdfrwt>
<pdfrwt beam="2">  1       -2 0.34508369E-01 0.88665959E+02</pdfrwt>
<totfact> 0.26631777E+04</totfact>
</mgrwt>
</event>
<event>
 6    1  0.3062576E-002  0.9550699E+02  0.7546771E-02  0.1396132E+00
         -2   -1    0    0    0  501 -0.00000000000E+00  0.00000000000E+00  0.43347150905E+02  0.43347150905E+02  0.00000000000E+00 0.  1.
          2   -1    0    0  501    0  0.00000000000E+00 -0.00000000000E+00 -0.71120083906E+02  0.71120083906E+02  0.00000000000E+00 0. -1.
         23    2    1    2    0    0 -0.97410295220E+01  0.11777793505E+02 -0.26579763667E+02  0.99136620699E+02  0.94276092680E+02 0.  0.
         11    1    3    3    0    0  0.19355861668E+02  0.32701085453E+01  0.29472639874E+02  0.35411572853E+02  0.00000000000E+00 0.  1.
        -11    1    3    3    0    0 -0.29096891190E+02  0.85076849600E+01 -0.56052403541E+02  0.63725047846E+02  0.00000000000E+00 0. -1.
         22    1    1    2    0    0  0.97410295220E+01 -0.11777793505E+02 -0.11931693341E+01  0.15330614112E+02  0.00000000000E+00 0.  1.
<mgrwt>
<rscale>  0 0.60406884E+02</rscale>
<asrwt>0</asrwt>
<pdfrwt beam="1">  1        2 0.10941551E-01 0.95506993E+02</pdfrwt>
<pdfrwt beam="2">  1       -2 0.66687925E-02 0.95506993E+02</pdfrwt>
<totfact> 0.62072182E+04</totfact>
</mgrwt>
</event>
<event>
 6    1  0.3062576E-002  0.9813424E+02  0.7546771E-02  0.1338627E+00
          2   -1    0    0  501    0  0.00000000000E+00  0.00000000000E+00  0.22822834713E+02  0.22822834713E+02  0.00000000000E+00 0. -1.
         -2   -1    0    0    0  501 -0.00000000000E+00 -0.00000000000E+00 -0.20801348991E+03  0.20801348991E+03  0.00000000000E+00 0.  1.
         23    2    1    2    0    0 -0.39504778301E+00  0.36655754146E+02 -0.11152385538E+03  0.14855268245E+03  0.91030372778E+02 0.  0.
         11    1    3    3    0    0 -0.35654436640E+02 -0.11238586952E+02 -0.55010603286E+02  0.66510985278E+02  0.00000000000E+00 0. -1.
        -11    1    3    3    0    0  0.35259388857E+02  0.47894341099E+02 -0.56513252099E+02  0.82041697171E+02  0.00000000000E+00 0.  1.
         22    1    1    2    0    0  0.39504778301E+00 -0.36655754146E+02 -0.73666799808E+02  0.82283642170E+02  0.00000000000E+00 0.  1.
<mgrwt>
<rscale>  0 0.76719766E+02</rscale>
<asrwt>0</asrwt>
<pdfrwt beam="1">  1        2 0.35112053E-02 0.98134240E+02</pdfrwt>
<pdfrwt beam="2">  1       -2 0.32002076E-01 0.98134240E+02</pdfrwt>
<totfact> 0.20423687E+04</totfact>
</mgrwt>
</event>
<event>
 6    1  0.3062576E-002  0.9073987E+02  0.7546771E-02  0.1432773E+00
         -1   -1    0    0    0  501 -0.00000000000E+00  0.00000000000E+00  0.55377412311E+01  0.55377412311E+01  0.00000000000E+00 0.  1.
          1   -1    0    0  501    0  0.00000000000E+00 -0.00000000000E+00 -0.74809890313E+03  0.74809890313E+03  0.00000000000E+00 0. -1.
         23    2    1    2    0    0  0.69090640413E+01 -0.73624756263E+01 -0.73605120374E+03  0.74162328644E+03  0.90176400768E+02 0.  0.
         11    1    3    3    0    0  0.43199932036E+02  0.13739188524E+02 -0.28021828328E+03  0.28386138469E+03  0.00000000000E+00 0. -1.
        -11    1    3    3    0    0 -0.36290867994E+02 -0.21101664150E+02 -0.45583292045E+03  0.45776190175E+03  0.00000000000E+00 0.  1.
         22    1    1    2    0    0 -0.69090640413E+01  0.73624756263E+01 -0.65099581642E+01  0.12013357922E+02  0.00000000000E+00 0.  1.
<mgrwt>
<rscale>  0 0.52407368E+02</rscale>
<asrwt>0</asrwt>
<pdfrwt beam="1">  1        1 0.11509220E+00 0.90739873E+02</pdfrwt>
<pdfrwt beam="2">  1       -1 0.85195977E-03 0.90739873E+02</pdfrwt>
<totfact> 0.53925592E+04</totfact>
</mgrwt>
</event>
<event>
 6    1  0.3062576E-002  0.9147238E+02  0.7546771E-02  0.1389439E+00
          1   -1    0    0  501    0  0.00000000000E+00  0.00000000000E+00  0.48274132881E+03  0.48274132881E+03  0.00000000000E+00 0. -1.
         -1   -1    0    0    0  501 -0.00000000000E+00 -0.00000000000E+00 -0.12223777197E+02  0.12223777197E+02  0.00000000000E+00 0.  1.
         23    2    1    2    0    0 -0.43100985192E+01  0.18878205638E+02  0.46624778489E+03  0.47513597327E+03  0.89399287332E+02 0.  0.
         11    1    3    3    0    0  0.14479190245E+02 -0.30816230748E+02  0.25715063016E+03  0.25939493753E+03  0.00000000000E+00 0.  1.
        -11    1    3    3    0    0 -0.18789288764E+02  0.49694436386E+02  0.20909715474E+03  0.21574103573E+03  0.00000000000E+00 0. -1.
         22    1    1    2    0    0  0.43100985192E+01 -0.18878205638E+02  0.42697667159E+01  0.19829132739E+02  0.00000000000E+00 0.  1.
<mgrwt>
<rscale>  0 0.62046333E+02</rscale>
<asrwt>0</asrwt>
<pdfrwt beam="1">  1        1 0.74267882E-01 0.91472379E+02</pdfrwt>
<pdfrwt beam="2">  1       -1 0.18805815E-02 0.91472379E+02</pdfrwt>
<totfact> 0.31740054E+04</totfact>
</mgrwt>
</event>
<event>
 6    1  0.3062576E-002  0.9220079E+02  0.7546771E-02  0.1415186E+00
         -2   -1    0    0    0  501 -0.00000000000E+00  0.00000000000E+00  0.27486549790E+01  0.27486549790E+01  0.00000000000E+00 0.  1.
          2   -1    0    0  501    0  0.00000000000E+00 -0.00000000000E+00 -0.12491297881E+04  0.12491297881E+04  0.00000000000E+00 0. -1.
         23    2    1    2    0    0  0.12580846750E+02 -0.58226836550E+00 -0.12073564093E+04  0.12108717874E+04  0.91336573606E+02 0.  0.
         13    1    3    3    0    0  0.44360668022E+02  0.25082609819E+02 -0.72496185032E+03  0.72675077612E+03  0.00000000000E+00 0. -1.
        -13    1    3    3    0    0 -0.31779821272E+02 -0.25664878185E+02 -0.48239455900E+03  0.48412101128E+03  0.00000000000E+00 0.  1.
         22    1    1    2    0    0 -0.12580846750E+02  0.58226836550E+00 -0.39024723795E+02  0.41006655663E+02  0.00000000000E+00 0.  1.
<mgrwt>
<rscale>  0 0.56052453E+02</rscale>
<asrwt>0</asrwt>
<pdfrwt beam="1">  1        2 0.19217392E+00 0.92200794E+02</pdfrwt>
<pdfrwt beam="2">  1       -2 0.42286976E-03 0.92200794E+02</pdfrwt>
<totfact> 0.12304067E+05</totfact>
</mgrwt>
</event>
<event>
 6    1  0.3062576E-002  0.9251271E+02  0.7546771E-02  0.1394423E+00
          1   -1    0    0  501    0  0.00000000000E+00  0.00000000000E+00  0.56781274421E+03  0.56781274421E+03  0.00000000000E+00 0. -1.
         -1   -1    0    0    0  501 -0.00000000000E+00 -0.00000000000E+00 -0.53869817646E+01  0.53869817646E+01  0.00000000000E+00 0.  1.
         23    2    1    2    0    0  0.17201751776E+02  0.16558195998E+01  0.49657645235E+03  0.50512055410E+03  0.90884317381E+02 0.  0.
         11    1    3    3    0    0  0.16288892316E+02  0.20095873539E+02  0.36848599349E+02  0.45022121453E+02  0.00000000000E+00 0.  1.
        -11    1    3    3    0    0  0.91285946054E+00 -0.18440053939E+02  0.45972785300E+03  0.46009843265E+03  0.00000000000E+00 0. -1.
         22    1    1    2    0    0 -0.17201751776E+02 -0.16558195998E+01  0.65849310099E+02  0.68079171876E+02  0.00000000000E+00 0. -1.
<mgrwt>
<rscale>  0 0.60819789E+02</rscale>
<asrwt>0</asrwt>
<pdfrwt beam="1">  1        1 0.87355760E-01 0.92512708E+02</pdfrwt>
<pdfrwt beam="2">  1       -1 0.82876687E-03 0.92512708E+02</pdfrwt>
<totfact> 0.82145529E+04</totfact>
</mgrwt>
</event>
<event>
 6    1  0.3062576E-002  0.9307955E+02  0.7546771E-02  0.1358881E+00
         -4   -1    0    0    0  501 -0.00000000000E+00  0.00000000000E+00  0.12534195913E+02  0.12534195913E+02  0.00000000000E+00 0.  1.
          4   -1    0    0  501    0  0.00000000000E+00 -0.00000000000E+00 -0.31306437334E+03  0.31306437334E+03  0.00000000000E+00 0. -1.
         23    2    1    2    0    0 -0.19103713802E+02  0.23630655303E+02 -0.24828901478E+03  0.26516266249E+03  0.87979787279E+02 0.  0.
         13    1    3    3    0    0  0.59683974480E+01  0.10989732013E+01 -0.22284838317E+03  0.22293100141E+03  0.00000000000E+00 0. -1.
        -13    1    3    3    0    0 -0.25072111250E+02  0.22531682101E+02 -0.25440631609E+02  0.42231661079E+02  0.00000000000E+00 0.  1.
         22    1    1    2    0    0  0.19103713802E+02 -0.23630655303E+02 -0.52241162648E+02  0.60435906759E+02  0.00000000000E+00 0. -1.
<mgrwt>
<rscale>  0 0.70357772E+02</rscale>
<asrwt>0</asrwt>
<pdfrwt beam="1">  1        4 0.48163748E-01 0.93079550E+02</pdfrwt>
<pdfrwt beam="2">  1       -4 0.19283379E-02 0.93079550E+02</pdfrwt>
<totfact> 0.66445607E+03</totfact>
</mgrwt>
</event>
<event>
 6    1  0.3062576E-002  0.8915727E+02  0.7546771E-02  0.1400565E+00
          4   -1    0    0  501    0  0.00000000000E+00  0.00000000000E+00  0.58104388633E+02  0.58104388633E+02  0.00000000000E+00 0. -1.
         -4   -1    0    0    0  501 -0.00000000000E+00 -0.00000000000E+00 -0.77542371830E+02  0.77542371830E+02  0.00000000000E+00 0.  1.
         23    2    1    2    0    0 -0.15096357838E+02  0.88738507459E+01  0.20985170097E+02  0.91593649683E+02  0.87420672906E+02 0.  0.
         13    1    3    3    0    0 -0.58539788491E+00 -0.33272704638E+02 -0.12807717068E+02  0.35657442156E+02  0.00000000000E+00 0.  1.
        -13    1    3    3    0    0 -0.14510959953E+02  0.42146555384E+02  0.33792887166E+02  0.55936207527E+02  0.00000000000E+00 0. -1.
         22    1    1    2    0    0  0.15096357838E+02 -0.88738507459E+01 -0.40423153295E+02  0.44053110779E+02  0.00000000000E+00 0.  1.
<mgrwt>
<rscale>  0 0.59353606E+02</rscale>
<asrwt>0</asrwt>
<pdfrwt beam="1">  1        4 0.89391367E-02 0.89157273E+02</pdfrwt>
<pdfrwt beam="2">  1       -4 0.11929596E-01 0.89157273E+02</pdfrwt>
<totfact> 0.74651130E+03</totfact>
</mgrwt>
</event>
<event>
 6    1  0.3062576E-002  0.9575117E+02  0.7546771E-02  0.1368498E+00
         -1   -1    0    0    0  501 -0.00000000000E+00  0.00000000000E+00  0.12410992781E+03  0.12410992781E+03  0.00000000000E+00 0.  1.
          1   -1    0    0  501    0  0.00000000000E+00 -0.00000000000E+00 -0.29478740562E+02  0.29478740562E+02  0.00000000000E+00 0. -1.
         23    2    1    2    0    0  0.31020036696E+01  0.23565357730E+02  0.65594526158E+02  0.11606432695E+03  0.92754178436E+02 0.  0.
         13    1    3    3    0    0  0.32426688994E+01  0.30535926074E+02 -0.15688295842E+02  0.34483043793E+02  0.00000000000E+00 0. -1.
        -13    1    3    3    0    0 -0.14066522981E+00 -0.69705683444E+01  0.81282821999E+02  0.81581283159E+02  0.00000000000E+00 0.  1.
         22    1    1    2    0    0 -0.31020036696E+01 -0.23565357730E+02  0.29036661088E+02  0.37524341418E+02  0.00000000000E+00 0.  1.
<mgrwt>
<rscale>  0 0.67586377E+02</rscale>
<asrwt>0</asrwt>
<pdfrwt beam="1">  1        1 0.45351909E-02 0.95751168E+02</pdfrwt>
<pdfrwt beam="2">  1       -1 0.19093835E-01 0.95751168E+02</pdfrwt>
<totfact> 0.36275297E+04</totfact>
</mgrwt>
</event>
<event>
 6    1  0.3062576E-002  0.9755875E+02  0.7546771E-02  0.1349586E+00
          2   -1    0    0  501    0  0.00000000000E+00  0.00000000000E+00  0.10350256401E+03  0.10350256401E+03  0.00000000000E+00 0. -1.
         -2   -1    0    0    0  501 -0.00000000000E+00 -0.00000000000E+00 -0.50962040837E+02  0.50962040837E+02  0.00000000000E+00 0.  1.
         23    2    1    2    0    0  0.35038688375E+01 -0.30695597753E+02  0.68966741730E+02  0.11947435657E+03  0.92537633395E+02 0.  0.
         11    1    3    3    0    0 -0.35795316626E+02  0.36085721756E+01  0.54564510399E+02  0.65357572481E+02  0.00000000000E+00 0. -1.
        -11    1    3    3    0    0  0.39299185464E+02 -0.34304169929E+02  0.14402231331E+02  0.54116784087E+02  0.00000000000E+00 0.  1.
         22    1    1    2    0    0 -0.35038688375E+01  0.30695597753E+02 -0.16426218560E+02  0.34990248276E+02  0.00000000000E+00 0.  1.
<mgrwt>
<rscale>  0 0.73184902E+02</rscale>
<asrwt>0</asrwt>
<pdfrwt beam="1">  1        2 0.15923471E-01 0.97558754E+02</pdfrwt>
<pdfrwt beam="2">  1       -2 0.78403140E-02 0.97558754E+02</pdfrwt>
<totfact> 0.31299850E+04</totfact>
</mgrwt>
</event>
<event>
 6    1  0.3062576E-002  0.8550637E+02  0.7546771E-02  0.1430234E+00
          2   -1    0    0  501    0  0.00000000000E+00  0.00000000000E+00  0.55862298914E+02  0.55862298914E+02  0.00000000000E+00 0. -1.
         -2   -1    0    0    0  501 -0.00000000000E+00 -0.00000000000E+00 -0.43129651525E+02  0.43129651525E+02  0.00000000000E+00 0.  1.
         23    2    1    2    0    0 -0.11656476788E+02 -0.46204918298E+01  0.12759184670E+02  0.86453086851E+02  0.84582013671E+02 0.  0.
         11    1    3    3    0    0 -0.13479825769E+02  0.34021947703E+02 -0.14250349342E+02  0.39271759378E+02  0.00000000000E+00 0.  1.
        -11    1    3    3    0    0  0.18233489810E+01 -0.38642439533E+02  0.27009534012E+02  0.47181327473E+02  0.00000000000E+00 0. -1.
         22    1    1    2    0    0  0.11656476788E+02  0.46204918298E+01 -0.26537281580E-01  0.12538863588E+02  0.00000000000E+00 0. -1.
<mgrwt>
<rscale>  0 0.52913094E+02</rscale>
<asrwt>0</asrwt>
<pdfrwt beam="1">  1        2 0.85941998E-02 0.85506371E+02</pdfrwt>
<pdfrwt beam="2">  1       -2 0.66353310E-02 0.85506371E+02</pdfrwt>
<totfact> 0.82501893E+04</totfact>
</mgrwt>
</event>
<event>
 6    1  0.3062576E-002  0.9441787E+02  0.7546771E-02  0.1371658E+00
         -2   -1    0    0    0  501 -0.00000000000E+00  0.00000000000E+00  0.56033868659E+01  0.56033868659E+01  0.00000000000E+00 0.  1.
          2   -1    0    0  501    0  0.00000000000E+00 -0.00000000000E+00 -0.75412024968E+03  0.75412024968E+03  0.00000000000E+00 0. -1.
         23    2    1    2    0    0 -0.20456591869E+01 -0.23437574440E+02 -0.69335522970E+03  0.69975439122E+03  0.91439755368E+02 0.  0.
         11    1    3    3    0    0  0.10358561615E+02 -0.50919128852E+02 -0.24829107608E+03  0.25367009272E+03  0.00000000000E+00 0.  1.
        -11    1    3    3    0    0 -0.12404220802E+02  0.27481554412E+02 -0.44506415363E+03  0.44608429850E+03  0.00000000000E+00 0. -1.
         22    1    1    2    0    0  0.20456591869E+01  0.23437574440E+02 -0.55161633109E+02  0.59969245321E+02  0.00000000000E+00 0.  1.
<mgrwt>
<rscale>  0 0.66708441E+02</rscale>
<asrwt>0</asrwt>
<pdfrwt beam="1">  1        2 0.11601847E+00 0.94417866E+02</pdfrwt>
<pdfrwt beam="2">  1       -2 0.86205971E-03 0.94417866E+02</pdfrwt>
<totfact> 0.89345065E+04</totfact>
</mgrwt>
</event>
<event>
 6    1  0.3062576E-002  0.9044077E+02  0.7546771E-02  0.1397703E+00
         -1   -1    0    0    0  501 -0.00000000000E+00  0.00000000000E+00  0.20349626952E+02  0.20349626952E+02  0.00000000000E+00 0.  1.
          1   -1    0    0  501    0  0.00000000000E+00 -0.00000000000E+00 -0.14524651514E+03  0.14524651514E+03  0.00000000000E+00 0. -1.
         23    2    1    2    0    0  0.80758546361E+01 -0.15587253313E+02 -0.11116688418E+03  0.14330948905E+03  0.88720638059E+02 0.  0.
         13    1    3    3    0    0  0.17176743849E+02  0.32726871720E+02 -0.70113562203E+02  0.79259070563E+02  0.00000000000E+00 0. -1.
        -13    1    3    3    0    0 -0.91008892133E+01 -0.48314125033E+02 -0.41053321981E+02  0.64050418483E+02  0.00000000000E+00 0.  1.
         22    1    1    2    0    0 -0.80758546361E+01  0.15587253313E+02 -0.13730004003E+02  0.22286653043E+02  0.00000000000E+00 0. -1.
<mgrwt>
<rscale>  0 0.60030794E+02</rscale>
<asrwt>0</asrwt>
<pdfrwt beam="1">  1        1 0.22345618E-01 0.90440774E+02</pdfrwt>
<pdfrwt beam="2">  1       -1 0.31307118E-02 0.90440774E+02</pdfrwt>
<totfact> 0.67151278E+04</totfact>
</mgrwt>
</event>
<event>
 6    1  0.3062576E-002  0.1173722E+03  0.7546771E-02  0.1269707E+00
          2   -1    0    0  501    0  0.00000000000E+00  0.00000000000E+00  0.97405402033E+03  0.97405402033E+03  0.00000000000E+00 0. -1.
         -2   -1    0    0    0  501 -0.00000000000E+00 -0.00000000000E+00 -0.16313936833E+02  0.16313936833E+02  0.00000000000E+00 0.  1.
         23    2    1    2    0    0 -0.32019763829E+01 -0.75707335340E+02  0.85330103117E+03  0.86133552353E+03  0.89634708866E+02 0.  0.
         13    1    3    3    0    0 -0.31476200933E+02  0.75341220649E-01  0.36763590969E+03  0.36898091956E+03  0.00000000000E+00 0.  1.
        -13    1    3    3    0    0  0.28274224550E+02 -0.75782676561E+02  0.48566512147E+03  0.49235460398E+03  0.00000000000E+00 0. -1.
         22    1    1    2    0    0  0.32019763829E+01  0.75707335340E+02  0.10443905234E+03  0.12903243364E+03  0.00000000000E+00 0.  1.
<mgrwt>
<rscale>  0 0.10520962E+03</rscale>
<asrwt>0</asrwt>
<pdfrwt beam="1">  1        2 0.14985442E+00 0.11737220E+03</pdfrwt>
<pdfrwt beam="2">  1       -2 0.25098372E-02 0.11737220E+03</pdfrwt>
<totfact> 0.14282191E+04</totfact>
</mgrwt>
</event>
<event>
 6    1  0.3062576E-002  0.9677287E+02  0.7546771E-02  0.1348688E+00
          2   -1    0    0  501    0  0.00000000000E+00  0.00000000000E+00  0.59432830315E+02  0.59432830315E+02  0.00000000000E+00 0. -1.
         -2   -1    0    0    0  501 -0.00000000000E+00 -0.00000000000E+00 -0.23334288125E+03  0.23334288125E+03  0.00000000000E+00 0.  1.
         23    2    1    2    0    0  0.79490771018E+01 -0.31144584672E+02  0.17794367081E+02  0.98395267928E+02  0.91278783240E+02 0.  0.
         13    1    3    3    0    0  0.73576148671E+01  0.27802959970E+02  0.26130866534E+02  0.38858220050E+02  0.00000000000E+00 0. -1.
        -13    1    3    3    0    0  0.59146223472E+00 -0.58947544643E+02 -0.83364994526E+01  0.59537047878E+02  0.00000000000E+00 0.  1.
         22    1    1    2    0    0 -0.79490771018E+01  0.31144584672E+02 -0.19170441801E+03  0.19438044363E+03  0.00000000000E+00 0.  1.
<mgrwt>
<rscale>  0 0.73466079E+02</rscale>
<asrwt>0</asrwt>
<pdfrwt beam="1">  1        2 0.91435122E-02 0.96772875E+02</pdfrwt>
<pdfrwt beam="2">  1       -2 0.35898905E-01 0.96772875E+02</pdfrwt>
<totfact> 0.48673293E+03</totfact>
</mgrwt>
</event>
<event>
 6    1  0.3062576E-002  0.8978078E+02  0.7546771E-02  0.1427681E+00
          1   -1    0    0  501    0  0.00000000000E+00  0.00000000000E+00  0.17047856160E+04  0.17047856160E+04  0.00000000000E+00 0. -1.
         -1   -1    0    0    0  501 -0.00000000000E+00 -0.00000000000E+00 -0.32252617929E+01  0.32252617929E+01  0.00000000000E+00 0.  1.
         23    2    1    2    0    0  0.11018901938E+02 -0.23175812740E+01  0.16879960678E+04  0.16903820023E+04  0.89071890447E+02 0.  0.
         13    1    3    3    0    0  0.24084997222E+02  0.22882149749E+01  0.16456383415E+04  0.16458161726E+04  0.00000000000E+00 0. -1.
        -13    1    3    3    0    0 -0.13066095284E+02 -0.46057962490E+01  0.42357726260E+02  0.44565829724E+02  0.00000000000E+00 0.  1.
         22    1    1    2    0    0 -0.11018901938E+02  0.23175812740E+01  0.13564286428E+02  0.17628875437E+02  0.00000000000E+00 0.  1.
<mgrwt>
<rscale>  0 0.53428385E+02</rscale>
<asrwt>0</asrwt>
<pdfrwt beam="1">  1        1 0.26227399E+00 0.89780783E+02</pdfrwt>
<pdfrwt beam="2">  1       -1 0.49619548E-03 0.89780783E+02</pdfrwt>
<totfact> 0.25253183E+04</totfact>
</mgrwt>
</event>
<event>
 6    1  0.3062576E-002  0.1024801E+03  0.7546771E-02  0.1367530E+00
         -1   -1    0    0    0  501 -0.00000000000E+00  0.00000000000E+00  0.84822420771E+01  0.84822420771E+01  0.00000000000E+00 0.  1.
          1   -1    0    0  501    0  0.00000000000E+00 -0.00000000000E+00 -0.78022452527E+03  0.78022452527E+03  0.00000000000E+00 0. -1.
         23    2    1    2    0    0  0.10169782542E+02  0.16873821292E+02 -0.75748945348E+03  0.76439024052E+03  0.10056847096E+03 0.  0.
         11    1    3    3    0    0 -0.42731254537E+02 -0.61575476157E+01 -0.25910292801E+03  0.26267508981E+03  0.00000000000E+00 0.  1.
        -11    1    3    3    0    0  0.52901037079E+02  0.23031368908E+02 -0.49838652547E+03  0.50171515071E+03  0.00000000000E+00 0. -1.
         22    1    1    2    0    0 -0.10169782542E+02 -0.16873821292E+02 -0.14252829712E+02  0.24316526823E+02  0.00000000000E+00 0.  1.
<mgrwt>
<rscale>  0 0.67858554E+02</rscale>
<asrwt>0</asrwt>
<pdfrwt beam="1">  1        1 0.12003461E+00 0.10248008E+03</pdfrwt>
<pdfrwt beam="2">  1       -1 0.13049596E-02 0.10248008E+03</pdfrwt>
<totfact> 0.28130628E+04</totfact>
</mgrwt>
</event>
<event>
 6    1  0.3062576E-002  0.9832887E+02  0.7546771E-02  0.1406213E+00
          2   -1    0    0  501    0  0.00000000000E+00  0.00000000000E+00  0.57567987909E+01  0.57567987909E+01  0.00000000000E+00 0. -1.
         -2   -1    0    0    0  501 -0.00000000000E+00 -0.00000000000E+00 -0.52825794804E+03  0.52825794804E+03  0.00000000000E+00 0.  1.
         23    2    1    2    0    0  0.34455094140E+01  0.11434504947E+02 -0.46262366710E+03  0.47295795108E+03  0.97600956414E+02 0.  0.
         11    1    3    3    0    0 -0.31363306883E+02  0.15074864421E+02 -0.39754605699E+03  0.39906612984E+03  0.00000000000E+00 0.  1.
        -11    1    3    3    0    0  0.34808816297E+02 -0.36403594743E+01 -0.65077610103E+02  0.73891821237E+02  0.00000000000E+00 0. -1.
         22    1    1    2    0    0 -0.34455094140E+01 -0.11434504947E+02 -0.59877482151E+02  0.61056795750E+02  0.00000000000E+00 0. -1.
<mgrwt>
<rscale>  0 0.58047446E+02</rscale>
<asrwt>0</asrwt>
<pdfrwt beam="1">  1        2 0.88566140E-03 0.98328867E+02</pdfrwt>
<pdfrwt beam="2">  1       -2 0.81270449E-01 0.98328867E+02</pdfrwt>
<totfact> 0.20827248E+04</totfact>
</mgrwt>
</event>
<event>
 6    1  0.3062576E-002  0.9205386E+02  0.7546771E-02  0.1424607E+00
          2   -1    0    0  501    0  0.00000000000E+00  0.00000000000E+00  0.18971375918E+04  0.18971375918E+04  0.00000000000E+00 0. -1.
         -2   -1    0    0    0  501 -0.00000000000E+00 -0.00000000000E+00 -0.22335126136E+01  0.22335126136E+01  0.00000000000E+00 0.  1.
         23    2    1    2    0    0 -0.92288399494E+01 -0.58887136944E+01  0.18687808438E+04  0.18710467004E+04  0.91400571545E+02 0.  0.
         13    1    3    3    0    0 -0.36598856029E+02  0.29076900404E+00  0.33227247346E+03  0.33428215242E+03  0.00000000000E+00 0.  1.
        -13    1    3    3    0    0  0.27370016080E+02 -0.61794826984E+01  0.15365083703E+04  0.15367645480E+04  0.00000000000E+00 0. -1.
         22    1    1    2    0    0  0.92288399494E+01  0.58887136944E+01  0.26123235381E+02  0.28324404011E+02  0.00000000000E+00 0.  1.
<mgrwt>
<rscale>  0 0.54058071E+02</rscale>
<asrwt>0</asrwt>
<pdfrwt beam="1">  1        2 0.29186603E+00 0.92053859E+02</pdfrwt>
<pdfrwt beam="2">  1       -2 0.34361884E-03 0.92053859E+02</pdfrwt>
<totfact> 0.76677107E+04</totfact>
</mgrwt>
</event>
<event>
 6    1  0.3062576E-002  0.1046239E+03  0.7546771E-02  0.1303754E+00
         -2   -1    0    0    0  501 -0.00000000000E+00  0.00000000000E+00  0.95046788050E+01  0.95046788050E+01  0.00000000000E+00 0.  1.
          2   -1    0    0  501    0  0.00000000000E+00 -0.00000000000E+00 -0.71925459648E+03  0.71925459648E+03  0.00000000000E+00 0. -1.
         23    2    1    2    0    0 -0.52399029515E+02 -0.20726498222E+02 -0.53549651984E+03  0.54562136911E+03  0.88152763096E+02 0.  0.
         13    1    3    3    0    0  0.80248825158E+00 -0.40892512388E+02 -0.13368424022E+03  0.13980099298E+03  0.00000000000E+00 0.  1.
        -13    1    3    3    0    0 -0.53201517766E+02  0.20166014167E+02 -0.40181227963E+03  0.40582037613E+03  0.00000000000E+00 0. -1.
         22    1    1    2    0    0  0.52399029515E+02  0.20726498222E+02 -0.17425339783E+03  0.18313790617E+03  0.00000000000E+00 0. -1.
<mgrwt>
<rscale>  0 0.89628325E+02</rscale>
<asrwt>0</asrwt>
<pdfrwt beam="1">  1        2 0.11065460E+00 0.10462388E+03</pdfrwt>
<pdfrwt beam="2">  1       -2 0.14622576E-02 0.10462388E+03</pdfrwt>
<totfact> 0.45144807E+04</totfact>
</mgrwt>
</event>
<event>
 6    1  0.3062576E-002  0.9388782E+02  0.7546771E-02  0.1404070E+00
          2   -1    0    0  501    0  0.00000000000E+00  0.00000000000E+00  0.45514692277E+03  0.45514692277E+03  0.00000000000E+00 0. -1.
         -2   -1    0    0    0  501 -0.00000000000E+00 -0.00000000000E+00 -0.68289177538E+01  0.68289177538E+01  0.00000000000E+00 0.  1.
         23    2    1    2    0    0 -0.14004471963E+02  0.22767735240E+01  0.41919548883E+03  0.42958093535E+03  0.92809553506E+02 0.  0.
         13    1    3    3    0    0 -0.53824770343E+02  0.30245844339E+01  0.25301688243E+03  0.25869634093E+03  0.00000000000E+00 0. -1.
        -13    1    3    3    0    0  0.39820298380E+02 -0.74781090984E+00  0.16617860640E+03  0.17088459442E+03  0.00000000000E+00 0.  1.
         22    1    1    2    0    0  0.14004471963E+02 -0.22767735240E+01  0.29122516184E+02  0.32394905179E+02  0.00000000000E+00 0. -1.
<mgrwt>
<rscale>  0 0.58538260E+02</rscale>
<asrwt>0</asrwt>
<pdfrwt beam="1">  1        2 0.70022580E-01 0.93887817E+02</pdfrwt>
<pdfrwt beam="2">  1       -2 0.10506031E-02 0.93887817E+02</pdfrwt>
<totfact> 0.11881910E+05</totfact>
</mgrwt>
</event>
<event>
 6    1  0.3062576E-002  0.9360939E+02  0.7546771E-02  0.1373812E+00
          2   -1    0    0  501    0  0.00000000000E+00  0.00000000000E+00  0.20292285002E+04  0.20292285002E+04  0.00000000000E+00 0. -1.
         -2   -1    0    0    0  501 -0.00000000000E+00 -0.00000000000E+00 -0.21569242677E+01  0.21569242677E+01  0.00000000000E+00 0.  1.
         23    2    1    2    0    0 -0.23184400489E+02  0.23103830665E+01  0.18923559533E+04  0.18946698318E+04  0.90663461564E+02 0.  0.
         13    1    3    3    0    0  0.23518909583E+02  0.25278517282E+02  0.11363980019E+04  0.11369224078E+04  0.00000000000E+00 0. -1.
        -13    1    3    3    0    0 -0.46703310071E+02 -0.22968134216E+02  0.75595795140E+03  0.75774742405E+03  0.00000000000E+00 0.  1.
         22    1    1    2    0    0  0.23184400489E+02 -0.23103830665E+01  0.13471562257E+03  0.13671559261E+03  0.00000000000E+00 0.  1.
<mgrwt>
<rscale>  0 0.66118800E+02</rscale>
<asrwt>0</asrwt>
<pdfrwt beam="1">  1        2 0.31218747E+00 0.93609388E+02</pdfrwt>
<pdfrwt beam="2">  1       -2 0.33183613E-03 0.93609388E+02</pdfrwt>
<totfact> 0.69201213E+04</totfact>
</mgrwt>
</event>
<event>
 6    1  0.3062576E-002  0.9301703E+02  0.7546771E-02  0.1405686E+00
          2   -1    0    0  501    0  0.00000000000E+00  0.00000000000E+00  0.27364989635E+03  0.27364989635E+03  0.00000000000E+00 0. -1.
         -2   -1    0    0    0  501 -0.00000000000E+00 -0.00000000000E+00 -0.11463958625E+02  0.11463958625E+02  0.00000000000E+00 0.  1.
         23    2    1    2    0    0  0.41415723972E+01 -0.13608435258E+02  0.24864710043E+03  0.26547607895E+03  0.91922934073E+02 0.  0.
         13    1    3    3    0    0 -0.31500513177E+02 -0.59745580496E+01  0.30322895109E+02  0.44129985748E+02  0.00000000000E+00 0.  1.
        -13    1    3    3    0    0  0.35642085575E+02 -0.76338772080E+01  0.21832420532E+03  0.22134609320E+03  0.00000000000E+00 0. -1.
         22    1    1    2    0    0 -0.41415723972E+01  0.13608435258E+02  0.13538837300E+02  0.19637776033E+02  0.00000000000E+00 0.  1.
<mgrwt>
<rscale>  0 0.58167801E+02</rscale>
<asrwt>0</asrwt>
<pdfrwt beam="1">  1        2 0.42099979E-01 0.93017030E+02</pdfrwt>
<pdfrwt beam="2">  1       -2 0.17636862E-02 0.93017030E+02</pdfrwt>
<totfact> 0.96814931E+04</totfact>
</mgrwt>
</event>
<event>
 6    1  0.3062576E-002  0.9263453E+02  0.7546771E-02  0.1404172E+00
         -2   -1    0    0    0  501 -0.00000000000E+00  0.00000000000E+00  0.66097294028E+01  0.66097294028E+01  0.00000000000E+00 0. -1.
          2   -1    0    0  501    0  0.00000000000E+00 -0.00000000000E+00 -0.43776562558E+03  0.43776562558E+03  0.00000000000E+00 0.  1.
         23    2    1    2    0    0  0.12791575172E+01 -0.14692971452E+02 -0.38069303135E+03  0.39180140345E+03  0.91452916664E+02 0.  0.
         13    1    3    3    0    0  0.31407878930E+02  0.26843036203E+02 -0.17203413536E+03  0.17692582395E+03  0.00000000000E+00 0. -1.
        -13    1    3    3    0    0 -0.30128721413E+02 -0.41536007655E+02 -0.20865889600E+03  0.21487557950E+03  0.00000000000E+00 0.  1.
         22    1    1    2    0    0 -0.12791575172E+01  0.14692971452E+02 -0.50462864822E+02  0.52573951536E+02  0.00000000000E+00 0. -1.
<mgrwt>
<rscale>  0 0.58514969E+02</rscale>
<asrwt>0</asrwt>
<pdfrwt beam="1">  1        2 0.67348557E-01 0.92634527E+02</pdfrwt>
<pdfrwt beam="2">  1       -2 0.10168815E-02 0.92634527E+02</pdfrwt>
<totfact> 0.12945197E+05</totfact>
</mgrwt>
</event>
<event>
 6    1  0.3062576E-002  0.9368695E+02  0.7546771E-02  0.1387515E+00
         -2   -1    0    0    0  501 -0.00000000000E+00  0.00000000000E+00  0.56456115266E+01  0.56456115266E+01  0.00000000000E+00 0.  1.
          2   -1    0    0  501    0  0.00000000000E+00 -0.00000000000E+00 -0.14640307843E+04  0.14640307843E+04  0.00000000000E+00 0. -1.
         23    2    1    2    0    0 -0.18586915118E+02  0.35250082343E+00 -0.14415651186E+04  0.14446062564E+04  0.91824000760E+02 0.  0.
         11    1    3    3    0    0 -0.21176451411E+02 -0.18343699699E+01 -0.72866741366E+02  0.75903682420E+02  0.00000000000E+00 0.  1.
        -11    1    3    3    0    0  0.25895362929E+01  0.21868707933E+01 -0.13686983772E+04  0.13687025739E+04  0.00000000000E+00 0. -1.
         22    1    1    2    0    0  0.18586915118E+02 -0.35250082343E+00 -0.16820054208E+02  0.25070139489E+02  0.00000000000E+00 0.  1.
<mgrwt>
<rscale>  0 0.62528884E+02</rscale>
<asrwt>0</asrwt>
<pdfrwt beam="1">  1        2 0.22523572E+00 0.93686951E+02</pdfrwt>
<pdfrwt beam="2">  1       -2 0.86855478E-03 0.93686951E+02</pdfrwt>
<totfact> 0.34576487E+04</totfact>
</mgrwt>
</event>
<event>
 6    1  0.3062576E-002  0.9264199E+02  0.7546771E-02  0.1412683E+00
         -2   -1    0    0    0  501 -0.00000000000E+00  0.00000000000E+00  0.86556197189E+01  0.86556197189E+01  0.00000000000E+00 0.  1.
          2   -1    0    0  501    0  0.00000000000E+00 -0.00000000000E+00 -0.33446710914E+03  0.33446710914E+03  0.00000000000E+00 0. -1.
         23    2    1    2    0    0  0.24661934845E+01  0.12669187891E+02 -0.30374422348E+03  0.31755801376E+03  0.91738478142E+02 0.  0.
         13    1    3    3    0    0  0.27285680253E+02  0.44488539405E+02 -0.16400662499E+03  0.17211017264E+03  0.00000000000E+00 0. -1.
        -13    1    3    3    0    0 -0.24819486768E+02 -0.31819351513E+02 -0.13973759850E+03  0.14544784113E+03  0.00000000000E+00 0.  1.
         22    1    1    2    0    0 -0.24661934845E+01 -0.12669187891E+02 -0.22067265942E+02  0.25564715103E+02  0.00000000000E+00 0.  1.
<mgrwt>
<rscale>  0 0.56599445E+02</rscale>
<asrwt>0</asrwt>
<pdfrwt beam="1">  1        2 0.51456480E-01 0.92641993E+02</pdfrwt>
<pdfrwt beam="2">  1       -2 0.13316338E-02 0.92641993E+02</pdfrwt>
<totfact> 0.11716647E+05</totfact>
</mgrwt>
</event>
<event>
 6    1  0.3062576E-002  0.1111952E+03  0.7546771E-02  0.1311643E+00
         -1   -1    0    0    0  501 -0.00000000000E+00  0.00000000000E+00  0.30732709620E+02  0.30732709620E+02  0.00000000000E+00 0.  1.
          1   -1    0    0  501    0  0.00000000000E+00 -0.00000000000E+00 -0.19127520108E+03  0.19127520108E+03  0.00000000000E+00 0. -1.
         23    2    1    2    0    0  0.92128661013E+01  0.39597669190E+02 -0.13054954973E+03  0.17148634243E+03  0.10349651394E+03 0.  0.
         11    1    3    3    0    0  0.33043662372E+02  0.36158789674E+02 -0.13787608987E+03  0.14631868593E+03  0.00000000000E+00 0. -1.
        -11    1    3    3    0    0 -0.23830796270E+02  0.34388795162E+01  0.73265401404E+01  0.25167656499E+02  0.00000000000E+00 0.  1.
         22    1    1    2    0    0 -0.92128661013E+01 -0.39597669190E+02 -0.29992941727E+02  0.50521568271E+02  0.00000000000E+00 0. -1.
<mgrwt>
<rscale>  0 0.86465706E+02</rscale>
<asrwt>0</asrwt>
<pdfrwt beam="1">  1        1 0.29426953E-01 0.11119524E+03</pdfrwt>
<pdfrwt beam="2">  1       -1 0.47281093E-02 0.11119524E+03</pdfrwt>
<totfact> 0.26891467E+04</totfact>
</mgrwt>
</event>
<event>
 6    1  0.3062576E-002  0.7834736E+02  0.7546771E-02  0.1441663E+00
         -2   -1    0    0    0  501 -0.00000000000E+00  0.00000000000E+00  0.16229512122E+02  0.16229512122E+02  0.00000000000E+00 0. -1.
          2   -1    0    0  501    0  0.00000000000E+00 -0.00000000000E+00 -0.50321865272E+03  0.50321865272E+03  0.00000000000E+00 0.  1.
         23    2    1    2    0    0 -0.11561644316E+02  0.73993150137E+01 -0.49656733672E+03  0.50271008481E+03  0.77135517030E+02 0.  0.
         11    1    3    3    0    0 -0.85995808454E+00  0.24388476257E+02 -0.49466397028E+02  0.55158514637E+02  0.00000000000E+00 0. -1.
        -11    1    3    3    0    0 -0.10701686231E+02 -0.16989161243E+02 -0.44710093970E+03  0.44755157017E+03  0.00000000000E+00 0.  1.
         22    1    1    2    0    0  0.11561644316E+02 -0.73993150137E+01  0.95781961282E+01  0.16738080028E+02  0.00000000000E+00 0. -1.
<mgrwt>
<rscale>  0 0.50688518E+02</rscale>
<asrwt>0</asrwt>
<pdfrwt beam="1">  1        2 0.77418246E-01 0.78347364E+02</pdfrwt>
<pdfrwt beam="2">  1       -2 0.24968483E-02 0.78347364E+02</pdfrwt>
<totfact> 0.30278414E+04</totfact>
</mgrwt>
</event>
<event>
 6    1  0.3062576E-002  0.9597595E+02  0.7546771E-02  0.1374732E+00
          2   -1    0    0  501    0  0.00000000000E+00  0.00000000000E+00  0.22722820456E+04  0.22722820456E+04  0.00000000000E+00 0. -1.
         -2   -1    0    0    0  501 -0.00000000000E+00 -0.00000000000E+00 -0.23067996578E+01  0.23067996578E+01  0.00000000000E+00 0.  1.
         23    2    1    2    0    0 -0.19076400470E+02  0.94595757270E+01  0.21806399744E+04  0.21827510351E+04  0.93584137443E+02 0.  0.
         13    1    3    3    0    0 -0.15212633796E+02  0.81040047189E+01  0.21775577370E+04  0.21776259543E+04  0.00000000000E+00 0. -1.
        -13    1    3    3    0    0 -0.38637666733E+01  0.13555710082E+01  0.30822374303E+01  0.51250808034E+01  0.00000000000E+00 0.  1.
         22    1    1    2    0    0  0.19076400470E+02 -0.94595757270E+01  0.89335271581E+02  0.91837810167E+02  0.00000000000E+00 0.  1.
<mgrwt>
<rscale>  0 0.65869009E+02</rscale>
<asrwt>0</asrwt>
<pdfrwt beam="1">  1        2 0.34958006E+00 0.95975952E+02</pdfrwt>
<pdfrwt beam="2">  1       -2 0.35489407E-03 0.95975952E+02</pdfrwt>
<totfact> 0.47512542E+04</totfact>
</mgrwt>
</event>
<event>
 6    1  0.3062576E-002  0.9059235E+02  0.7546771E-02  0.1427873E+00
          4   -1    0    0  501    0  0.00000000000E+00  0.00000000000E+00  0.42419375973E+03  0.42419375973E+03  0.00000000000E+00 0.  1.
         -4   -1    0    0    0  501 -0.00000000000E+00 -0.00000000000E+00 -0.10410521185E+02  0.10410521185E+02  0.00000000000E+00 0. -1.
         23    2    1    2    0    0 -0.29558361991E+01  0.10520689748E+02  0.41387709390E+03  0.42367584602E+03  0.89930816560E+02 0.  0.
         11    1    3    3    0    0  0.28990308767E+02 -0.32444637494E+00  0.35206175884E+03  0.35325348590E+03  0.00000000000E+00 0.  1.
        -11    1    3    3    0    0 -0.31946144966E+02  0.10845136123E+02  0.61815335065E+02  0.70422360120E+02  0.00000000000E+00 0. -1.
         22    1    1    2    0    0  0.29558361991E+01 -0.10520689748E+02 -0.93855352827E-01  0.10928434895E+02  0.00000000000E+00 0. -1.
<mgrwt>
<rscale>  0 0.53389288E+02</rscale>
<asrwt>0</asrwt>
<pdfrwt beam="1">  1        4 0.65260565E-01 0.90592349E+02</pdfrwt>
<pdfrwt beam="2">  1       -4 0.16016190E-02 0.90592349E+02</pdfrwt>
<totfact> 0.46789955E+03</totfact>
</mgrwt>
</event>
<event>
 6    1  0.3062576E-002  0.9335294E+02  0.7546771E-02  0.1394369E+00
          2   -1    0    0  501    0  0.00000000000E+00  0.00000000000E+00  0.75424930215E+03  0.75424930215E+03  0.00000000000E+00 0.  1.
         -2   -1    0    0    0  501 -0.00000000000E+00 -0.00000000000E+00 -0.41942679399E+01  0.41942679399E+01  0.00000000000E+00 0. -1.
         23    2    1    2    0    0 -0.12496015104E+02 -0.11279097908E+02  0.68087746316E+03  0.68724732876E+03  0.91822669344E+02 0.  0.
         11    1    3    3    0    0  0.37515375626E+01 -0.49019232931E+02  0.28139565664E+03  0.28565796822E+03  0.00000000000E+00 0.  1.
        -11    1    3    3    0    0 -0.16247552666E+02  0.37740135023E+02  0.39948180652E+03  0.40158936054E+03  0.00000000000E+00 0. -1.
         22    1    1    2    0    0  0.12496015104E+02  0.11279097908E+02  0.69177571048E+02  0.71196241327E+02  0.00000000000E+00 0.  1.
<mgrwt>
<rscale>  0 0.60833097E+02</rscale>
<asrwt>0</asrwt>
<pdfrwt beam="1">  1        2 0.11603825E+00 0.93352938E+02</pdfrwt>
<pdfrwt beam="2">  1       -2 0.64527259E-03 0.93352938E+02</pdfrwt>
<totfact> 0.13418464E+05</totfact>
</mgrwt>
</event>
<event>
 6    1  0.3062576E-002  0.9189143E+02  0.7546771E-02  0.1428316E+00
         -2   -1    0    0    0  501 -0.00000000000E+00  0.00000000000E+00  0.34461994533E+01  0.34461994533E+01  0.00000000000E+00 0.  1.
          2   -1    0    0  501    0  0.00000000000E+00 -0.00000000000E+00 -0.12905522971E+04  0.12905522971E+04  0.00000000000E+00 0. -1.
         23    2    1    2    0    0 -0.92037069141E+01 -0.48444698566E+01 -0.12737978874E+04  0.12771080978E+04  0.91300922628E+02 0.  0.
         11    1    3    3    0    0 -0.26575303512E+02 -0.22041803861E+01 -0.11030684378E+03  0.11348438197E+03  0.00000000000E+00 0.  1.
        -11    1    3    3    0    0  0.17371596598E+02 -0.26402894705E+01 -0.11634910436E+04  0.11636237158E+04  0.00000000000E+00 0. -1.
         22    1    1    2    0    0  0.92037069141E+01  0.48444698566E+01 -0.13308210229E+02  0.16890398712E+02  0.00000000000E+00 0.  1.
<mgrwt>
<rscale>  0 0.53299507E+02</rscale>
<asrwt>0</asrwt>
<pdfrwt beam="1">  1        2 0.19854670E+00 0.91891434E+02</pdfrwt>
<pdfrwt beam="2">  1       -2 0.53018401E-03 0.91891434E+02</pdfrwt>
<totfact> 0.85153859E+04</totfact>
</mgrwt>
</event>
<event>
 6    1  0.3062576E-002  0.9015848E+02  0.7546771E-02  0.1428933E+00
          2   -1    0    0  501    0  0.00000000000E+00  0.00000000000E+00  0.17414064091E+04  0.17414064091E+04  0.00000000000E+00 0. -1.
         -2   -1    0    0    0  501 -0.00000000000E+00 -0.00000000000E+00 -0.18323862195E+01  0.18323862195E+01  0.00000000000E+00 0.  1.
         23    2    1    2    0    0 -0.10172964184E+02  0.39404834213E+01  0.16932069024E+04  0.16956055457E+04  0.89496008782E+02 0.  0.
         13    1    3    3    0    0  0.28634746402E+02 -0.17950520120E+02  0.34236337933E+03  0.34402740208E+03  0.00000000000E+00 0.  1.
        -13    1    3    3    0    0 -0.38807710586E+02  0.21891003542E+02  0.13508435230E+04  0.13515781436E+04  0.00000000000E+00 0. -1.
         22    1    1    2    0    0  0.10172964184E+02 -0.39404834213E+01  0.46367120520E+02  0.47633249682E+02  0.00000000000E+00 0.  1.
<mgrwt>
<rscale>  0 0.53174804E+02</rscale>
<asrwt>0</asrwt>
<pdfrwt beam="1">  1        2 0.26790735E+00 0.90158484E+02</pdfrwt>
<pdfrwt beam="2">  1       -2 0.28190696E-03 0.90158484E+02</pdfrwt>
<totfact> 0.12066084E+05</totfact>
</mgrwt>
</event>
<event>
 6    1  0.3062576E-002  0.9230994E+02  0.7546771E-02  0.1410401E+00
         -2   -1    0    0    0  501 -0.00000000000E+00  0.00000000000E+00  0.15348135158E+02  0.15348135158E+02  0.00000000000E+00 0.  1.
          2   -1    0    0  501    0  0.00000000000E+00 -0.00000000000E+00 -0.18584006767E+03  0.18584006767E+03  0.00000000000E+00 0. -1.
         23    2    1    2    0    0  0.80077262272E+01 -0.10891893579E+02 -0.15675083802E+03  0.18191192977E+03  0.91314664478E+02 0.  0.
         11    1    3    3    0    0  0.36234739679E+02  0.21394616920E+02 -0.42192272697E+02  0.59589209326E+02  0.00000000000E+00 0.  1.
        -11    1    3    3    0    0 -0.28227013452E+02 -0.32286510499E+02 -0.11455856532E+03  0.12232272045E+03  0.00000000000E+00 0. -1.
         22    1    1    2    0    0 -0.80077262272E+01  0.10891893579E+02 -0.13741094494E+02  0.19276273057E+02  0.00000000000E+00 0. -1.
<mgrwt>
<rscale>  0 0.57104536E+02</rscale>
<asrwt>0</asrwt>
<pdfrwt beam="1">  1        2 0.28590780E-01 0.92309940E+02</pdfrwt>
<pdfrwt beam="2">  1       -2 0.23612515E-02 0.92309940E+02</pdfrwt>
<totfact> 0.95768916E+04</totfact>
</mgrwt>
</event>
<event>
 6    1  0.3062576E-002  0.9518733E+02  0.7546771E-02  0.1358414E+00
         -2   -1    0    0    0  501 -0.00000000000E+00  0.00000000000E+00  0.13357007645E+02  0.13357007645E+02  0.00000000000E+00 0.  1.
          2   -1    0    0  501    0  0.00000000000E+00 -0.00000000000E+00 -0.40446757194E+03  0.40446757194E+03  0.00000000000E+00 0. -1.
         23    2    1    2    0    0 -0.23158154875E+02  0.16845017060E+02 -0.37052587865E+03  0.38255725732E+03  0.90777605366E+02 0.  0.
         11    1    3    3    0    0 -0.32549744582E+02  0.33925743488E+02 -0.35368869297E+03  0.35679985073E+03  0.00000000000E+00 0. -1.
        -11    1    3    3    0    0  0.93915897067E+01 -0.17080726428E+02 -0.16837185686E+02  0.25757406592E+02  0.00000000000E+00 0.  1.
         22    1    1    2    0    0  0.23158154875E+02 -0.16845017060E+02 -0.20584685638E+02  0.35267322266E+02  0.00000000000E+00 0.  1.
<mgrwt>
<rscale>  0 0.70496040E+02</rscale>
<asrwt>0</asrwt>
<pdfrwt beam="1">  1        2 0.62225775E-01 0.95187333E+02</pdfrwt>
<pdfrwt beam="2">  1       -2 0.20549244E-02 0.95187333E+02</pdfrwt>
<totfact> 0.51774331E+04</totfact>
</mgrwt>
</event>
<event>
 6    1  0.3062576E-002  0.9220179E+02  0.7546771E-02  0.1428629E+00
         -2   -1    0    0    0  501 -0.00000000000E+00  0.00000000000E+00  0.61347793094E+02  0.61347793094E+02  0.00000000000E+00 0.  1.
          2   -1    0    0  501    0  0.00000000000E+00 -0.00000000000E+00 -0.68580290402E+02  0.68580290402E+02  0.00000000000E+00 0. -1.
         23    2    1    2    0    0  0.54935061912E+01  0.86502883209E+01 -0.36313022979E+02  0.99094934588E+02  0.91630586186E+02 0.  0.
         11    1    3    3    0    0 -0.42412222067E+02 -0.34690111908E+01 -0.20319272463E+02  0.47156160284E+02  0.00000000000E+00 0. -1.
        -11    1    3    3    0    0  0.47905728258E+02  0.12119299512E+02 -0.15993750515E+02  0.51938774304E+02  0.00000000000E+00 0.  1.
         22    1    1    2    0    0 -0.54935061912E+01 -0.86502883209E+01  0.29080525671E+02  0.30833148908E+02  0.00000000000E+00 0. -1.
<mgrwt>
<rscale>  0 0.53236113E+02</rscale>
<asrwt>0</asrwt>
<pdfrwt beam="1">  1        2 0.10550814E-01 0.92201792E+02</pdfrwt>
<pdfrwt beam="2">  1       -2 0.94381220E-02 0.92201792E+02</pdfrwt>
<totfact> 0.37946750E+04</totfact>
</mgrwt>
</event>
<event>
 6    1  0.3062576E-002  0.9100340E+02  0.7546771E-02  0.1417918E+00
          2   -1    0    0  501    0  0.00000000000E+00  0.00000000000E+00  0.47981690911E+03  0.47981690911E+03  0.00000000000E+00 0. -1.
         -2   -1    0    0    0  501 -0.00000000000E+00 -0.00000000000E+00 -0.10304919282E+02  0.10304919282E+02  0.00000000000E+00 0.  1.
         23    2    1    2    0    0  0.10131930581E+01 -0.12515508054E+02  0.46879362085E+03  0.47754484322E+03  0.90132978618E+02 0.  0.
         13    1    3    3    0    0  0.74618457414E+01 -0.19144357492E+02  0.46779161439E+03  0.46824265083E+03  0.00000000000E+00 0. -1.
        -13    1    3    3    0    0 -0.64486526833E+01  0.66288494386E+01  0.10020064630E+01  0.93021923901E+01  0.00000000000E+00 0.  1.
         22    1    1    2    0    0 -0.10131930581E+01  0.12515508054E+02  0.71836897858E+00  0.12576985172E+02  0.00000000000E+00 0.  1.
<mgrwt>
<rscale>  0 0.55463841E+02</rscale>
<asrwt>0</asrwt>
<pdfrwt beam="1">  1        2 0.73817969E-01 0.91003397E+02</pdfrwt>
<pdfrwt beam="2">  1       -2 0.15853726E-02 0.91003397E+02</pdfrwt>
<totfact> 0.62257786E+04</totfact>
</mgrwt>
</event>
<event>
 6    1  0.3062576E-002  0.9005368E+02  0.7546771E-02  0.1424276E+00
         -2   -1    0    0    0  501 -0.00000000000E+00  0.00000000000E+00  0.58580224631E+02  0.58580224631E+02  0.00000000000E+00 0.  1.
          2   -1    0    0  501    0  0.00000000000E+00 -0.00000000000E+00 -0.80875356111E+02  0.80875356111E+02  0.00000000000E+00 0. -1.
         23    2    1    2    0    0  0.11159602733E+02  0.36859559731E+01 -0.54439661792E+02  0.10522994951E+03  0.89283495074E+02 0.  0.
         11    1    3    3    0    0 -0.93577014389E+01  0.13503057699E+02  0.20870051279E+02  0.26560462794E+02  0.00000000000E+00 0.  1.
        -11    1    3    3    0    0  0.20517304171E+02 -0.98171017259E+01 -0.75309713071E+02  0.78669486712E+02  0.00000000000E+00 0. -1.
         22    1    1    2    0    0 -0.11159602733E+02 -0.36859559731E+01  0.32144530311E+02  0.34225631236E+02  0.00000000000E+00 0. -1.
<mgrwt>
<rscale>  0 0.54126426E+02</rscale>
<asrwt>0</asrwt>
<pdfrwt beam="1">  1        2 0.12442362E-01 0.90053681E+02</pdfrwt>
<pdfrwt beam="2">  1       -2 0.90123423E-02 0.90053681E+02</pdfrwt>
<totfact> 0.33367583E+04</totfact>
</mgrwt>
</event>
<event>
 6    1  0.3062576E-002  0.9027111E+02  0.7546771E-02  0.1398210E+00
         -4   -1    0    0    0  501 -0.00000000000E+00  0.00000000000E+00  0.15002191628E+03  0.15002191628E+03  0.00000000000E+00 0. -1.
          4   -1    0    0  501    0  0.00000000000E+00 -0.00000000000E+00 -0.20473164764E+02  0.20473164764E+02  0.00000000000E+00 0.  1.
         23    2    1    2    0    0 -0.17323468756E+02 -0.25664475003E+01  0.12112102037E+03  0.15106016724E+03  0.88556102711E+02 0.  0.
         13    1    3    3    0    0 -0.29651230229E+02  0.30757832096E+02  0.10227611725E+03  0.11084062364E+03  0.00000000000E+00 0. -1.
        -13    1    3    3    0    0  0.12327761473E+02 -0.33324279596E+02  0.18844903124E+02  0.40219543598E+02  0.00000000000E+00 0.  1.
         22    1    1    2    0    0  0.17323468756E+02  0.25664475003E+01  0.84277311480E+01  0.19434913811E+02  0.00000000000E+00 0. -1.
<mgrwt>
<rscale>  0 0.59909940E+02</rscale>
<asrwt>0</asrwt>
<pdfrwt beam="1">  1        4 0.31497178E-02 0.90271106E+02</pdfrwt>
<pdfrwt beam="2">  1       -4 0.23080294E-01 0.90271106E+02</pdfrwt>
<totfact> 0.12546129E+04</totfact>
</mgrwt>
</event>
<event>
 6    1  0.3062576E-002  0.9257634E+02  0.7546771E-02  0.1409470E+00
         -2   -1    0    0    0  501 -0.00000000000E+00  0.00000000000E+00  0.25917331711E+01  0.25917331711E+01  0.00000000000E+00 0.  1.
          2   -1    0    0  501    0  0.00000000000E+00 -0.00000000000E+00 -0.13836941425E+04  0.13836941425E+04  0.00000000000E+00 0. -1.
         23    2    1    2    0    0 -0.13332532414E+02  0.26761873078E+01 -0.13353545239E+04  0.13385597045E+04  0.91572154331E+02 0.  0.
         11    1    3    3    0    0 -0.49865655661E+02  0.81301191818E+01 -0.97724697220E+03  0.97855215861E+03  0.00000000000E+00 0. -1.
        -11    1    3    3    0    0  0.36533123247E+02 -0.54539318740E+01 -0.35810755172E+03  0.36000754584E+03  0.00000000000E+00 0.  1.
         22    1    1    2    0    0  0.13332532414E+02 -0.26761873078E+01 -0.45747885387E+02  0.47726171190E+02  0.00000000000E+00 0. -1.
<mgrwt>
<rscale>  0 0.57312256E+02</rscale>
<asrwt>0</asrwt>
<pdfrwt beam="1">  1        2 0.21287649E+00 0.92576335E+02</pdfrwt>
<pdfrwt beam="2">  1       -2 0.39872731E-03 0.92576335E+02</pdfrwt>
<totfact> 0.11349087E+05</totfact>
</mgrwt>
</event>
<event>
 6    1  0.3062576E-002  0.9232168E+02  0.7546771E-02  0.1404092E+00
         -2   -1    0    0    0  501 -0.00000000000E+00  0.00000000000E+00  0.95765611353E+02  0.95765611353E+02  0.00000000000E+00 0.  1.
          2   -1    0    0  501    0  0.00000000000E+00 -0.00000000000E+00 -0.33242541639E+02  0.33242541639E+02  0.00000000000E+00 0. -1.
         23    2    1    2    0    0 -0.35233505307E+01  0.14495664265E+02  0.37030048704E+02  0.99471186295E+02  0.91108474439E+02 0.  0.
         13    1    3    3    0    0  0.19798222281E+02 -0.20914907054E+02 -0.14903565236E+02  0.32427136773E+02  0.00000000000E+00 0. -1.
        -13    1    3    3    0    0 -0.23321572812E+02  0.35410571318E+02  0.51933613939E+02  0.67044049522E+02  0.00000000000E+00 0.  1.
         22    1    1    2    0    0  0.35233505307E+01 -0.14495664265E+02  0.25493021010E+02  0.29536966697E+02  0.00000000000E+00 0. -1.
<mgrwt>
<rscale>  0 0.58533347E+02</rscale>
<asrwt>0</asrwt>
<pdfrwt beam="1">  1        2 0.51142372E-02 0.92321679E+02</pdfrwt>
<pdfrwt beam="2">  1       -2 0.14733171E-01 0.92321679E+02</pdfrwt>
<totfact> 0.46409766E+04</totfact>
</mgrwt>
</event>
<event>
 6    1  0.3062576E-002  0.1023049E+03  0.7546771E-02  0.1379072E+00
         -2   -1    0    0    0  501 -0.00000000000E+00  0.00000000000E+00  0.24026877845E+01  0.24026877845E+01  0.00000000000E+00 0. -1.
          2   -1    0    0  501    0  0.00000000000E+00 -0.00000000000E+00 -0.21177972860E+04  0.21177972860E+04  0.00000000000E+00 0.  1.
         23    2    1    2    0    0 -0.79253014225E+01  0.14328069556E+02 -0.20572961693E+04  0.20598383020E+04  0.10098612839E+03 0.  0.
         11    1    3    3    0    0  0.13881203794E+02 -0.38339273389E+02 -0.11718362440E+04  0.11725454236E+04  0.00000000000E+00 0.  1.
        -11    1    3    3    0    0 -0.21806505216E+02  0.52667342946E+02 -0.88545992535E+03  0.88729287841E+03  0.00000000000E+00 0. -1.
         22    1    1    2    0    0  0.79253014225E+01 -0.14328069556E+02 -0.58098428878E+02  0.60361671762E+02  0.00000000000E+00 0. -1.
<mgrwt>
<rscale>  0 0.64708358E+02</rscale>
<asrwt>0</asrwt>
<pdfrwt beam="1">  1        2 0.32581427E+00 0.10230495E+03</pdfrwt>
<pdfrwt beam="2">  1       -2 0.36964507E-03 0.10230495E+03</pdfrwt>
<totfact> 0.54088375E+04</totfact>
</mgrwt>
</event>
<event>
 6    1  0.3062576E-002  0.9269410E+02  0.7546771E-02  0.1384795E+00
         -1   -1    0    0    0  501 -0.00000000000E+00  0.00000000000E+00  0.23032925583E+01  0.23032925583E+01  0.00000000000E+00 0.  1.
          1   -1    0    0  501    0  0.00000000000E+00 -0.00000000000E+00 -0.22117561119E+04  0.22117561119E+04  0.00000000000E+00 0. -1.
         23    2    1    2    0    0  0.19783121401E+02 -0.33016132511E+01 -0.21331989912E+04  0.21352119641E+04  0.90498193976E+02 0.  0.
         11    1    3    3    0    0 -0.16733200488E+02 -0.17748142939E+02 -0.17149457542E+04  0.17151192193E+04  0.00000000000E+00 0.  1.
        -11    1    3    3    0    0  0.36516321889E+02  0.14446529687E+02 -0.41825323694E+03  0.42009274475E+03  0.00000000000E+00 0. -1.
         22    1    1    2    0    0 -0.19783121401E+02  0.33016132511E+01 -0.76253828225E+02  0.78847440423E+02  0.00000000000E+00 0.  1.
<mgrwt>
<rscale>  0 0.63219944E+02</rscale>
<asrwt>0</asrwt>
<pdfrwt beam="1">  1        1 0.34027027E+00 0.92694097E+02</pdfrwt>
<pdfrwt beam="2">  1       -1 0.35435260E-03 0.92694097E+02</pdfrwt>
<totfact> 0.19466359E+04</totfact>
</mgrwt>
</event>
<event>
 6    1  0.3062576E-002  0.5940108E+03  0.7546771E-02  0.9921615E-01
         -2   -1    0    0    0  501 -0.00000000000E+00  0.00000000000E+00  0.12061682763E+03  0.12061682763E+03  0.00000000000E+00 0.  1.
          2   -1    0    0  501    0  0.00000000000E+00 -0.00000000000E+00 -0.47540081546E+04  0.47540081546E+04  0.00000000000E+00 0. -1.
         23    2    1    2    0    0  0.57480371379E+03  0.11904604180E+03 -0.38508271292E+04  0.38963724622E+04  0.90980850418E+02 0.  0.
         13    1    3    3    0    0  0.45428402993E+03  0.11601663999E+03 -0.28499105283E+04  0.28882215739E+04  0.00000000000E+00 0. -1.
        -13    1    3    3    0    0  0.12051968386E+03  0.30294018140E+01 -0.10009166009E+04  0.10081508882E+04  0.00000000000E+00 0.  1.
         22    1    1    2    0    0 -0.57480371379E+03 -0.11904604180E+03 -0.78256419771E+03  0.97825252005E+03  0.00000000000E+00 0.  1.
<mgrwt>
<rscale>  0 0.59225075E+03</rscale>
<asrwt>0</asrwt>
<pdfrwt beam="1">  1        2 0.73138584E+00 0.59401076E+03</pdfrwt>
<pdfrwt beam="2">  1       -2 0.18556436E-01 0.59401076E+03</pdfrwt>
<totfact> 0.19630658E+00</totfact>
</mgrwt>
</event>
<event>
 6    1  0.3062576E-002  0.9313345E+02  0.7546771E-02  0.1415141E+00
         -2   -1    0    0    0  501 -0.00000000000E+00  0.00000000000E+00  0.16661145084E+02  0.16661145084E+02  0.00000000000E+00 0.  1.
          2   -1    0    0  501    0  0.00000000000E+00 -0.00000000000E+00 -0.17626564222E+03  0.17626564222E+03  0.00000000000E+00 0. -1.
         23    2    1    2    0    0  0.13958889287E+01 -0.12148329238E+02 -0.15276393824E+03  0.17891523295E+03  0.92327186400E+02 0.  0.
         13    1    3    3    0    0  0.27277842347E+01  0.28366400875E+02 -0.95189867323E+01  0.30045043082E+02  0.00000000000E+00 0. -1.
        -13    1    3    3    0    0 -0.13318953060E+01 -0.40514730112E+02 -0.14324495150E+03  0.14887018987E+03  0.00000000000E+00 0.  1.
         22    1    1    2    0    0 -0.13958889287E+01  0.12148329238E+02 -0.68405588957E+01  0.14011554346E+02  0.00000000000E+00 0. -1.
<mgrwt>
<rscale>  0 0.56062242E+02</rscale>
<asrwt>0</asrwt>
<pdfrwt beam="1">  1        2 0.27117790E-01 0.93133451E+02</pdfrwt>
<pdfrwt beam="2">  1       -2 0.25632532E-02 0.93133451E+02</pdfrwt>
<totfact> 0.90159336E+04</totfact>
</mgrwt>
</event>
<event>
 6    1  0.3062576E-002  0.9006511E+02  0.7546771E-02  0.1420153E+00
         -2   -1    0    0    0  501 -0.00000000000E+00  0.00000000000E+00  0.45133017841E+01  0.45133017841E+01  0.00000000000E+00 0.  1.
          2   -1    0    0  501    0  0.00000000000E+00 -0.00000000000E+00 -0.16947556209E+04  0.16947556209E+04  0.00000000000E+00 0. -1.
         23    2    1    2    0    0  0.78697879173E+01 -0.97305771205E+01 -0.16817153853E+04  0.16841253995E+04  0.89191403807E+02 0.  0.
         11    1    3    3    0    0  0.16621025608E+02 -0.25609596580E+02 -0.16052344319E+04  0.16055247402E+04  0.00000000000E+00 0. -1.
        -11    1    3    3    0    0 -0.87512376911E+01  0.15879019460E+02 -0.76480953362E+02  0.78600659331E+02  0.00000000000E+00 0.  1.
         22    1    1    2    0    0 -0.78697879173E+01  0.97305771205E+01 -0.85269338094E+01  0.15143523142E+02  0.00000000000E+00 0.  1.
<mgrwt>
<rscale>  0 0.54988585E+02</rscale>
<asrwt>0</asrwt>
<pdfrwt beam="1">  1        2 0.26073168E+00 0.90065111E+02</pdfrwt>
<pdfrwt beam="2">  1       -2 0.69435399E-03 0.90065111E+02</pdfrwt>
<totfact> 0.36084792E+04</totfact>
</mgrwt>
</event>
<event>
 6    1  0.3062576E-002  0.8938825E+02  0.7546771E-02  0.1398392E+00
          2   -1    0    0  501    0  0.00000000000E+00  0.00000000000E+00  0.64399784278E+02  0.64399784278E+02  0.00000000000E+00 0. -1.
         -2   -1    0    0    0  501 -0.00000000000E+00 -0.00000000000E+00 -0.65206380031E+02  0.65206380031E+02  0.00000000000E+00 0.  1.
         23    2    1    2    0    0  0.17038383556E+02 -0.57564553130E+01  0.29699831303E+02  0.94193096330E+02  0.87560357039E+02 0.  0.
         13    1    3    3    0    0  0.45771805830E+02  0.11994583064E+02  0.36477222555E+02  0.59745426579E+02  0.00000000000E+00 0. -1.
        -13    1    3    3    0    0 -0.28733422274E+02 -0.17751038377E+02 -0.67773912523E+01  0.34447669750E+02  0.00000000000E+00 0.  1.
         22    1    1    2    0    0 -0.17038383556E+02  0.57564553130E+01 -0.30506427057E+02  0.35413067980E+02  0.00000000000E+00 0.  1.
<mgrwt>
<rscale>  0 0.59866670E+02</rscale>
<asrwt>0</asrwt>
<pdfrwt beam="1">  1        2 0.99076591E-02 0.89388251E+02</pdfrwt>
<pdfrwt beam="2">  1       -2 0.10031751E-01 0.89388251E+02</pdfrwt>
<totfact> 0.37094571E+04</totfact>
</mgrwt>
</event>
<event>
 6    1  0.3062576E-002  0.9252670E+02  0.7546771E-02  0.1422283E+00
         -2   -1    0    0    0  501 -0.00000000000E+00  0.00000000000E+00  0.17466657348E+02  0.17466657348E+02  0.00000000000E+00 0.  1.
          2   -1    0    0  501    0  0.00000000000E+00 -0.00000000000E+00 -0.27220391080E+03  0.27220391080E+03  0.00000000000E+00 0. -1.
         23    2    1    2    0    0  0.90472152117E+01  0.65524846221E+01 -0.26096397681E+03  0.27688153998E+03  0.91849892947E+02 0.  0.
         13    1    3    3    0    0  0.25076915517E+02  0.34979822329E+02 -0.22163539030E+03  0.22577574249E+03  0.00000000000E+00 0. -1.
        -13    1    3    3    0    0 -0.16029700306E+02 -0.28427337707E+02 -0.39328586506E+02  0.51105797494E+02  0.00000000000E+00 0.  1.
         22    1    1    2    0    0 -0.90472152117E+01 -0.65524846221E+01  0.62267233519E+01  0.12789028169E+02  0.00000000000E+00 0.  1.
<mgrwt>
<rscale>  0 0.54540804E+02</rscale>
<asrwt>0</asrwt>
<pdfrwt beam="1">  1        2 0.41877524E-01 0.92526699E+02</pdfrwt>
<pdfrwt beam="2">  1       -2 0.26871781E-02 0.92526699E+02</pdfrwt>
<totfact> 0.53036561E+04</totfact>
</mgrwt>
</event>
<event>
 6    1  0.3062576E-002  0.9290386E+02  0.7546771E-02  0.1408111E+00
         -2   -1    0    0    0  501 -0.00000000000E+00  0.00000000000E+00  0.79348839949E+01  0.79348839949E+01  0.00000000000E+00 0.  1.
          2   -1    0    0  501    0  0.00000000000E+00 -0.00000000000E+00 -0.38941229264E+03  0.38941229264E+03  0.00000000000E+00 0. -1.
         23    2    1    2    0    0  0.24320815495E+01 -0.13527172247E+02 -0.36042124925E+03  0.37220237085E+03  0.91881600678E+02 0.  0.
         11    1    3    3    0    0  0.26353793823E+02  0.30898795119E+02 -0.12488381911E+03  0.13132108081E+03  0.00000000000E+00 0.  1.
        -11    1    3    3    0    0 -0.23921712274E+02 -0.44425967366E+02 -0.23553743014E+03  0.24088129004E+03  0.00000000000E+00 0. -1.
         22    1    1    2    0    0 -0.24320815495E+01  0.13527172247E+02 -0.21056159394E+02  0.25144805787E+02  0.00000000000E+00 0. -1.
<mgrwt>
<rscale>  0 0.57617467E+02</rscale>
<asrwt>0</asrwt>
<pdfrwt beam="1">  1        2 0.59909567E-01 0.92903864E+02</pdfrwt>
<pdfrwt beam="2">  1       -2 0.12207517E-02 0.92903864E+02</pdfrwt>
<totfact> 0.11308510E+05</totfact>
</mgrwt>
</event>
<event>
 6    1  0.3062576E-002  0.9208710E+02  0.7546771E-02  0.1414625E+00
          2   -1    0    0  501    0  0.00000000000E+00  0.00000000000E+00  0.32764757369E+03  0.32764757369E+03  0.00000000000E+00 0.  1.
         -2   -1    0    0    0  501 -0.00000000000E+00 -0.00000000000E+00 -0.13158114335E+02  0.13158114335E+02  0.00000000000E+00 0. -1.
         23    2    1    2    0    0  0.12077359541E+02  0.40912758910E+01  0.31485869828E+03  0.32804882754E+03  0.91199957311E+02 0.  0.
         11    1    3    3    0    0 -0.26268760077E+02 -0.12111225801E+02  0.24519083219E+03  0.24689121843E+03  0.00000000000E+00 0.  1.
        -11    1    3    3    0    0  0.38346119618E+02  0.16202501692E+02  0.69667866091E+02  0.81157609110E+02  0.00000000000E+00 0. -1.
         22    1    1    2    0    0 -0.12077359541E+02 -0.40912758910E+01 -0.36923893384E+00  0.12756860479E+02  0.00000000000E+00 0. -1.
<mgrwt>
<rscale>  0 0.56174542E+02</rscale>
<asrwt>0</asrwt>
<pdfrwt beam="1">  1        2 0.50407313E-01 0.92087097E+02</pdfrwt>
<pdfrwt beam="2">  1       -2 0.20243255E-02 0.92087097E+02</pdfrwt>
<totfact> 0.65712078E+04</totfact>
</mgrwt>
</event>
<event>
 6    1  0.3062576E-002  0.9321404E+02  0.7546771E-02  0.1392914E+00
          2   -1    0    0  501    0  0.00000000000E+00  0.00000000000E+00  0.23245913124E+04  0.23245913124E+04  0.00000000000E+00 0. -1.
         -2   -1    0    0    0  501 -0.00000000000E+00 -0.00000000000E+00 -0.19418164950E+01  0.19418164950E+01  0.00000000000E+00 0.  1.
         23    2    1    2    0    0  0.16437984989E+02 -0.54142643224E+01  0.22468603149E+04  0.22487930391E+04  0.91593320079E+02 0.  0.
         11    1    3    3    0    0  0.23139152535E+02 -0.52758839146E+01  0.14556480148E+03  0.14748683589E+03  0.00000000000E+00 0.  1.
        -11    1    3    3    0    0 -0.67011675466E+01 -0.13838040781E+00  0.21012955134E+04  0.21013062032E+04  0.00000000000E+00 0. -1.
         22    1    1    2    0    0 -0.16437984989E+02  0.54142643224E+01  0.75789180966E+02  0.77740089787E+02  0.00000000000E+00 0.  1.
<mgrwt>
<rscale>  0 0.61187757E+02</rscale>
<asrwt>0</asrwt>
<pdfrwt beam="1">  1        2 0.35762721E+00 0.93214043E+02</pdfrwt>
<pdfrwt beam="2">  1       -2 0.29874286E-03 0.93214043E+02</pdfrwt>
<totfact> 0.56661962E+04</totfact>
</mgrwt>
</event>
<event>
 6    1  0.3062576E-002  0.9266597E+02  0.7546771E-02  0.1424193E+00
          2   -1    0    0  501    0  0.00000000000E+00  0.00000000000E+00  0.14630303040E+04  0.14630303040E+04  0.00000000000E+00 0.  1.
         -2   -1    0    0    0  501 -0.00000000000E+00 -0.00000000000E+00 -0.23220706346E+01  0.23220706346E+01  0.00000000000E+00 0. -1.
         23    2    1    2    0    0 -0.13161164314E+01 -0.10719551690E+02  0.14258825312E+04  0.14288904701E+04  0.92034459961E+02 0.  0.
         11    1    3    3    0    0 -0.12240860536E+02  0.39312527601E+02  0.69121191715E+03  0.69243716531E+03  0.00000000000E+00 0. -1.
        -11    1    3    3    0    0  0.10924744104E+02 -0.50032079291E+02  0.73467061404E+03  0.73645330478E+03  0.00000000000E+00 0.  1.
         22    1    1    2    0    0  0.13161164314E+01  0.10719551690E+02  0.34825702217E+02  0.36461904583E+02  0.00000000000E+00 0. -1.
<mgrwt>
<rscale>  0 0.54143535E+02</rscale>
<asrwt>0</asrwt>
<pdfrwt beam="1">  1        2 0.22508085E+00 0.92665974E+02</pdfrwt>
<pdfrwt beam="2">  1       -2 0.35724281E-03 0.92665974E+02</pdfrwt>
<totfact> 0.12040671E+05</totfact>
</mgrwt>
</event>
<event>
 6    1  0.3062576E-002  0.1173396E+03  0.7546771E-02  0.1274836E+00
          2   -1    0    0  501    0  0.00000000000E+00  0.00000000000E+00  0.10305292965E+04  0.10305292965E+04  0.00000000000E+00 0.  1.
         -2   -1    0    0    0  501 -0.00000000000E+00 -0.00000000000E+00 -0.87969654942E+01  0.87969654942E+01  0.00000000000E+00 0. -1.
         23    2    1    2    0    0 -0.54459257519E+02 -0.41882988505E+02  0.74553604859E+03  0.75471357451E+03  0.95124047173E+02 0.  0.
         13    1    3    3    0    0 -0.66674637634E+02 -0.28591796711E+02  0.71881322864E+03  0.72246484745E+03  0.00000000000E+00 0.  1.
        -13    1    3    3    0    0  0.12215380114E+02 -0.13291191794E+02  0.26722819951E+02  0.32248727057E+02  0.00000000000E+00 0. -1.
         22    1    1    2    0    0  0.54459257519E+02  0.41882988505E+02  0.27619628245E+03  0.28461268751E+03  0.00000000000E+00 0.  1.
<mgrwt>
<rscale>  0 0.10264224E+03</rscale>
<asrwt>0</asrwt>
<pdfrwt beam="1">  1        2 0.15854287E+00 0.11733959E+03</pdfrwt>
<pdfrwt beam="2">  1       -2 0.13533801E-02 0.11733959E+03</pdfrwt>
<totfact> 0.32251575E+04</totfact>
</mgrwt>
</event>
<event>
 6    1  0.3062576E-002  0.8985503E+02  0.7546771E-02  0.1402588E+00
          2   -1    0    0  501    0  0.00000000000E+00  0.00000000000E+00  0.65294108667E+03  0.65294108667E+03  0.00000000000E+00 0. -1.
         -2   -1    0    0    0  501 -0.00000000000E+00 -0.00000000000E+00 -0.46244800853E+01  0.46244800853E+01  0.00000000000E+00 0.  1.
         23    2    1    2    0    0 -0.15293255030E+02  0.63740165141E+01  0.59462309007E+03  0.60137388186E+03  0.88314295560E+02 0.  0.
         13    1    3    3    0    0 -0.10702396318E+02  0.30646930787E+02  0.54476627107E+03  0.54573259546E+03  0.00000000000E+00 0. -1.
        -13    1    3    3    0    0 -0.45908587120E+01 -0.24272914273E+02  0.49856818999E+02  0.55641286395E+02  0.00000000000E+00 0.  1.
         22    1    1    2    0    0  0.15293255030E+02 -0.63740165141E+01  0.53693516518E+02  0.56191684901E+02  0.00000000000E+00 0.  1.
<mgrwt>
<rscale>  0 0.58881235E+02</rscale>
<asrwt>0</asrwt>
<pdfrwt beam="1">  1        2 0.10045240E+00 0.89855031E+02</pdfrwt>
<pdfrwt beam="2">  1       -2 0.71145899E-03 0.89855031E+02</pdfrwt>
<totfact> 0.13765895E+05</totfact>
</mgrwt>
</event>
<event>
 6    1  0.3062576E-002  0.9192151E+02  0.7546771E-02  0.1414839E+00
          2   -1    0    0  501    0  0.00000000000E+00  0.00000000000E+00  0.10910024867E+04  0.10910024867E+04  0.00000000000E+00 0. -1.
         -2   -1    0    0    0  501 -0.00000000000E+00 -0.00000000000E+00 -0.64777228448E+01  0.64777228448E+01  0.00000000000E+00 0.  1.
         23    2    1    2    0    0  0.12777606512E+02  0.11243519244E+00  0.10800299401E+04  0.10839346084E+04  0.91029027427E+02 0.  0.
         11    1    3    3    0    0 -0.15737878319E+02 -0.23456556533E+02  0.88359276004E+03  0.88404414848E+03  0.00000000000E+00 0. -1.
        -11    1    3    3    0    0  0.28515484831E+02  0.23568991726E+02  0.19643718009E+03  0.19989045993E+03  0.00000000000E+00 0.  1.
         22    1    1    2    0    0 -0.12777606512E+02 -0.11243519244E+00  0.44948237103E+01  0.13545601133E+02  0.00000000000E+00 0.  1.
<mgrwt>
<rscale>  0 0.56127983E+02</rscale>
<asrwt>0</asrwt>
<pdfrwt beam="1">  1        2 0.16784639E+00 0.91921508E+02</pdfrwt>
<pdfrwt beam="2">  1       -2 0.99657361E-03 0.91921508E+02</pdfrwt>
<totfact> 0.44969999E+04</totfact>
</mgrwt>
</event>
<event>
 6    1  0.3062576E-002  0.9802093E+02  0.7546771E-02  0.1410176E+00
         -4   -1    0    0    0  501 -0.00000000000E+00  0.00000000000E+00  0.27518200236E+02  0.27518200236E+02  0.00000000000E+00 0.  1.
          4   -1    0    0  501    0  0.00000000000E+00 -0.00000000000E+00 -0.11260498548E+03  0.11260498548E+03  0.00000000000E+00 0. -1.
         23    2    1    2    0    0 -0.90439835218E+01 -0.68254378400E+01 -0.83335576344E+02  0.12865815313E+03  0.97363863125E+02 0.  0.
         11    1    3    3    0    0  0.23436360652E+02 -0.40883370071E+02 -0.59507595366E+02  0.75906961836E+02  0.00000000000E+00 0. -1.
        -11    1    3    3    0    0 -0.32480344174E+02  0.34057932231E+02 -0.23827980979E+02  0.52751191295E+02  0.00000000000E+00 0.  1.
         22    1    1    2    0    0  0.90439835218E+01  0.68254378400E+01 -0.17512089035E+01  0.11465032589E+02  0.00000000000E+00 0.  1.
<mgrwt>
<rscale>  0 0.57154625E+02</rscale>
<asrwt>0</asrwt>
<pdfrwt beam="1">  1        4 0.17323844E-01 0.98020927E+02</pdfrwt>
<pdfrwt beam="2">  1       -4 0.42335692E-02 0.98020927E+02</pdfrwt>
<totfact> 0.13493783E+04</totfact>
</mgrwt>
</event>
<event>
 6    1  0.3062576E-002  0.1148621E+03  0.7546771E-02  0.1289069E+00
         -2   -1    0    0    0  501 -0.00000000000E+00  0.00000000000E+00  0.52329332852E+01  0.52329332852E+01  0.00000000000E+00 0.  1.
          2   -1    0    0  501    0  0.00000000000E+00 -0.00000000000E+00 -0.27643410877E+04  0.27643410877E+04  0.00000000000E+00 0. -1.
         23    2    1    2    0    0 -0.51481776233E+02 -0.21811279389E+02 -0.25650870875E+04  0.25676575045E+04  0.10033538335E+03 0.  0.
         11    1    3    3    0    0 -0.34220684970E+02  0.10543717227E+02 -0.28053179720E+03  0.28280791095E+03  0.00000000000E+00 0.  1.
        -11    1    3    3    0    0 -0.17261091263E+02 -0.32354996617E+02 -0.22845552903E+04  0.22848495936E+04  0.00000000000E+00 0. -1.
         22    1    1    2    0    0  0.51481776233E+02  0.21811279389E+02 -0.19402106695E+03  0.20191651644E+03  0.00000000000E+00 0.  1.
<mgrwt>
<rscale>  0 0.95941812E+02</rscale>
<asrwt>0</asrwt>
<pdfrwt beam="1">  1        2 0.42528363E+00 0.11486207E+03</pdfrwt>
<pdfrwt beam="2">  1       -2 0.80506592E-03 0.11486207E+03</pdfrwt>
<totfact> 0.82877832E+03</totfact>
</mgrwt>
</event>
<event>
 6    1  0.3062576E-002  0.9770905E+02  0.7546771E-02  0.1346654E+00
          3   -1    0    0  501    0  0.00000000000E+00  0.00000000000E+00  0.15231567618E+03  0.15231567618E+03  0.00000000000E+00 0. -1.
         -3   -1    0    0    0  501 -0.00000000000E+00 -0.00000000000E+00 -0.29031705516E+02  0.29031705516E+02  0.00000000000E+00 0.  1.
         23    2    1    2    0    0 -0.96353217992E+01 -0.30865442929E+02  0.10781559003E+03  0.14550347297E+03  0.92203818792E+02 0.  0.
         11    1    3    3    0    0 -0.25388507115E+00 -0.32351820118E+02  0.12322524416E+03  0.12740159151E+03  0.00000000000E+00 0. -1.
        -11    1    3    3    0    0 -0.93814367281E+01  0.14863771889E+01 -0.15409654123E+02  0.18101881461E+02  0.00000000000E+00 0.  1.
         22    1    1    2    0    0  0.96353217992E+01  0.30865442929E+02  0.15468380636E+02  0.35843908727E+02  0.00000000000E+00 0.  1.
<mgrwt>
<rscale>  0 0.74108392E+02</rscale>
<asrwt>0</asrwt>
<pdfrwt beam="1">  1        3 0.23433181E-01 0.97709054E+02</pdfrwt>
<pdfrwt beam="2">  1       -3 0.44664163E-02 0.97709054E+02</pdfrwt>
<totfact> 0.96923829E+03</totfact>
</mgrwt>
</event>
<event>
 6    1  0.3062576E-002  0.1045892E+03  0.7546771E-02  0.1382493E+00
         -2   -1    0    0    0  501 -0.00000000000E+00  0.00000000000E+00  0.10912691905E+03  0.10912691905E+03  0.00000000000E+00 0. -1.
          2   -1    0    0  501    0  0.00000000000E+00 -0.00000000000E+00 -0.99711633632E+02  0.99711633632E+02  0.00000000000E+00 0.  1.
         23    2    1    2    0    0 -0.17489740917E+01  0.14387754496E+02 -0.71462742342E+02  0.12667212545E+03  0.10358010153E+03 0.  0.
         13    1    3    3    0    0 -0.19102252213E+02  0.53277502641E+01  0.22903913470E+02  0.30296372963E+02  0.00000000000E+00 0. -1.
        -13    1    3    3    0    0  0.17353278121E+02  0.90600042320E+01 -0.94366655812E+02  0.96375752487E+02  0.00000000000E+00 0.  1.
         22    1    1    2    0    0  0.17489740917E+01 -0.14387754496E+02  0.80878027756E+02  0.82166427229E+02  0.00000000000E+00 0. -1.
<mgrwt>
<rscale>  0 0.63813086E+02</rscale>
<asrwt>0</asrwt>
<pdfrwt beam="1">  1        2 0.15340251E-01 0.10458921E+03</pdfrwt>
<pdfrwt beam="2">  1       -2 0.16788757E-01 0.10458921E+03</pdfrwt>
<totfact> 0.98753659E+03</totfact>
</mgrwt>
</event>
<event>
 6    1  0.3062576E-002  0.9847389E+02  0.7546771E-02  0.1401793E+00
         -2   -1    0    0    0  501 -0.00000000000E+00  0.00000000000E+00  0.13308130751E+02  0.13308130751E+02  0.00000000000E+00 0.  1.
          2   -1    0    0  501    0  0.00000000000E+00 -0.00000000000E+00 -0.29824389884E+03  0.29824389884E+03  0.00000000000E+00 0. -1.
         23    2    1    2    0    0 -0.25536929295E+01 -0.12488051783E+02 -0.28167911267E+03  0.29839609597E+03  0.97645454536E+02 0.  0.
         11    1    3    3    0    0 -0.26821970796E+02 -0.92270589843E+01 -0.18025087129E+02  0.33607447105E+02  0.00000000000E+00 0.  1.
        -11    1    3    3    0    0  0.24268277867E+02 -0.32609927985E+01 -0.26365402554E+03  0.26478864887E+03  0.00000000000E+00 0. -1.
         22    1    1    2    0    0  0.25536929295E+01  0.12488051783E+02 -0.32566554212E+01  0.13155933621E+02  0.00000000000E+00 0.  1.
<mgrwt>
<rscale>  0 0.59066115E+02</rscale>
<asrwt>0</asrwt>
<pdfrwt beam="1">  1        2 0.45883670E-01 0.98473893E+02</pdfrwt>
<pdfrwt beam="2">  1       -2 0.20474050E-02 0.98473893E+02</pdfrwt>
<totfact> 0.71988514E+04</totfact>
</mgrwt>
</event>
<event>
 6    1  0.3062576E-002  0.9474212E+02  0.7546771E-02  0.1365483E+00
         -1   -1    0    0    0  501 -0.00000000000E+00  0.00000000000E+00  0.22564538323E+02  0.22564538323E+02  0.00000000000E+00 0.  1.
          1   -1    0    0  501    0  0.00000000000E+00 -0.00000000000E+00 -0.16114752853E+03  0.16114752853E+03  0.00000000000E+00 0. -1.
         23    2    1    2    0    0 -0.18594678590E+02  0.17882132701E+02 -0.11130105338E+03  0.14616427306E+03  0.91162149456E+02 0.  0.
         11    1    3    3    0    0 -0.53267888630E+01  0.41583650498E+02 -0.12573510793E+02  0.43768342920E+02  0.00000000000E+00 0.  1.
        -11    1    3    3    0    0 -0.13267889727E+02 -0.23701517797E+02 -0.98727542584E+02  0.10239593014E+03  0.00000000000E+00 0. -1.
         22    1    1    2    0    0  0.18594678590E+02 -0.17882132701E+02 -0.27281936828E+02  0.37547793795E+02  0.00000000000E+00 0. -1.
<mgrwt>
<rscale>  0 0.68438979E+02</rscale>
<asrwt>0</asrwt>
<pdfrwt beam="1">  1        1 0.24791927E-01 0.94742125E+02</pdfrwt>
<pdfrwt beam="2">  1       -1 0.34714674E-02 0.94742125E+02</pdfrwt>
<totfact> 0.51156142E+04</totfact>
</mgrwt>
</event>
<event>
 6    1  0.3062576E-002  0.9246109E+02  0.7546771E-02  0.1413241E+00
         -2   -1    0    0    0  501 -0.00000000000E+00  0.00000000000E+00  0.40823697542E+01  0.40823697542E+01  0.00000000000E+00 0.  1.
          2   -1    0    0  501    0  0.00000000000E+00 -0.00000000000E+00 -0.85668221250E+03  0.85668221250E+03  0.00000000000E+00 0. -1.
         23    2    1    2    0    0  0.60601048051E+01 -0.11354930439E+02 -0.82658173028E+03  0.83173698346E+03  0.91560873230E+02 0.  0.
         11    1    3    3    0    0  0.23250944981E+02  0.18193454205E+02 -0.69994266609E+03  0.70056501771E+03  0.00000000000E+00 0. -1.
        -11    1    3    3    0    0 -0.17190840176E+02 -0.29548384645E+02 -0.12663906418E+03  0.13117196575E+03  0.00000000000E+00 0.  1.
         22    1    1    2    0    0 -0.60601048051E+01  0.11354930439E+02 -0.26018112474E+02  0.29027598802E+02  0.00000000000E+00 0.  1.
<mgrwt>
<rscale>  0 0.56476950E+02</rscale>
<asrwt>0</asrwt>
<pdfrwt beam="1">  1        2 0.13179719E+00 0.92461088E+02</pdfrwt>
<pdfrwt beam="2">  1       -2 0.62805724E-03 0.92461088E+02</pdfrwt>
<totfact> 0.11908386E+05</totfact>
</mgrwt>
</event>
<event>
 6    1  0.3062576E-002  0.9205237E+02  0.7546771E-02  0.1419705E+00
          2   -1    0    0  501    0  0.00000000000E+00  0.00000000000E+00  0.31201073742E+02  0.31201073742E+02  0.00000000000E+00 0.  1.
         -2   -1    0    0    0  501 -0.00000000000E+00 -0.00000000000E+00 -0.86557853137E+02  0.86557853137E+02  0.00000000000E+00 0. -1.
         23    2    1    2    0    0 -0.95286564427E+01  0.69646924220E+01 -0.47550921014E+02  0.10360853257E+03  0.91292582925E+02 0.  0.
         11    1    3    3    0    0  0.10193966765E+02  0.41715395169E+02 -0.19626435016E+01  0.42987708965E+02  0.00000000000E+00 0.  1.
        -11    1    3    3    0    0 -0.19722623207E+02 -0.34750702747E+02 -0.45588277513E+02  0.60620823602E+02  0.00000000000E+00 0. -1.
         22    1    1    2    0    0  0.95286564427E+01 -0.69646924220E+01 -0.78058583811E+01  0.14150394313E+02  0.00000000000E+00 0.  1.
<mgrwt>
<rscale>  0 0.55083430E+02</rscale>
<asrwt>0</asrwt>
<pdfrwt beam="1">  1        2 0.48001653E-02 0.92052365E+02</pdfrwt>
<pdfrwt beam="2">  1       -2 0.13316593E-01 0.92052365E+02</pdfrwt>
<totfact> 0.59223374E+04</totfact>
</mgrwt>
</event>
<event>
 6    1  0.3062576E-002  0.9366343E+02  0.7546771E-02  0.1397607E+00
         -2   -1    0    0    0  501 -0.00000000000E+00  0.00000000000E+00  0.14476726705E+02  0.14476726705E+02  0.00000000000E+00 0. -1.
          2   -1    0    0  501    0  0.00000000000E+00 -0.00000000000E+00 -0.74995795796E+03  0.74995795796E+03  0.00000000000E+00 0.  1.
         23    2    1    2    0    0 -0.15760402239E+02 -0.14690008343E+01 -0.74158009484E+03  0.74747165489E+03  0.92316247543E+02 0.  0.
         13    1    3    3    0    0 -0.15602609986E+02 -0.24871278928E+02 -0.75907104219E+02  0.81387409498E+02  0.00000000000E+00 0. -1.
        -13    1    3    3    0    0 -0.15779225284E+00  0.23402278094E+02 -0.66567299062E+03  0.66608424539E+03  0.00000000000E+00 0.  1.
         22    1    1    2    0    0  0.15760402239E+02  0.14690008343E+01  0.60988635822E+01  0.16963029776E+02  0.00000000000E+00 0. -1.
<mgrwt>
<rscale>  0 0.60053588E+02</rscale>
<asrwt>0</asrwt>
<pdfrwt beam="1">  1        2 0.11537816E+00 0.93663428E+02</pdfrwt>
<pdfrwt beam="2">  1       -2 0.22271884E-02 0.93663428E+02</pdfrwt>
<totfact> 0.23208561E+04</totfact>
</mgrwt>
</event>
<event>
 6    1  0.3062576E-002  0.9712058E+02  0.7546771E-02  0.1347887E+00
         -2   -1    0    0    0  501 -0.00000000000E+00  0.00000000000E+00  0.35677032783E+03  0.35677032783E+03  0.00000000000E+00 0.  1.
          2   -1    0    0  501    0  0.00000000000E+00 -0.00000000000E+00 -0.12560023969E+02  0.12560023969E+02  0.00000000000E+00 0. -1.
         23    2    1    2    0    0 -0.29357949936E+02  0.13319149125E+02  0.21106467647E+03  0.23233747954E+03  0.91613960647E+02 0.  0.
         13    1    3    3    0    0 -0.45037596430E+02  0.43338560056E+02  0.12263866294E+03  0.13764758454E+03  0.00000000000E+00 0. -1.
        -13    1    3    3    0    0  0.15679646493E+02 -0.30019410932E+02  0.88426013528E+02  0.94689895001E+02  0.00000000000E+00 0.  1.
         22    1    1    2    0    0  0.29357949936E+02 -0.13319149125E+02  0.13314562739E+03  0.13699287226E+03  0.00000000000E+00 0.  1.
<mgrwt>
<rscale>  0 0.73718329E+02</rscale>
<asrwt>0</asrwt>
<pdfrwt beam="1">  1        2 0.19323117E-02 0.97120578E+02</pdfrwt>
<pdfrwt beam="2">  1       -2 0.54887735E-01 0.97120578E+02</pdfrwt>
<totfact> 0.16283971E+04</totfact>
</mgrwt>
</event>
<event>
 6    1  0.3062576E-002  0.1129175E+03  0.7546771E-02  0.1283119E+00
          2   -1    0    0  501    0  0.00000000000E+00  0.00000000000E+00  0.11074642183E+04  0.11074642183E+04  0.00000000000E+00 0. -1.
         -2   -1    0    0    0  501 -0.00000000000E+00 -0.00000000000E+00 -0.13780815482E+02  0.13780815482E+02  0.00000000000E+00 0.  1.
         23    2    1    2    0    0 -0.64347370550E+02  0.13907448919E+02  0.10021745813E+04  0.10085158643E+04  0.91740699486E+02 0.  0.
         13    1    3    3    0    0 -0.80158986923E+02  0.19048034748E+02  0.95403352530E+03  0.95758459585E+03  0.00000000000E+00 0. -1.
        -13    1    3    3    0    0  0.15811616373E+02 -0.51405858297E+01  0.48141056030E+02  0.50931268496E+02  0.00000000000E+00 0.  1.
         22    1    1    2    0    0  0.64347370550E+02 -0.13907448919E+02  0.91508821501E+02  0.11272916945E+03  0.00000000000E+00 0.  1.
<mgrwt>
<rscale>  0 0.98669292E+02</rscale>
<asrwt>0</asrwt>
<pdfrwt beam="1">  1        2 0.17037904E+00 0.11291748E+03</pdfrwt>
<pdfrwt beam="2">  1       -2 0.21201263E-02 0.11291748E+03</pdfrwt>
<totfact> 0.15216370E+04</totfact>
</mgrwt>
</event>
<event>
 6    1  0.3062576E-002  0.9333398E+02  0.7546771E-02  0.1407010E+00
          2   -1    0    0  501    0  0.00000000000E+00  0.00000000000E+00  0.18242123402E+02  0.18242123402E+02  0.00000000000E+00 0. -1.
         -2   -1    0    0    0  501 -0.00000000000E+00 -0.00000000000E+00 -0.17508796891E+03  0.17508796891E+03  0.00000000000E+00 0.  1.
         23    2    1    2    0    0  0.35762835288E+01 -0.13318987183E+02 -0.10881913011E+03  0.14336259673E+03  0.92309511092E+02 0.  0.
         11    1    3    3    0    0 -0.11243197217E+02  0.26894276737E+02 -0.93356327685E+02  0.97801408598E+02  0.00000000000E+00 0.  1.
        -11    1    3    3    0    0  0.14819480746E+02 -0.40213263920E+02 -0.15462802426E+02  0.45561188127E+02  0.00000000000E+00 0. -1.
         22    1    1    2    0    0 -0.35762835288E+01  0.13318987183E+02 -0.48026715392E+02  0.49967495583E+02  0.00000000000E+00 0. -1.
<mgrwt>
<rscale>  0 0.57866461E+02</rscale>
<asrwt>0</asrwt>
<pdfrwt beam="1">  1        2 0.28064806E-02 0.93333976E+02</pdfrwt>
<pdfrwt beam="2">  1       -2 0.26936610E-01 0.93333976E+02</pdfrwt>
<totfact> 0.37108547E+04</totfact>
</mgrwt>
</event>
<event>
 6    1  0.3062576E-002  0.9762220E+02  0.7546771E-02  0.1337408E+00
         -1   -1    0    0    0  501 -0.00000000000E+00  0.00000000000E+00  0.12771383544E+02  0.12771383544E+02  0.00000000000E+00 0.  1.
          1   -1    0    0  501    0  0.00000000000E+00 -0.00000000000E+00 -0.38551849357E+03  0.38551849357E+03  0.00000000000E+00 0. -1.
         23    2    1    2    0    0 -0.22839375245E+02  0.30414066099E+02 -0.30904232211E+03  0.32409451013E+03  0.89907964962E+02 0.  0.
         13    1    3    3    0    0 -0.57321945294E+02  0.20447393212E+02 -0.17283644428E+03  0.18323847241E+03  0.00000000000E+00 0.  1.
        -13    1    3    3    0    0  0.34482570050E+02  0.99666728869E+01 -0.13620587783E+03  0.14085603772E+03  0.00000000000E+00 0. -1.
         22    1    1    2    0    0  0.22839375245E+02 -0.30414066099E+02 -0.63704787908E+02  0.74195366976E+02  0.00000000000E+00 0. -1.
<mgrwt>
<rscale>  0 0.77127096E+02</rscale>
<asrwt>0</asrwt>
<pdfrwt beam="1">  1        1 0.59310535E-01 0.97622204E+02</pdfrwt>
<pdfrwt beam="2">  1       -1 0.19648283E-02 0.97622204E+02</pdfrwt>
<totfact> 0.39857454E+04</totfact>
</mgrwt>
</event>
<event>
 6    1  0.3062576E-002  0.9260337E+02  0.7546771E-02  0.1403472E+00
          2   -1    0    0  501    0  0.00000000000E+00  0.00000000000E+00  0.73227476788E+03  0.73227476788E+03  0.00000000000E+00 0. -1.
         -2   -1    0    0    0  501 -0.00000000000E+00 -0.00000000000E+00 -0.10583216147E+02  0.10583216147E+02  0.00000000000E+00 0.  1.
         23    2    1    2    0    0  0.58682064833E+01  0.13725147628E+02  0.72201321295E+03  0.72792751214E+03  0.91392383345E+02 0.  0.
         11    1    3    3    0    0 -0.54072707858E+01  0.48225900688E+02  0.54942037638E+03  0.55155935860E+03  0.00000000000E+00 0. -1.
        -11    1    3    3    0    0  0.11275477269E+02 -0.34500753060E+02  0.17259283656E+03  0.17636815354E+03  0.00000000000E+00 0.  1.
         22    1    1    2    0    0 -0.58682064833E+01 -0.13725147628E+02 -0.32166121875E+00  0.14930471884E+02  0.00000000000E+00 0.  1.
<mgrwt>
<rscale>  0 0.58676373E+02</rscale>
<asrwt>0</asrwt>
<pdfrwt beam="1">  1        2 0.11265762E+00 0.92603365E+02</pdfrwt>
<pdfrwt beam="2">  1       -2 0.16281877E-02 0.92603365E+02</pdfrwt>
<totfact> 0.37393108E+04</totfact>
</mgrwt>
</event>
<event>
 6    1  0.3062576E-002  0.6383728E+02  0.7546771E-02  0.1487021E+00
          1   -1    0    0  501    0  0.00000000000E+00  0.00000000000E+00  0.57088909533E+03  0.57088909533E+03  0.00000000000E+00 0. -1.
         -1   -1    0    0    0  501 -0.00000000000E+00 -0.00000000000E+00 -0.31936616382E+01  0.31936616382E+01  0.00000000000E+00 0.  1.
         23    2    1    2    0    0 -0.13171571325E+02 -0.46383817572E+00  0.53553658127E+03  0.53932794110E+03  0.62461930284E+02 0.  0.
         11    1    3    3    0    0 -0.16086585177E+01  0.30554256151E+02  0.23960167863E+03  0.24154733440E+03  0.00000000000E+00 0.  1.
        -11    1    3    3    0    0 -0.11562912807E+02 -0.31018094327E+02  0.29593490264E+03  0.29778060670E+03  0.00000000000E+00 0. -1.
         22    1    1    2    0    0  0.13171571325E+02  0.46383817572E+00  0.32158852423E+02  0.34754815870E+02  0.00000000000E+00 0.  1.
<mgrwt>
<rscale>  0 0.43031100E+02</rscale>
<asrwt>0</asrwt>
<pdfrwt beam="1">  1        1 0.87829011E-01 0.63837279E+02</pdfrwt>
<pdfrwt beam="2">  1       -1 0.49133301E-03 0.63837279E+02</pdfrwt>
<totfact> 0.15966814E+05</totfact>
</mgrwt>
</event>
<event>
 6    1  0.3062576E-002  0.9036876E+02  0.7546771E-02  0.1426654E+00
         -2   -1    0    0    0  501 -0.00000000000E+00  0.00000000000E+00  0.11320530307E+02  0.11320530307E+02  0.00000000000E+00 0. -1.
          2   -1    0    0  501    0  0.00000000000E+00 -0.00000000000E+00 -0.32867177936E+03  0.32867177936E+03  0.00000000000E+00 0.  1.
         23    2    1    2    0    0 -0.10554709023E+02  0.37928076890E+01 -0.31603311498E+03  0.32869962397E+03  0.89670094042E+02 0.  0.
         13    1    3    3    0    0  0.20786912026E+02  0.37096313247E+02 -0.11722382828E+03  0.12469826817E+03  0.00000000000E+00 0.  1.
        -13    1    3    3    0    0 -0.31341621049E+02 -0.33303505558E+02 -0.19880928670E+03  0.20400135581E+03  0.00000000000E+00 0. -1.
         22    1    1    2    0    0  0.10554709023E+02 -0.37928076890E+01 -0.13181340750E+01  0.11292685693E+02  0.00000000000E+00 0. -1.
<mgrwt>
<rscale>  0 0.53637476E+02</rscale>
<asrwt>0</asrwt>
<pdfrwt beam="1">  1        2 0.50564895E-01 0.90368761E+02</pdfrwt>
<pdfrwt beam="2">  1       -2 0.17416198E-02 0.90368761E+02</pdfrwt>
<totfact> 0.81053321E+04</totfact>
</mgrwt>
</event>
<event>
 6    1  0.3062576E-002  0.1038421E+03  0.7546771E-02  0.1310621E+00
          2   -1    0    0  501    0  0.00000000000E+00  0.00000000000E+00  0.13285154999E+04  0.13285154999E+04  0.00000000000E+00 0.  1.
         -2   -1    0    0    0  501 -0.00000000000E+00 -0.00000000000E+00 -0.51817634986E+01  0.51817634986E+01  0.00000000000E+00 0. -1.
         23    2    1    2    0    0  0.49197616378E+02 -0.12860898387E+02  0.10873325855E+04  0.10922798834E+04  0.90539405276E+02 0.  0.
         11    1    3    3    0    0  0.42910986670E+02  0.68105384795E+01  0.10365300731E+04  0.10374402772E+04  0.00000000000E+00 0.  1.
        -11    1    3    3    0    0  0.62866297088E+01 -0.19671436867E+02  0.50802512384E+02  0.54839606181E+02  0.00000000000E+00 0. -1.
         22    1    1    2    0    0 -0.49197616378E+02  0.12860898387E+02  0.23600115090E+03  0.24141738005E+03  0.00000000000E+00 0.  1.
<mgrwt>
<rscale>  0 0.86866994E+02</rscale>
<asrwt>0</asrwt>
<pdfrwt beam="1">  1        2 0.20438673E+00 0.10384215E+03</pdfrwt>
<pdfrwt beam="2">  1       -2 0.79719544E-03 0.10384215E+03</pdfrwt>
<totfact> 0.46357551E+04</totfact>
</mgrwt>
</event>
<event>
 6    1  0.3062576E-002  0.8509243E+02  0.7546771E-02  0.1421473E+00
          2   -1    0    0  501    0  0.00000000000E+00  0.00000000000E+00  0.49427591540E+02  0.49427591540E+02  0.00000000000E+00 0. -1.
         -2   -1    0    0    0  501 -0.00000000000E+00 -0.00000000000E+00 -0.57010844070E+02  0.57010844070E+02  0.00000000000E+00 0.  1.
         23    2    1    2    0    0  0.11782123026E+02 -0.85225807018E+01  0.75801014821E+01  0.85429387328E+02  0.83840738761E+02 0.  0.
         11    1    3    3    0    0  0.14980125337E+01  0.34498793422E+02 -0.12668218676E+02  0.36781714934E+02  0.00000000000E+00 0.  1.
        -11    1    3    3    0    0  0.10284110492E+02 -0.43021374124E+02  0.20248320158E+02  0.48647672393E+02  0.00000000000E+00 0. -1.
         22    1    1    2    0    0 -0.11782123026E+02  0.85225807018E+01 -0.15163354012E+02  0.21009048282E+02  0.00000000000E+00 0. -1.
<mgrwt>
<rscale>  0 0.54710400E+02</rscale>
<asrwt>0</asrwt>
<pdfrwt beam="1">  1        2 0.76042448E-02 0.85092434E+02</pdfrwt>
<pdfrwt beam="2">  1       -2 0.87708991E-02 0.85092434E+02</pdfrwt>
<totfact> 0.62739188E+04</totfact>
</mgrwt>
</event>
<event>
 6    1  0.3062576E-002  0.9399891E+02  0.7546771E-02  0.1375953E+00
         -2   -1    0    0    0  501 -0.00000000000E+00  0.00000000000E+00  0.85089259731E+01  0.85089259731E+01  0.00000000000E+00 0.  1.
          2   -1    0    0  501    0  0.00000000000E+00 -0.00000000000E+00 -0.62342858878E+03  0.62342858878E+03  0.00000000000E+00 0. -1.
         23    2    1    2    0    0  0.18211352472E+02  0.12722360725E+02 -0.59410332204E+03  0.60149360133E+03  0.91336101114E+02 0.  0.
         13    1    3    3    0    0  0.59249959354E+01  0.36337198755E+02 -0.53942199032E+03  0.54067696569E+03  0.00000000000E+00 0. -1.
        -13    1    3    3    0    0  0.12286356537E+02 -0.23614838030E+02 -0.54681331720E+02  0.60816635642E+02  0.00000000000E+00 0.  1.
         22    1    1    2    0    0 -0.18211352472E+02 -0.12722360725E+02 -0.20816340768E+02  0.30443913419E+02  0.00000000000E+00 0.  1.
<mgrwt>
<rscale>  0 0.65539679E+02</rscale>
<asrwt>0</asrwt>
<pdfrwt beam="1">  1        2 0.95912125E-01 0.93998911E+02</pdfrwt>
<pdfrwt beam="2">  1       -2 0.13090651E-02 0.93998911E+02</pdfrwt>
<totfact> 0.61595532E+04</totfact>
</mgrwt>
</event>
<event>
 6    1  0.3062576E-002  0.1033357E+03  0.7546771E-02  0.1312894E+00
          2   -1    0    0  501    0  0.00000000000E+00  0.00000000000E+00  0.64614640611E+03  0.64614640611E+03  0.00000000000E+00 0.  1.
         -2   -1    0    0    0  501 -0.00000000000E+00 -0.00000000000E+00 -0.14882252697E+02  0.14882252697E+02  0.00000000000E+00 0. -1.
         23    2    1    2    0    0  0.98045765294E+01  0.48542514430E+02  0.58226018132E+03  0.59135876065E+03  0.90695973557E+02 0.  0.
         13    1    3    3    0    0 -0.17428743110E+02  0.32618851519E+02  0.80289044075E+02  0.88397291583E+02  0.00000000000E+00 0. -1.
        -13    1    3    3    0    0  0.27233319639E+02  0.15923662910E+02  0.50197113725E+03  0.50296146907E+03  0.00000000000E+00 0.  1.
         22    1    1    2    0    0 -0.98045765294E+01 -0.48542514430E+02  0.49003972089E+02  0.69669898153E+02  0.00000000000E+00 0. -1.
<mgrwt>
<rscale>  0 0.85978331E+02</rscale>
<asrwt>0</asrwt>
<pdfrwt beam="1">  1        2 0.99407118E-01 0.10333569E+03</pdfrwt>
<pdfrwt beam="2">  1       -2 0.22895778E-02 0.10333569E+03</pdfrwt>
<totfact> 0.26798765E+04</totfact>
</mgrwt>
</event>
<event>
 6    1  0.3062576E-002  0.9142876E+02  0.7546771E-02  0.1427416E+00
          1   -1    0    0  501    0  0.00000000000E+00  0.00000000000E+00  0.99800656696E+01  0.99800656696E+01  0.00000000000E+00 0. -1.
         -1   -1    0    0    0  501 -0.00000000000E+00 -0.00000000000E+00 -0.26294536625E+03  0.26294536625E+03  0.00000000000E+00 0.  1.
         23    2    1    2    0    0  0.10703627646E+02  0.17406542662E+00 -0.23246674855E+03  0.24979993563E+03  0.90799893793E+02 0.  0.
         13    1    3    3    0    0 -0.33993859997E+02 -0.28352940832E+01 -0.41857527222E+02  0.53996981353E+02  0.00000000000E+00 0.  1.
        -13    1    3    3    0    0  0.44697487643E+02  0.30093595098E+01 -0.19060922133E+03  0.19580295427E+03  0.00000000000E+00 0. -1.
         22    1    1    2    0    0 -0.10703627646E+02 -0.17406542662E+00 -0.20498552023E+02  0.23125496289E+02  0.00000000000E+00 0.  1.
<mgrwt>
<rscale>  0 0.53482196E+02</rscale>
<asrwt>0</asrwt>
<pdfrwt beam="1">  1        1 0.15353947E-02 0.91428763E+02</pdfrwt>
<pdfrwt beam="2">  1       -1 0.40453133E-01 0.91428763E+02</pdfrwt>
<totfact> 0.46111199E+04</totfact>
</mgrwt>
</event>
<event>
 6    1  0.3062576E-002  0.1053218E+03  0.7546771E-02  0.1375501E+00
         -2   -1    0    0    0  501 -0.00000000000E+00  0.00000000000E+00  0.13013617940E+02  0.13013617940E+02  0.00000000000E+00 0. -1.
          2   -1    0    0  501    0  0.00000000000E+00 -0.00000000000E+00 -0.42921476597E+03  0.42921476597E+03  0.00000000000E+00 0.  1.
         23    2    1    2    0    0  0.14683511876E+02 -0.61268315125E+01 -0.41271331537E+03  0.42594008866E+03  0.10411308688E+03 0.  0.
         13    1    3    3    0    0 -0.33500107628E+02 -0.20804423819E+02 -0.77421375241E+02  0.86885848133E+02  0.00000000000E+00 0. -1.
        -13    1    3    3    0    0  0.48183619504E+02  0.14677592307E+02 -0.33529194013E+03  0.33905424053E+03  0.00000000000E+00 0.  1.
         22    1    1    2    0    0 -0.14683511876E+02  0.61268315125E+01 -0.34878326561E+01  0.16288295246E+02  0.00000000000E+00 0. -1.
<mgrwt>
<rscale>  0 0.65661307E+02</rscale>
<asrwt>0</asrwt>
<pdfrwt beam="1">  1        2 0.66033029E-01 0.10532179E+03</pdfrwt>
<pdfrwt beam="2">  1       -2 0.20020954E-02 0.10532179E+03</pdfrwt>
<totfact> 0.51111073E+04</totfact>
</mgrwt>
</event>
<event>
 6    1  0.3062576E-002  0.9135515E+02  0.7546771E-02  0.1421370E+00
          1   -1    0    0  501    0  0.00000000000E+00  0.00000000000E+00  0.16843568290E+02  0.16843568290E+02  0.00000000000E+00 0. -1.
         -1   -1    0    0    0  501 -0.00000000000E+00 -0.00000000000E+00 -0.16462542318E+03  0.16462542318E+03  0.00000000000E+00 0.  1.
         23    2    1    2    0    0  0.25046142743E+01 -0.11500228309E+02 -0.11650760116E+03  0.14805331715E+03  0.90593792544E+02 0.  0.
         13    1    3    3    0    0  0.57857052081E+01  0.41861703683E+01  0.14450232804E+02  0.16118549414E+02  0.00000000000E+00 0. -1.
        -13    1    3    3    0    0 -0.32810909338E+01 -0.15686398677E+02 -0.13095783397E+03  0.13193476774E+03  0.00000000000E+00 0.  1.
         22    1    1    2    0    0 -0.25046142743E+01  0.11500228309E+02 -0.31274253728E+02  0.33415674317E+02  0.00000000000E+00 0. -1.
<mgrwt>
<rscale>  0 0.54732100E+02</rscale>
<asrwt>0</asrwt>
<pdfrwt beam="1">  1        1 0.25913182E-02 0.91355151E+02</pdfrwt>
<pdfrwt beam="2">  1       -1 0.25326988E-01 0.91355151E+02</pdfrwt>
<totfact> 0.49190814E+04</totfact>
</mgrwt>
</event>
<event>
 6    1  0.3062576E-002  0.9053167E+02  0.7546771E-02  0.1427583E+00
          2   -1    0    0  501    0  0.00000000000E+00  0.00000000000E+00  0.89059521003E+03  0.89059521003E+03  0.00000000000E+00 0. -1.
         -2   -1    0    0    0  501 -0.00000000000E+00 -0.00000000000E+00 -0.35527147264E+01  0.35527147264E+01  0.00000000000E+00 0.  1.
         23    2    1    2    0    0  0.66052980510E+01 -0.87940975080E+01  0.86268657122E+03  0.86742383167E+03  0.89861100994E+02 0.  0.
         13    1    3    3    0    0 -0.21819112299E+02  0.18856338831E+02  0.67393539357E+03  0.67455211057E+03  0.00000000000E+00 0. -1.
        -13    1    3    3    0    0  0.28424410350E+02 -0.27650436339E+02  0.18875117765E+03  0.19287172110E+03  0.00000000000E+00 0.  1.
         22    1    1    2    0    0 -0.66052980510E+01  0.87940975080E+01  0.24355924080E+02  0.26724093083E+02  0.00000000000E+00 0.  1.
<mgrwt>
<rscale>  0 0.53448235E+02</rscale>
<asrwt>0</asrwt>
<pdfrwt beam="1">  1        2 0.13701447E+00 0.90531672E+02</pdfrwt>
<pdfrwt beam="2">  1       -2 0.54657220E-03 0.90531672E+02</pdfrwt>
<totfact> 0.13739790E+05</totfact>
</mgrwt>
</event>
<event>
 6    1  0.3062576E-002  0.9381015E+02  0.7546771E-02  0.1374177E+00
         -2   -1    0    0    0  501 -0.00000000000E+00  0.00000000000E+00  0.28243000348E+01  0.28243000348E+01  0.00000000000E+00 0.  1.
          2   -1    0    0  501    0  0.00000000000E+00 -0.00000000000E+00 -0.13882980292E+04  0.13882980292E+04  0.00000000000E+00 0. -1.
         23    2    1    2    0    0 -0.12606009565E+02 -0.19251038686E+02 -0.12648016143E+04  0.12682757857E+04  0.90944108825E+02 0.  0.
         11    1    3    3    0    0  0.36614723627E+01 -0.48594201160E+02 -0.42162123154E+03  0.42442816312E+03  0.00000000000E+00 0.  1.
        -11    1    3    3    0    0 -0.16267481928E+02  0.29343162474E+02 -0.84318038279E+03  0.84384762254E+03  0.00000000000E+00 0. -1.
         22    1    1    2    0    0  0.12606009565E+02  0.19251038686E+02 -0.12067211481E+03  0.12284654355E+03  0.00000000000E+00 0.  1.
<mgrwt>
<rscale>  0 0.66019474E+02</rscale>
<asrwt>0</asrwt>
<pdfrwt beam="1">  1        2 0.21358379E+00 0.93810153E+02</pdfrwt>
<pdfrwt beam="2">  1       -2 0.43450877E-03 0.93810153E+02</pdfrwt>
<totfact> 0.10024103E+05</totfact>
</mgrwt>
</event>
<event>
 6    1  0.3062576E-002  0.9367290E+02  0.7546771E-02  0.1369141E+00
         -4   -1    0    0    0  501 -0.00000000000E+00  0.00000000000E+00  0.20467680078E+02  0.20467680078E+02  0.00000000000E+00 0.  1.
          4   -1    0    0  501    0  0.00000000000E+00 -0.00000000000E+00 -0.19165805963E+03  0.19165805963E+03  0.00000000000E+00 0. -1.
         23    2    1    2    0    0 -0.11100210947E+02  0.22530955641E+02 -0.15818898975E+03  0.18384332853E+03  0.90242752180E+02 0.  0.
         13    1    3    3    0    0 -0.28677244842E+02 -0.24360520791E+02 -0.10125087531E+03  0.10801647604E+03  0.00000000000E+00 0. -1.
        -13    1    3    3    0    0  0.17577033894E+02  0.46891476432E+02 -0.56938114446E+02  0.75826852494E+02  0.00000000000E+00 0.  1.
         22    1    1    2    0    0  0.11100210947E+02 -0.22530955641E+02 -0.13001389794E+02  0.28282411173E+02  0.00000000000E+00 0. -1.
<mgrwt>
<rscale>  0 0.67406534E+02</rscale>
<asrwt>0</asrwt>
<pdfrwt beam="1">  1        4 0.29485853E-01 0.93672904E+02</pdfrwt>
<pdfrwt beam="2">  1       -4 0.31488741E-02 0.93672904E+02</pdfrwt>
<totfact> 0.80847651E+03</totfact>
</mgrwt>
</event>
<event>
 6    1  0.3062576E-002  0.8981988E+02  0.7546771E-02  0.1431890E+00
         -1   -1    0    0    0  501 -0.00000000000E+00  0.00000000000E+00  0.76250002023E+01  0.76250002023E+01  0.00000000000E+00 0.  1.
          1   -1    0    0  501    0  0.00000000000E+00 -0.00000000000E+00 -0.33217100300E+03  0.33217100300E+03  0.00000000000E+00 0. -1.
         23    2    1    2    0    0 -0.93536452577E+01  0.48794218812E+01 -0.29757271510E+03  0.31083296319E+03  0.89198154669E+02 0.  0.
         13    1    3    3    0    0  0.15029979330E+02 -0.17231031600E+02 -0.17398316161E+02  0.28731692151E+02  0.00000000000E+00 0.  1.
        -13    1    3    3    0    0 -0.24383624587E+02  0.22110453481E+02 -0.28017439894E+03  0.28210127104E+03  0.00000000000E+00 0. -1.
         22    1    1    2    0    0  0.93536452577E+01 -0.48794218812E+01 -0.26973287702E+02  0.28963040016E+02  0.00000000000E+00 0. -1.
<mgrwt>
<rscale>  0 0.52582467E+02</rscale>
<asrwt>0</asrwt>
<pdfrwt beam="1">  1        1 0.51103230E-01 0.89819877E+02</pdfrwt>
<pdfrwt beam="2">  1       -1 0.11730770E-02 0.89819877E+02</pdfrwt>
<totfact> 0.98548115E+04</totfact>
</mgrwt>
</event>
<event>
 6    1  0.3062576E-002  0.9614750E+02  0.7546771E-02  0.1403539E+00
          2   -1    0    0  501    0  0.00000000000E+00  0.00000000000E+00  0.53775836530E+03  0.53775836530E+03  0.00000000000E+00 0. -1.
         -2   -1    0    0    0  501 -0.00000000000E+00 -0.00000000000E+00 -0.56851877495E+01  0.56851877495E+01  0.00000000000E+00 0.  1.
         23    2    1    2    0    0 -0.16359664954E+01 -0.13221429094E+02  0.48878626792E+03  0.49815294565E+03  0.95220055525E+02 0.  0.
         11    1    3    3    0    0 -0.38738277636E+02 -0.26544727872E+02  0.15257447441E+03  0.15963786197E+03  0.00000000000E+00 0.  1.
        -11    1    3    3    0    0  0.37102311141E+02  0.13323298778E+02  0.33621179351E+03  0.33851508368E+03  0.00000000000E+00 0. -1.
         22    1    1    2    0    0  0.16359664954E+01  0.13221429094E+02  0.43286909624E+02  0.45290607398E+02  0.00000000000E+00 0. -1.
<mgrwt>
<rscale>  0 0.58660797E+02</rscale>
<asrwt>0</asrwt>
<pdfrwt beam="1">  1        2 0.82732016E-01 0.96147499E+02</pdfrwt>
<pdfrwt beam="2">  1       -2 0.87464470E-03 0.96147499E+02</pdfrwt>
<totfact> 0.12906653E+05</totfact>
</mgrwt>
</event>
<event>
 6    1  0.3062576E-002  0.2929185E+03  0.7546771E-02  0.1090546E+00
         -1   -1    0    0    0  501 -0.00000000000E+00  0.00000000000E+00  0.10102371827E+03  0.10102371827E+03  0.00000000000E+00 0.  1.
          1   -1    0    0  501    0  0.00000000000E+00 -0.00000000000E+00 -0.89875366948E+03  0.89875366948E+03  0.00000000000E+00 0. -1.
         23    2    1    2    0    0  0.19029228922E+03  0.20534040451E+03 -0.25188209961E+03  0.38632346596E+03  0.86170709561E+02 0.  0.
         13    1    3    3    0    0  0.78675073232E+02  0.32218301498E+02 -0.94366870544E+02  0.12701532331E+03  0.00000000000E+00 0.  1.
        -13    1    3    3    0    0  0.11161721599E+03  0.17312210301E+03 -0.15751522907E+03  0.25930814265E+03  0.00000000000E+00 0. -1.
         22    1    1    2    0    0 -0.19029228922E+03 -0.20534040451E+03 -0.54584785159E+03  0.61345392178E+03  0.00000000000E+00 0.  1.
<mgrwt>
<rscale>  0 0.28962286E+03</rscale>
<asrwt>0</asrwt>
<pdfrwt beam="1">  1        1 0.13826980E+00 0.29291847E+03</pdfrwt>
<pdfrwt beam="2">  1       -1 0.15542110E-01 0.29291847E+03</pdfrwt>
<totfact> 0.58270189E+02</totfact>
</mgrwt>
</event>
<event>
 6    1  0.3062576E-002  0.7221076E+02  0.7546771E-02  0.1428112E+00
          2   -1    0    0  501    0  0.00000000000E+00  0.00000000000E+00  0.88847319031E+02  0.88847319031E+02  0.00000000000E+00 0.  1.
         -2   -1    0    0    0  501 -0.00000000000E+00 -0.00000000000E+00 -0.40880326551E+02  0.40880326551E+02  0.00000000000E+00 0. -1.
         23    2    1    2    0    0 -0.19795503514E+02  0.83889586940E+01 -0.51803661157E+01  0.72396342500E+02  0.68935895054E+02 0.  0.
         13    1    3    3    0    0 -0.35202115385E+01 -0.30092477343E+02 -0.23718481628E-01  0.30297683814E+02  0.00000000000E+00 0. -1.
        -13    1    3    3    0    0 -0.16275291976E+02  0.38481436037E+02 -0.51566476341E+01  0.42098658686E+02  0.00000000000E+00 0.  1.
         22    1    1    2    0    0  0.19795503514E+02 -0.83889586940E+01  0.53147358596E+02  0.57331303082E+02  0.00000000000E+00 0. -1.
<mgrwt>
<rscale>  0 0.53340795E+02</rscale>
<asrwt>0</asrwt>
<pdfrwt beam="1">  1        2 0.13668818E-01 0.72210762E+02</pdfrwt>
<pdfrwt beam="2">  1       -2 0.62892810E-02 0.72210762E+02</pdfrwt>
<totfact> 0.50038679E+04</totfact>
</mgrwt>
</event>
<event>
 6    1  0.3062576E-002  0.9347743E+02  0.7546771E-02  0.1406193E+00
         -2   -1    0    0    0  501 -0.00000000000E+00  0.00000000000E+00  0.48306644104E+01  0.48306644104E+01  0.00000000000E+00 0.  1.
          2   -1    0    0  501    0  0.00000000000E+00 -0.00000000000E+00 -0.67007108062E+03  0.67007108062E+03  0.00000000000E+00 0. -1.
         23    2    1    2    0    0  0.11980256842E+02 -0.70574093520E+01 -0.63192165721E+03  0.63879809865E+03  0.92437527044E+02 0.  0.
         11    1    3    3    0    0  0.25534739635E+01 -0.20853242781E+01  0.25927561976E+01  0.41941854188E+01  0.00000000000E+00 0.  1.
        -11    1    3    3    0    0  0.94267828789E+01 -0.49720850740E+01 -0.63451441341E+03  0.63460391323E+03  0.00000000000E+00 0. -1.
         22    1    1    2    0    0 -0.11980256842E+02  0.70574093520E+01 -0.33318759005E+02  0.36103646386E+02  0.00000000000E+00 0.  1.
<mgrwt>
<rscale>  0 0.58052174E+02</rscale>
<asrwt>0</asrwt>
<pdfrwt beam="1">  1        2 0.10308777E+00 0.93477430E+02</pdfrwt>
<pdfrwt beam="2">  1       -2 0.74317977E-03 0.93477430E+02</pdfrwt>
<totfact> 0.12639215E+05</totfact>
</mgrwt>
</event>
<event>
 6    1  0.3062576E-002  0.9091839E+02  0.7546771E-02  0.1393092E+00
         -1   -1    0    0    0  501 -0.00000000000E+00  0.00000000000E+00  0.28724518093E+03  0.28724518093E+03  0.00000000000E+00 0.  1.
          1   -1    0    0  501    0  0.00000000000E+00 -0.00000000000E+00 -0.10445381755E+02  0.10445381755E+02  0.00000000000E+00 0. -1.
         23    2    1    2    0    0  0.81213794268E+01 -0.16731013459E+02  0.23256983250E+03  0.24970959180E+03  0.88995896716E+02 0.  0.
         13    1    3    3    0    0  0.11335761667E+02 -0.52490946071E+02  0.15945383866E+03  0.16825375353E+03  0.00000000000E+00 0. -1.
        -13    1    3    3    0    0 -0.32143822404E+01  0.35759932612E+02  0.73115993838E+02  0.81455838272E+02  0.00000000000E+00 0.  1.
         22    1    1    2    0    0 -0.81213794268E+01  0.16731013459E+02  0.44229966679E+02  0.47980970890E+02  0.00000000000E+00 0. -1.
<mgrwt>
<rscale>  0 0.61144168E+02</rscale>
<asrwt>0</asrwt>
<pdfrwt beam="1">  1        1 0.16069820E-02 0.90918388E+02</pdfrwt>
<pdfrwt beam="2">  1       -1 0.44191560E-01 0.90918388E+02</pdfrwt>
<totfact> 0.37057995E+04</totfact>
</mgrwt>
</event>
<event>
 6    1  0.3062576E-002  0.1018997E+03  0.7546771E-02  0.1345792E+00
         -2   -1    0    0    0  501 -0.00000000000E+00  0.00000000000E+00  0.15935023687E+03  0.15935023687E+03  0.00000000000E+00 0.  1.
          2   -1    0    0  501    0  0.00000000000E+00 -0.00000000000E+00 -0.27259836239E+02  0.27259836239E+02  0.00000000000E+00 0. -1.
         23    2    1    2    0    0  0.28042301714E+02  0.71205829608E+01  0.92854715019E+02  0.13786058683E+03  0.97706038258E+02 0.  0.
         13    1    3    3    0    0  0.39623950333E+01 -0.44571577444E+02  0.37428920669E+02  0.58337382463E+02  0.00000000000E+00 0. -1.
        -13    1    3    3    0    0  0.24079906680E+02  0.51692160405E+02  0.55425794350E+02  0.79523204364E+02  0.00000000000E+00 0.  1.
         22    1    1    2    0    0 -0.28042301714E+02 -0.71205829608E+01  0.39235685608E+02  0.48749486277E+02  0.00000000000E+00 0.  1.
<mgrwt>
<rscale>  0 0.74383230E+02</rscale>
<asrwt>0</asrwt>
<pdfrwt beam="1">  1        2 0.41938211E-02 0.10189967E+03</pdfrwt>
<pdfrwt beam="2">  1       -2 0.24515420E-01 0.10189967E+03</pdfrwt>
<totfact> 0.26008653E+04</totfact>
</mgrwt>
</event>
<event>
 6    1  0.3062576E-002  0.9408557E+02  0.7546771E-02  0.1381565E+00
          1   -1    0    0  501    0  0.00000000000E+00  0.00000000000E+00  0.16733530570E+03  0.16733530570E+03  0.00000000000E+00 0. -1.
         -1   -1    0    0    0  501 -0.00000000000E+00 -0.00000000000E+00 -0.31539921544E+02  0.31539921544E+02  0.00000000000E+00 0.  1.
         23    2    1    2    0    0 -0.11485177337E+00 -0.20212139384E+02  0.14791887352E+03  0.17530569683E+03  0.91888793820E+02 0.  0.
         13    1    3    3    0    0  0.29827773697E+02  0.41911505466E+01  0.94777959691E+01  0.31576738955E+02  0.00000000000E+00 0.  1.
        -13    1    3    3    0    0 -0.29942625470E+02 -0.24403289931E+02  0.13844107755E+03  0.14372895788E+03  0.00000000000E+00 0. -1.
         22    1    1    2    0    0  0.11485177337E+00  0.20212139384E+02 -0.12123489363E+02  0.23569530410E+02  0.00000000000E+00 0.  1.
<mgrwt>
<rscale>  0 0.64054122E+02</rscale>
<asrwt>0</asrwt>
<pdfrwt beam="1">  1        1 0.25743893E-01 0.94085568E+02</pdfrwt>
<pdfrwt beam="2">  1       -1 0.48522957E-02 0.94085568E+02</pdfrwt>
<totfact> 0.29962570E+04</totfact>
</mgrwt>
</event>
<event>
 6    1  0.3062576E-002  0.1072217E+03  0.7546771E-02  0.1303965E+00
          1   -1    0    0  501    0  0.00000000000E+00  0.00000000000E+00  0.26897946769E+03  0.26897946769E+03  0.00000000000E+00 0. -1.
         -1   -1    0    0    0  501 -0.00000000000E+00 -0.00000000000E+00 -0.32372091261E+02  0.32372091261E+02  0.00000000000E+00 0.  1.
         23    2    1    2    0    0 -0.22161817326E+02 -0.47206984055E+02  0.22302690561E+03  0.24746209172E+03  0.93684794506E+02 0.  0.
         13    1    3    3    0    0 -0.52688927435E+02 -0.27780524089E+02  0.78879653041E+02  0.98842704621E+02  0.00000000000E+00 0. -1.
        -13    1    3    3    0    0  0.30527110109E+02 -0.19426459966E+02  0.14414725257E+03  0.14861938710E+03  0.00000000000E+00 0.  1.
         22    1    1    2    0    0  0.22161817326E+02  0.47206984055E+02  0.13580470819E+02  0.53889467231E+02  0.00000000000E+00 0.  1.
<mgrwt>
<rscale>  0 0.89541828E+02</rscale>
<asrwt>0</asrwt>
<pdfrwt beam="1">  1        1 0.41381455E-01 0.10722167E+03</pdfrwt>
<pdfrwt beam="2">  1       -1 0.49803219E-02 0.10722167E+03</pdfrwt>
<totfact> 0.16316474E+04</totfact>
</mgrwt>
</event>
<event>
 6    1  0.3062576E-002  0.9356550E+02  0.7546771E-02  0.1411263E+00
         -2   -1    0    0    0  501 -0.00000000000E+00  0.00000000000E+00  0.52849897744E+01  0.52849897744E+01  0.00000000000E+00 0. -1.
          2   -1    0    0  501    0  0.00000000000E+00 -0.00000000000E+00 -0.57798687486E+03  0.57798687486E+03  0.00000000000E+00 0.  1.
         23    2    1    2    0    0 -0.11008680059E+02  0.65471759723E+01 -0.54181499033E+03  0.54983450802E+03  0.92684658447E+02 0.  0.
         13    1    3    3    0    0 -0.32800524615E+02  0.47817822203E+01 -0.51087578813E+03  0.51195000806E+03  0.00000000000E+00 0.  1.
        -13    1    3    3    0    0  0.21791844556E+02  0.17653937520E+01 -0.30939202200E+02  0.37884499957E+02  0.00000000000E+00 0. -1.
         22    1    1    2    0    0  0.11008680059E+02 -0.65471759723E+01 -0.30886894759E+02  0.33437356620E+02  0.00000000000E+00 0. -1.
<mgrwt>
<rscale>  0 0.56912937E+02</rscale>
<asrwt>0</asrwt>
<pdfrwt beam="1">  1        2 0.88921103E-01 0.93565498E+02</pdfrwt>
<pdfrwt beam="2">  1       -2 0.81307494E-03 0.93565498E+02</pdfrwt>
<totfact> 0.13161656E+05</totfact>
</mgrwt>
</event>
<event>
 6    1  0.3062576E-002  0.9723177E+02  0.7546771E-02  0.1388243E+00
         -2   -1    0    0    0  501 -0.00000000000E+00  0.00000000000E+00  0.73442462796E+01  0.73442462796E+01  0.00000000000E+00 0.  1.
          2   -1    0    0  501    0  0.00000000000E+00 -0.00000000000E+00 -0.43986228651E+03  0.43986228651E+03  0.00000000000E+00 0. -1.
         23    2    1    2    0    0  0.57007203996E+00 -0.16426568665E+02 -0.36834431203E+03  0.38096134782E+03  0.95832453737E+02 0.  0.
         13    1    3    3    0    0  0.32891508126E+02  0.14794762304E+02 -0.27509006718E+03  0.27744419504E+03  0.00000000000E+00 0. -1.
        -13    1    3    3    0    0 -0.32321436086E+02 -0.31221330969E+02 -0.93254244846E+02  0.10351715278E+03  0.00000000000E+00 0.  1.
         22    1    1    2    0    0 -0.57007203996E+00  0.16426568665E+02 -0.64173728196E+02  0.66245184964E+02  0.00000000000E+00 0. -1.
<mgrwt>
<rscale>  0 0.62345941E+02</rscale>
<asrwt>0</asrwt>
<pdfrwt beam="1">  1        2 0.67671127E-01 0.97231766E+02</pdfrwt>
<pdfrwt beam="2">  1       -2 0.11298839E-02 0.97231766E+02</pdfrwt>
<totfact> 0.11170829E+05</totfact>
</mgrwt>
</event>
<event>
 6    1  0.3062576E-002  0.9122672E+02  0.7546771E-02  0.1375124E+00
          1   -1    0    0  501    0  0.00000000000E+00  0.00000000000E+00  0.65980637511E+03  0.65980637511E+03  0.00000000000E+00 0. -1.
         -1   -1    0    0    0  501 -0.00000000000E+00 -0.00000000000E+00 -0.10488560219E+02  0.10488560219E+02  0.00000000000E+00 0.  1.
         23    2    1    2    0    0 -0.56339377042E+01  0.23982701938E+02  0.63556849779E+03  0.64208226145E+03  0.87837371593E+02 0.  0.
         13    1    3    3    0    0 -0.37042700219E+01  0.16326211831E+02  0.18449935408E+02  0.24913187787E+02  0.00000000000E+00 0.  1.
        -13    1    3    3    0    0 -0.19296676823E+01  0.76564901064E+01  0.61711856238E+03  0.61716907367E+03  0.00000000000E+00 0. -1.
         22    1    1    2    0    0  0.56339377042E+01 -0.23982701938E+02  0.13749317102E+02  0.28212673873E+02  0.00000000000E+00 0.  1.
<mgrwt>
<rscale>  0 0.65763089E+02</rscale>
<asrwt>0</asrwt>
<pdfrwt beam="1">  1        1 0.10150864E+00 0.91226724E+02</pdfrwt>
<pdfrwt beam="2">  1       -1 0.16136252E-02 0.91226724E+02</pdfrwt>
<totfact> 0.26103974E+04</totfact>
</mgrwt>
</event>
<event>
 6    1  0.3062576E-002  0.9089129E+02  0.7546771E-02  0.1413240E+00
         -2   -1    0    0    0  501 -0.00000000000E+00  0.00000000000E+00  0.30773563108E+01  0.30773563108E+01  0.00000000000E+00 0.  1.
          2   -1    0    0  501    0  0.00000000000E+00 -0.00000000000E+00 -0.22106255484E+04  0.22106255484E+04  0.00000000000E+00 0. -1.
         23    2    1    2    0    0 -0.12797019133E+02  0.44523934836E+01 -0.21881737955E+04  0.21900606808E+04  0.89875686054E+02 0.  0.
         13    1    3    3    0    0 -0.15388300034E+02 -0.68254927871E+01 -0.75449030151E+02  0.77304225502E+02  0.00000000000E+00 0.  1.
        -13    1    3    3    0    0  0.25912809013E+01  0.11277886271E+02 -0.21127247653E+04  0.21127564553E+04  0.00000000000E+00 0. -1.
         22    1    1    2    0    0  0.12797019133E+02 -0.44523934836E+01 -0.19374396598E+02  0.23642223880E+02  0.00000000000E+00 0.  1.
<mgrwt>
<rscale>  0 0.56477061E+02</rscale>
<asrwt>0</asrwt>
<pdfrwt beam="1">  1        2 0.34009562E+00 0.90891289E+02</pdfrwt>
<pdfrwt beam="2">  1       -2 0.47344029E-03 0.90891289E+02</pdfrwt>
<totfact> 0.34000851E+04</totfact>
</mgrwt>
</event>
<event>
 6    1  0.3062576E-002  0.9458080E+02  0.7546771E-02  0.1380230E+00
          1   -1    0    0  501    0  0.00000000000E+00  0.00000000000E+00  0.17954154981E+03  0.17954154981E+03  0.00000000000E+00 0. -1.
         -1   -1    0    0    0  501 -0.00000000000E+00 -0.00000000000E+00 -0.20001697172E+02  0.20001697172E+02  0.00000000000E+00 0.  1.
         23    2    1    2    0    0 -0.14958524083E+02 -0.13773847021E+02  0.14939885215E+03  0.17682065480E+03  0.92369100006E+02 0.  0.
         11    1    3    3    0    0 -0.30761390556E+02  0.16386491539E+02  0.13572380712E+03  0.14012755644E+03  0.00000000000E+00 0. -1.
        -11    1    3    3    0    0  0.15802866473E+02 -0.30160338560E+02  0.13675045028E+02  0.36693098361E+02  0.00000000000E+00 0.  1.
         22    1    1    2    0    0  0.14958524083E+02  0.13773847021E+02  0.10141000485E+02  0.22722592179E+02  0.00000000000E+00 0.  1.
<mgrwt>
<rscale>  0 0.64403364E+02</rscale>
<asrwt>0</asrwt>
<pdfrwt beam="1">  1        1 0.27621776E-01 0.94580796E+02</pdfrwt>
<pdfrwt beam="2">  1       -1 0.30771843E-02 0.94580796E+02</pdfrwt>
<totfact> 0.53254536E+04</totfact>
</mgrwt>
</event>
<event>
 6    1  0.3062576E-002  0.9306759E+02  0.7546771E-02  0.1424758E+00
         -1   -1    0    0    0  501 -0.00000000000E+00  0.00000000000E+00  0.10327940907E+02  0.10327940907E+02  0.00000000000E+00 0.  1.
          1   -1    0    0  501    0  0.00000000000E+00 -0.00000000000E+00 -0.30759254620E+03  0.30759254620E+03  0.00000000000E+00 0. -1.
         23    2    1    2    0    0 -0.10411676265E+02  0.18175412679E+01 -0.29125330422E+03  0.30576144933E+03  0.92465508294E+02 0.  0.
         13    1    3    3    0    0 -0.22750092197E+02 -0.57308662179E+01 -0.12405514945E+02  0.26538770198E+02  0.00000000000E+00 0.  1.
        -13    1    3    3    0    0  0.12338415932E+02  0.75484074858E+01 -0.27884778927E+03  0.27922267914E+03  0.00000000000E+00 0. -1.
         22    1    1    2    0    0  0.10411676265E+02 -0.18175412679E+01 -0.60113010783E+01  0.12159037772E+02  0.00000000000E+00 0.  1.
<mgrwt>
<rscale>  0 0.54026725E+02</rscale>
<asrwt>0</asrwt>
<pdfrwt beam="1">  1        1 0.47321931E-01 0.93067592E+02</pdfrwt>
<pdfrwt beam="2">  1       -1 0.15889140E-02 0.93067592E+02</pdfrwt>
<totfact> 0.70796728E+04</totfact>
</mgrwt>
</event>
<event>
 6    1  0.3062576E-002  0.9348343E+02  0.7546771E-02  0.1393267E+00
          4   -1    0    0  501    0  0.00000000000E+00  0.00000000000E+00  0.32416848380E+02  0.32416848380E+02  0.00000000000E+00 0. -1.
         -4   -1    0    0    0  501 -0.00000000000E+00 -0.00000000000E+00 -0.10017312249E+03  0.10017312249E+03  0.00000000000E+00 0.  1.
         23    2    1    2    0    0 -0.16091022953E+02 -0.56703707753E+01 -0.43944365702E+02  0.10329694941E+03  0.91913428591E+02 0.  0.
         11    1    3    3    0    0 -0.52880283175E+02 -0.10463808332E+02 -0.14197844311E+02  0.55744007898E+02  0.00000000000E+00 0. -1.
        -11    1    3    3    0    0  0.36789260222E+02  0.47934375564E+01 -0.29746521391E+02  0.47552941509E+02  0.00000000000E+00 0.  1.
         22    1    1    2    0    0  0.16091022953E+02  0.56703707753E+01 -0.23811908404E+02  0.29293021460E+02  0.00000000000E+00 0.  1.
<mgrwt>
<rscale>  0 0.61101440E+02</rscale>
<asrwt>0</asrwt>
<pdfrwt beam="1">  1        4 0.49872075E-02 0.93483434E+02</pdfrwt>
<pdfrwt beam="2">  1       -4 0.15411250E-01 0.93483434E+02</pdfrwt>
<totfact> 0.12583300E+04</totfact>
</mgrwt>
</event>
<event>
 6    1  0.3062576E-002  0.9603803E+02  0.7546771E-02  0.1352590E+00
          2   -1    0    0  501    0  0.00000000000E+00  0.00000000000E+00  0.11074023045E+03  0.11074023045E+03  0.00000000000E+00 0. -1.
         -2   -1    0    0    0  501 -0.00000000000E+00 -0.00000000000E+00 -0.12667474672E+03  0.12667474672E+03  0.00000000000E+00 0.  1.
         23    2    1    2    0    0 -0.26640334840E+02  0.15398240471E+02  0.87242093475E+02  0.12974777675E+03  0.90975213366E+02 0.  0.
         11    1    3    3    0    0 -0.47005847309E+02  0.28859074449E+02  0.89605708017E+02  0.10522156988E+03  0.00000000000E+00 0. -1.
        -11    1    3    3    0    0  0.20365512468E+02 -0.13460833978E+02 -0.23636145425E+01  0.24526206865E+02  0.00000000000E+00 0.  1.
         22    1    1    2    0    0  0.26640334840E+02 -0.15398240471E+02 -0.10317660975E+03  0.10766720043E+03  0.00000000000E+00 0.  1.
<mgrwt>
<rscale>  0 0.72254594E+02</rscale>
<asrwt>0</asrwt>
<pdfrwt beam="1">  1        2 0.17036959E-01 0.96038027E+02</pdfrwt>
<pdfrwt beam="2">  1       -2 0.19488423E-01 0.96038027E+02</pdfrwt>
<totfact> 0.67860499E+03</totfact>
</mgrwt>
</event>
<event>
 6    1  0.3062576E-002  0.9265068E+02  0.7546771E-02  0.1418146E+00
          2   -1    0    0  501    0  0.00000000000E+00  0.00000000000E+00  0.87917450625E+03  0.87917450625E+03  0.00000000000E+00 0. -1.
         -2   -1    0    0    0  501 -0.00000000000E+00 -0.00000000000E+00 -0.33845190977E+01  0.33845190977E+01  0.00000000000E+00 0.  1.
         23    2    1    2    0    0  0.11828150287E+02 -0.82383272429E+00  0.83365055414E+03  0.83878328259E+03  0.91888872512E+02 0.  0.
         11    1    3    3    0    0  0.16407179946E+02  0.36433950879E+02  0.19615249622E+03  0.20018099336E+03  0.00000000000E+00 0.  1.
        -11    1    3    3    0    0 -0.45790296587E+01 -0.37257783603E+02  0.63749805792E+03  0.63860228923E+03  0.00000000000E+00 0. -1.
         22    1    1    2    0    0 -0.11828150287E+02  0.82383272429E+00  0.42139433012E+02  0.43775742759E+02  0.00000000000E+00 0.  1.
<mgrwt>
<rscale>  0 0.55415134E+02</rscale>
<asrwt>0</asrwt>
<pdfrwt beam="1">  1        2 0.13525743E+00 0.92650681E+02</pdfrwt>
<pdfrwt beam="2">  1       -2 0.52069595E-03 0.92650681E+02</pdfrwt>
<totfact> 0.15000092E+05</totfact>
</mgrwt>
</event>
<event>
 6    1  0.3062576E-002  0.9296609E+02  0.7546771E-02  0.1400962E+00
          2   -1    0    0  501    0  0.00000000000E+00  0.00000000000E+00  0.49784315492E+02  0.49784315492E+02  0.00000000000E+00 0.  1.
         -2   -1    0    0    0  501 -0.00000000000E+00 -0.00000000000E+00 -0.64101418108E+02  0.64101418108E+02  0.00000000000E+00 0. -1.
         23    2    1    2    0    0 -0.95196098394E+01  0.12040522192E+02 -0.10330592071E+00  0.92966145586E+02  0.91690219799E+02 0.  0.
         13    1    3    3    0    0 -0.33166118609E+02  0.25277160694E+02  0.30816588747E+02  0.51851599959E+02  0.00000000000E+00 0.  1.
        -13    1    3    3    0    0  0.23646508769E+02 -0.13236638502E+02 -0.30919894668E+02  0.41114545627E+02  0.00000000000E+00 0. -1.
         22    1    1    2    0    0  0.95196098394E+01 -0.12040522192E+02 -0.14213796696E+02  0.20919588014E+02  0.00000000000E+00 0.  1.
<mgrwt>
<rscale>  0 0.59260413E+02</rscale>
<asrwt>0</asrwt>
<pdfrwt beam="1">  1        2 0.76591255E-02 0.92966088E+02</pdfrwt>
<pdfrwt beam="2">  1       -2 0.98617566E-02 0.92966088E+02</pdfrwt>
<totfact> 0.52557192E+04</totfact>
</mgrwt>
</event>
<event>
 6    1  0.3062576E-002  0.9370224E+02  0.7546771E-02  0.1363432E+00
         -2   -1    0    0    0  501 -0.00000000000E+00  0.00000000000E+00  0.69770146881E+01  0.69770146881E+01  0.00000000000E+00 0.  1.
          2   -1    0    0  501    0  0.00000000000E+00 -0.00000000000E+00 -0.52727833691E+03  0.52727833691E+03  0.00000000000E+00 0. -1.
         23    2    1    2    0    0 -0.19698165085E+01 -0.27524922346E+02 -0.40466028852E+03  0.41536737827E+03  0.89546682216E+02 0.  0.
         13    1    3    3    0    0 -0.15175405231E+02  0.30362520155E+02 -0.12956636763E+03  0.13393886357E+03  0.00000000000E+00 0. -1.
        -13    1    3    3    0    0  0.13205588723E+02 -0.57887442500E+02 -0.27509392089E+03  0.28142851470E+03  0.00000000000E+00 0.  1.
         22    1    1    2    0    0  0.19698165085E+01  0.27524922346E+02 -0.11564103370E+03  0.11888797333E+03  0.00000000000E+00 0. -1.
<mgrwt>
<rscale>  0 0.69027370E+02</rscale>
<asrwt>0</asrwt>
<pdfrwt beam="1">  1        2 0.81119709E-01 0.93702240E+02</pdfrwt>
<pdfrwt beam="2">  1       -2 0.10733873E-02 0.93702240E+02</pdfrwt>
<totfact> 0.98310937E+04</totfact>
</mgrwt>
</event>
<event>
 6    1  0.3062576E-002  0.1100344E+03  0.7546771E-02  0.1289678E+00
          1   -1    0    0  501    0  0.00000000000E+00  0.00000000000E+00  0.26114451889E+03  0.26114451889E+03  0.00000000000E+00 0. -1.
         -1   -1    0    0    0  501 -0.00000000000E+00 -0.00000000000E+00 -0.64570617458E+02  0.64570617458E+02  0.00000000000E+00 0.  1.
         23    2    1    2    0    0  0.19560500409E+02  0.59755714414E+02  0.22966463818E+03  0.25466335635E+03  0.90300722341E+02 0.  0.
         11    1    3    3    0    0  0.55039114144E+02  0.25831904217E+02  0.13359470142E+03  0.14677920700E+03  0.00000000000E+00 0. -1.
        -11    1    3    3    0    0 -0.35478613735E+02  0.33923810197E+02  0.96069936763E+02  0.10788414935E+03  0.00000000000E+00 0.  1.
         22    1    1    2    0    0 -0.19560500409E+02 -0.59755714414E+02 -0.33090736754E+02  0.71051779994E+02  0.00000000000E+00 0.  1.
<mgrwt>
<rscale>  0 0.95668126E+02</rscale>
<asrwt>0</asrwt>
<pdfrwt beam="1">  1        1 0.40176079E-01 0.11003444E+03</pdfrwt>
<pdfrwt beam="2">  1       -1 0.99339413E-02 0.11003444E+03</pdfrwt>
<totfact> 0.60536047E+03</totfact>
</mgrwt>
</event>
<event>
 6    1  0.3062576E-002  0.8980796E+02  0.7546771E-02  0.1435247E+00
         -2   -1    0    0    0  501 -0.00000000000E+00  0.00000000000E+00  0.28323189956E+02  0.28323189956E+02  0.00000000000E+00 0.  1.
          2   -1    0    0  501    0  0.00000000000E+00 -0.00000000000E+00 -0.89802234602E+02  0.89802234602E+02  0.00000000000E+00 0. -1.
         23    2    1    2    0    0  0.56080382591E+01  0.83193090392E+01 -0.59943923919E+02  0.10797566635E+03  0.89245781487E+02 0.  0.
         11    1    3    3    0    0 -0.22588808099E+02  0.11953787398E+02 -0.72517591327E+02  0.76889195186E+02  0.00000000000E+00 0. -1.
        -11    1    3    3    0    0  0.28196846358E+02 -0.36344783587E+01  0.12573667407E+02  0.31086471166E+02  0.00000000000E+00 0.  1.
         22    1    1    2    0    0 -0.56080382591E+01 -0.83193090392E+01 -0.15351207266E+01  0.10149758206E+02  0.00000000000E+00 0.  1.
<mgrwt>
<rscale>  0 0.51921089E+02</rscale>
<asrwt>0</asrwt>
<pdfrwt beam="1">  1        2 0.13815728E-01 0.89807965E+02</pdfrwt>
<pdfrwt beam="2">  1       -2 0.43574139E-02 0.89807965E+02</pdfrwt>
<totfact> 0.88068748E+04</totfact>
</mgrwt>
</event>
<event>
 6    1  0.3062576E-002  0.9807720E+02  0.7546771E-02  0.1332562E+00
         -2   -1    0    0    0  501 -0.00000000000E+00  0.00000000000E+00  0.41156445528E+01  0.41156445528E+01  0.00000000000E+00 0.  1.
          2   -1    0    0  501    0  0.00000000000E+00 -0.00000000000E+00 -0.26729421565E+04  0.26729421565E+04  0.00000000000E+00 0. -1.
         23    2    1    2    0    0 -0.11866638508E+02 -0.39056409409E+02 -0.25405674778E+04  0.25424598810E+04  0.89179130604E+02 0.  0.
         13    1    3    3    0    0  0.37268800473E+02 -0.96005783152E+01 -0.76365917358E+03  0.76462832015E+03  0.00000000000E+00 0.  1.
        -13    1    3    3    0    0 -0.49135438981E+02 -0.29455831094E+02 -0.17769083042E+04  0.17778315609E+04  0.00000000000E+00 0. -1.
         22    1    1    2    0    0  0.11866638508E+02  0.39056409409E+02 -0.12825903417E+03  0.13459792001E+03  0.00000000000E+00 0.  1.
<mgrwt>
<rscale>  0 0.78775760E+02</rscale>
<asrwt>0</asrwt>
<pdfrwt beam="1">  1        2 0.41122170E+00 0.98077202E+02</pdfrwt>
<pdfrwt beam="2">  1       -2 0.63317635E-03 0.98077202E+02</pdfrwt>
<totfact> 0.13007041E+04</totfact>
</mgrwt>
</event>
<event>
 6    1  0.3062576E-002  0.9813010E+02  0.7546771E-02  0.1394995E+00
          2   -1    0    0  501    0  0.00000000000E+00  0.00000000000E+00  0.70962824122E+03  0.70962824122E+03  0.00000000000E+00 0. -1.
         -2   -1    0    0    0  501 -0.00000000000E+00 -0.00000000000E+00 -0.44601824309E+01  0.44601824309E+01  0.00000000000E+00 0.  1.
         23    2    1    2    0    0 -0.74000046510E+01  0.12293129877E+02  0.62132560601E+03  0.62902704581E+03  0.97075406641E+02 0.  0.
         11    1    3    3    0    0  0.40758936175E+02  0.14302452039E+02  0.41025383634E+03  0.41252158882E+03  0.00000000000E+00 0. -1.
        -11    1    3    3    0    0 -0.48158940826E+02 -0.20093221611E+01  0.21107176967E+03  0.21650545699E+03  0.00000000000E+00 0.  1.
         22    1    1    2    0    0  0.74000046510E+01 -0.12293129877E+02  0.83842452785E+02  0.85061377840E+02  0.00000000000E+00 0.  1.
<mgrwt>
<rscale>  0 0.60681140E+02</rscale>
<asrwt>0</asrwt>
<pdfrwt beam="1">  1        2 0.10917349E+00 0.98130096E+02</pdfrwt>
<pdfrwt beam="2">  1       -2 0.68618247E-03 0.98130096E+02</pdfrwt>
<totfact> 0.13322973E+05</totfact>
</mgrwt>
</event>
<event>
 6    1  0.3062576E-002  0.1017685E+03  0.7546771E-02  0.1351340E+00
          2   -1    0    0  501    0  0.00000000000E+00  0.00000000000E+00  0.64789603228E+03  0.64789603228E+03  0.00000000000E+00 0. -1.
         -2   -1    0    0    0  501 -0.00000000000E+00 -0.00000000000E+00 -0.10963747418E+02  0.10963747418E+02  0.00000000000E+00 0.  1.
         23    2    1    2    0    0 -0.25229304765E+02 -0.78261842394E+01  0.61809208887E+03  0.62641413340E+03  0.98280563790E+02 0.  0.
         13    1    3    3    0    0 -0.52484727755E+02 -0.28620837061E+02  0.26488196372E+03  0.27154420204E+03  0.00000000000E+00 0.  1.
        -13    1    3    3    0    0  0.27255422990E+02  0.20794652822E+02  0.35321012516E+03  0.35486993136E+03  0.00000000000E+00 0. -1.
         22    1    1    2    0    0  0.25229304765E+02  0.78261842394E+01  0.18840195989E+02  0.32445646296E+02  0.00000000000E+00 0.  1.
<mgrwt>
<rscale>  0 0.72639687E+02</rscale>
<asrwt>0</asrwt>
<pdfrwt beam="1">  1        2 0.99676283E-01 0.10176854E+03</pdfrwt>
<pdfrwt beam="2">  1       -2 0.16867309E-02 0.10176854E+03</pdfrwt>
<totfact> 0.41423506E+04</totfact>
</mgrwt>
</event>
<event>
 6    1  0.3062576E-002  0.1230010E+03  0.7546771E-02  0.1262169E+00
          2   -1    0    0  501    0  0.00000000000E+00  0.00000000000E+00  0.35272954614E+03  0.35272954614E+03  0.00000000000E+00 0. -1.
         -2   -1    0    0    0  501 -0.00000000000E+00 -0.00000000000E+00 -0.28469744330E+02  0.28469744330E+02  0.00000000000E+00 0.  1.
         23    2    1    2    0    0 -0.74223084074E+02 -0.17451191281E+02  0.21975103878E+03  0.25183278848E+03  0.96517480406E+02 0.  0.
         11    1    3    3    0    0 -0.88154393880E+02  0.42231752809E+00  0.11633542535E+03  0.14596337453E+03  0.00000000000E+00 0. -1.
        -11    1    3    3    0    0  0.13931309807E+02 -0.17873508809E+02  0.10341561343E+03  0.10586941395E+03  0.00000000000E+00 0.  1.
         22    1    1    2    0    0  0.74223084074E+02  0.17451191281E+02  0.10450876303E+03  0.12936650199E+03  0.00000000000E+00 0.  1.
<mgrwt>
<rscale>  0 0.10914079E+03</rscale>
<asrwt>0</asrwt>
<pdfrwt beam="1">  1        2 0.54266081E-01 0.12300095E+03</pdfrwt>
<pdfrwt beam="2">  1       -2 0.43799609E-02 0.12300095E+03</pdfrwt>
<totfact> 0.20356004E+04</totfact>
</mgrwt>
</event>
<event>
 6    1  0.3062576E-002  0.8516341E+02  0.7546771E-02  0.1430515E+00
         -2   -1    0    0    0  501 -0.00000000000E+00  0.00000000000E+00  0.43437777560E+02  0.43437777560E+02  0.00000000000E+00 0.  1.
          2   -1    0    0  501    0  0.00000000000E+00 -0.00000000000E+00 -0.99391277998E+03  0.99391277998E+03  0.00000000000E+00 0. -1.
         23    2    1    2    0    0  0.23372217015E+01 -0.12418911696E+02 -0.99112729335E+03  0.99477943198E+03  0.84220631134E+02 0.  0.
         11    1    3    3    0    0 -0.16078183480E+02 -0.26210890457E+02 -0.90817985438E+03  0.90870026227E+03  0.00000000000E+00 0. -1.
        -11    1    3    3    0    0  0.18415405182E+02  0.13791978761E+02 -0.82947438970E+02  0.86079169709E+02  0.00000000000E+00 0.  1.
         22    1    1    2    0    0 -0.23372217015E+01  0.12418911696E+02  0.40652290930E+02  0.42571125553E+02  0.00000000000E+00 0.  1.
<mgrwt>
<rscale>  0 0.52856716E+02</rscale>
<asrwt>0</asrwt>
<pdfrwt beam="1">  1        2 0.15290965E+00 0.85163412E+02</pdfrwt>
<pdfrwt beam="2">  1       -2 0.66827352E-02 0.85163412E+02</pdfrwt>
<totfact> 0.32154845E+03</totfact>
</mgrwt>
</event>
<event>
 6    1  0.3062576E-002  0.9274537E+02  0.7546771E-02  0.1425511E+00
         -1   -1    0    0    0  501 -0.00000000000E+00  0.00000000000E+00  0.36421612721E+01  0.36421612721E+01  0.00000000000E+00 0.  1.
          1   -1    0    0  501    0  0.00000000000E+00 -0.00000000000E+00 -0.14810648806E+04  0.14810648806E+04  0.00000000000E+00 0. -1.
         23    2    1    2    0    0  0.50839722192E+01  0.92529365668E+01 -0.14668034384E+04  0.14697326392E+04  0.92142499181E+02 0.  0.
         13    1    3    3    0    0  0.15907116725E+02  0.94101121624E+01 -0.14473700686E+04  0.14474880663E+04  0.00000000000E+00 0. -1.
        -13    1    3    3    0    0 -0.10823144505E+02 -0.15717559557E+00 -0.19433369793E+02  0.22244572881E+02  0.00000000000E+00 0.  1.
         22    1    1    2    0    0 -0.50839722192E+01 -0.92529365668E+01 -0.10619280931E+02  0.14974402697E+02  0.00000000000E+00 0.  1.
<mgrwt>
<rscale>  0 0.53871717E+02</rscale>
<asrwt>0</asrwt>
<pdfrwt beam="1">  1        1 0.22785618E+00 0.92745371E+02</pdfrwt>
<pdfrwt beam="2">  1       -1 0.56033240E-03 0.92745371E+02</pdfrwt>
<totfact> 0.29600449E+04</totfact>
</mgrwt>
</event>
<event>
 6    1  0.3062576E-002  0.9555947E+02  0.7546771E-02  0.1355934E+00
          2   -1    0    0  501    0  0.00000000000E+00  0.00000000000E+00  0.55717246262E+03  0.55717246262E+03  0.00000000000E+00 0. -1.
         -2   -1    0    0    0  501 -0.00000000000E+00 -0.00000000000E+00 -0.15050091368E+02  0.15050091368E+02  0.00000000000E+00 0.  1.
         23    2    1    2    0    0 -0.18276253683E+01 -0.29456525317E+02  0.53275666039E+03  0.54125896831E+03  0.90887757634E+02 0.  0.
         11    1    3    3    0    0  0.31391349195E+02 -0.12229207772E+02  0.43928793833E+03  0.44057787403E+03  0.00000000000E+00 0. -1.
        -11    1    3    3    0    0 -0.33218974563E+02 -0.17227317545E+02  0.93468722059E+02  0.10068109427E+03  0.00000000000E+00 0.  1.
         22    1    1    2    0    0  0.18276253683E+01  0.29456525317E+02  0.93657108657E+01  0.30963585682E+02  0.00000000000E+00 0.  1.
<mgrwt>
<rscale>  0 0.71237594E+02</rscale>
<asrwt>0</asrwt>
<pdfrwt beam="1">  1        2 0.85718825E-01 0.95559466E+02</pdfrwt>
<pdfrwt beam="2">  1       -2 0.23153991E-02 0.95559466E+02</pdfrwt>
<totfact> 0.30894050E+04</totfact>
</mgrwt>
</event>
<event>
 6    1  0.3062576E-002  0.9139693E+02  0.7546771E-02  0.1405790E+00
          1   -1    0    0  501    0  0.00000000000E+00  0.00000000000E+00  0.14444443546E+03  0.14444443546E+03  0.00000000000E+00 0. -1.
         -1   -1    0    0    0  501 -0.00000000000E+00 -0.00000000000E+00 -0.19869637651E+02  0.19869637651E+02  0.00000000000E+00 0.  1.
         23    2    1    2    0    0  0.28231084676E+01  0.14701409385E+02  0.11332426842E+03  0.14558773362E+03  0.90162614135E+02 0.  0.
         13    1    3    3    0    0 -0.17374894469E+02 -0.21604246229E+02  0.97109893619E+02  0.10098990965E+03  0.00000000000E+00 0. -1.
        -13    1    3    3    0    0  0.20198002937E+02  0.36305655614E+02  0.16214374801E+02  0.44597823965E+02  0.00000000000E+00 0.  1.
         22    1    1    2    0    0 -0.28231084676E+01 -0.14701409385E+02  0.11250529389E+02  0.18726339495E+02  0.00000000000E+00 0.  1.
<mgrwt>
<rscale>  0 0.58143914E+02</rscale>
<asrwt>0</asrwt>
<pdfrwt beam="1">  1        1 0.22222220E-01 0.91396928E+02</pdfrwt>
<pdfrwt beam="2">  1       -1 0.30568674E-02 0.91396928E+02</pdfrwt>
<totfact> 0.70092199E+04</totfact>
</mgrwt>
</event>
<event>
 6    1  0.3062576E-002  0.9676693E+02  0.7546771E-02  0.1340852E+00
         -2   -1    0    0    0  501 -0.00000000000E+00  0.00000000000E+00  0.72962199948E+01  0.72962199948E+01  0.00000000000E+00 0.  1.
          2   -1    0    0  501    0  0.00000000000E+00 -0.00000000000E+00 -0.62262577071E+03  0.62262577071E+03  0.00000000000E+00 0. -1.
         23    2    1    2    0    0  0.19345344241E+02  0.31289664700E+02 -0.48156986850E+03  0.49119586466E+03  0.89501696922E+02 0.  0.
         13    1    3    3    0    0 -0.18198143709E+02  0.10555766897E+02 -0.38448006462E+03  0.38505521258E+03  0.00000000000E+00 0. -1.
        -13    1    3    3    0    0  0.37543487950E+02  0.20733897802E+02 -0.97089803883E+02  0.10614065208E+03  0.00000000000E+00 0.  1.
         22    1    1    2    0    0 -0.19345344241E+02 -0.31289664700E+02 -0.13375968221E+03  0.13872612604E+03  0.00000000000E+00 0. -1.
<mgrwt>
<rscale>  0 0.75983432E+02</rscale>
<asrwt>0</asrwt>
<pdfrwt beam="1">  1        2 0.95788585E-01 0.96766932E+02</pdfrwt>
<pdfrwt beam="2">  1       -2 0.11224953E-02 0.96766932E+02</pdfrwt>
<totfact> 0.77048415E+04</totfact>
</mgrwt>
</event>
<event>
 6    1  0.3062576E-002  0.1001033E+03  0.7546771E-02  0.1360850E+00
         -2   -1    0    0    0  501 -0.00000000000E+00  0.00000000000E+00  0.12043613806E+02  0.12043613806E+02  0.00000000000E+00 0. -1.
          2   -1    0    0  501    0  0.00000000000E+00 -0.00000000000E+00 -0.45660121786E+03  0.45660121786E+03  0.00000000000E+00 0.  1.
         23    2    1    2    0    0 -0.22635083550E+02 -0.67959025902E+01 -0.42858503500E+03  0.44012020614E+03  0.97273492408E+02 0.  0.
         11    1    3    3    0    0  0.26380041048E+01 -0.59848726408E+01  0.34166608893E+01  0.73791149751E+01  0.00000000000E+00 0. -1.
        -11    1    3    3    0    0 -0.25273087655E+02 -0.81102994949E+00 -0.43200169589E+03  0.43274109116E+03  0.00000000000E+00 0.  1.
         22    1    1    2    0    0  0.22635083550E+02  0.67959025902E+01 -0.15972569055E+02  0.28524625529E+02  0.00000000000E+00 0. -1.
<mgrwt>
<rscale>  0 0.69777776E+02</rscale>
<asrwt>0</asrwt>
<pdfrwt beam="1">  1        2 0.70246337E-01 0.10010326E+03</pdfrwt>
<pdfrwt beam="2">  1       -2 0.18528638E-02 0.10010326E+03</pdfrwt>
<totfact> 0.53153369E+04</totfact>
</mgrwt>
</event>
<event>
 6    1  0.3062576E-002  0.9255226E+02  0.7546771E-02  0.1412374E+00
         -2   -1    0    0    0  501 -0.00000000000E+00  0.00000000000E+00  0.66213816780E+02  0.66213816780E+02  0.00000000000E+00 0.  1.
          2   -1    0    0  501    0  0.00000000000E+00 -0.00000000000E+00 -0.81655661083E+02  0.81655661083E+02  0.00000000000E+00 0. -1.
         23    2    1    2    0    0  0.19920050966E+01 -0.12853482619E+02 -0.54015748231E+02  0.10716166333E+03  0.91633732496E+02 0.  0.
         13    1    3    3    0    0  0.37631860547E+02  0.20718884295E+02 -0.31503383912E+02  0.53271871495E+02  0.00000000000E+00 0. -1.
        -13    1    3    3    0    0 -0.35639855451E+02 -0.33572366915E+02 -0.22512364319E+02  0.53889791835E+02  0.00000000000E+00 0.  1.
         22    1    1    2    0    0 -0.19920050966E+01  0.12853482619E+02  0.38573903928E+02  0.40707814532E+02  0.00000000000E+00 0.  1.
<mgrwt>
<rscale>  0 0.56667484E+02</rscale>
<asrwt>0</asrwt>
<pdfrwt beam="1">  1        2 0.12562409E-01 0.92552261E+02</pdfrwt>
<pdfrwt beam="2">  1       -2 0.10186741E-01 0.92552261E+02</pdfrwt>
<totfact> 0.27378809E+04</totfact>
</mgrwt>
</event>
<event>
 6    1  0.3062576E-002  0.8658500E+02  0.7546771E-02  0.1433731E+00
         -3   -1    0    0    0  501 -0.00000000000E+00  0.00000000000E+00  0.10215117393E+02  0.10215117393E+02  0.00000000000E+00 0.  1.
          3   -1    0    0  501    0  0.00000000000E+00 -0.00000000000E+00 -0.24372680288E+03  0.24372680288E+03  0.00000000000E+00 0. -1.
         23    2    1    2    0    0 -0.21654351726E+01 -0.11247640477E+02 -0.21871321148E+03  0.23522846633E+03  0.85824029079E+02 0.  0.
         11    1    3    3    0    0 -0.10441061159E+02 -0.48539000097E+00 -0.22118270502E+03  0.22142953814E+03  0.00000000000E+00 0. -1.
        -11    1    3    3    0    0  0.82756259867E+01 -0.10762250476E+02  0.24694935359E+01  0.13798928186E+02  0.00000000000E+00 0.  1.
         22    1    1    2    0    0  0.21654351726E+01  0.11247640477E+02 -0.14798474007E+02  0.18713453949E+02  0.00000000000E+00 0. -1.
<mgrwt>
<rscale>  0 0.52218347E+02</rscale>
<asrwt>0</asrwt>
<pdfrwt beam="1">  1        3 0.37496431E-01 0.86585002E+02</pdfrwt>
<pdfrwt beam="2">  1       -3 0.15715565E-02 0.86585002E+02</pdfrwt>
<totfact> 0.19585623E+04</totfact>
</mgrwt>
</event>
<event>
 6    1  0.3062576E-002  0.9260411E+02  0.7546771E-02  0.1415073E+00
          2   -1    0    0  501    0  0.00000000000E+00  0.00000000000E+00  0.31652332102E+03  0.31652332102E+03  0.00000000000E+00 0. -1.
         -2   -1    0    0    0  501 -0.00000000000E+00 -0.00000000000E+00 -0.92731183302E+01  0.92731183302E+01  0.00000000000E+00 0.  1.
         23    2    1    2    0    0 -0.11704023791E+02  0.42513891008E+01  0.29064426405E+03  0.30504033952E+03  0.91763075500E+02 0.  0.
         11    1    3    3    0    0 -0.35257817366E+02  0.36535361335E+02  0.19221387771E+03  0.19880674308E+03  0.00000000000E+00 0.  1.
        -11    1    3    3    0    0  0.23553793575E+02 -0.32283972234E+02  0.98430386343E+02  0.10623359643E+03  0.00000000000E+00 0. -1.
         22    1    1    2    0    0  0.11704023791E+02 -0.42513891008E+01  0.16605938641E+02  0.20756099834E+02  0.00000000000E+00 0. -1.
<mgrwt>
<rscale>  0 0.56076981E+02</rscale>
<asrwt>0</asrwt>
<pdfrwt beam="1">  1        2 0.48695887E-01 0.92604106E+02</pdfrwt>
<pdfrwt beam="2">  1       -2 0.14266338E-02 0.92604106E+02</pdfrwt>
<totfact> 0.11250907E+05</totfact>
</mgrwt>
</event>
<event>
 6    1  0.3062576E-002  0.9329395E+02  0.7546771E-02  0.1385019E+00
         -2   -1    0    0    0  501 -0.00000000000E+00  0.00000000000E+00  0.32561202736E+02  0.32561202736E+02  0.00000000000E+00 0.  1.
          2   -1    0    0  501    0  0.00000000000E+00 -0.00000000000E+00 -0.11199215325E+03  0.11199215325E+03  0.00000000000E+00 0. -1.
         23    2    1    2    0    0  0.18904754761E+02 -0.51788693136E+01 -0.82711545774E+02  0.12467943475E+03  0.91211573862E+02 0.  0.
         13    1    3    3    0    0  0.50264588299E+01 -0.94875252755E+01 -0.10086005297E+03  0.10142992019E+03  0.00000000000E+00 0. -1.
        -13    1    3    3    0    0  0.13878295931E+02  0.43086559619E+01  0.18148507196E+02  0.23249514566E+02  0.00000000000E+00 0.  1.
         22    1    1    2    0    0 -0.18904754761E+02  0.51788693136E+01  0.32805952585E+01  0.19873921233E+02  0.00000000000E+00 0.  1.
<mgrwt>
<rscale>  0 0.63162784E+02</rscale>
<asrwt>0</asrwt>
<pdfrwt beam="1">  1        2 0.17229562E-01 0.93293953E+02</pdfrwt>
<pdfrwt beam="2">  1       -2 0.50094159E-02 0.93293953E+02</pdfrwt>
<totfact> 0.55845727E+04</totfact>
</mgrwt>
</event>
<event>
 6    1  0.3062576E-002  0.9708545E+02  0.7546771E-02  0.1355393E+00
         -2   -1    0    0    0  501 -0.00000000000E+00  0.00000000000E+00  0.17562454838E+02  0.17562454838E+02  0.00000000000E+00 0.  1.
          2   -1    0    0  501    0  0.00000000000E+00 -0.00000000000E+00 -0.24907275058E+03  0.24907275058E+03  0.00000000000E+00 0. -1.
         23    2    1    2    0    0 -0.27244325197E+02  0.80278009838E+01 -0.20880822001E+03  0.23027474494E+03  0.92837958648E+02 0.  0.
         13    1    3    3    0    0  0.63260226676E+01  0.98117568001E+01 -0.19260045029E+03  0.19295393903E+03  0.00000000000E+00 0. -1.
        -13    1    3    3    0    0 -0.33570347865E+02 -0.17839558163E+01 -0.16207769720E+02  0.37320805905E+02  0.00000000000E+00 0.  1.
         22    1    1    2    0    0  0.27244325197E+02 -0.80278009838E+01 -0.22702075727E+02  0.36360460481E+02  0.00000000000E+00 0.  1.
<mgrwt>
<rscale>  0 0.71401043E+02</rscale>
<asrwt>0</asrwt>
<pdfrwt beam="1">  1        2 0.38318881E-01 0.97085454E+02</pdfrwt>
<pdfrwt beam="2">  1       -2 0.27019164E-02 0.97085454E+02</pdfrwt>
<totfact> 0.58127630E+04</totfact>
</mgrwt>
</event>
<event>
 6    1  0.3062576E-002  0.9625353E+02  0.7546771E-02  0.1353293E+00
          2   -1    0    0  501    0  0.00000000000E+00  0.00000000000E+00  0.36938290371E+02  0.36938290371E+02  0.00000000000E+00 0.  1.
         -2   -1    0    0    0  501 -0.00000000000E+00 -0.00000000000E+00 -0.12106180917E+03  0.12106180917E+03  0.00000000000E+00 0. -1.
         23    2    1    2    0    0  0.13810759528E+02  0.26858601073E+02 -0.39335741824E+02  0.10398096870E+03  0.91392667850E+02 0.  0.
         13    1    3    3    0    0  0.55297682147E+01 -0.18390298559E+02 -0.52690729914E+02  0.56081141541E+02  0.00000000000E+00 0. -1.
        -13    1    3    3    0    0  0.82809913130E+01  0.45248899632E+02  0.13354988090E+02  0.47899827160E+02  0.00000000000E+00 0.  1.
         22    1    1    2    0    0 -0.13810759528E+02 -0.26858601073E+02 -0.44787776972E+02  0.54019130837E+02  0.00000000000E+00 0. -1.
<mgrwt>
<rscale>  0 0.72039232E+02</rscale>
<asrwt>0</asrwt>
<pdfrwt beam="1">  1        2 0.56828139E-02 0.96253526E+02</pdfrwt>
<pdfrwt beam="2">  1       -2 0.18624894E-01 0.96253526E+02</pdfrwt>
<totfact> 0.27763251E+04</totfact>
</mgrwt>
</event>
<event>
 6    1  0.3062576E-002  0.9161814E+02  0.7546771E-02  0.1398881E+00
         -4   -1    0    0    0  501 -0.00000000000E+00  0.00000000000E+00  0.12487384260E+03  0.12487384260E+03  0.00000000000E+00 0.  1.
          4   -1    0    0  501    0  0.00000000000E+00 -0.00000000000E+00 -0.60690127306E+02  0.60690127306E+02  0.00000000000E+00 0. -1.
         23    2    1    2    0    0 -0.18829074524E+00  0.16572838425E+02 -0.24908084966E+02  0.94943644921E+02  0.90106540203E+02 0.  0.
         13    1    3    3    0    0  0.43622765426E+02  0.72071395925E+01 -0.11411777069E+01  0.44228845916E+02  0.00000000000E+00 0.  1.
        -13    1    3    3    0    0 -0.43811056171E+02  0.93656988325E+01 -0.23766907259E+02  0.50714799005E+02  0.00000000000E+00 0. -1.
         22    1    1    2    0    0  0.18829074524E+00 -0.16572838425E+02  0.89091800257E+02  0.90620324982E+02  0.00000000000E+00 0.  1.
<mgrwt>
<rscale>  0 0.59750607E+02</rscale>
<asrwt>0</asrwt>
<pdfrwt beam="1">  1        4 0.93369426E-02 0.91618137E+02</pdfrwt>
<pdfrwt beam="2">  1       -4 0.19211360E-01 0.91618137E+02</pdfrwt>
<totfact> 0.30654941E+03</totfact>
</mgrwt>
</event>
<event>
 6    1  0.3062576E-002  0.9215773E+02  0.7546771E-02  0.1371022E+00
          2   -1    0    0  501    0  0.00000000000E+00  0.00000000000E+00  0.25402499264E+02  0.25402499264E+02  0.00000000000E+00 0. -1.
         -2   -1    0    0    0  501 -0.00000000000E+00 -0.00000000000E+00 -0.14375762201E+03  0.14375762201E+03  0.00000000000E+00 0.  1.
         23    2    1    2    0    0  0.14057791220E+02  0.21355863879E+02 -0.10690930377E+03  0.14114760286E+03  0.88540116011E+02 0.  0.
         13    1    3    3    0    0 -0.13491227074E+02 -0.30500015678E+02 -0.41711238793E+02  0.53404977352E+02  0.00000000000E+00 0. -1.
        -13    1    3    3    0    0  0.27549018294E+02  0.51855879557E+02 -0.65198064979E+02  0.87742625505E+02  0.00000000000E+00 0.  1.
         22    1    1    2    0    0 -0.14057791220E+02 -0.21355863879E+02 -0.11445818973E+02  0.28012518415E+02  0.00000000000E+00 0.  1.
<mgrwt>
<rscale>  0 0.66883757E+02</rscale>
<asrwt>0</asrwt>
<pdfrwt beam="1">  1        2 0.39080769E-02 0.92157727E+02</pdfrwt>
<pdfrwt beam="2">  1       -2 0.22116557E-01 0.92157727E+02</pdfrwt>
<totfact> 0.33596357E+04</totfact>
</mgrwt>
</event>
<event>
 6    1  0.3062576E-002  0.9461189E+02  0.7546771E-02  0.1391858E+00
         -1   -1    0    0    0  501 -0.00000000000E+00  0.00000000000E+00  0.12806248587E+03  0.12806248587E+03  0.00000000000E+00 0.  1.
          1   -1    0    0  501    0  0.00000000000E+00 -0.00000000000E+00 -0.25123403789E+02  0.25123403789E+02  0.00000000000E+00 0. -1.
         23    2    1    2    0    0 -0.15885577610E+02  0.55682103782E+01  0.75716321278E+02  0.12117908962E+03  0.93102384027E+02 0.  0.
         13    1    3    3    0    0  0.23279860161E+02 -0.23518541269E+02  0.24838718738E+01  0.33184985942E+02  0.00000000000E+00 0. -1.
        -13    1    3    3    0    0 -0.39165437770E+02  0.29086751647E+02  0.73232449404E+02  0.87994103682E+02  0.00000000000E+00 0.  1.
         22    1    1    2    0    0  0.15885577610E+02 -0.55682103782E+01  0.27222760807E+02  0.32006800040E+02  0.00000000000E+00 0.  1.
<mgrwt>
<rscale>  0 0.61447039E+02</rscale>
<asrwt>0</asrwt>
<pdfrwt beam="1">  1        1 0.38651391E-02 0.94611894E+02</pdfrwt>
<pdfrwt beam="2">  1       -1 0.19701921E-01 0.94611894E+02</pdfrwt>
<totfact> 0.42828434E+04</totfact>
</mgrwt>
</event>
<event>
 6    1  0.3062576E-002  0.9221299E+02  0.7546771E-02  0.1425126E+00
         -4   -1    0    0    0  501 -0.00000000000E+00  0.00000000000E+00  0.10051920197E+02  0.10051920197E+02  0.00000000000E+00 0.  1.
          4   -1    0    0  501    0  0.00000000000E+00 -0.00000000000E+00 -0.36161118993E+03  0.36161118993E+03  0.00000000000E+00 0. -1.
         23    2    1    2    0    0 -0.52216218418E+00 -0.10792193629E+02 -0.34841334967E+03  0.36040962579E+03  0.91577792274E+02 0.  0.
         11    1    3    3    0    0 -0.22646906602E+02 -0.45389053155E+02 -0.20948401424E+03  0.21553793343E+03  0.00000000000E+00 0.  1.
        -11    1    3    3    0    0  0.22124744418E+02  0.34596859526E+02 -0.13892933543E+03  0.14487169236E+03  0.00000000000E+00 0. -1.
         22    1    1    2    0    0  0.52216218418E+00  0.10792193629E+02 -0.31459200624E+01  0.11253484336E+02  0.00000000000E+00 0.  1.
<mgrwt>
<rscale>  0 0.53950870E+02</rscale>
<asrwt>0</asrwt>
<pdfrwt beam="1">  1        4 0.55632481E-01 0.92212993E+02</pdfrwt>
<pdfrwt beam="2">  1       -4 0.15464495E-02 0.92212993E+02</pdfrwt>
<totfact> 0.69150375E+03</totfact>
</mgrwt>
</event>
<event>
 6    1  0.3062576E-002  0.9204426E+02  0.7546771E-02  0.1398887E+00
         -2   -1    0    0    0  501 -0.00000000000E+00  0.00000000000E+00  0.10731165833E+02  0.10731165833E+02  0.00000000000E+00 0.  1.
          2   -1    0    0  501    0  0.00000000000E+00 -0.00000000000E+00 -0.32435005944E+03  0.32435005944E+03  0.00000000000E+00 0. -1.
         23    2    1    2    0    0 -0.82389904837E+01 -0.14114532404E+02 -0.30001483989E+03  0.31381690618E+03  0.90581705972E+02 0.  0.
         11    1    3    3    0    0  0.37927753928E+02  0.11491681221E+01 -0.80691445766E+02  0.89168068978E+02  0.00000000000E+00 0. -1.
        -11    1    3    3    0    0 -0.46166744411E+02 -0.15263700526E+02 -0.21932339413E+03  0.22464883720E+03  0.00000000000E+00 0.  1.
         22    1    1    2    0    0  0.82389904837E+01  0.14114532404E+02 -0.13604053711E+02  0.21264319094E+02  0.00000000000E+00 0. -1.
<mgrwt>
<rscale>  0 0.59749185E+02</rscale>
<asrwt>0</asrwt>
<pdfrwt beam="1">  1        2 0.49900008E-01 0.92044264E+02</pdfrwt>
<pdfrwt beam="2">  1       -2 0.16509486E-02 0.92044264E+02</pdfrwt>
<totfact> 0.88950561E+04</totfact>
</mgrwt>
</event>
<event>
 6    1  0.3062576E-002  0.9566354E+02  0.7546771E-02  0.1359678E+00
         -2   -1    0    0    0  501 -0.00000000000E+00  0.00000000000E+00  0.38567143323E+01  0.38567143323E+01  0.00000000000E+00 0.  1.
          2   -1    0    0  501    0  0.00000000000E+00 -0.00000000000E+00 -0.10258405208E+04  0.10258405208E+04  0.00000000000E+00 0. -1.
         23    2    1    2    0    0  0.22537050164E+02 -0.15962758247E+02 -0.86807048549E+03  0.87332575866E+03  0.91590308833E+02 0.  0.
         13    1    3    3    0    0 -0.96848717787E+01 -0.97764071147E+01 -0.76574532358E+03  0.76586896755E+03  0.00000000000E+00 0. -1.
        -13    1    3    3    0    0  0.32221921943E+02 -0.61863511320E+01 -0.10232516191E+03  0.10745679110E+03  0.00000000000E+00 0.  1.
         22    1    1    2    0    0 -0.22537050164E+02  0.15962758247E+02 -0.15391332096E+03  0.15637147646E+03  0.00000000000E+00 0.  1.
<mgrwt>
<rscale>  0 0.70122286E+02</rscale>
<asrwt>0</asrwt>
<pdfrwt beam="1">  1        2 0.15782171E+00 0.95663540E+02</pdfrwt>
<pdfrwt beam="2">  1       -2 0.59334032E-03 0.95663540E+02</pdfrwt>
<totfact> 0.10231451E+05</totfact>
</mgrwt>
</event>
<event>
 6    1  0.3062576E-002  0.9608921E+02  0.7546771E-02  0.1354650E+00
          1   -1    0    0  501    0  0.00000000000E+00  0.00000000000E+00  0.18956066820E+03  0.18956066820E+03  0.00000000000E+00 0. -1.
         -1   -1    0    0    0  501 -0.00000000000E+00 -0.00000000000E+00 -0.23488068366E+02  0.23488068366E+02  0.00000000000E+00 0.  1.
         23    2    1    2    0    0 -0.71666371025E+01 -0.28786998544E+02  0.15290755646E+03  0.18059306927E+03  0.91395207055E+02 0.  0.
         11    1    3    3    0    0  0.69940625308E+00  0.13895912903E+02  0.13143645256E+03  0.13217082365E+03  0.00000000000E+00 0. -1.
        -11    1    3    3    0    0 -0.78660433556E+01 -0.42682911447E+02  0.21471103905E+02  0.48422245616E+02  0.00000000000E+00 0.  1.
         22    1    1    2    0    0  0.71666371025E+01  0.28786998544E+02  0.13165043368E+02  0.32455667293E+02  0.00000000000E+00 0. -1.
<mgrwt>
<rscale>  0 0.71625802E+02</rscale>
<asrwt>0</asrwt>
<pdfrwt beam="1">  1        1 0.29163179E-01 0.96089208E+02</pdfrwt>
<pdfrwt beam="2">  1       -1 0.36135491E-02 0.96089208E+02</pdfrwt>
<totfact> 0.39558788E+04</totfact>
</mgrwt>
</event>
<event>
 6    1  0.3062576E-002  0.9495234E+02  0.7546771E-02  0.1362837E+00
         -4   -1    0    0    0  501 -0.00000000000E+00  0.00000000000E+00  0.19620002482E+02  0.19620002482E+02  0.00000000000E+00 0. -1.
          4   -1    0    0  501    0  0.00000000000E+00 -0.00000000000E+00 -0.19159307237E+03  0.19159307237E+03  0.00000000000E+00 0.  1.
         23    2    1    2    0    0 -0.17958223687E+02  0.19872949796E+02 -0.14397053551E+03  0.17246292823E+03  0.91096183164E+02 0.  0.
         11    1    3    3    0    0 -0.15597868578E+02 -0.32519841164E+02 -0.29663519926E+02  0.46698586573E+02  0.00000000000E+00 0.  1.
        -11    1    3    3    0    0 -0.23603551090E+01  0.52392790960E+02 -0.11430701558E+03  0.12576434165E+03  0.00000000000E+00 0. -1.
         22    1    1    2    0    0  0.17958223687E+02 -0.19872949796E+02 -0.28002534378E+02  0.38750146621E+02  0.00000000000E+00 0.  1.
<mgrwt>
<rscale>  0 0.69199321E+02</rscale>
<asrwt>0</asrwt>
<pdfrwt beam="1">  1        4 0.29475857E-01 0.94952338E+02</pdfrwt>
<pdfrwt beam="2">  1       -4 0.30184619E-02 0.94952338E+02</pdfrwt>
<totfact> 0.86741345E+03</totfact>
</mgrwt>
</event>
<event>
 6    1  0.3062576E-002  0.9309712E+02  0.7546771E-02  0.1427317E+00
          1   -1    0    0  501    0  0.00000000000E+00  0.00000000000E+00  0.12629214403E+04  0.12629214403E+04  0.00000000000E+00 0. -1.
         -1   -1    0    0    0  501 -0.00000000000E+00 -0.00000000000E+00 -0.24903178201E+01  0.24903178201E+01  0.00000000000E+00 0.  1.
         23    2    1    2    0    0 -0.10121962074E+02  0.81930315161E+00  0.12255918709E+04  0.12291226575E+04  0.92541600216E+02 0.  0.
         13    1    3    3    0    0  0.76871965496E+01  0.44842590765E+02  0.56966328138E+03  0.57147721309E+03  0.00000000000E+00 0. -1.
        -13    1    3    3    0    0 -0.17809158623E+02 -0.44023287613E+02  0.65592858949E+03  0.65764544437E+03  0.00000000000E+00 0.  1.
         22    1    1    2    0    0  0.10121962074E+02 -0.81930315161E+00  0.34839251628E+02  0.36289100676E+02  0.00000000000E+00 0. -1.
<mgrwt>
<rscale>  0 0.53502351E+02</rscale>
<asrwt>0</asrwt>
<pdfrwt beam="1">  1        1 0.19429510E+00 0.93097117E+02</pdfrwt>
<pdfrwt beam="2">  1       -1 0.38312683E-03 0.93097117E+02</pdfrwt>
<totfact> 0.69868027E+04</totfact>
</mgrwt>
</event>
<event>
 6    1  0.3062576E-002  0.9342251E+02  0.7546771E-02  0.1363807E+00
         -2   -1    0    0    0  501 -0.00000000000E+00  0.00000000000E+00  0.80717351552E+01  0.80717351552E+01  0.00000000000E+00 0.  1.
          2   -1    0    0  501    0  0.00000000000E+00 -0.00000000000E+00 -0.48292631643E+03  0.48292631643E+03  0.00000000000E+00 0. -1.
         23    2    1    2    0    0 -0.26842017900E+02  0.67179296617E+01 -0.40960823776E+03  0.42012697254E+03  0.89230824863E+02 0.  0.
         11    1    3    3    0    0  0.16495295584E+02 -0.15908872699E+02 -0.29012639170E+03  0.29103008464E+03  0.00000000000E+00 0. -1.
        -11    1    3    3    0    0 -0.43337313484E+02  0.22626802361E+02 -0.11948184607E+03  0.12909688790E+03  0.00000000000E+00 0.  1.
         22    1    1    2    0    0  0.26842017900E+02 -0.67179296617E+01 -0.65246343517E+02  0.70871079053E+02  0.00000000000E+00 0. -1.
<mgrwt>
<rscale>  0 0.68919261E+02</rscale>
<asrwt>0</asrwt>
<pdfrwt beam="1">  1        2 0.74296379E-01 0.93422506E+02</pdfrwt>
<pdfrwt beam="2">  1       -2 0.12418050E-02 0.93422506E+02</pdfrwt>
<totfact> 0.87878189E+04</totfact>
</mgrwt>
</event>
<event>
 6    1  0.3062576E-002  0.9366039E+02  0.7546771E-02  0.1374622E+00
         -2   -1    0    0    0  501 -0.00000000000E+00  0.00000000000E+00  0.13950355024E+02  0.13950355024E+02  0.00000000000E+00 0.  1.
          2   -1    0    0  501    0  0.00000000000E+00 -0.00000000000E+00 -0.27107090893E+03  0.27107090893E+03  0.00000000000E+00 0. -1.
         23    2    1    2    0    0 -0.75077574730E+01  0.21690555242E+02 -0.16158614901E+03  0.18676817684E+03  0.90804304517E+02 0.  0.
         11    1    3    3    0    0 -0.14926152349E+02 -0.34174808002E+02 -0.65840782533E+02  0.75668462191E+02  0.00000000000E+00 0. -1.
        -11    1    3    3    0    0  0.74183948761E+01  0.55865363244E+02 -0.95745366480E+02  0.11109971465E+03  0.00000000000E+00 0.  1.
         22    1    1    2    0    0  0.75077574730E+01 -0.21690555242E+02 -0.95534404889E+02  0.98253087109E+02  0.00000000000E+00 0.  1.
<mgrwt>
<rscale>  0 0.65898797E+02</rscale>
<asrwt>0</asrwt>
<pdfrwt beam="1">  1        2 0.41703218E-01 0.93660388E+02</pdfrwt>
<pdfrwt beam="2">  1       -2 0.21462084E-02 0.93660388E+02</pdfrwt>
<totfact> 0.73828728E+04</totfact>
</mgrwt>
</event>
<event>
 6    1  0.3062576E-002  0.9024138E+02  0.7546771E-02  0.1390677E+00
         -2   -1    0    0    0  501 -0.00000000000E+00  0.00000000000E+00  0.26053670202E+02  0.26053670202E+02  0.00000000000E+00 0.  1.
          2   -1    0    0  501    0  0.00000000000E+00 -0.00000000000E+00 -0.11663085783E+03  0.11663085783E+03  0.00000000000E+00 0. -1.
         23    2    1    2    0    0  0.19483590972E+02 -0.33550668540E+01 -0.77766077038E+02  0.11912627374E+03  0.88049074763E+02 0.  0.
         11    1    3    3    0    0  0.38467441788E+02 -0.59019070668E+01  0.12188052905E+00  0.38917752243E+02  0.00000000000E+00 0.  1.
        -11    1    3    3    0    0 -0.18983850816E+02  0.25468402128E+01 -0.77887957567E+02  0.80208521498E+02  0.00000000000E+00 0. -1.
         22    1    1    2    0    0 -0.19483590972E+02  0.33550668540E+01 -0.12811110590E+02  0.23558254293E+02  0.00000000000E+00 0. -1.
<mgrwt>
<rscale>  0 0.61738758E+02</rscale>
<asrwt>0</asrwt>
<pdfrwt beam="1">  1        2 0.17943209E-01 0.90241378E+02</pdfrwt>
<pdfrwt beam="2">  1       -2 0.40082569E-02 0.90241378E+02</pdfrwt>
<totfact> 0.73803196E+04</totfact>
</mgrwt>
</event>
<event>
 6    1  0.3062576E-002  0.1041636E+03  0.7546771E-02  0.1353511E+00
         -2   -1    0    0    0  501 -0.00000000000E+00  0.00000000000E+00  0.96115504361E+01  0.96115504361E+01  0.00000000000E+00 0.  1.
          2   -1    0    0  501    0  0.00000000000E+00 -0.00000000000E+00 -0.60843543331E+03  0.60843543331E+03  0.00000000000E+00 0. -1.
         23    2    1    2    0    0 -0.22282530066E+02  0.81955399270E+01 -0.57519545781E+03  0.58455100650E+03  0.10142182454E+03 0.  0.
         11    1    3    3    0    0 -0.73839256935E+00 -0.16057011383E+02 -0.11124648230E+02  0.19548161969E+02  0.00000000000E+00 0.  1.
        -11    1    3    3    0    0 -0.21544137496E+02  0.24252551310E+02 -0.56407080958E+03  0.56500284453E+03  0.00000000000E+00 0. -1.
         22    1    1    2    0    0  0.22282530066E+02 -0.81955399270E+01 -0.23628425066E+02  0.33495977250E+02  0.00000000000E+00 0.  1.
<mgrwt>
<rscale>  0 0.71972404E+02</rscale>
<asrwt>0</asrwt>
<pdfrwt beam="1">  1        2 0.93605458E-01 0.10416364E+03</pdfrwt>
<pdfrwt beam="2">  1       -2 0.14787000E-02 0.10416364E+03</pdfrwt>
<totfact> 0.53874671E+04</totfact>
</mgrwt>
</event>
<event>
 6    1  0.3062576E-002  0.1110334E+03  0.7546771E-02  0.1287463E+00
         -1   -1    0    0    0  501 -0.00000000000E+00  0.00000000000E+00  0.14777204187E+03  0.14777204187E+03  0.00000000000E+00 0.  1.
          1   -1    0    0  501    0  0.00000000000E+00 -0.00000000000E+00 -0.51714973728E+02  0.51714973728E+02  0.00000000000E+00 0. -1.
         23    2    1    2    0    0  0.36814157823E+02  0.52097571953E+02  0.62121253375E+02  0.12722998312E+03  0.90878926397E+02 0.  0.
         13    1    3    3    0    0 -0.27961900613E+00 -0.22773334253E+02  0.30106792694E+02  0.37750786828E+02  0.00000000000E+00 0.  1.
        -13    1    3    3    0    0  0.37093776829E+02  0.74870906206E+02  0.32014460680E+02  0.89479196287E+02  0.00000000000E+00 0. -1.
         22    1    1    2    0    0 -0.36814157823E+02 -0.52097571953E+02  0.33935814771E+02  0.72257032486E+02  0.00000000000E+00 0.  1.
<mgrwt>
<rscale>  0 0.96667855E+02</rscale>
<asrwt>0</asrwt>
<pdfrwt beam="1">  1        1 0.79561499E-02 0.11103341E+03</pdfrwt>
<pdfrwt beam="2">  1       -1 0.22734160E-01 0.11103341E+03</pdfrwt>
<totfact> 0.13096324E+04</totfact>
</mgrwt>
</event>
<event>
 6    1  0.3062576E-002  0.9069938E+02  0.7546771E-02  0.1395132E+00
         -4   -1    0    0    0  501 -0.00000000000E+00  0.00000000000E+00  0.46471809648E+02  0.46471809648E+02  0.00000000000E+00 0.  1.
          4   -1    0    0  501    0  0.00000000000E+00 -0.00000000000E+00 -0.63717952192E+02  0.63717952192E+02  0.00000000000E+00 0. -1.
         23    2    1    2    0    0  0.17899830163E+02  0.28939936814E+01 -0.14311726789E+02  0.91821585144E+02  0.88868435653E+02 0.  0.
         13    1    3    3    0    0 -0.10911400336E+02  0.41056925747E+02 -0.11036085348E+02  0.43892197358E+02  0.00000000000E+00 0. -1.
        -13    1    3    3    0    0  0.28811230500E+02 -0.38162932066E+02 -0.32756414406E+01  0.47929387787E+02  0.00000000000E+00 0.  1.
         22    1    1    2    0    0 -0.17899830163E+02 -0.28939936814E+01 -0.29344157555E+01  0.18368176696E+02  0.00000000000E+00 0. -1.
<mgrwt>
<rscale>  0 0.60647971E+02</rscale>
<asrwt>0</asrwt>
<pdfrwt beam="1">  1        4 0.98027619E-02 0.90699382E+02</pdfrwt>
<pdfrwt beam="2">  1       -4 0.71495092E-02 0.90699382E+02</pdfrwt>
<totfact> 0.15062268E+04</totfact>
</mgrwt>
</event>
<event>
 6    1  0.3062576E-002  0.9340428E+02  0.7546771E-02  0.1366280E+00
          2   -1    0    0  501    0  0.00000000000E+00  0.00000000000E+00  0.74272623179E+02  0.74272623179E+02  0.00000000000E+00 0. -1.
         -2   -1    0    0    0  501 -0.00000000000E+00 -0.00000000000E+00 -0.52374976033E+02  0.52374976033E+02  0.00000000000E+00 0.  1.
         23    2    1    2    0    0  0.14517656684E+02  0.22250250207E+02  0.31232615910E+02  0.98487740694E+02  0.89546204725E+02 0.  0.
         13    1    3    3    0    0 -0.24407509275E+02  0.30952457011E+02  0.41566392909E+02  0.57284780906E+02  0.00000000000E+00 0. -1.
        -13    1    3    3    0    0  0.38925165960E+02 -0.87022068033E+01 -0.10333776999E+02  0.41202959788E+02  0.00000000000E+00 0.  1.
         22    1    1    2    0    0 -0.14517656684E+02 -0.22250250207E+02 -0.93349687645E+01  0.28159858517E+02  0.00000000000E+00 0.  1.
<mgrwt>
<rscale>  0 0.68212355E+02</rscale>
<asrwt>0</asrwt>
<pdfrwt beam="1">  1        2 0.11426557E-01 0.93404276E+02</pdfrwt>
<pdfrwt beam="2">  1       -2 0.80576886E-02 0.93404276E+02</pdfrwt>
<totfact> 0.44059363E+04</totfact>
</mgrwt>
</event>
<event>
 6    1  0.3062576E-002  0.9443920E+02  0.7546771E-02  0.1415772E+00
         -2   -1    0    0    0  501 -0.00000000000E+00  0.00000000000E+00  0.27104677288E+01  0.27104677288E+01  0.00000000000E+00 0.  1.
          2   -1    0    0  501    0  0.00000000000E+00 -0.00000000000E+00 -0.13715144647E+04  0.13715144647E+04  0.00000000000E+00 0. -1.
         23    2    1    2    0    0  0.56808674695E+01 -0.10129921400E+02 -0.13375985016E+04  0.13409282284E+04  0.93722326458E+02 0.  0.
         13    1    3    3    0    0 -0.15558820749E+02  0.15706762157E+01 -0.37845827501E+02  0.40949366126E+02  0.00000000000E+00 0.  1.
        -13    1    3    3    0    0  0.21239688218E+02 -0.11700597615E+02 -0.12997526741E+04  0.12999788622E+04  0.00000000000E+00 0. -1.
         22    1    1    2    0    0 -0.56808674695E+01  0.10129921400E+02 -0.31205495379E+02  0.33296704111E+02  0.00000000000E+00 0.  1.
<mgrwt>
<rscale>  0 0.55925607E+02</rscale>
<asrwt>0</asrwt>
<pdfrwt beam="1">  1        2 0.21100189E+00 0.94439198E+02</pdfrwt>
<pdfrwt beam="2">  1       -2 0.41699569E-03 0.94439198E+02</pdfrwt>
<totfact> 0.10842940E+05</totfact>
</mgrwt>
</event>
<event>
 6    1  0.3062576E-002  0.9141047E+02  0.7546771E-02  0.1409445E+00
          2   -1    0    0  501    0  0.00000000000E+00  0.00000000000E+00  0.14979728583E+02  0.14979728583E+02  0.00000000000E+00 0. -1.
         -2   -1    0    0    0  501 -0.00000000000E+00 -0.00000000000E+00 -0.22603817009E+03  0.22603817009E+03  0.00000000000E+00 0.  1.
         23    2    1    2    0    0 -0.13843118827E+02  0.28375046096E+01 -0.13111004038E+03  0.15983027515E+03  0.90311631552E+02 0.  0.
         11    1    3    3    0    0 -0.22708994043E+02  0.27925708900E+02 -0.12808961646E+03  0.13305071767E+03  0.00000000000E+00 0. -1.
        -11    1    3    3    0    0  0.88658752154E+01 -0.25088204291E+02 -0.30204239195E+01  0.26779557474E+02  0.00000000000E+00 0.  1.
         22    1    1    2    0    0  0.13843118827E+02 -0.28375046096E+01 -0.79948401122E+02  0.81187623522E+02  0.00000000000E+00 0.  1.
<mgrwt>
<rscale>  0 0.57317824E+02</rscale>
<asrwt>0</asrwt>
<pdfrwt beam="1">  1        2 0.23045738E-02 0.91410471E+02</pdfrwt>
<pdfrwt beam="2">  1       -2 0.34775101E-01 0.91410471E+02</pdfrwt>
<totfact> 0.30493746E+04</totfact>
</mgrwt>
</event>
<event>
 6    1  0.3062576E-002  0.1506195E+03  0.7546771E-02  0.1209533E+00
          2   -1    0    0  501    0  0.00000000000E+00  0.00000000000E+00  0.23967075047E+04  0.23967075047E+04  0.00000000000E+00 0. -1.
         -2   -1    0    0    0  501 -0.00000000000E+00 -0.00000000000E+00 -0.13587272138E+02  0.13587272138E+02  0.00000000000E+00 0.  1.
         23    2    1    2    0    0 -0.59787918721E+02  0.10622434169E+03  0.20508151791E+04  0.20563387703E+04  0.88476174902E+02 0.  0.
         11    1    3    3    0    0 -0.63327181626E+01  0.21369601623E+02  0.82121828171E+02  0.85092642778E+02  0.00000000000E+00 0.  1.
        -11    1    3    3    0    0 -0.53455200558E+02  0.84854740066E+02  0.19686933509E+04  0.19712461275E+04  0.00000000000E+00 0. -1.
         22    1    1    2    0    0  0.59787918721E+02 -0.10622434169E+03  0.33230505351E+03  0.35395600656E+03  0.00000000000E+00 0.  1.
<mgrwt>
<rscale>  0 0.14285871E+03</rscale>
<asrwt>0</asrwt>
<pdfrwt beam="1">  1        2 0.36872390E+00 0.15061952E+03</pdfrwt>
<pdfrwt beam="2">  1       -2 0.20903515E-02 0.15061952E+03</pdfrwt>
<totfact> 0.33247331E+03</totfact>
</mgrwt>
</event>
<event>
 6    1  0.3062576E-002  0.9910312E+02  0.7546771E-02  0.1328581E+00
          4   -1    0    0  501    0  0.00000000000E+00  0.00000000000E+00  0.10375987892E+04  0.10375987892E+04  0.00000000000E+00 0.  1.
         -4   -1    0    0    0  501 -0.00000000000E+00 -0.00000000000E+00 -0.60175332054E+01  0.60175332054E+01  0.00000000000E+00 0. -1.
         23    2    1    2    0    0  0.42415657661E+02 -0.12060891438E+01  0.89813560857E+03  0.90358674167E+03  0.89559397416E+02 0.  0.
         13    1    3    3    0    0  0.52835924907E+02 -0.23231322174E+02  0.81263234270E+03  0.81467947912E+03  0.00000000000E+00 0.  1.
        -13    1    3    3    0    0 -0.10420267246E+02  0.22025233030E+02  0.85503265869E+02  0.88907262548E+02  0.00000000000E+00 0. -1.
         22    1    1    2    0    0 -0.42415657661E+02  0.12060891438E+01  0.13344564743E+03  0.14002958075E+03  0.00000000000E+00 0. -1.
<mgrwt>
<rscale>  0 0.80166131E+02</rscale>
<asrwt>0</asrwt>
<pdfrwt beam="1">  1        4 0.15963044E+00 0.99103120E+02</pdfrwt>
<pdfrwt beam="2">  1       -4 0.92577516E-03 0.99103120E+02</pdfrwt>
<totfact> 0.13811780E+03</totfact>
</mgrwt>
</event>
<event>
 6    1  0.3062576E-002  0.9304025E+02  0.7546771E-02  0.1397743E+00
         -2   -1    0    0    0  501 -0.00000000000E+00  0.00000000000E+00  0.10529345271E+02  0.10529345271E+02  0.00000000000E+00 0.  1.
          2   -1    0    0  501    0  0.00000000000E+00 -0.00000000000E+00 -0.31085722313E+03  0.31085722313E+03  0.00000000000E+00 0. -1.
         23    2    1    2    0    0 -0.14463132580E+02 -0.71051001662E+01 -0.28215073674E+03  0.29709514787E+03  0.91634185703E+02 0.  0.
         13    1    3    3    0    0  0.33342311650E+02 -0.44911964888E+00 -0.19163648508E+03  0.19451594759E+03  0.00000000000E+00 0. -1.
        -13    1    3    3    0    0 -0.47805444230E+02 -0.66559805173E+01 -0.90514251663E+02  0.10257920027E+03  0.00000000000E+00 0.  1.
         22    1    1    2    0    0  0.14463132580E+02  0.71051001662E+01 -0.18177141116E+02  0.24291420534E+02  0.00000000000E+00 0.  1.
<mgrwt>
<rscale>  0 0.60021213E+02</rscale>
<asrwt>0</asrwt>
<pdfrwt beam="1">  1        2 0.47824186E-01 0.93040253E+02</pdfrwt>
<pdfrwt beam="2">  1       -2 0.16198993E-02 0.93040253E+02</pdfrwt>
<totfact> 0.95699801E+04</totfact>
</mgrwt>
</event>
<event>
 6    1  0.3062576E-002  0.9778210E+02  0.7546771E-02  0.1405780E+00
         -2   -1    0    0    0  501 -0.00000000000E+00  0.00000000000E+00  0.23932351460E+02  0.23932351460E+02  0.00000000000E+00 0.  1.
          2   -1    0    0  501    0  0.00000000000E+00 -0.00000000000E+00 -0.15851689622E+03  0.15851689622E+03  0.00000000000E+00 0. -1.
         23    2    1    2    0    0 -0.34076995913E+01  0.11742192824E+02 -0.13856367817E+03  0.16959137027E+03  0.97014681647E+02 0.  0.
         11    1    3    3    0    0 -0.35690531349E+02  0.71611184870E+01 -0.13121032568E+03  0.13616624109E+03  0.00000000000E+00 0. -1.
        -11    1    3    3    0    0  0.32282831758E+02  0.45810743373E+01 -0.73533524851E+01  0.33425129187E+02  0.00000000000E+00 0.  1.
         22    1    1    2    0    0  0.34076995913E+01 -0.11742192824E+02  0.39791334051E+01  0.12857877410E+02  0.00000000000E+00 0.  1.
<mgrwt>
<rscale>  0 0.58146235E+02</rscale>
<asrwt>0</asrwt>
<pdfrwt beam="1">  1        2 0.24387216E-01 0.97782105E+02</pdfrwt>
<pdfrwt beam="2">  1       -2 0.36819001E-02 0.97782105E+02</pdfrwt>
<totfact> 0.60108868E+04</totfact>
</mgrwt>
</event>
<event>
 6    1  0.3062576E-002  0.9175706E+02  0.7546771E-02  0.1411036E+00
         -2   -1    0    0    0  501 -0.00000000000E+00  0.00000000000E+00  0.11257696246E+02  0.11257696246E+02  0.00000000000E+00 0.  1.
          2   -1    0    0  501    0  0.00000000000E+00 -0.00000000000E+00 -0.36571694503E+03  0.36571694503E+03  0.00000000000E+00 0. -1.
         23    2    1    2    0    0 -0.12407048996E+02  0.56405690726E+01 -0.35116265791E+03  0.36295257311E+03  0.90739225993E+02 0.  0.
         13    1    3    3    0    0 -0.25744884016E+02  0.43624914760E+02 -0.17089398861E+03  0.17824333812E+03  0.00000000000E+00 0.  1.
        -13    1    3    3    0    0  0.13337835020E+02 -0.37984345688E+02 -0.18026866930E+03  0.18470923499E+03  0.00000000000E+00 0. -1.
         22    1    1    2    0    0  0.12407048996E+02 -0.56405690726E+01 -0.32965908750E+01  0.14022068166E+02  0.00000000000E+00 0.  1.
<mgrwt>
<rscale>  0 0.56963410E+02</rscale>
<asrwt>0</asrwt>
<pdfrwt beam="1">  1        2 0.56264145E-01 0.91757060E+02</pdfrwt>
<pdfrwt beam="2">  1       -2 0.17319533E-02 0.91757060E+02</pdfrwt>
<totfact> 0.73214384E+04</totfact>
</mgrwt>
</event>
<event>
 6    1  0.3062576E-002  0.9266837E+02  0.7546771E-02  0.1429227E+00
         -2   -1    0    0    0  501 -0.00000000000E+00  0.00000000000E+00  0.18400669433E+02  0.18400669433E+02  0.00000000000E+00 0. -1.
          2   -1    0    0  501    0  0.00000000000E+00 -0.00000000000E+00 -0.15451764036E+03  0.15451764036E+03  0.00000000000E+00 0.  1.
         23    2    1    2    0    0 -0.99168274472E+01  0.13035173597E+01 -0.13362012977E+03  0.16260924389E+03  0.92127001975E+02 0.  0.
         11    1    3    3    0    0 -0.10267335373E+02 -0.55189993983E+01  0.12057900573E+02  0.16771120900E+02  0.00000000000E+00 0. -1.
        -11    1    3    3    0    0  0.35050792615E+00  0.68225167580E+01 -0.14567803035E+03  0.14583812299E+03  0.00000000000E+00 0.  1.
         22    1    1    2    0    0  0.99168274472E+01 -0.13035173597E+01 -0.24968411555E+01  0.10309065907E+02  0.00000000000E+00 0. -1.
<mgrwt>
<rscale>  0 0.53115562E+02</rscale>
<asrwt>0</asrwt>
<pdfrwt beam="1">  1        2 0.23771945E-01 0.92668372E+02</pdfrwt>
<pdfrwt beam="2">  1       -2 0.28308722E-02 0.92668372E+02</pdfrwt>
<totfact> 0.90036139E+04</totfact>
</mgrwt>
</event>
<event>
 6    1  0.3062576E-002  0.9298245E+02  0.7546771E-02  0.1393609E+00
          2   -1    0    0  501    0  0.00000000000E+00  0.00000000000E+00  0.37199348066E+03  0.37199348066E+03  0.00000000000E+00 0. -1.
         -2   -1    0    0    0  501 -0.00000000000E+00 -0.00000000000E+00 -0.86166798579E+01  0.86166798579E+01  0.00000000000E+00 0.  1.
         23    2    1    2    0    0 -0.52170749017E+01 -0.16435340031E+02  0.33236934133E+03  0.34513057744E+03  0.91369569086E+02 0.  0.
         11    1    3    3    0    0  0.11962383695E+02  0.10118662656E+02  0.53065892302E+01  0.16542244312E+02  0.00000000000E+00 0.  1.
        -11    1    3    3    0    0 -0.17179458596E+02 -0.26554002687E+02  0.32706275210E+03  0.32858833313E+03  0.00000000000E+00 0. -1.
         22    1    1    2    0    0  0.52170749017E+01  0.16435340031E+02  0.31007459463E+02  0.35479583070E+02  0.00000000000E+00 0.  1.
<mgrwt>
<rscale>  0 0.61017878E+02</rscale>
<asrwt>0</asrwt>
<pdfrwt beam="1">  1        2 0.57229754E-01 0.92982452E+02</pdfrwt>
<pdfrwt beam="2">  1       -2 0.13256433E-02 0.92982452E+02</pdfrwt>
<totfact> 0.10553720E+05</totfact>
</mgrwt>
</event>
<event>
 6    1  0.3062576E-002  0.9486277E+02  0.7546771E-02  0.1377193E+00
          2   -1    0    0  501    0  0.00000000000E+00  0.00000000000E+00  0.37672875306E+03  0.37672875306E+03  0.00000000000E+00 0. -1.
         -2   -1    0    0    0  501 -0.00000000000E+00 -0.00000000000E+00 -0.20083199124E+02  0.20083199124E+02  0.00000000000E+00 0.  1.
         23    2    1    2    0    0 -0.40550960208E+01 -0.20786746001E+02  0.36260699984E+03  0.37481032837E+03  0.92468444938E+02 0.  0.
         13    1    3    3    0    0  0.32339732916E+02  0.13620625245E+02  0.23704010434E+03  0.23962343546E+03  0.00000000000E+00 0.  1.
        -13    1    3    3    0    0 -0.36394828937E+02 -0.34407371246E+02  0.12556689550E+03  0.13518689291E+03  0.00000000000E+00 0. -1.
         22    1    1    2    0    0  0.40550960208E+01  0.20786746001E+02 -0.59614459040E+01  0.22001623811E+02  0.00000000000E+00 0.  1.
<mgrwt>
<rscale>  0 0.65207285E+02</rscale>
<asrwt>0</asrwt>
<pdfrwt beam="1">  1        2 0.57958264E-01 0.94862774E+02</pdfrwt>
<pdfrwt beam="2">  1       -2 0.30897232E-02 0.94862774E+02</pdfrwt>
<totfact> 0.30901892E+04</totfact>
</mgrwt>
</event>
<event>
 6    1  0.3062576E-002  0.9223255E+02  0.7546771E-02  0.1426239E+00
          2   -1    0    0  501    0  0.00000000000E+00  0.00000000000E+00  0.13619803150E+03  0.13619803150E+03  0.00000000000E+00 0. -1.
         -2   -1    0    0    0  501 -0.00000000000E+00 -0.00000000000E+00 -0.21993140871E+02  0.21993140871E+02  0.00000000000E+00 0.  1.
         23    2    1    2    0    0  0.16613697960E+01  0.10485487578E+02  0.11514840004E+03  0.14753303888E+03  0.91619528109E+02 0.  0.
         13    1    3    3    0    0  0.15448373388E+02  0.25883103512E+01 -0.11789462973E+02  0.19604668525E+02  0.00000000000E+00 0.  1.
        -13    1    3    3    0    0 -0.13787003592E+02  0.78971772267E+01  0.12693786301E+03  0.12792837036E+03  0.00000000000E+00 0. -1.
         22    1    1    2    0    0 -0.16613697960E+01 -0.10485487578E+02 -0.94350941516E+00  0.10658133484E+02  0.00000000000E+00 0.  1.
<mgrwt>
<rscale>  0 0.53722517E+02</rscale>
<asrwt>0</asrwt>
<pdfrwt beam="1">  1        2 0.20953543E-01 0.92232551E+02</pdfrwt>
<pdfrwt beam="2">  1       -2 0.33835602E-02 0.92232551E+02</pdfrwt>
<totfact> 0.79760138E+04</totfact>
</mgrwt>
</event>
<event>
 6    1  0.3062576E-002  0.9236423E+02  0.7546771E-02  0.1379928E+00
          2   -1    0    0  501    0  0.00000000000E+00  0.00000000000E+00  0.15211866626E+03  0.15211866626E+03  0.00000000000E+00 0. -1.
         -2   -1    0    0    0  501 -0.00000000000E+00 -0.00000000000E+00 -0.22008979474E+02  0.22008979474E+02  0.00000000000E+00 0.  1.
         23    2    1    2    0    0  0.11510540777E+02  0.18679690570E+02  0.11493999072E+03  0.14745288111E+03  0.89720272480E+02 0.  0.
         13    1    3    3    0    0  0.13148601708E+02 -0.85384029853E+01  0.11887386112E+03  0.11990323144E+03  0.00000000000E+00 0. -1.
        -13    1    3    3    0    0 -0.16380609317E+01  0.27218093556E+02 -0.39338704082E+01  0.27549649668E+02  0.00000000000E+00 0.  1.
         22    1    1    2    0    0 -0.11510540777E+02 -0.18679690570E+02  0.15169696070E+02  0.26674764622E+02  0.00000000000E+00 0.  1.
<mgrwt>
<rscale>  0 0.64482780E+02</rscale>
<asrwt>0</asrwt>
<pdfrwt beam="1">  1        2 0.23402871E-01 0.92364228E+02</pdfrwt>
<pdfrwt beam="2">  1       -2 0.33859969E-02 0.92364228E+02</pdfrwt>
<totfact> 0.70534171E+04</totfact>
</mgrwt>
</event>
<event>
 6    1  0.3062576E-002  0.9346540E+02  0.7546771E-02  0.1423246E+00
         -2   -1    0    0    0  501 -0.00000000000E+00  0.00000000000E+00  0.57353966399E+02  0.57353966399E+02  0.00000000000E+00 0. -1.
          2   -1    0    0  501    0  0.00000000000E+00 -0.00000000000E+00 -0.87087862322E+02  0.87087862322E+02  0.00000000000E+00 0.  1.
         23    2    1    2    0    0  0.54166386867E+01 -0.92031771544E+01 -0.60860870984E+02  0.11153397220E+03  0.92853340776E+02 0.  0.
         13    1    3    3    0    0 -0.24399995269E+01  0.32028754679E+02 -0.61690231229E+02  0.69551990288E+02  0.00000000000E+00 0.  1.
        -13    1    3    3    0    0  0.78566382135E+01 -0.41231931834E+02  0.82936024517E+00  0.41981981911E+02  0.00000000000E+00 0. -1.
         22    1    1    2    0    0 -0.54166386867E+01  0.92031771544E+01  0.31126975061E+02  0.32907856521E+02  0.00000000000E+00 0. -1.
<mgrwt>
<rscale>  0 0.54339992E+02</rscale>
<asrwt>0</asrwt>
<pdfrwt beam="1">  1        2 0.13398133E-01 0.93465402E+02</pdfrwt>
<pdfrwt beam="2">  1       -2 0.88236872E-02 0.93465402E+02</pdfrwt>
<totfact> 0.31743645E+04</totfact>
</mgrwt>
</event>
<event>
 6    1  0.3062576E-002  0.9086724E+02  0.7546771E-02  0.1401108E+00
          2   -1    0    0  501    0  0.00000000000E+00  0.00000000000E+00  0.19939409689E+04  0.19939409689E+04  0.00000000000E+00 0.  1.
         -2   -1    0    0    0  501 -0.00000000000E+00 -0.00000000000E+00 -0.17942556163E+01  0.17942556163E+01  0.00000000000E+00 0. -1.
         23    2    1    2    0    0 -0.16394369859E+02  0.41612671517E+00  0.18977756211E+04  0.18999497791E+04  0.89375087812E+02 0.  0.
         13    1    3    3    0    0 -0.31228068175E+02 -0.32538150352E+02  0.14560615306E+04  0.14567597964E+04  0.00000000000E+00 0.  1.
        -13    1    3    3    0    0  0.14833698315E+02  0.32954277067E+02  0.44171409052E+03  0.44318998268E+03  0.00000000000E+00 0. -1.
         22    1    1    2    0    0  0.16394369859E+02 -0.41612671517E+00  0.94371092208E+02  0.95785445497E+02  0.00000000000E+00 0.  1.
<mgrwt>
<rscale>  0 0.59226237E+02</rscale>
<asrwt>0</asrwt>
<pdfrwt beam="1">  1        2 0.30675838E+00 0.90867237E+02</pdfrwt>
<pdfrwt beam="2">  1       -2 0.27604092E-03 0.90867237E+02</pdfrwt>
<totfact> 0.92895282E+04</totfact>
</mgrwt>
</event>
<event>
 6    1  0.3062576E-002  0.9602450E+02  0.7546771E-02  0.1357507E+00
          2   -1    0    0  501    0  0.00000000000E+00  0.00000000000E+00  0.12573436817E+03  0.12573436817E+03  0.00000000000E+00 0. -1.
         -2   -1    0    0    0  501 -0.00000000000E+00 -0.00000000000E+00 -0.31802347252E+02  0.31802347252E+02  0.00000000000E+00 0.  1.
         23    2    1    2    0    0 -0.25898211841E+02  0.11468449754E+02  0.83820403752E+02  0.12746201645E+03  0.91752181648E+02 0.  0.
         11    1    3    3    0    0 -0.19630830317E+02  0.37733678084E+02  0.34472816982E+01  0.42674157423E+02  0.00000000000E+00 0.  1.
        -11    1    3    3    0    0 -0.62673815239E+01 -0.26265228330E+02  0.80373122054E+02  0.84787859031E+02  0.00000000000E+00 0. -1.
         22    1    1    2    0    0  0.25898211841E+02 -0.11468449754E+02  0.10111617167E+02  0.30074698968E+02  0.00000000000E+00 0. -1.
<mgrwt>
<rscale>  0 0.70766022E+02</rscale>
<asrwt>0</asrwt>
<pdfrwt beam="1">  1        2 0.19343749E-01 0.96024505E+02</pdfrwt>
<pdfrwt beam="2">  1       -2 0.48926689E-02 0.96024505E+02</pdfrwt>
<totfact> 0.50940661E+04</totfact>
</mgrwt>
</event>
<event>
 6    1  0.3062576E-002  0.9258428E+02  0.7546771E-02  0.1426129E+00
          2   -1    0    0  501    0  0.00000000000E+00  0.00000000000E+00  0.13809687440E+02  0.13809687440E+02  0.00000000000E+00 0. -1.
         -2   -1    0    0    0  501 -0.00000000000E+00 -0.00000000000E+00 -0.19799812701E+03  0.19799812701E+03  0.00000000000E+00 0.  1.
         23    2    1    2    0    0 -0.10231901071E+02 -0.24158440399E+01 -0.15232478511E+03  0.17825456457E+03  0.91985441943E+02 0.  0.
         11    1    3    3    0    0 -0.10496617870E+02  0.38663740191E+02 -0.32514287836E+02  0.51596925352E+02  0.00000000000E+00 0. -1.
        -11    1    3    3    0    0  0.26471679853E+00 -0.41079584231E+02 -0.11981049727E+03  0.12665763922E+03  0.00000000000E+00 0.  1.
         22    1    1    2    0    0  0.10231901071E+02  0.24158440399E+01 -0.31863654467E+02  0.33553249887E+02  0.00000000000E+00 0.  1.
<mgrwt>
<rscale>  0 0.53744873E+02</rscale>
<asrwt>0</asrwt>
<pdfrwt beam="1">  1        2 0.21245673E-02 0.92584284E+02</pdfrwt>
<pdfrwt beam="2">  1       -2 0.30461250E-01 0.92584284E+02</pdfrwt>
<totfact> 0.43298138E+04</totfact>
</mgrwt>
</event>
<event>
 6    1  0.3062576E-002  0.9374046E+02  0.7546771E-02  0.1382073E+00
          3   -1    0    0  501    0  0.00000000000E+00  0.00000000000E+00  0.42839424925E+02  0.42839424925E+02  0.00000000000E+00 0. -1.
         -3   -1    0    0    0  501 -0.00000000000E+00 -0.00000000000E+00 -0.12152578512E+03  0.12152578512E+03  0.00000000000E+00 0.  1.
         23    2    1    2    0    0  0.13764025125E+02 -0.14877998221E+02 -0.11805834369E+02  0.94480963226E+02  0.91523065225E+02 0.  0.
         11    1    3    3    0    0  0.13333192392E+02 -0.32050644031E+02  0.32133525848E+02  0.47303079029E+02  0.00000000000E+00 0. -1.
        -11    1    3    3    0    0  0.43083273252E+00  0.17172645811E+02 -0.43939360217E+02  0.47177884197E+02  0.00000000000E+00 0.  1.
         22    1    1    2    0    0 -0.13764025125E+02  0.14877998221E+02 -0.66880525825E+02  0.69884246818E+02  0.00000000000E+00 0.  1.
<mgrwt>
<rscale>  0 0.63921882E+02</rscale>
<asrwt>0</asrwt>
<pdfrwt beam="1">  1        3 0.65906808E-02 0.93740465E+02</pdfrwt>
<pdfrwt beam="2">  1       -3 0.18696275E-01 0.93740465E+02</pdfrwt>
<totfact> 0.77284111E+03</totfact>
</mgrwt>
</event>
<event>
 6    1  0.3062576E-002  0.1112519E+03  0.7546771E-02  0.1286224E+00
          2   -1    0    0  501    0  0.00000000000E+00  0.00000000000E+00  0.60231200095E+03  0.60231200095E+03  0.00000000000E+00 0.  1.
         -2   -1    0    0    0  501 -0.00000000000E+00 -0.00000000000E+00 -0.12913750280E+02  0.12913750280E+02  0.00000000000E+00 0. -1.
         23    2    1    2    0    0  0.50759161365E+02  0.40464255726E+02  0.35716325094E+03  0.37408897769E+03  0.90350024645E+02 0.  0.
         11    1    3    3    0    0 -0.18946814498E+02  0.29060269724E+02  0.18097362305E+03  0.18426864437E+03  0.00000000000E+00 0.  1.
        -11    1    3    3    0    0  0.69705975863E+02  0.11403986001E+02  0.17618962788E+03  0.18982033332E+03  0.00000000000E+00 0. -1.
         22    1    1    2    0    0 -0.50759161365E+02 -0.40464255726E+02  0.23223499973E+03  0.24113677354E+03  0.00000000000E+00 0.  1.
<mgrwt>
<rscale>  0 0.97233364E+02</rscale>
<asrwt>0</asrwt>
<pdfrwt beam="1">  1        2 0.92663363E-01 0.11125186E+03</pdfrwt>
<pdfrwt beam="2">  1       -2 0.19867313E-02 0.11125186E+03</pdfrwt>
<totfact> 0.35907068E+04</totfact>
</mgrwt>
</event>
<event>
 6    1  0.3062576E-002  0.9167372E+02  0.7546771E-02  0.1385295E+00
          2   -1    0    0  501    0  0.00000000000E+00  0.00000000000E+00  0.19348320754E+04  0.19348320754E+04  0.00000000000E+00 0.  1.
         -2   -1    0    0    0  501 -0.00000000000E+00 -0.00000000000E+00 -0.21338318863E+01  0.21338318863E+01  0.00000000000E+00 0. -1.
         23    2    1    2    0    0  0.29164521581E+01  0.20359109702E+02  0.18262221857E+04  0.18285216823E+04  0.89336846425E+02 0.  0.
         11    1    3    3    0    0  0.26646756267E+02 -0.20964403468E+02  0.37852247158E+03  0.38003791564E+03  0.00000000000E+00 0. -1.
        -11    1    3    3    0    0 -0.23730304109E+02  0.41323513170E+02  0.14476997141E+04  0.14484837667E+04  0.00000000000E+00 0.  1.
         22    1    1    2    0    0 -0.29164521581E+01 -0.20359109702E+02  0.10647605781E+03  0.10844422496E+03  0.00000000000E+00 0. -1.
<mgrwt>
<rscale>  0 0.63092258E+02</rscale>
<asrwt>0</asrwt>
<pdfrwt beam="1">  1        2 0.29766507E+00 0.91673721E+02</pdfrwt>
<pdfrwt beam="2">  1       -2 0.32828338E-03 0.91673721E+02</pdfrwt>
<totfact> 0.78204022E+04</totfact>
</mgrwt>
</event>
<event>
 6    1  0.3062576E-002  0.9510096E+02  0.7546771E-02  0.1390685E+00
         -2   -1    0    0    0  501 -0.00000000000E+00  0.00000000000E+00  0.42280815177E+01  0.42280815177E+01  0.00000000000E+00 0.  1.
          2   -1    0    0  501    0  0.00000000000E+00 -0.00000000000E+00 -0.82449602304E+03  0.82449602304E+03  0.00000000000E+00 0. -1.
         23    2    1    2    0    0 -0.15721967728E+02  0.61703574375E+01 -0.76620566470E+03  0.77208504246E+03  0.93589201253E+02 0.  0.
         11    1    3    3    0    0 -0.36343224675E+02  0.40260498735E+02 -0.38469815800E+03  0.38850278056E+03  0.00000000000E+00 0. -1.
        -11    1    3    3    0    0  0.20621256947E+02 -0.34090141297E+02 -0.38150750670E+03  0.38358226189E+03  0.00000000000E+00 0.  1.
         22    1    1    2    0    0  0.15721967728E+02 -0.61703574375E+01 -0.54062276826E+02  0.56639062102E+02  0.00000000000E+00 0.  1.
<mgrwt>
<rscale>  0 0.61736578E+02</rscale>
<asrwt>0</asrwt>
<pdfrwt beam="1">  1        2 0.12684553E+00 0.95100958E+02</pdfrwt>
<pdfrwt beam="2">  1       -2 0.65047415E-03 0.95100958E+02</pdfrwt>
<totfact> 0.11935681E+05</totfact>
</mgrwt>
</event>
<event>
 6    1  0.3062576E-002  0.1101210E+03  0.7546771E-02  0.1372926E+00
         -1   -1    0    0    0  501 -0.00000000000E+00  0.00000000000E+00  0.92835382673E+01  0.92835382673E+01  0.00000000000E+00 0.  1.
          1   -1    0    0  501    0  0.00000000000E+00 -0.00000000000E+00 -0.79149873182E+03  0.79149873182E+03  0.00000000000E+00 0. -1.
         23    2    1    2    0    0  0.79551401359E+01 -0.12149277461E+02 -0.77786717015E+03  0.78562329568E+03  0.10915923745E+03 0.  0.
         13    1    3    3    0    0  0.53850845938E+01 -0.28053648339E+02 -0.50052722520E+02  0.57630559193E+02  0.00000000000E+00 0.  1.
        -13    1    3    3    0    0  0.25700555421E+01  0.15904370878E+02 -0.72781444763E+03  0.72799273649E+03  0.00000000000E+00 0. -1.
         22    1    1    2    0    0 -0.79551401359E+01  0.12149277461E+02 -0.43480233949E+01  0.15158974400E+02  0.00000000000E+00 0.  1.
<mgrwt>
<rscale>  0 0.66360449E+02</rscale>
<asrwt>0</asrwt>
<pdfrwt beam="1">  1        1 0.12176903E+00 0.11012097E+03</pdfrwt>
<pdfrwt beam="2">  1       -1 0.14282368E-02 0.11012097E+03</pdfrwt>
<totfact> 0.24387073E+04</totfact>
</mgrwt>
</event>
<event>
 6    1  0.3062576E-002  0.9360058E+02  0.7546771E-02  0.1420161E+00
          4   -1    0    0  501    0  0.00000000000E+00  0.00000000000E+00  0.29724654035E+02  0.29724654035E+02  0.00000000000E+00 0. -1.
         -4   -1    0    0    0  501 -0.00000000000E+00 -0.00000000000E+00 -0.97957570764E+02  0.97957570764E+02  0.00000000000E+00 0.  1.
         23    2    1    2    0    0 -0.10232685467E+02 -0.44241352191E+01 -0.49501116339E+02  0.10588403290E+03  0.92934315943E+02 0.  0.
         13    1    3    3    0    0 -0.23840350652E+02 -0.13819220117E+02 -0.72498536844E+02  0.77558822892E+02  0.00000000000E+00 0.  1.
        -13    1    3    3    0    0  0.13607665186E+02  0.93950848983E+01  0.22997420505E+02  0.28325210007E+02  0.00000000000E+00 0. -1.
         22    1    1    2    0    0  0.10232685467E+02  0.44241352191E+01 -0.18731800390E+02  0.21798191901E+02  0.00000000000E+00 0.  1.
<mgrwt>
<rscale>  0 0.54986922E+02</rscale>
<asrwt>0</asrwt>
<pdfrwt beam="1">  1        4 0.45730237E-02 0.93600576E+02</pdfrwt>
<pdfrwt beam="2">  1       -4 0.15070396E-01 0.93600576E+02</pdfrwt>
<totfact> 0.15020902E+04</totfact>
</mgrwt>
</event>
<event>
 6    1  0.3062576E-002  0.1020815E+03  0.7546771E-02  0.1318040E+00
          4   -1    0    0  501    0  0.00000000000E+00  0.00000000000E+00  0.94742262901E+02  0.94742262901E+02  0.00000000000E+00 0. -1.
         -4   -1    0    0    0  501 -0.00000000000E+00 -0.00000000000E+00 -0.89712839191E+02  0.89712839191E+02  0.00000000000E+00 0.  1.
         23    2    1    2    0    0 -0.14074548599E+02  0.44661970082E+02  0.55014417579E+02  0.11596215281E+03  0.90707498322E+02 0.  0.
         13    1    3    3    0    0 -0.16879865815E+01 -0.20406181810E+02  0.44381925799E+02  0.48877570443E+02  0.00000000000E+00 0.  1.
        -13    1    3    3    0    0 -0.12386562017E+02  0.65068151892E+02  0.10632491779E+02  0.67084582362E+02  0.00000000000E+00 0. -1.
         22    1    1    2    0    0  0.14074548599E+02 -0.44661970082E+02 -0.49984993869E+02  0.68492949287E+02  0.00000000000E+00 0.  1.
<mgrwt>
<rscale>  0 0.84010740E+02</rscale>
<asrwt>0</asrwt>
<pdfrwt beam="1">  1        4 0.14575733E-01 0.10208151E+03</pdfrwt>
<pdfrwt beam="2">  1       -4 0.13801975E-01 0.10208151E+03</pdfrwt>
<totfact> 0.26425971E+03</totfact>
</mgrwt>
</event>
<event>
 6    1  0.3062576E-002  0.9710056E+02  0.7546771E-02  0.1346751E+00
          2   -1    0    0  501    0  0.00000000000E+00  0.00000000000E+00  0.19897373826E+03  0.19897373826E+03  0.00000000000E+00 0. -1.
         -2   -1    0    0    0  501 -0.00000000000E+00 -0.00000000000E+00 -0.21375781835E+02  0.21375781835E+02  0.00000000000E+00 0.  1.
         23    2    1    2    0    0  0.87839129343E+01  0.31697000347E+02  0.14024627146E+03  0.17057999803E+03  0.91360068466E+02 0.  0.
         13    1    3    3    0    0 -0.30861120697E+02  0.31619421938E+02  0.29957501395E+02  0.53382099099E+02  0.00000000000E+00 0. -1.
        -13    1    3    3    0    0  0.39645033631E+02  0.77578408082E-01  0.11028877007E+03  0.11719789893E+03  0.00000000000E+00 0.  1.
         22    1    1    2    0    0 -0.87839129343E+01 -0.31697000347E+02  0.37351684965E+02  0.49769522071E+02  0.00000000000E+00 0.  1.
<mgrwt>
<rscale>  0 0.74077708E+02</rscale>
<asrwt>0</asrwt>
<pdfrwt beam="1">  1        2 0.30611343E-01 0.97100562E+02</pdfrwt>
<pdfrwt beam="2">  1       -2 0.32885820E-02 0.97100562E+02</pdfrwt>
<totfact> 0.55413100E+04</totfact>
</mgrwt>
</event>
<event>
 6    1  0.3062576E-002  0.9515709E+02  0.7546771E-02  0.1362707E+00
          2   -1    0    0  501    0  0.00000000000E+00  0.00000000000E+00  0.18075630336E+02  0.18075630336E+02  0.00000000000E+00 0. -1.
         -2   -1    0    0    0  501 -0.00000000000E+00 -0.00000000000E+00 -0.23966592063E+03  0.23966592063E+03  0.00000000000E+00 0.  1.
         23    2    1    2    0    0  0.25949526353E+02 -0.61596396203E+01 -0.12245291120E+03  0.15507929396E+03  0.91343050517E+02 0.  0.
         11    1    3    3    0    0 -0.42860267499E+01  0.30975540127E+02 -0.99611286330E+01  0.32818869498E+02  0.00000000000E+00 0. -1.
        -11    1    3    3    0    0  0.30235553103E+02 -0.37135179748E+02 -0.11249178256E+03  0.12226042446E+03  0.00000000000E+00 0.  1.
         22    1    1    2    0    0 -0.25949526353E+02  0.61596396203E+01 -0.99137379098E+02  0.10266225700E+03  0.00000000000E+00 0. -1.
<mgrwt>
<rscale>  0 0.69237109E+02</rscale>
<asrwt>0</asrwt>
<pdfrwt beam="1">  1        2 0.27808661E-02 0.95157091E+02</pdfrwt>
<pdfrwt beam="2">  1       -2 0.36871681E-01 0.95157091E+02</pdfrwt>
<totfact> 0.21407106E+04</totfact>
</mgrwt>
</event>
<event>
 6    1  0.3062576E-002  0.9397597E+02  0.7546771E-02  0.1408620E+00
         -2   -1    0    0    0  501 -0.00000000000E+00  0.00000000000E+00  0.65993280977E+02  0.65993280977E+02  0.00000000000E+00 0.  1.
          2   -1    0    0  501    0  0.00000000000E+00 -0.00000000000E+00 -0.43683643580E+02  0.43683643580E+02  0.00000000000E+00 0. -1.
         23    2    1    2    0    0  0.95748654601E+01 -0.90480127298E+01  0.21914867121E+02  0.96497378794E+02  0.93048042055E+02 0.  0.
         11    1    3    3    0    0 -0.28003456827E+02  0.95353028784E+01 -0.21174399192E+02  0.36379537880E+02  0.00000000000E+00 0. -1.
        -11    1    3    3    0    0  0.37578322287E+02 -0.18583315608E+02  0.43089266313E+02  0.60117840915E+02  0.00000000000E+00 0.  1.
         22    1    1    2    0    0 -0.95748654601E+01  0.90480127298E+01  0.39477027598E+00  0.13179545763E+02  0.00000000000E+00 0.  1.
<mgrwt>
<rscale>  0 0.57502800E+02</rscale>
<asrwt>0</asrwt>
<pdfrwt beam="1">  1        2 0.67205606E-02 0.93975969E+02</pdfrwt>
<pdfrwt beam="2">  1       -2 0.10152812E-01 0.93975969E+02</pdfrwt>
<totfact> 0.59267167E+04</totfact>
</mgrwt>
</event>
<event>
 6    1  0.3062576E-002  0.1082687E+03  0.7546771E-02  0.1297595E+00
         -1   -1    0    0    0  501 -0.00000000000E+00  0.00000000000E+00  0.13866817234E+02  0.13866817234E+02  0.00000000000E+00 0.  1.
          1   -1    0    0  501    0  0.00000000000E+00 -0.00000000000E+00 -0.74125715153E+03  0.74125715153E+03  0.00000000000E+00 0. -1.
         23    2    1    2    0    0 -0.54117655590E+02  0.17752818947E+02 -0.65043659909E+03  0.65938598994E+03  0.92077310270E+02 0.  0.
         11    1    3    3    0    0 -0.16147145331E+02  0.38637712848E+02 -0.11839671872E+03  0.12558417958E+03  0.00000000000E+00 0.  1.
        -11    1    3    3    0    0 -0.37970510259E+02 -0.20884893900E+02 -0.53203988037E+03  0.53380181036E+03  0.00000000000E+00 0. -1.
         22    1    1    2    0    0  0.54117655590E+02 -0.17752818947E+02 -0.76953735207E+02  0.95737978825E+02  0.00000000000E+00 0.  1.
<mgrwt>
<rscale>  0 0.92206255E+02</rscale>
<asrwt>0</asrwt>
<pdfrwt beam="1">  1        1 0.11403960E+00 0.10826871E+03</pdfrwt>
<pdfrwt beam="2">  1       -1 0.21333559E-02 0.10826871E+03</pdfrwt>
<totfact> 0.15101195E+04</totfact>
</mgrwt>
</event>
<event>
 6    1  0.3062576E-002  0.9260223E+02  0.7546771E-02  0.1399450E+00
          4   -1    0    0  501    0  0.00000000000E+00  0.00000000000E+00  0.98879542289E+03  0.98879542289E+03  0.00000000000E+00 0. -1.
         -4   -1    0    0    0  501 -0.00000000000E+00 -0.00000000000E+00 -0.66558639113E+01  0.66558639113E+01  0.00000000000E+00 0.  1.
         23    2    1    2    0    0 -0.14263442457E+02 -0.70420743524E+01  0.97239999205E+03  0.97679932267E+03  0.91225739932E+02 0.  0.
         11    1    3    3    0    0 -0.21531800130E+02 -0.31603035727E+02  0.88232513101E+03  0.88315344482E+03  0.00000000000E+00 0. -1.
        -11    1    3    3    0    0  0.72683576734E+01  0.24560961375E+02  0.90074861041E+02  0.93645877851E+02  0.00000000000E+00 0.  1.
         22    1    1    2    0    0  0.14263442457E+02  0.70420743524E+01  0.97395669214E+01  0.18651964125E+02  0.00000000000E+00 0.  1.
<mgrwt>
<rscale>  0 0.59616158E+02</rscale>
<asrwt>0</asrwt>
<pdfrwt beam="1">  1        4 0.15212226E+00 0.92602226E+02</pdfrwt>
<pdfrwt beam="2">  1       -4 0.10239798E-02 0.92602226E+02</pdfrwt>
<totfact> 0.13220758E+03</totfact>
</mgrwt>
</event>
<event>
 6    1  0.3062576E-002  0.9548406E+02  0.7546771E-02  0.1389404E+00
         -1   -1    0    0    0  501 -0.00000000000E+00  0.00000000000E+00  0.24132994499E+03  0.24132994499E+03  0.00000000000E+00 0.  1.
          1   -1    0    0  501    0  0.00000000000E+00 -0.00000000000E+00 -0.13115286997E+02  0.13115286997E+02  0.00000000000E+00 0. -1.
         23    2    1    2    0    0 -0.69430243190E+01  0.15554797683E+02  0.19337057386E+03  0.21566034426E+03  0.93952370541E+02 0.  0.
         13    1    3    3    0    0  0.25771067441E+02 -0.20022985910E+02  0.26830067662E+02  0.42248318458E+02  0.00000000000E+00 0. -1.
        -13    1    3    3    0    0 -0.32714091760E+02  0.35577783592E+02  0.16654050620E+03  0.17341202580E+03  0.00000000000E+00 0.  1.
         22    1    1    2    0    0  0.69430243190E+01 -0.15554797683E+02  0.34844084133E+02  0.38784887736E+02  0.00000000000E+00 0.  1.
<mgrwt>
<rscale>  0 0.62055080E+02</rscale>
<asrwt>0</asrwt>
<pdfrwt beam="1">  1        1 0.20177366E-02 0.95484058E+02</pdfrwt>
<pdfrwt beam="2">  1       -1 0.37127680E-01 0.95484058E+02</pdfrwt>
<totfact> 0.36888551E+04</totfact>
</mgrwt>
</event>
<event>
 6    1  0.3062576E-002  0.9102887E+02  0.7546771E-02  0.1400939E+00
         -2   -1    0    0    0  501 -0.00000000000E+00  0.00000000000E+00  0.35962425528E+01  0.35962425528E+01  0.00000000000E+00 0.  1.
          2   -1    0    0  501    0  0.00000000000E+00 -0.00000000000E+00 -0.85815581221E+03  0.85815581221E+03  0.00000000000E+00 0. -1.
         23    2    1    2    0    0 -0.61488310207E+01  0.15156222361E+02 -0.78671098228E+03  0.79195986317E+03  0.89547395397E+02 0.  0.
         11    1    3    3    0    0  0.24155576112E+02  0.10662502330E+02 -0.69016282993E+03  0.69066772955E+03  0.00000000000E+00 0. -1.
        -11    1    3    3    0    0 -0.30304407133E+02  0.44937200307E+01 -0.96548152350E+02  0.10129213362E+03  0.00000000000E+00 0.  1.
         22    1    1    2    0    0  0.61488310207E+01 -0.15156222361E+02 -0.67848587369E+02  0.69792191592E+02  0.00000000000E+00 0. -1.
<mgrwt>
<rscale>  0 0.59265743E+02</rscale>
<asrwt>0</asrwt>
<pdfrwt beam="1">  1        2 0.13202399E+00 0.91028870E+02</pdfrwt>
<pdfrwt beam="2">  1       -2 0.55326801E-03 0.91028870E+02</pdfrwt>
<totfact> 0.14168011E+05</totfact>
</mgrwt>
</event>
<event>
 6    1  0.3062576E-002  0.8892402E+02  0.7546771E-02  0.1393713E+00
         -1   -1    0    0    0  501 -0.00000000000E+00  0.00000000000E+00  0.26924355575E+02  0.26924355575E+02  0.00000000000E+00 0.  1.
          1   -1    0    0  501    0  0.00000000000E+00 -0.00000000000E+00 -0.22100678881E+03  0.22100678881E+03  0.00000000000E+00 0. -1.
         23    2    1    2    0    0 -0.13273319535E+02  0.14531444036E+02 -0.20638102364E+03  0.22472340423E+03  0.86718727008E+02 0.  0.
         13    1    3    3    0    0 -0.45450802668E+02 -0.10017121132E+02 -0.86973242397E+02  0.98643109602E+02  0.00000000000E+00 0.  1.
        -13    1    3    3    0    0  0.32177483133E+02  0.24548565169E+02 -0.11940778124E+03  0.12608029463E+03  0.00000000000E+00 0. -1.
         22    1    1    2    0    0  0.13273319535E+02 -0.14531444036E+02  0.12298590402E+02  0.23207740156E+02  0.00000000000E+00 0.  1.
<mgrwt>
<rscale>  0 0.60992496E+02</rscale>
<asrwt>0</asrwt>
<pdfrwt beam="1">  1        1 0.34001043E-01 0.88924021E+02</pdfrwt>
<pdfrwt beam="2">  1       -1 0.41422087E-02 0.88924021E+02</pdfrwt>
<totfact> 0.26625574E+04</totfact>
</mgrwt>
</event>
<event>
 6    1  0.3062576E-002  0.9203521E+02  0.7546771E-02  0.1415686E+00
         -1   -1    0    0    0  501 -0.00000000000E+00  0.00000000000E+00  0.27511504794E+02  0.27511504794E+02  0.00000000000E+00 0.  1.
          1   -1    0    0  501    0  0.00000000000E+00 -0.00000000000E+00 -0.15006679584E+03  0.15006679584E+03  0.00000000000E+00 0. -1.
         23    2    1    2    0    0  0.75102158008E+01 -0.10073417487E+02 -0.13265646516E+03  0.16145655135E+03  0.91173478303E+02 0.  0.
         13    1    3    3    0    0 -0.33521211458E+02 -0.18375573552E+02 -0.10378992736E+03  0.11060597788E+03  0.00000000000E+00 0. -1.
        -13    1    3    3    0    0  0.41031427259E+02  0.83021560652E+01 -0.28866537792E+02  0.50850573470E+02  0.00000000000E+00 0.  1.
         22    1    1    2    0    0 -0.75102158008E+01  0.10073417487E+02  0.10101174115E+02  0.16121749277E+02  0.00000000000E+00 0.  1.
<mgrwt>
<rscale>  0 0.55944243E+02</rscale>
<asrwt>0</asrwt>
<pdfrwt beam="1">  1        1 0.23087199E-01 0.92035212E+02</pdfrwt>
<pdfrwt beam="2">  1       -1 0.42325392E-02 0.92035212E+02</pdfrwt>
<totfact> 0.41759599E+04</totfact>
</mgrwt>
</event>
<event>
 6    1  0.3062576E-002  0.9998938E+02  0.7546771E-02  0.1328312E+00
          1   -1    0    0  501    0  0.00000000000E+00  0.00000000000E+00  0.42189472647E+03  0.42189472647E+03  0.00000000000E+00 0. -1.
         -1   -1    0    0    0  501 -0.00000000000E+00 -0.00000000000E+00 -0.12795168145E+02  0.12795168145E+02  0.00000000000E+00 0.  1.
         23    2    1    2    0    0 -0.33194385623E+02 -0.24925434315E+02  0.33671170432E+03  0.35124442787E+03  0.90965552668E+02 0.  0.
         13    1    3    3    0    0 -0.48167747394E+02 -0.27956295333E+02  0.32981271576E+03  0.33448185873E+03  0.00000000000E+00 0. -1.
        -13    1    3    3    0    0  0.14973361771E+02  0.30308610186E+01  0.68989885560E+01  0.16762569145E+02  0.00000000000E+00 0.  1.
         22    1    1    2    0    0  0.33194385623E+02  0.24925434315E+02  0.72387854004E+02  0.83445466743E+02  0.00000000000E+00 0. -1.
<mgrwt>
<rscale>  0 0.80261195E+02</rscale>
<asrwt>0</asrwt>
<pdfrwt beam="1">  1        1 0.64906870E-01 0.99989381E+02</pdfrwt>
<pdfrwt beam="2">  1       -1 0.19684877E-02 0.99989381E+02</pdfrwt>
<totfact> 0.35622586E+04</totfact>
</mgrwt>
</event>
<event>
 6    1  0.3062576E-002  0.8147987E+02  0.7546771E-02  0.1438838E+00
          2   -1    0    0  501    0  0.00000000000E+00  0.00000000000E+00  0.16644532483E+04  0.16644532483E+04  0.00000000000E+00 0. -1.
         -2   -1    0    0    0  501 -0.00000000000E+00 -0.00000000000E+00 -0.18479227259E+01  0.18479227259E+01  0.00000000000E+00 0.  1.
         23    2    1    2    0    0  0.12518021991E+02  0.23116273559E+01  0.16140374274E+04  0.16160927532E+04  0.80479346042E+02 0.  0.
         13    1    3    3    0    0 -0.62283694504E+00 -0.21267148344E+02  0.14228598641E+04  0.14230189291E+04  0.00000000000E+00 0. -1.
        -13    1    3    3    0    0  0.13140858936E+02  0.23578775700E+02  0.19117756330E+03  0.19307382408E+03  0.00000000000E+00 0.  1.
         22    1    1    2    0    0 -0.12518021991E+02 -0.23116273559E+01  0.48567898138E+02  0.50208417872E+02  0.00000000000E+00 0. -1.
<mgrwt>
<rscale>  0 0.51226188E+02</rscale>
<asrwt>0</asrwt>
<pdfrwt beam="1">  1        2 0.25606853E+00 0.81479873E+02</pdfrwt>
<pdfrwt beam="2">  1       -2 0.28429714E-03 0.81479873E+02</pdfrwt>
<totfact> 0.12877484E+05</totfact>
</mgrwt>
</event>
<event>
 6    1  0.3062576E-002  0.9182673E+02  0.7546771E-02  0.1427352E+00
          2   -1    0    0  501    0  0.00000000000E+00  0.00000000000E+00  0.36502473379E+03  0.36502473379E+03  0.00000000000E+00 0. -1.
         -2   -1    0    0    0  501 -0.00000000000E+00 -0.00000000000E+00 -0.97351957547E+01  0.97351957547E+01  0.00000000000E+00 0.  1.
         23    2    1    2    0    0  0.41771696845E+01  0.97169280203E+01  0.35185418793E+03  0.36363927007E+03  0.91215578367E+02 0.  0.
         13    1    3    3    0    0 -0.29148279857E+02  0.23935692543E+02  0.70438055336E+02  0.79900308107E+02  0.00000000000E+00 0.  1.
        -13    1    3    3    0    0  0.33325449542E+02 -0.14218764523E+02  0.28141613260E+03  0.28373896197E+03  0.00000000000E+00 0. -1.
         22    1    1    2    0    0 -0.41771696845E+01 -0.97169280203E+01  0.34353501006E+01  0.11120659470E+02  0.00000000000E+00 0.  1.
<mgrwt>
<rscale>  0 0.53495200E+02</rscale>
<asrwt>0</asrwt>
<pdfrwt beam="1">  1        2 0.56157641E-01 0.91826735E+02</pdfrwt>
<pdfrwt beam="2">  1       -2 0.14977227E-02 0.91826735E+02</pdfrwt>
<totfact> 0.90301558E+04</totfact>
</mgrwt>
</event>
<event>
 6    1  0.3062576E-002  0.8881531E+02  0.7546771E-02  0.1423572E+00
          2   -1    0    0  501    0  0.00000000000E+00  0.00000000000E+00  0.35595914753E+03  0.35595914753E+03  0.00000000000E+00 0.  1.
         -2   -1    0    0    0  501 -0.00000000000E+00 -0.00000000000E+00 -0.98216864335E+01  0.98216864335E+01  0.00000000000E+00 0. -1.
         23    2    1    2    0    0  0.45309384895E+01 -0.11524899182E+02  0.34099562125E+03  0.35237220906E+03  0.87947753245E+02 0.  0.
         13    1    3    3    0    0 -0.25686796864E+02 -0.39293942689E+01  0.29462003694E+02  0.39284365008E+02  0.00000000000E+00 0. -1.
        -13    1    3    3    0    0  0.30217735353E+02 -0.75955049135E+01  0.31153361756E+03  0.31308784405E+03  0.00000000000E+00 0.  1.
         22    1    1    2    0    0 -0.45309384895E+01  0.11524899182E+02  0.51418398427E+01  0.13408624901E+02  0.00000000000E+00 0. -1.
<mgrwt>
<rscale>  0 0.54272187E+02</rscale>
<asrwt>0</asrwt>
<pdfrwt beam="1">  1        2 0.54762936E-01 0.88815314E+02</pdfrwt>
<pdfrwt beam="2">  1       -2 0.15110290E-02 0.88815314E+02</pdfrwt>
<totfact> 0.91105152E+04</totfact>
</mgrwt>
</event>
<event>
 6    1  0.3062576E-002  0.9721131E+02  0.7546771E-02  0.1387891E+00
          2   -1    0    0  501    0  0.00000000000E+00  0.00000000000E+00  0.13514831165E+04  0.13514831165E+04  0.00000000000E+00 0. -1.
         -2   -1    0    0    0  501 -0.00000000000E+00 -0.00000000000E+00 -0.59835191817E+01  0.59835191817E+01  0.00000000000E+00 0.  1.
         23    2    1    2    0    0  0.91753112995E+01 -0.13762115769E+02  0.13334839430E+04  0.13370226117E+04  0.95793819390E+02 0.  0.
         11    1    3    3    0    0 -0.42485968600E+01 -0.52685459782E+02  0.91265499006E+03  0.91418430261E+03  0.00000000000E+00 0. -1.
        -11    1    3    3    0    0  0.13423908159E+02  0.38923344013E+02  0.42082895291E+03  0.42283830908E+03  0.00000000000E+00 0.  1.
         22    1    1    2    0    0 -0.91753112995E+01  0.13762115769E+02  0.12015654358E+02  0.20444024005E+02  0.00000000000E+00 0.  1.
<mgrwt>
<rscale>  0 0.62434345E+02</rscale>
<asrwt>0</asrwt>
<pdfrwt beam="1">  1        2 0.20792024E+00 0.97211306E+02</pdfrwt>
<pdfrwt beam="2">  1       -2 0.92054249E-03 0.97211306E+02</pdfrwt>
<totfact> 0.36552676E+04</totfact>
</mgrwt>
</event>
<event>
 6    1  0.3062576E-002  0.9354606E+02  0.7546771E-02  0.1384441E+00
         -2   -1    0    0    0  501 -0.00000000000E+00  0.00000000000E+00  0.10367937219E+02  0.10367937219E+02  0.00000000000E+00 0.  1.
          2   -1    0    0  501    0  0.00000000000E+00 -0.00000000000E+00 -0.34015966099E+03  0.34015966099E+03  0.00000000000E+00 0. -1.
         23    2    1    2    0    0  0.94283517394E+01  0.17212865375E+02 -0.22105145825E+03  0.24003044034E+03  0.91464138033E+02 0.  0.
         11    1    3    3    0    0 -0.28421289656E+02 -0.15818748454E+02 -0.14694129520E+03  0.15049832804E+03  0.00000000000E+00 0. -1.
        -11    1    3    3    0    0  0.37849641395E+02  0.33031613829E+02 -0.74110163047E+02  0.89532112299E+02  0.00000000000E+00 0.  1.
         22    1    1    2    0    0 -0.94283517394E+01 -0.17212865375E+02 -0.10874026552E+03  0.11049715787E+03  0.00000000000E+00 0. -1.
<mgrwt>
<rscale>  0 0.63310625E+02</rscale>
<asrwt>0</asrwt>
<pdfrwt beam="1">  1        2 0.52332255E-01 0.93546059E+02</pdfrwt>
<pdfrwt beam="2">  1       -2 0.15950673E-02 0.93546059E+02</pdfrwt>
<totfact> 0.89106501E+04</totfact>
</mgrwt>
</event>
<event>
 6    1  0.3062576E-002  0.9271988E+02  0.7546771E-02  0.1407022E+00
          2   -1    0    0  501    0  0.00000000000E+00  0.00000000000E+00  0.13875869964E+02  0.13875869964E+02  0.00000000000E+00 0. -1.
         -2   -1    0    0    0  501 -0.00000000000E+00 -0.00000000000E+00 -0.20612121262E+03  0.20612121262E+03  0.00000000000E+00 0.  1.
         23    2    1    2    0    0  0.13706357209E+02  0.31506487479E+01 -0.16241439626E+03  0.18701714659E+03  0.91647074093E+02 0.  0.
         13    1    3    3    0    0  0.73042954691E+01 -0.26791158409E+02 -0.15224075387E+03  0.15475259623E+03  0.00000000000E+00 0.  1.
        -13    1    3    3    0    0  0.64020617396E+01  0.29941807157E+02 -0.10173642392E+02  0.32264550358E+02  0.00000000000E+00 0. -1.
         22    1    1    2    0    0 -0.13706357209E+02 -0.31506487479E+01 -0.29830946399E+02  0.32979935999E+02  0.00000000000E+00 0. -1.
<mgrwt>
<rscale>  0 0.57863597E+02</rscale>
<asrwt>0</asrwt>
<pdfrwt beam="1">  1        2 0.21347495E-02 0.92719885E+02</pdfrwt>
<pdfrwt beam="2">  1       -2 0.31710952E-01 0.92719885E+02</pdfrwt>
<totfact> 0.40035512E+04</totfact>
</mgrwt>
</event>
<event>
 6    1  0.3062576E-002  0.9200916E+02  0.7546771E-02  0.1397888E+00
         -2   -1    0    0    0  501 -0.00000000000E+00  0.00000000000E+00  0.51798799494E+02  0.51798799494E+02  0.00000000000E+00 0.  1.
          2   -1    0    0  501    0  0.00000000000E+00 -0.00000000000E+00 -0.93285225184E+02  0.93285225184E+02  0.00000000000E+00 0. -1.
         23    2    1    2    0    0 -0.73387116378E+01  0.14916040082E+02 -0.67568869054E+02  0.11415444673E+03  0.90494976118E+02 0.  0.
         13    1    3    3    0    0 -0.25638640323E+02  0.45269994320E+02 -0.22155973209E+02  0.56547320114E+02  0.00000000000E+00 0.  1.
        -13    1    3    3    0    0  0.18299928685E+02 -0.30353954238E+02 -0.45412895846E+02  0.57607126615E+02  0.00000000000E+00 0. -1.
         22    1    1    2    0    0  0.73387116378E+01 -0.14916040082E+02  0.26082443364E+02  0.30929577949E+02  0.00000000000E+00 0.  1.
<mgrwt>
<rscale>  0 0.59986668E+02</rscale>
<asrwt>0</asrwt>
<pdfrwt beam="1">  1        2 0.14351573E-01 0.92009161E+02</pdfrwt>
<pdfrwt beam="2">  1       -2 0.79690462E-02 0.92009161E+02</pdfrwt>
<totfact> 0.34184410E+04</totfact>
</mgrwt>
</event>
<event>
 6    1  0.3062576E-002  0.9128157E+02  0.7546771E-02  0.1429912E+00
          2   -1    0    0  501    0  0.00000000000E+00  0.00000000000E+00  0.19419171597E+03  0.19419171597E+03  0.00000000000E+00 0.  1.
         -2   -1    0    0    0  501 -0.00000000000E+00 -0.00000000000E+00 -0.13300146604E+02  0.13300146604E+02  0.00000000000E+00 0. -1.
         23    2    1    2    0    0 -0.11751407676E+01 -0.10289802711E+02  0.16299823492E+03  0.18681742393E+03  0.90692140236E+02 0.  0.
         11    1    3    3    0    0 -0.40715305140E+02  0.12401729343E+02  0.54649437486E+02  0.69268318739E+02  0.00000000000E+00 0. -1.
        -11    1    3    3    0    0  0.39540164373E+02 -0.22691532054E+02  0.10834879744E+03  0.11754910519E+03  0.00000000000E+00 0.  1.
         22    1    1    2    0    0  0.11751407676E+01  0.10289802711E+02  0.17893334439E+02  0.20674438638E+02  0.00000000000E+00 0.  1.
<mgrwt>
<rscale>  0 0.52977634E+02</rscale>
<asrwt>0</asrwt>
<pdfrwt beam="1">  1        2 0.29875647E-01 0.91281572E+02</pdfrwt>
<pdfrwt beam="2">  1       -2 0.20461765E-02 0.91281572E+02</pdfrwt>
<totfact> 0.11210299E+05</totfact>
</mgrwt>
</event>
<event>
 6    1  0.3062576E-002  0.9456618E+02  0.7546771E-02  0.1412965E+00
          4   -1    0    0  501    0  0.00000000000E+00  0.00000000000E+00  0.42921024897E+02  0.42921024897E+02  0.00000000000E+00 0. -1.
         -4   -1    0    0    0  501 -0.00000000000E+00 -0.00000000000E+00 -0.82539866437E+02  0.82539866437E+02  0.00000000000E+00 0.  1.
         23    2    1    2    0    0 -0.98953810186E+01  0.69320631990E+01 -0.12011994023E+02  0.95326026219E+02  0.93791210722E+02 0.  0.
         11    1    3    3    0    0  0.27133311023E+02 -0.36441790083E+01 -0.39466245993E+02  0.48032084907E+02  0.00000000000E+00 0.  1.
        -11    1    3    3    0    0 -0.37028692042E+02  0.10576242207E+02  0.27454251971E+02  0.47293941312E+02  0.00000000000E+00 0. -1.
         22    1    1    2    0    0  0.98953810186E+01 -0.69320631990E+01 -0.27606847517E+02  0.30134865115E+02  0.00000000000E+00 0.  1.
<mgrwt>
<rscale>  0 0.56537372E+02</rscale>
<asrwt>0</asrwt>
<pdfrwt beam="1">  1        4 0.66032346E-02 0.94566185E+02</pdfrwt>
<pdfrwt beam="2">  1       -4 0.12698441E-01 0.94566185E+02</pdfrwt>
<totfact> 0.11219112E+04</totfact>
</mgrwt>
</event>
<event>
 6    1  0.3062576E-002  0.9503838E+02  0.7546771E-02  0.1385208E+00
         -2   -1    0    0    0  501 -0.00000000000E+00  0.00000000000E+00  0.19424042317E+01  0.19424042317E+01  0.00000000000E+00 0.  1.
          2   -1    0    0  501    0  0.00000000000E+00 -0.00000000000E+00 -0.20426887402E+04  0.20426887402E+04  0.00000000000E+00 0. -1.
         23    2    1    2    0    0  0.15213228725E+02  0.10499774560E+02 -0.19311287078E+04  0.19334658980E+04  0.93223416096E+02 0.  0.
         13    1    3    3    0    0 -0.17479283267E+02  0.96983089005E+01 -0.16912711245E+04  0.16913892512E+04  0.00000000000E+00 0. -1.
        -13    1    3    3    0    0  0.32692511992E+02  0.80146565964E+00 -0.23985758324E+03  0.24207664680E+03  0.00000000000E+00 0.  1.
         22    1    1    2    0    0 -0.15213228725E+02 -0.10499774560E+02 -0.10961762824E+03  0.11116524643E+03  0.00000000000E+00 0. -1.
<mgrwt>
<rscale>  0 0.63114320E+02</rscale>
<asrwt>0</asrwt>
<pdfrwt beam="1">  1        2 0.31426005E+00 0.95038376E+02</pdfrwt>
<pdfrwt beam="2">  1       -2 0.29883119E-03 0.95038376E+02</pdfrwt>
<totfact> 0.78957800E+04</totfact>
</mgrwt>
</event>
<event>
 6    1  0.3062576E-002  0.8523310E+02  0.7546771E-02  0.1421409E+00
          2   -1    0    0  501    0  0.00000000000E+00  0.00000000000E+00  0.12278696907E+03  0.12278696907E+03  0.00000000000E+00 0.  1.
         -2   -1    0    0    0  501 -0.00000000000E+00 -0.00000000000E+00 -0.20782912150E+02  0.20782912150E+02  0.00000000000E+00 0. -1.
         23    2    1    2    0    0 -0.11620265692E+02 -0.86457499976E+01  0.78010213658E+02  0.11554339228E+03  0.83993466991E+02 0.  0.
         13    1    3    3    0    0 -0.29441394826E+02 -0.32461558922E+02  0.73336714750E+02  0.85433145016E+02  0.00000000000E+00 0.  1.
        -13    1    3    3    0    0  0.17821129134E+02  0.23815808925E+02  0.46734989081E+01  0.30110247266E+02  0.00000000000E+00 0. -1.
         22    1    1    2    0    0  0.11620265692E+02  0.86457499976E+01  0.23993843260E+02  0.28026488937E+02  0.00000000000E+00 0. -1.
<mgrwt>
<rscale>  0 0.54723848E+02</rscale>
<asrwt>0</asrwt>
<pdfrwt beam="1">  1        2 0.18890302E-01 0.85233104E+02</pdfrwt>
<pdfrwt beam="2">  1       -2 0.31973712E-02 0.85233104E+02</pdfrwt>
<totfact> 0.96075384E+04</totfact>
</mgrwt>
</event>
<event>
 6    1  0.3062576E-002  0.9374538E+02  0.7546771E-02  0.1392342E+00
          4   -1    0    0  501    0  0.00000000000E+00  0.00000000000E+00  0.75822884391E+02  0.75822884391E+02  0.00000000000E+00 0. -1.
         -4   -1    0    0    0  501 -0.00000000000E+00 -0.00000000000E+00 -0.43471704396E+02  0.43471704396E+02  0.00000000000E+00 0.  1.
         23    2    1    2    0    0  0.69016159802E+01 -0.15722433886E+02  0.15098207413E+02  0.94953424201E+02  0.92159479545E+02 0.  0.
         13    1    3    3    0    0 -0.34090173475E+02  0.16354856635E+01  0.32527859100E+02  0.47147389732E+02  0.00000000000E+00 0. -1.
        -13    1    3    3    0    0  0.40991789455E+02 -0.17357919550E+02 -0.17429651687E+02  0.47806034470E+02  0.00000000000E+00 0.  1.
         22    1    1    2    0    0 -0.69016159802E+01  0.15722433886E+02  0.17252972582E+02  0.24341164585E+02  0.00000000000E+00 0.  1.
<mgrwt>
<rscale>  0 0.61327938E+02</rscale>
<asrwt>0</asrwt>
<pdfrwt beam="1">  1        4 0.11665059E-01 0.93745383E+02</pdfrwt>
<pdfrwt beam="2">  1       -4 0.66879545E-02 0.93745383E+02</pdfrwt>
<totfact> 0.12661213E+04</totfact>
</mgrwt>
</event>
<event>
 6    1  0.3062576E-002  0.9307801E+02  0.7546771E-02  0.1385002E+00
          4   -1    0    0  501    0  0.00000000000E+00  0.00000000000E+00  0.77379015106E+03  0.77379015106E+03  0.00000000000E+00 0. -1.
         -4   -1    0    0    0  501 -0.00000000000E+00 -0.00000000000E+00 -0.44064027520E+01  0.44064027520E+01  0.00000000000E+00 0.  1.
         23    2    1    2    0    0  0.19485762512E+02 -0.31782073294E+01  0.69627761340E+03  0.70247137370E+03  0.90959991188E+02 0.  0.
         11    1    3    3    0    0  0.19344321214E+02  0.34642100993E+02  0.54841687854E+03  0.54985029835E+03  0.00000000000E+00 0. -1.
        -11    1    3    3    0    0  0.14144129846E+00 -0.37820308322E+02  0.14786073486E+03  0.15262107535E+03  0.00000000000E+00 0.  1.
         22    1    1    2    0    0 -0.19485762512E+02  0.31782073294E+01  0.73106134905E+02  0.75725180114E+02  0.00000000000E+00 0.  1.
<mgrwt>
<rscale>  0 0.63166961E+02</rscale>
<asrwt>0</asrwt>
<pdfrwt beam="1">  1        4 0.11904453E+00 0.93078010E+02</pdfrwt>
<pdfrwt beam="2">  1       -4 0.67790873E-03 0.93078010E+02</pdfrwt>
<totfact> 0.44516220E+03</totfact>
</mgrwt>
</event>
<event>
 6    1  0.3062576E-002  0.9295292E+02  0.7546771E-02  0.1412245E+00
          2   -1    0    0  501    0  0.00000000000E+00  0.00000000000E+00  0.10428282347E+03  0.10428282347E+03  0.00000000000E+00 0. -1.
         -2   -1    0    0    0  501 -0.00000000000E+00 -0.00000000000E+00 -0.28706607487E+02  0.28706607487E+02  0.00000000000E+00 0.  1.
         23    2    1    2    0    0  0.11571570079E+02 -0.56223374331E+01  0.76074203823E+02  0.12011465313E+03  0.92058315734E+02 0.  0.
         11    1    3    3    0    0 -0.18016809760E+02 -0.17674479990E+02  0.83570264879E+02  0.87298235084E+02  0.00000000000E+00 0. -1.
        -11    1    3    3    0    0  0.29588379839E+02  0.12052142557E+02 -0.74960610559E+01  0.32816418041E+02  0.00000000000E+00 0.  1.
         22    1    1    2    0    0 -0.11571570079E+02  0.56223374331E+01 -0.49798783974E+00  0.12874777831E+02  0.00000000000E+00 0.  1.
<mgrwt>
<rscale>  0 0.56695806E+02</rscale>
<asrwt>0</asrwt>
<pdfrwt beam="1">  1        2 0.16043511E-01 0.92952920E+02</pdfrwt>
<pdfrwt beam="2">  1       -2 0.44164012E-02 0.92952920E+02</pdfrwt>
<totfact> 0.72992754E+04</totfact>
</mgrwt>
</event>
<event>
 6    1  0.3062576E-002  0.9835928E+02  0.7546771E-02  0.1359344E+00
          1   -1    0    0  501    0  0.00000000000E+00  0.00000000000E+00  0.26180859060E+02  0.26180859060E+02  0.00000000000E+00 0. -1.
         -1   -1    0    0    0  501 -0.00000000000E+00 -0.00000000000E+00 -0.15040942952E+03  0.15040942952E+03  0.00000000000E+00 0.  1.
         23    2    1    2    0    0 -0.16622876259E+02 -0.19405100646E+02 -0.86265303869E+02  0.13082908715E+03  0.94982469154E+02 0.  0.
         11    1    3    3    0    0 -0.79048993817E+01  0.77075189112E+01  0.18893045143E+02  0.21882423010E+02  0.00000000000E+00 0. -1.
        -11    1    3    3    0    0 -0.87179768769E+01 -0.27112619557E+02 -0.10515834901E+03  0.10894666414E+03  0.00000000000E+00 0.  1.
         22    1    1    2    0    0  0.16622876259E+02  0.19405100646E+02 -0.37963266590E+02  0.45761201430E+02  0.00000000000E+00 0.  1.
<mgrwt>
<rscale>  0 0.70220755E+02</rscale>
<asrwt>0</asrwt>
<pdfrwt beam="1">  1        1 0.40278245E-02 0.98359277E+02</pdfrwt>
<pdfrwt beam="2">  1       -1 0.23139912E-01 0.98359277E+02</pdfrwt>
<totfact> 0.31457417E+04</totfact>
</mgrwt>
</event>
<event>
 6    1  0.3062576E-002  0.9572567E+02  0.7546771E-02  0.1365014E+00
         -3   -1    0    0    0  501 -0.00000000000E+00  0.00000000000E+00  0.35159266780E+02  0.35159266780E+02  0.00000000000E+00 0.  1.
          3   -1    0    0  501    0  0.00000000000E+00 -0.00000000000E+00 -0.10672936275E+03  0.10672936275E+03  0.00000000000E+00 0. -1.
         23    2    1    2    0    0 -0.22626322803E+02 -0.11111184805E+02 -0.65411362882E+02  0.11593985490E+03  0.92347142075E+02 0.  0.
         13    1    3    3    0    0 -0.11049494520E+02  0.32812501116E+02 -0.61208220149E+02  0.70322100171E+02  0.00000000000E+00 0. -1.
        -13    1    3    3    0    0 -0.11576828283E+02 -0.43923685921E+02 -0.42031427329E+01  0.45617754732E+02  0.00000000000E+00 0.  1.
         22    1    1    2    0    0  0.22626322803E+02  0.11111184805E+02 -0.61587330863E+01  0.25948774626E+02  0.00000000000E+00 0. -1.
<mgrwt>
<rscale>  0 0.68572971E+02</rscale>
<asrwt>0</asrwt>
<pdfrwt beam="1">  1        3 0.16419902E-01 0.95725668E+02</pdfrwt>
<pdfrwt beam="2">  1       -3 0.54091180E-02 0.95725668E+02</pdfrwt>
<totfact> 0.13280751E+04</totfact>
</mgrwt>
</event>
<event>
 6    1  0.3062576E-002  0.9323483E+02  0.7546771E-02  0.1393318E+00
          2   -1    0    0  501    0  0.00000000000E+00  0.00000000000E+00  0.90735765275E+01  0.90735765275E+01  0.00000000000E+00 0. -1.
         -2   -1    0    0    0  501 -0.00000000000E+00 -0.00000000000E+00 -0.10116584205E+04  0.10116584205E+04  0.00000000000E+00 0.  1.
         23    2    1    2    0    0 -0.12743287858E+02 -0.11527813211E+02 -0.99879256262E+03  0.10031347455E+04  0.91637615558E+02 0.  0.
         13    1    3    3    0    0  0.27197527495E+02  0.15391195183E+02 -0.68063125986E+03  0.68134830028E+03  0.00000000000E+00 0.  1.
        -13    1    3    3    0    0 -0.39940815353E+02 -0.26919008394E+02 -0.31816130275E+03  0.32178644520E+03  0.00000000000E+00 0. -1.
         22    1    1    2    0    0  0.12743287858E+02  0.11527813211E+02 -0.37922813074E+01  0.17597251501E+02  0.00000000000E+00 0. -1.
<mgrwt>
<rscale>  0 0.61089033E+02</rscale>
<asrwt>0</asrwt>
<pdfrwt beam="1">  1        2 0.13959349E-02 0.93234835E+02</pdfrwt>
<pdfrwt beam="2">  1       -2 0.15563975E+00 0.93234835E+02</pdfrwt>
<totfact> 0.24020568E+03</totfact>
</mgrwt>
</event>
<event>
 6    1  0.3062576E-002  0.1069771E+03  0.7546771E-02  0.1301312E+00
         -1   -1    0    0    0  501 -0.00000000000E+00  0.00000000000E+00  0.14419411098E+02  0.14419411098E+02  0.00000000000E+00 0. -1.
          1   -1    0    0  501    0  0.00000000000E+00 -0.00000000000E+00 -0.53893086377E+03  0.53893086377E+03  0.00000000000E+00 0.  1.
         23    2    1    2    0    0 -0.22021018112E+02  0.50541109631E+02 -0.43714131745E+03  0.45004069385E+03  0.91677509223E+02 0.  0.
         13    1    3    3    0    0  0.31374344512E+02  0.29483303380E+02 -0.26774164532E+03  0.27118112639E+03  0.00000000000E+00 0.  1.
        -13    1    3    3    0    0 -0.53395362624E+02  0.21057806251E+02 -0.16939967212E+03  0.17885956745E+03  0.00000000000E+00 0. -1.
         22    1    1    2    0    0  0.22021018112E+02 -0.50541109631E+02 -0.87370135223E+02  0.10330958102E+03  0.00000000000E+00 0.  1.
<mgrwt>
<rscale>  0 0.90639031E+02</rscale>
<asrwt>0</asrwt>
<pdfrwt beam="1">  1        1 0.82912436E-01 0.10697708E+03</pdfrwt>
<pdfrwt beam="2">  1       -1 0.22183711E-02 0.10697708E+03</pdfrwt>
<totfact> 0.22092753E+04</totfact>
</mgrwt>
</event>
<event>
 6    1  0.3062576E-002  0.9811214E+02  0.7546771E-02  0.1350125E+00
          2   -1    0    0  501    0  0.00000000000E+00  0.00000000000E+00  0.50832801396E+03  0.50832801396E+03  0.00000000000E+00 0.  1.
         -2   -1    0    0    0  501 -0.00000000000E+00 -0.00000000000E+00 -0.83758829826E+01  0.83758829826E+01  0.00000000000E+00 0. -1.
         23    2    1    2    0    0 -0.61135371350E+01 -0.29469163725E+02  0.33681670456E+03  0.35081545762E+03  0.93381935570E+02 0.  0.
         13    1    3    3    0    0  0.39757341162E+02 -0.26239881407E+02  0.22357290446E+03  0.22859138471E+03  0.00000000000E+00 0.  1.
        -13    1    3    3    0    0 -0.45870878297E+02 -0.32292823176E+01  0.11324380009E+03  0.12222407291E+03  0.00000000000E+00 0. -1.
         22    1    1    2    0    0  0.61135371350E+01  0.29469163725E+02  0.16313542642E+03  0.16588843932E+03  0.00000000000E+00 0.  1.
<mgrwt>
<rscale>  0 0.73016587E+02</rscale>
<asrwt>0</asrwt>
<pdfrwt beam="1">  1        2 0.78204286E-01 0.98112144E+02</pdfrwt>
<pdfrwt beam="2">  1       -2 0.12885978E-02 0.98112144E+02</pdfrwt>
<totfact> 0.79402482E+04</totfact>
</mgrwt>
</event>
<event>
 6    1  0.3062576E-002  0.9168115E+02  0.7546771E-02  0.1419122E+00
         -2   -1    0    0    0  501 -0.00000000000E+00  0.00000000000E+00  0.10069438122E+02  0.10069438122E+02  0.00000000000E+00 0.  1.
          2   -1    0    0  501    0  0.00000000000E+00 -0.00000000000E+00 -0.28937166950E+03  0.28937166950E+03  0.00000000000E+00 0. -1.
         23    2    1    2    0    0  0.10497052316E+02  0.59258897988E+01 -0.26662682138E+03  0.28194910100E+03  0.90885254000E+02 0.  0.
         13    1    3    3    0    0 -0.23213170963E+02  0.31948156473E+02 -0.19206517052E+03  0.19608305826E+03  0.00000000000E+00 0. -1.
        -13    1    3    3    0    0  0.33710223279E+02 -0.26022266674E+02 -0.74561650858E+02  0.85866042735E+02  0.00000000000E+00 0.  1.
         22    1    1    2    0    0 -0.10497052316E+02 -0.59258897988E+01 -0.12675409993E+02  0.17492006623E+02  0.00000000000E+00 0.  1.
<mgrwt>
<rscale>  0 0.55207089E+02</rscale>
<asrwt>0</asrwt>
<pdfrwt beam="1">  1        2 0.44518714E-01 0.91681152E+02</pdfrwt>
<pdfrwt beam="2">  1       -2 0.15491445E-02 0.91681152E+02</pdfrwt>
<totfact> 0.10969673E+05</totfact>
</mgrwt>
</event>
<event>
 6    1  0.3062576E-002  0.9293227E+02  0.7546771E-02  0.1424630E+00
          1   -1    0    0  501    0  0.00000000000E+00  0.00000000000E+00  0.14582658414E+04  0.14582658414E+04  0.00000000000E+00 0.  1.
         -1   -1    0    0    0  501 -0.00000000000E+00 -0.00000000000E+00 -0.22966704192E+02  0.22966704192E+02  0.00000000000E+00 0. -1.
         23    2    1    2    0    0  0.10324179711E+02  0.25576663469E+01  0.14554675066E+04  0.14584313730E+04  0.92321594295E+02 0.  0.
         11    1    3    3    0    0  0.25582921869E+02  0.40783563488E+02  0.98154031802E+03  0.98272029634E+03  0.00000000000E+00 0.  1.
        -11    1    3    3    0    0 -0.15258742157E+02 -0.38225897141E+02  0.47392718857E+03  0.47571107669E+03  0.00000000000E+00 0. -1.
         22    1    1    2    0    0 -0.10324179711E+02 -0.25576663469E+01 -0.20168369411E+02  0.22801172526E+02  0.00000000000E+00 0. -1.
<mgrwt>
<rscale>  0 0.54053311E+02</rscale>
<asrwt>0</asrwt>
<pdfrwt beam="1">  1        1 0.22434852E+00 0.92932272E+02</pdfrwt>
<pdfrwt beam="2">  1       -1 0.35333402E-02 0.92932272E+02</pdfrwt>
<totfact> 0.22381136E+03</totfact>
</mgrwt>
</event>
<event>
 6    1  0.3062576E-002  0.9204196E+02  0.7546771E-02  0.1398262E+00
          1   -1    0    0  501    0  0.00000000000E+00  0.00000000000E+00  0.11146266161E+03  0.11146266161E+03  0.00000000000E+00 0. -1.
         -1   -1    0    0    0  501 -0.00000000000E+00 -0.00000000000E+00 -0.32332234967E+02  0.32332234967E+02  0.00000000000E+00 0.  1.
         23    2    1    2    0    0 -0.15253015640E+02  0.63116687390E+01  0.85951274468E+02  0.12593388838E+03  0.90549605260E+02 0.  0.
         13    1    3    3    0    0  0.93377656500E+01 -0.37081599350E+02  0.55821871173E+02  0.67663285310E+02  0.00000000000E+00 0.  1.
        -13    1    3    3    0    0 -0.24590781290E+02  0.43393268088E+02  0.30129403295E+02  0.58270603075E+02  0.00000000000E+00 0. -1.
         22    1    1    2    0    0  0.15253015640E+02 -0.63116687390E+01 -0.68208478285E+01  0.17861008187E+02  0.00000000000E+00 0.  1.
<mgrwt>
<rscale>  0 0.59897480E+02</rscale>
<asrwt>0</asrwt>
<pdfrwt beam="1">  1        1 0.17148102E-01 0.92041961E+02</pdfrwt>
<pdfrwt beam="2">  1       -1 0.49741900E-02 0.92041961E+02</pdfrwt>
<totfact> 0.47941663E+04</totfact>
</mgrwt>
</event>
<event>
 6    1  0.3062576E-002  0.9432051E+02  0.7546771E-02  0.1422029E+00
         -2   -1    0    0    0  501 -0.00000000000E+00  0.00000000000E+00  0.29884414667E+02  0.29884414667E+02  0.00000000000E+00 0.  1.
          2   -1    0    0  501    0  0.00000000000E+00 -0.00000000000E+00 -0.11528432637E+03  0.11528432637E+03  0.00000000000E+00 0. -1.
         23    2    1    2    0    0 -0.66074861724E+01  0.82715097675E+01 -0.92747841064E+02  0.13228197212E+03  0.93724497217E+02 0.  0.
         11    1    3    3    0    0  0.41470361750E+02 -0.15707127449E+01 -0.61191555796E+02  0.73936895681E+02  0.00000000000E+00 0.  1.
        -11    1    3    3    0    0 -0.48077847922E+02  0.98422225125E+01 -0.31556285268E+02  0.58345076439E+02  0.00000000000E+00 0. -1.
         22    1    1    2    0    0  0.66074861724E+01 -0.82715097675E+01  0.73479293582E+01  0.12886768920E+02  0.00000000000E+00 0.  1.
<mgrwt>
<rscale>  0 0.54593889E+02</rscale>
<asrwt>0</asrwt>
<pdfrwt beam="1">  1        2 0.17736050E-01 0.94320507E+02</pdfrwt>
<pdfrwt beam="2">  1       -2 0.45976022E-02 0.94320507E+02</pdfrwt>
<totfact> 0.61465251E+04</totfact>
</mgrwt>
</event>
<event>
 6    1  0.3062576E-002  0.9541719E+02  0.7546771E-02  0.1381449E+00
          2   -1    0    0  501    0  0.00000000000E+00  0.00000000000E+00  0.48229691913E+01  0.48229691913E+01  0.00000000000E+00 0. -1.
         -2   -1    0    0    0  501 -0.00000000000E+00 -0.00000000000E+00 -0.70722836007E+03  0.70722836007E+03  0.00000000000E+00 0.  1.
         23    2    1    2    0    0 -0.82604701106E+01 -0.17569670225E+02 -0.62535785696E+03  0.63259535931E+03  0.93421146847E+02 0.  0.
         13    1    3    3    0    0  0.20404761994E+02 -0.29287583249E+02 -0.97477316299E+02  0.10380724463E+03  0.00000000000E+00 0. -1.
        -13    1    3    3    0    0 -0.28665232105E+02  0.11717913024E+02 -0.52788054066E+03  0.52878811468E+03  0.00000000000E+00 0.  1.
         22    1    1    2    0    0  0.82604701106E+01  0.17569670225E+02 -0.77047533918E+02  0.79455969953E+02  0.00000000000E+00 0. -1.
<mgrwt>
<rscale>  0 0.64084404E+02</rscale>
<asrwt>0</asrwt>
<pdfrwt beam="1">  1        2 0.74199585E-03 0.95417186E+02</pdfrwt>
<pdfrwt beam="2">  1       -2 0.10880428E+00 0.95417186E+02</pdfrwt>
<totfact> 0.13698661E+04</totfact>
</mgrwt>
</event>
<event>
 6    1  0.3062576E-002  0.9193920E+02  0.7546771E-02  0.1410573E+00
         -1   -1    0    0    0  501 -0.00000000000E+00  0.00000000000E+00  0.23266279486E+02  0.23266279486E+02  0.00000000000E+00 0. -1.
          1   -1    0    0  501    0  0.00000000000E+00 -0.00000000000E+00 -0.12403422411E+03  0.12403422411E+03  0.00000000000E+00 0.  1.
         23    2    1    2    0    0 -0.12789374483E+02 -0.47594372996E+01 -0.77136304203E+02  0.12001177383E+03  0.90920823190E+02 0.  0.
         13    1    3    3    0    0  0.31677344357E+02 -0.25970788260E+02 -0.23677617835E+02  0.47313481955E+02  0.00000000000E+00 0. -1.
        -13    1    3    3    0    0 -0.44466718840E+02  0.21211350960E+02 -0.53458686369E+02  0.72698291880E+02  0.00000000000E+00 0.  1.
         22    1    1    2    0    0  0.12789374483E+02  0.47594372996E+01 -0.23631640424E+02  0.27288729765E+02  0.00000000000E+00 0.  1.
<mgrwt>
<rscale>  0 0.57066197E+02</rscale>
<asrwt>0</asrwt>
<pdfrwt beam="1">  1        1 0.19082188E-01 0.91939200E+02</pdfrwt>
<pdfrwt beam="2">  1       -1 0.35794277E-02 0.91939200E+02</pdfrwt>
<totfact> 0.67603376E+04</totfact>
</mgrwt>
</event>
<event>
 6    1  0.3062576E-002  0.9431255E+02  0.7546771E-02  0.1380817E+00
         -2   -1    0    0    0  501 -0.00000000000E+00  0.00000000000E+00  0.11002404282E+02  0.11002404282E+02  0.00000000000E+00 0.  1.
          2   -1    0    0  501    0  0.00000000000E+00 -0.00000000000E+00 -0.31809679694E+03  0.31809679694E+03  0.00000000000E+00 0. -1.
         23    2    1    2    0    0  0.63279549421E+01 -0.19302192446E+02 -0.27841092962E+03  0.29395153133E+03  0.92099073787E+02 0.  0.
         13    1    3    3    0    0 -0.25126416215E+02  0.26086291768E+02 -0.76759836818E+02  0.84875814920E+02  0.00000000000E+00 0. -1.
        -13    1    3    3    0    0  0.31454371157E+02 -0.45388484214E+02 -0.20165109280E+03  0.20907571641E+03  0.00000000000E+00 0.  1.
         22    1    1    2    0    0 -0.63279549421E+01  0.19302192446E+02 -0.28683463038E+02  0.35147669892E+02  0.00000000000E+00 0. -1.
<mgrwt>
<rscale>  0 0.64249624E+02</rscale>
<asrwt>0</asrwt>
<pdfrwt beam="1">  1        2 0.48937969E-01 0.94312550E+02</pdfrwt>
<pdfrwt beam="2">  1       -2 0.16926776E-02 0.94312550E+02</pdfrwt>
<totfact> 0.87901304E+04</totfact>
</mgrwt>
</event>
<event>
 6    1  0.3062576E-002  0.9248018E+02  0.7546771E-02  0.1378146E+00
         -4   -1    0    0    0  501 -0.00000000000E+00  0.00000000000E+00  0.18363209476E+03  0.18363209476E+03  0.00000000000E+00 0.  1.
          4   -1    0    0  501    0  0.00000000000E+00 -0.00000000000E+00 -0.18029335076E+02  0.18029335076E+02  0.00000000000E+00 0. -1.
         23    2    1    2    0    0 -0.18430731994E+02  0.12913555942E+02  0.12987753263E+03  0.15943888068E+03  0.89700230674E+02 0.  0.
         13    1    3    3    0    0 -0.44903935267E+02 -0.10942078010E+02  0.34657090897E+02  0.57768559122E+02  0.00000000000E+00 0. -1.
        -13    1    3    3    0    0  0.26473203273E+02  0.23855633952E+02  0.95220441730E+02  0.10167032156E+03  0.00000000000E+00 0.  1.
         22    1    1    2    0    0  0.18430731994E+02 -0.12913555942E+02  0.35725227061E+02  0.42222549158E+02  0.00000000000E+00 0.  1.
<mgrwt>
<rscale>  0 0.64953679E+02</rscale>
<asrwt>0</asrwt>
<pdfrwt beam="1">  1        4 0.27737440E-02 0.92480177E+02</pdfrwt>
<pdfrwt beam="2">  1       -4 0.28251090E-01 0.92480177E+02</pdfrwt>
<totfact> 0.10622595E+04</totfact>
</mgrwt>
</event>
<event>
 6    1  0.3062576E-002  0.9296133E+02  0.7546771E-02  0.1392468E+00
          2   -1    0    0  501    0  0.00000000000E+00  0.00000000000E+00  0.61478209090E+02  0.61478209090E+02  0.00000000000E+00 0. -1.
         -2   -1    0    0    0  501 -0.00000000000E+00 -0.00000000000E+00 -0.50306096854E+02  0.50306096854E+02  0.00000000000E+00 0.  1.
         23    2    1    2    0    0 -0.14270525166E+01  0.17515255308E+02  0.47784709318E+01  0.93084057376E+02  0.91285197627E+02 0.  0.
         11    1    3    3    0    0  0.47203518403E+01  0.17235371905E+02 -0.42135435754E+02  0.45768271896E+02  0.00000000000E+00 0.  1.
        -11    1    3    3    0    0 -0.61474043569E+01  0.27988340248E+00  0.46913906686E+02  0.47315785480E+02  0.00000000000E+00 0. -1.
         22    1    1    2    0    0  0.14270525166E+01 -0.17515255308E+02  0.63936413035E+01  0.18700248568E+02  0.00000000000E+00 0. -1.
<mgrwt>
<rscale>  0 0.61297113E+02</rscale>
<asrwt>0</asrwt>
<pdfrwt beam="1">  1        2 0.94581860E-02 0.92961325E+02</pdfrwt>
<pdfrwt beam="2">  1       -2 0.77393995E-02 0.92961325E+02</pdfrwt>
<totfact> 0.58838165E+04</totfact>
</mgrwt>
</event>
<event>
 6    1  0.3062576E-002  0.8957547E+02  0.7546771E-02  0.1423465E+00
         -2   -1    0    0    0  501 -0.00000000000E+00  0.00000000000E+00  0.11443108106E+02  0.11443108106E+02  0.00000000000E+00 0.  1.
          2   -1    0    0  501    0  0.00000000000E+00 -0.00000000000E+00 -0.35440040543E+03  0.35440040543E+03  0.00000000000E+00 0. -1.
         23    2    1    2    0    0 -0.95996124323E+01 -0.73510353815E+01 -0.34219926966E+03  0.35372885770E+03  0.88755700294E+02 0.  0.
         13    1    3    3    0    0  0.38882915566E+02  0.55884481179E+01 -0.15914471959E+03  0.16392118121E+03  0.00000000000E+00 0. -1.
        -13    1    3    3    0    0 -0.48482527998E+02 -0.12939483499E+02 -0.18305455008E+03  0.18980767650E+03  0.00000000000E+00 0.  1.
         22    1    1    2    0    0  0.95996124323E+01  0.73510353815E+01 -0.75802766330E+00  0.12114655834E+02  0.00000000000E+00 0. -1.
<mgrwt>
<rscale>  0 0.54294599E+02</rscale>
<asrwt>0</asrwt>
<pdfrwt beam="1">  1        2 0.54523140E-01 0.89575469E+02</pdfrwt>
<pdfrwt beam="2">  1       -2 0.17604781E-02 0.89575469E+02</pdfrwt>
<totfact> 0.73669319E+04</totfact>
</mgrwt>
</event>
<event>
 6    1  0.3062576E-002  0.9524101E+02  0.7546771E-02  0.1359104E+00
         -2   -1    0    0    0  501 -0.00000000000E+00  0.00000000000E+00  0.66941389262E+01  0.66941389262E+01  0.00000000000E+00 0.  1.
          2   -1    0    0  501    0  0.00000000000E+00 -0.00000000000E+00 -0.64829670128E+03  0.64829670128E+03  0.00000000000E+00 0. -1.
         23    2    1    2    0    0 -0.76408153109E+01  0.27205562420E+02 -0.57192982917E+03  0.57980563930E+03  0.90952323723E+02 0.  0.
         13    1    3    3    0    0 -0.10029176205E+02  0.49981311878E+02 -0.52618611601E+03  0.52864973716E+03  0.00000000000E+00 0. -1.
        -13    1    3    3    0    0  0.23883608937E+01 -0.22775749458E+02 -0.45743713157E+02  0.51155902148E+02  0.00000000000E+00 0.  1.
         22    1    1    2    0    0  0.76408153109E+01 -0.27205562420E+02 -0.69672733185E+02  0.75185200902E+02  0.00000000000E+00 0.  1.
<mgrwt>
<rscale>  0 0.70291698E+02</rscale>
<asrwt>0</asrwt>
<pdfrwt beam="1">  1        2 0.99737957E-01 0.95241009E+02</pdfrwt>
<pdfrwt beam="2">  1       -2 0.10298675E-02 0.95241009E+02</pdfrwt>
<totfact> 0.82982300E+04</totfact>
</mgrwt>
</event>
<event>
 6    1  0.3062576E-002  0.8185979E+02  0.7546771E-02  0.1425717E+00
         -1   -1    0    0    0  501 -0.00000000000E+00  0.00000000000E+00  0.25815657771E+02  0.25815657771E+02  0.00000000000E+00 0.  1.
          1   -1    0    0  501    0  0.00000000000E+00 -0.00000000000E+00 -0.13967385795E+03  0.13967385795E+03  0.00000000000E+00 0. -1.
         23    2    1    2    0    0  0.52181557644E+01  0.14389265560E+02 -0.12293393273E+03  0.14769488073E+03  0.80416079647E+02 0.  0.
         11    1    3    3    0    0  0.36117809586E+02  0.12733690740E+02 -0.10536999117E+03  0.11211368377E+03  0.00000000000E+00 0. -1.
        -11    1    3    3    0    0 -0.30899653822E+02  0.16555748202E+01 -0.17563941559E+02  0.35581196964E+02  0.00000000000E+00 0.  1.
         22    1    1    2    0    0 -0.52181557644E+01 -0.14389265560E+02  0.90757325523E+01  0.17794634986E+02  0.00000000000E+00 0. -1.
<mgrwt>
<rscale>  0 0.53829447E+02</rscale>
<asrwt>0</asrwt>
<pdfrwt beam="1">  1        1 0.21488286E-01 0.81859795E+02</pdfrwt>
<pdfrwt beam="2">  1       -1 0.39716396E-02 0.81859795E+02</pdfrwt>
<totfact> 0.49282507E+04</totfact>
</mgrwt>
</event>
<event>
 6    1  0.3062576E-002  0.9260208E+02  0.7546771E-02  0.1422619E+00
         -1   -1    0    0    0  501 -0.00000000000E+00  0.00000000000E+00  0.63204415835E+01  0.63204415835E+01  0.00000000000E+00 0.  1.
          1   -1    0    0  501    0  0.00000000000E+00 -0.00000000000E+00 -0.46629134793E+03  0.46629134793E+03  0.00000000000E+00 0. -1.
         23    2    1    2    0    0  0.10721902197E+02  0.28191375811E+01 -0.44118492172E+03  0.45079849215E+03  0.91936057394E+02 0.  0.
         13    1    3    3    0    0 -0.39356601163E+02  0.11344369843E+02 -0.22755870517E+03  0.23121548625E+03  0.00000000000E+00 0. -1.
        -13    1    3    3    0    0  0.50078503361E+02 -0.85252322616E+01 -0.21362621655E+03  0.21958300590E+03  0.00000000000E+00 0.  1.
         22    1    1    2    0    0 -0.10721902197E+02 -0.28191375811E+01 -0.18785984625E+02  0.21813297361E+02  0.00000000000E+00 0.  1.
<mgrwt>
<rscale>  0 0.54470645E+02</rscale>
<asrwt>0</asrwt>
<pdfrwt beam="1">  1        1 0.71737156E-01 0.92602081E+02</pdfrwt>
<pdfrwt beam="2">  1       -1 0.97237528E-03 0.92602081E+02</pdfrwt>
<totfact> 0.84629648E+04</totfact>
</mgrwt>
</event>
<event>
 6    1  0.3062576E-002  0.1027052E+03  0.7546771E-02  0.1317787E+00
         -2   -1    0    0    0  501 -0.00000000000E+00  0.00000000000E+00  0.12469345327E+02  0.12469345327E+02  0.00000000000E+00 0.  1.
          2   -1    0    0  501    0  0.00000000000E+00 -0.00000000000E+00 -0.14612574672E+04  0.14612574672E+04  0.00000000000E+00 0. -1.
         23    2    1    2    0    0 -0.45327339759E+02 -0.88757704642E+01 -0.14090751731E+04  0.14128132235E+04  0.91733385181E+02 0.  0.
         11    1    3    3    0    0 -0.35158744779E+02  0.15105244919E+01 -0.16768262993E+03  0.17133558708E+03  0.00000000000E+00 0.  1.
        -11    1    3    3    0    0 -0.10168594980E+02 -0.10386294956E+02 -0.12413925432E+04  0.12414776364E+04  0.00000000000E+00 0. -1.
         22    1    1    2    0    0  0.45327339759E+02  0.88757704642E+01 -0.39712948780E+02  0.60913589057E+02  0.00000000000E+00 0.  1.
<mgrwt>
<rscale>  0 0.84106015E+02</rscale>
<asrwt>0</asrwt>
<pdfrwt beam="1">  1        2 0.22480872E+00 0.10270521E+03</pdfrwt>
<pdfrwt beam="2">  1       -2 0.19183618E-02 0.10270521E+03</pdfrwt>
<totfact> 0.11282928E+04</totfact>
</mgrwt>
</event>
<event>
 6    1  0.3062576E-002  0.9332067E+02  0.7546771E-02  0.1422470E+00
         -2   -1    0    0    0  501 -0.00000000000E+00  0.00000000000E+00  0.64538926783E+01  0.64538926783E+01  0.00000000000E+00 0.  1.
          2   -1    0    0  501    0  0.00000000000E+00 -0.00000000000E+00 -0.45426731234E+03  0.45426731234E+03  0.00000000000E+00 0. -1.
         23    2    1    2    0    0  0.93336522408E+01  0.55459152032E+01 -0.42869869722E+03  0.43873832864E+03  0.92686966639E+02 0.  0.
         11    1    3    3    0    0 -0.34689322236E+02 -0.14210894142E+02 -0.10560338010E+03  0.11205968266E+03  0.00000000000E+00 0.  1.
        -11    1    3    3    0    0  0.44022974477E+02  0.19756809345E+02 -0.32309531712E+03  0.32667864598E+03  0.00000000000E+00 0. -1.
         22    1    1    2    0    0 -0.93336522408E+01 -0.55459152032E+01 -0.19114722439E+02  0.21982876371E+02  0.00000000000E+00 0.  1.
<mgrwt>
<rscale>  0 0.54501789E+02</rscale>
<asrwt>0</asrwt>
<pdfrwt beam="1">  1        2 0.69887268E-01 0.93320673E+02</pdfrwt>
<pdfrwt beam="2">  1       -2 0.99290673E-03 0.93320673E+02</pdfrwt>
<totfact> 0.12887087E+05</totfact>
</mgrwt>
</event>
<event>
 6    1  0.3062576E-002  0.9278668E+02  0.7546771E-02  0.1421886E+00
         -4   -1    0    0    0  501 -0.00000000000E+00  0.00000000000E+00  0.41723762157E+01  0.41723762157E+01  0.00000000000E+00 0.  1.
          4   -1    0    0  501    0  0.00000000000E+00 -0.00000000000E+00 -0.81062758432E+03  0.81062758432E+03  0.00000000000E+00 0. -1.
         23    2    1    2    0    0  0.35689608718E+01 -0.10557891098E+02 -0.78640982796E+03  0.79186475155E+03  0.92114931941E+02 0.  0.
         11    1    3    3    0    0  0.29445988506E+02 -0.12011989779E+02 -0.71809239862E+03  0.71879624866E+03  0.00000000000E+00 0. -1.
        -11    1    3    3    0    0 -0.25877027635E+02  0.14540986811E+01 -0.68317429344E+02  0.73068502889E+02  0.00000000000E+00 0.  1.
         22    1    1    2    0    0 -0.35689608718E+01  0.10557891098E+02 -0.20045380140E+02  0.22935208983E+02  0.00000000000E+00 0.  1.
<mgrwt>
<rscale>  0 0.54623846E+02</rscale>
<asrwt>0</asrwt>
<pdfrwt beam="1">  1        4 0.12471170E+00 0.92786676E+02</pdfrwt>
<pdfrwt beam="2">  1       -4 0.64190524E-03 0.92786676E+02</pdfrwt>
<totfact> 0.43138438E+03</totfact>
</mgrwt>
</event>
<event>
 6    1  0.3062576E-002  0.8841932E+02  0.7546771E-02  0.1434969E+00
          1   -1    0    0  501    0  0.00000000000E+00  0.00000000000E+00  0.98943981950E+02  0.98943981950E+02  0.00000000000E+00 0. -1.
         -1   -1    0    0    0  501 -0.00000000000E+00 -0.00000000000E+00 -0.26185815998E+02  0.26185815998E+02  0.00000000000E+00 0.  1.
         23    2    1    2    0    0 -0.10106672076E+02  0.30510479550E+01  0.72861487113E+02  0.11457212826E+03  0.87786801711E+02 0.  0.
         13    1    3    3    0    0 -0.21252231623E+02 -0.14982958391E+02 -0.10881120861E+02  0.28187677845E+02  0.00000000000E+00 0.  1.
        -13    1    3    3    0    0  0.11145559547E+02  0.18034006346E+02  0.83742607974E+02  0.86384450411E+02  0.00000000000E+00 0. -1.
         22    1    1    2    0    0  0.10106672076E+02 -0.30510479550E+01 -0.10332116132E+00  0.10557669693E+02  0.00000000000E+00 0.  1.
<mgrwt>
<rscale>  0 0.51975323E+02</rscale>
<asrwt>0</asrwt>
<pdfrwt beam="1">  1        1 0.15222151E-01 0.88419321E+02</pdfrwt>
<pdfrwt beam="2">  1       -1 0.40285871E-02 0.88419321E+02</pdfrwt>
<totfact> 0.75416789E+04</totfact>
</mgrwt>
</event>
<event>
 6    1  0.3062576E-002  0.9409341E+02  0.7546771E-02  0.1371332E+00
          4   -1    0    0  501    0  0.00000000000E+00  0.00000000000E+00  0.19488407756E+03  0.19488407756E+03  0.00000000000E+00 0. -1.
         -4   -1    0    0    0  501 -0.00000000000E+00 -0.00000000000E+00 -0.19486905355E+02  0.19486905355E+02  0.00000000000E+00 0.  1.
         23    2    1    2    0    0  0.15377290695E+02 -0.18294927045E+02  0.16097396862E+03  0.18645693222E+03  0.91007711614E+02 0.  0.
         13    1    3    3    0    0 -0.92372736444E+01  0.17061476256E+02  0.13449949310E+03  0.13589162903E+03  0.00000000000E+00 0. -1.
        -13    1    3    3    0    0  0.24614564339E+02 -0.35356403301E+02  0.26474475517E+02  0.50565303182E+02  0.00000000000E+00 0.  1.
         22    1    1    2    0    0 -0.15377290695E+02  0.18294927045E+02  0.14423203580E+02  0.27914050695E+02  0.00000000000E+00 0.  1.
<mgrwt>
<rscale>  0 0.66798180E+02</rscale>
<asrwt>0</asrwt>
<pdfrwt beam="1">  1        4 0.29982164E-01 0.94093406E+02</pdfrwt>
<pdfrwt beam="2">  1       -4 0.29979856E-02 0.94093406E+02</pdfrwt>
<totfact> 0.84689926E+03</totfact>
</mgrwt>
</event>
<event>
 6    1  0.3062576E-002  0.9301329E+02  0.7546771E-02  0.1422017E+00
         -4   -1    0    0    0  501 -0.00000000000E+00  0.00000000000E+00  0.39510913485E+01  0.39510913485E+01  0.00000000000E+00 0. -1.
          4   -1    0    0  501    0  0.00000000000E+00 -0.00000000000E+00 -0.10462029808E+04  0.10462029808E+04  0.00000000000E+00 0.  1.
         23    2    1    2    0    0  0.78577535026E+01  0.77566840223E+01 -0.10276342246E+04  0.10318350502E+04  0.92355622199E+02 0.  0.
         11    1    3    3    0    0 -0.27581131548E+02  0.33631453019E+02 -0.33491763265E+03  0.33773009061E+03  0.00000000000E+00 0. -1.
        -11    1    3    3    0    0  0.35438885051E+02 -0.25874768997E+02 -0.69271659191E+03  0.69410495961E+03  0.00000000000E+00 0.  1.
         22    1    1    2    0    0 -0.78577535026E+01 -0.77566840223E+01 -0.14617664869E+02  0.18319021899E+02  0.00000000000E+00 0. -1.
<mgrwt>
<rscale>  0 0.54596381E+02</rscale>
<asrwt>0</asrwt>
<pdfrwt beam="1">  1        4 0.16095434E+00 0.93013286E+02</pdfrwt>
<pdfrwt beam="2">  1       -4 0.60786007E-03 0.93013286E+02</pdfrwt>
<totfact> 0.24851152E+03</totfact>
</mgrwt>
</event>
<event>
 6    1  0.3062576E-002  0.9236398E+02  0.7546771E-02  0.1410349E+00
         -2   -1    0    0    0  501 -0.00000000000E+00  0.00000000000E+00  0.18382291078E+02  0.18382291078E+02  0.00000000000E+00 0. -1.
          2   -1    0    0  501    0  0.00000000000E+00 -0.00000000000E+00 -0.46745303753E+03  0.46745303753E+03  0.00000000000E+00 0.  1.
         23    2    1    2    0    0 -0.11002412041E+02  0.78328999934E+01 -0.45955043574E+03  0.46874055512E+03  0.91371207884E+02 0.  0.
         13    1    3    3    0    0 -0.22337722468E+01  0.24791937838E+02 -0.44232990021E+03  0.44302976259E+03  0.00000000000E+00 0.  1.
        -13    1    3    3    0    0 -0.87686397938E+01 -0.16959037844E+02 -0.17220535527E+02  0.25710792525E+02  0.00000000000E+00 0. -1.
         22    1    1    2    0    0  0.11002412041E+02 -0.78328999934E+01  0.10479689290E+02  0.17094773489E+02  0.00000000000E+00 0. -1.
<mgrwt>
<rscale>  0 0.57115935E+02</rscale>
<asrwt>0</asrwt>
<pdfrwt beam="1">  1        2 0.71915839E-01 0.92363981E+02</pdfrwt>
<pdfrwt beam="2">  1       -2 0.28280453E-02 0.92363981E+02</pdfrwt>
<totfact> 0.27884252E+04</totfact>
</mgrwt>
</event>
<event>
 6    1  0.3062576E-002  0.9344229E+02  0.7546771E-02  0.1421019E+00
         -2   -1    0    0    0  501 -0.00000000000E+00  0.00000000000E+00  0.16174812239E+03  0.16174812239E+03  0.00000000000E+00 0.  1.
          2   -1    0    0  501    0  0.00000000000E+00 -0.00000000000E+00 -0.19037267846E+02  0.19037267846E+02  0.00000000000E+00 0. -1.
         23    2    1    2    0    0  0.53710728334E+01 -0.96659583540E+01  0.10083540237E+03  0.13747450628E+03  0.92785679559E+02 0.  0.
         13    1    3    3    0    0  0.48671787546E+02  0.15216033600E+01  0.54120280576E+02  0.72802904814E+02  0.00000000000E+00 0.  1.
        -13    1    3    3    0    0 -0.43300714713E+02 -0.11187561714E+02  0.46715121791E+02  0.64671601462E+02  0.00000000000E+00 0. -1.
         22    1    1    2    0    0 -0.53710728334E+01  0.96659583540E+01  0.41875452177E+02  0.43310883959E+02  0.00000000000E+00 0. -1.
<mgrwt>
<rscale>  0 0.54805818E+02</rscale>
<asrwt>0</asrwt>
<pdfrwt beam="1">  1        2 0.29288105E-02 0.93442290E+02</pdfrwt>
<pdfrwt beam="2">  1       -2 0.24884326E-01 0.93442290E+02</pdfrwt>
<totfact> 0.40250969E+04</totfact>
</mgrwt>
</event>
<event>
 6    1  0.3062576E-002  0.9299618E+02  0.7546771E-02  0.1394014E+00
          4   -1    0    0  501    0  0.00000000000E+00  0.00000000000E+00  0.65276415115E+02  0.65276415115E+02  0.00000000000E+00 0. -1.
         -4   -1    0    0    0  501 -0.00000000000E+00 -0.00000000000E+00 -0.46858464993E+02  0.46858464993E+02  0.00000000000E+00 0.  1.
         23    2    1    2    0    0 -0.12067335338E+02 -0.12150651691E+02  0.19337481405E+02  0.94985406167E+02  0.91405854731E+02 0.  0.
         11    1    3    3    0    0 -0.41432365365E+02 -0.33298146551E+02  0.24324874344E+02  0.58456025996E+02  0.00000000000E+00 0. -1.
        -11    1    3    3    0    0  0.29365030027E+02  0.21147494860E+02 -0.49873929398E+01  0.36529380171E+02  0.00000000000E+00 0.  1.
         22    1    1    2    0    0  0.12067335338E+02  0.12150651691E+02 -0.91953128232E+00  0.17149473941E+02  0.00000000000E+00 0. -1.
<mgrwt>
<rscale>  0 0.60919346E+02</rscale>
<asrwt>0</asrwt>
<pdfrwt beam="1">  1        4 0.10042525E-01 0.92996178E+02</pdfrwt>
<pdfrwt beam="2">  1       -4 0.72089946E-02 0.92996178E+02</pdfrwt>
<totfact> 0.14381556E+04</totfact>
</mgrwt>
</event>
<event>
 6    1  0.3062576E-002  0.9513868E+02  0.7546771E-02  0.1361932E+00
          2   -1    0    0  501    0  0.00000000000E+00  0.00000000000E+00  0.33129445733E+02  0.33129445733E+02  0.00000000000E+00 0. -1.
         -2   -1    0    0    0  501 -0.00000000000E+00 -0.00000000000E+00 -0.11419110219E+03  0.11419110219E+03  0.00000000000E+00 0.  1.
         23    2    1    2    0    0 -0.21036303640E+02 -0.16980903956E+02 -0.55659430552E+02  0.11022404875E+03  0.91216728417E+02 0.  0.
         11    1    3    3    0    0 -0.69845434224E+01  0.36143466693E+02 -0.36994438359E+02  0.52189294888E+02  0.00000000000E+00 0.  1.
        -11    1    3    3    0    0 -0.14051760218E+02 -0.53124370649E+02 -0.18664992193E+02  0.58034753860E+02  0.00000000000E+00 0. -1.
         22    1    1    2    0    0  0.21036303640E+02  0.16980903956E+02 -0.25402225901E+02  0.37096499171E+02  0.00000000000E+00 0.  1.
<mgrwt>
<rscale>  0 0.69462178E+02</rscale>
<asrwt>0</asrwt>
<pdfrwt beam="1">  1        2 0.50968377E-02 0.95138681E+02</pdfrwt>
<pdfrwt beam="2">  1       -2 0.17567862E-01 0.95138681E+02</pdfrwt>
<totfact> 0.35120405E+04</totfact>
</mgrwt>
</event>
<event>
 6    1  0.3062576E-002  0.9277974E+02  0.7546771E-02  0.1425823E+00
         -2   -1    0    0    0  501 -0.00000000000E+00  0.00000000000E+00  0.20104600261E+01  0.20104600261E+01  0.00000000000E+00 0. -1.
          2   -1    0    0  501    0  0.00000000000E+00 -0.00000000000E+00 -0.19523620062E+04  0.19523620062E+04  0.00000000000E+00 0.  1.
         23    2    1    2    0    0  0.33742729917E+01 -0.99386570320E+01 -0.19203131565E+04  0.19225531721E+04  0.92184153023E+02 0.  0.
         11    1    3    3    0    0 -0.11039840241E+02  0.84116279503E+01 -0.17968875143E+04  0.17969411155E+04  0.00000000000E+00 0.  1.
        -11    1    3    3    0    0  0.14414113232E+02 -0.18350284982E+02 -0.12342564213E+03  0.12561205656E+03  0.00000000000E+00 0. -1.
         22    1    1    2    0    0 -0.33742729917E+01  0.99386570320E+01 -0.30038389697E+02  0.31819294106E+02  0.00000000000E+00 0. -1.
<mgrwt>
<rscale>  0 0.53807666E+02</rscale>
<asrwt>0</asrwt>
<pdfrwt beam="1">  1        2 0.30036287E+00 0.92779743E+02</pdfrwt>
<pdfrwt beam="2">  1       -2 0.30930207E-03 0.92779743E+02</pdfrwt>
<totfact> 0.83368519E+04</totfact>
</mgrwt>
</event>
<event>
 6    1  0.3062576E-002  0.7798801E+02  0.7546771E-02  0.1453566E+00
          1   -1    0    0  501    0  0.00000000000E+00  0.00000000000E+00  0.56845252307E+03  0.56845252307E+03  0.00000000000E+00 0. -1.
         -1   -1    0    0    0  501 -0.00000000000E+00 -0.00000000000E+00 -0.43587318393E+01  0.43587318393E+01  0.00000000000E+00 0.  1.
         23    2    1    2    0    0  0.11036150281E+02  0.37983165877E+01  0.54409493081E+03  0.54965573203E+03  0.77109702324E+02 0.  0.
         13    1    3    3    0    0 -0.21218544007E+02  0.17998009813E+01  0.44320802404E+03  0.44371930144E+03  0.00000000000E+00 0. -1.
        -13    1    3    3    0    0  0.32254694288E+02  0.19985156064E+01  0.10088690677E+03  0.10593643059E+03  0.00000000000E+00 0.  1.
         22    1    1    2    0    0 -0.11036150281E+02 -0.37983165877E+01  0.19998860418E+02  0.23155522882E+02  0.00000000000E+00 0.  1.
<mgrwt>
<rscale>  0 0.48506788E+02</rscale>
<asrwt>0</asrwt>
<pdfrwt beam="1">  1        1 0.87454176E-01 0.77988012E+02</pdfrwt>
<pdfrwt beam="2">  1       -1 0.67057458E-03 0.77988012E+02</pdfrwt>
<totfact> 0.10767454E+05</totfact>
</mgrwt>
</event>
<event>
 6    1  0.3062576E-002  0.9010979E+02  0.7546771E-02  0.1409863E+00
          1   -1    0    0  501    0  0.00000000000E+00  0.00000000000E+00  0.71302217893E+03  0.71302217893E+03  0.00000000000E+00 0. -1.
         -1   -1    0    0    0  501 -0.00000000000E+00 -0.00000000000E+00 -0.54602118625E+01  0.54602118625E+01  0.00000000000E+00 0.  1.
         23    2    1    2    0    0  0.66840520172E+01  0.13042802822E+02  0.68882765011E+03  0.69469655701E+03  0.88909974194E+02 0.  0.
         11    1    3    3    0    0  0.38856702502E+02 -0.29670665078E+01  0.54702231205E+03  0.54840865848E+03  0.00000000000E+00 0. -1.
        -11    1    3    3    0    0 -0.32172650485E+02  0.16009869329E+02  0.14180533806E+03  0.14628789853E+03  0.00000000000E+00 0.  1.
         22    1    1    2    0    0 -0.66840520172E+01 -0.13042802822E+02  0.18734316960E+02  0.23785833783E+02  0.00000000000E+00 0.  1.
<mgrwt>
<rscale>  0 0.57224376E+02</rscale>
<asrwt>0</asrwt>
<pdfrwt beam="1">  1        1 0.10969565E+00 0.90109793E+02</pdfrwt>
<pdfrwt beam="2">  1       -1 0.84003316E-03 0.90109793E+02</pdfrwt>
<totfact> 0.58859380E+04</totfact>
</mgrwt>
</event>
<event>
 6    1  0.3062576E-002  0.9491875E+02  0.7546771E-02  0.1370131E+00
          1   -1    0    0  501    0  0.00000000000E+00  0.00000000000E+00  0.12700996015E+03  0.12700996015E+03  0.00000000000E+00 0. -1.
         -1   -1    0    0    0  501 -0.00000000000E+00 -0.00000000000E+00 -0.28151820800E+02  0.28151820800E+02  0.00000000000E+00 0.  1.
         23    2    1    2    0    0  0.23748109865E+02  0.20578235830E-01  0.86357371982E+02  0.12832445004E+03  0.91899921852E+02 0.  0.
         13    1    3    3    0    0  0.40128811954E+02  0.36929308474E+02  0.49111562635E+02  0.73389651571E+02  0.00000000000E+00 0.  1.
        -13    1    3    3    0    0 -0.16380702089E+02 -0.36908730238E+02  0.37245809348E+02  0.54934798468E+02  0.00000000000E+00 0. -1.
         22    1    1    2    0    0 -0.23748109865E+02 -0.20578235830E-01  0.12500767364E+02  0.26837330909E+02  0.00000000000E+00 0. -1.
<mgrwt>
<rscale>  0 0.67130720E+02</rscale>
<asrwt>0</asrwt>
<pdfrwt beam="1">  1        1 0.19539994E-01 0.94918748E+02</pdfrwt>
<pdfrwt beam="2">  1       -1 0.43310494E-02 0.94918748E+02</pdfrwt>
<totfact> 0.49966222E+04</totfact>
</mgrwt>
</event>
<event>
 6    1  0.3062576E-002  0.9340081E+02  0.7546771E-02  0.1367231E+00
          2   -1    0    0  501    0  0.00000000000E+00  0.00000000000E+00  0.47414705187E+03  0.47414705187E+03  0.00000000000E+00 0. -1.
         -2   -1    0    0    0  501 -0.00000000000E+00 -0.00000000000E+00 -0.82535131969E+01  0.82535131969E+01  0.00000000000E+00 0.  1.
         23    2    1    2    0    0  0.29636959360E+01 -0.25984940865E+02  0.41254858314E+03  0.42298941353E+03  0.89664429222E+02 0.  0.
         13    1    3    3    0    0 -0.23448028283E+02  0.18158826809E+02  0.26652017386E+03  0.26816516571E+03  0.00000000000E+00 0. -1.
        -13    1    3    3    0    0  0.26411724219E+02 -0.44143767674E+02  0.14602840927E+03  0.15482424783E+03  0.00000000000E+00 0.  1.
         22    1    1    2    0    0 -0.29636959360E+01  0.25984940865E+02  0.53344955536E+02  0.59411151533E+02  0.00000000000E+00 0.  1.
<mgrwt>
<rscale>  0 0.67943049E+02</rscale>
<asrwt>0</asrwt>
<pdfrwt beam="1">  1        2 0.72945679E-01 0.93400806E+02</pdfrwt>
<pdfrwt beam="2">  1       -2 0.12697716E-02 0.93400806E+02</pdfrwt>
<totfact> 0.86830997E+04</totfact>
</mgrwt>
</event>
<event>
 6    1  0.3062576E-002  0.8746628E+02  0.7546771E-02  0.1405679E+00
          1   -1    0    0  501    0  0.00000000000E+00  0.00000000000E+00  0.32161646977E+02  0.32161646977E+02  0.00000000000E+00 0. -1.
         -1   -1    0    0    0  501 -0.00000000000E+00 -0.00000000000E+00 -0.88720293789E+02  0.88720293789E+02  0.00000000000E+00 0.  1.
         23    2    1    2    0    0  0.16038771918E+02  0.59594133472E+01 -0.37207568152E+02  0.95051318292E+02  0.85776413828E+02 0.  0.
         11    1    3    3    0    0  0.42663619086E+00  0.25160522713E+02  0.20373425651E+02  0.32377621815E+02  0.00000000000E+00 0. -1.
        -11    1    3    3    0    0  0.15612135727E+02 -0.19201109365E+02 -0.57580993803E+02  0.62673696477E+02  0.00000000000E+00 0.  1.
         22    1    1    2    0    0 -0.16038771918E+02 -0.59594133472E+01 -0.19351078661E+02  0.25830622474E+02  0.00000000000E+00 0.  1.
<mgrwt>
<rscale>  0 0.58169304E+02</rscale>
<asrwt>0</asrwt>
<pdfrwt beam="1">  1        1 0.49479457E-02 0.87466279E+02</pdfrwt>
<pdfrwt beam="2">  1       -1 0.13649276E-01 0.87466279E+02</pdfrwt>
<totfact> 0.53739879E+04</totfact>
</mgrwt>
</event>
<event>
 6    1  0.3062576E-002  0.1132645E+03  0.7546771E-02  0.1281912E+00
         -2   -1    0    0    0  501 -0.00000000000E+00  0.00000000000E+00  0.11621726284E+02  0.11621726284E+02  0.00000000000E+00 0.  1.
          2   -1    0    0  501    0  0.00000000000E+00 -0.00000000000E+00 -0.23804676369E+04  0.23804676369E+04  0.00000000000E+00 0. -1.
         23    2    1    2    0    0  0.86622305643E+01  0.66175639707E+02 -0.22699868660E+04  0.22728108645E+04  0.91512866902E+02 0.  0.
         13    1    3    3    0    0  0.39794817548E+00  0.62527941628E+02 -0.69728308616E+03  0.70008114107E+03  0.00000000000E+00 0. -1.
        -13    1    3    3    0    0  0.82642823889E+01  0.36476980789E+01 -0.15727037798E+04  0.15727297235E+04  0.00000000000E+00 0.  1.
         22    1    1    2    0    0 -0.86622305643E+01 -0.66175639707E+02 -0.98859044671E+02  0.11927849866E+03  0.00000000000E+00 0.  1.
<mgrwt>
<rscale>  0 0.99235548E+02</rscale>
<asrwt>0</asrwt>
<pdfrwt beam="1">  1        2 0.36622570E+00 0.11326453E+03</pdfrwt>
<pdfrwt beam="2">  1       -2 0.17879583E-02 0.11326453E+03</pdfrwt>
<totfact> 0.42533604E+03</totfact>
</mgrwt>
</event>
<event>
 6    1  0.3062576E-002  0.9468276E+02  0.7546771E-02  0.1366923E+00
         -2   -1    0    0    0  501 -0.00000000000E+00  0.00000000000E+00  0.69631666715E+02  0.69631666715E+02  0.00000000000E+00 0.  1.
          2   -1    0    0  501    0  0.00000000000E+00 -0.00000000000E+00 -0.55285212103E+02  0.55285212103E+02  0.00000000000E+00 0. -1.
         23    2    1    2    0    0 -0.10803679217E+02 -0.22804417175E+02  0.24363754265E+02  0.97767160226E+02  0.91258227954E+02 0.  0.
         11    1    3    3    0    0  0.67677528047E+01 -0.42188922091E+02  0.46749411429E+02  0.63334154247E+02  0.00000000000E+00 0.  1.
        -11    1    3    3    0    0 -0.17571432022E+02  0.19384504916E+02 -0.22385657163E+02  0.34433005979E+02  0.00000000000E+00 0. -1.
         22    1    1    2    0    0  0.10803679217E+02  0.22804417175E+02 -0.10017299653E+02  0.27149718593E+02  0.00000000000E+00 0. -1.
<mgrwt>
<rscale>  0 0.68029963E+02</rscale>
<asrwt>0</asrwt>
<pdfrwt beam="1">  1        2 0.85054172E-02 0.94682760E+02</pdfrwt>
<pdfrwt beam="2">  1       -2 0.10712564E-01 0.94682760E+02</pdfrwt>
<totfact> 0.40662418E+04</totfact>
</mgrwt>
</event>
<event>
 6    1  0.3062576E-002  0.1068881E+03  0.7546771E-02  0.1373058E+00
          2   -1    0    0  501    0  0.00000000000E+00  0.00000000000E+00  0.14188184657E+04  0.14188184657E+04  0.00000000000E+00 0. -1.
         -2   -1    0    0    0  501 -0.00000000000E+00 -0.00000000000E+00 -0.45983926171E+01  0.45983926171E+01  0.00000000000E+00 0.  1.
         23    2    1    2    0    0  0.15737503739E+02  0.18456509103E+01  0.13921517866E+04  0.13962491436E+04  0.10570713692E+03 0.  0.
         11    1    3    3    0    0  0.34861655872E+02 -0.15752045763E+02  0.12983567915E+04  0.12989202516E+04  0.00000000000E+00 0. -1.
        -11    1    3    3    0    0 -0.19124152134E+02  0.17597696673E+02  0.93794995038E+02  0.97328891996E+02  0.00000000000E+00 0.  1.
         22    1    1    2    0    0 -0.15737503739E+02 -0.18456509103E+01  0.22068286482E+02  0.27167714653E+02  0.00000000000E+00 0.  1.
<mgrwt>
<rscale>  0 0.66324299E+02</rscale>
<asrwt>0</asrwt>
<pdfrwt beam="1">  1        2 0.21827942E+00 0.10688814E+03</pdfrwt>
<pdfrwt beam="2">  1       -2 0.70744615E-03 0.10688814E+03</pdfrwt>
<totfact> 0.49350234E+04</totfact>
</mgrwt>
</event>
<event>
 6    1  0.3062576E-002  0.9215150E+02  0.7546771E-02  0.1414425E+00
          2   -1    0    0  501    0  0.00000000000E+00  0.00000000000E+00  0.33041074511E+03  0.33041074511E+03  0.00000000000E+00 0. -1.
         -2   -1    0    0    0  501 -0.00000000000E+00 -0.00000000000E+00 -0.83299058009E+01  0.83299058009E+01  0.00000000000E+00 0.  1.
         23    2    1    2    0    0  0.12761413467E+02 -0.26801576931E+00  0.28143945378E+03  0.29614196873E+03  0.91263212694E+02 0.  0.
         13    1    3    3    0    0 -0.38898138332E+02  0.48572618181E+01  0.14347610270E+03  0.14873483184E+03  0.00000000000E+00 0. -1.
        -13    1    3    3    0    0  0.51659551799E+02 -0.51252775874E+01  0.13796335108E+03  0.14740713688E+03  0.00000000000E+00 0.  1.
         22    1    1    2    0    0 -0.12761413467E+02  0.26801576931E+00  0.40641385535E+02  0.42598682190E+02  0.00000000000E+00 0. -1.
<mgrwt>
<rscale>  0 0.56218008E+02</rscale>
<asrwt>0</asrwt>
<pdfrwt beam="1">  1        2 0.50832412E-01 0.92151503E+02</pdfrwt>
<pdfrwt beam="2">  1       -2 0.12815242E-02 0.92151503E+02</pdfrwt>
<totfact> 0.12522825E+05</totfact>
</mgrwt>
</event>
<event>
 6    1  0.3062576E-002  0.9152321E+02  0.7546771E-02  0.1422362E+00
          2   -1    0    0  501    0  0.00000000000E+00  0.00000000000E+00  0.61575385624E+01  0.61575385624E+01  0.00000000000E+00 0. -1.
         -2   -1    0    0    0  501 -0.00000000000E+00 -0.00000000000E+00 -0.43399934438E+03  0.43399934438E+03  0.00000000000E+00 0.  1.
         23    2    1    2    0    0  0.26023367045E+01  0.11230840675E+02 -0.36762460027E+03  0.37884607001E+03  0.90794240451E+02 0.  0.
         11    1    3    3    0    0 -0.23345225765E+02  0.22223633830E+02 -0.47027990107E+02  0.57013343352E+02  0.00000000000E+00 0. -1.
        -11    1    3    3    0    0  0.25947562470E+02 -0.10992793156E+02 -0.32059661017E+03  0.32183272666E+03  0.00000000000E+00 0.  1.
         22    1    1    2    0    0 -0.26023367045E+01 -0.11230840675E+02 -0.60217205550E+02  0.61310812936E+02  0.00000000000E+00 0.  1.
<mgrwt>
<rscale>  0 0.54524371E+02</rscale>
<asrwt>0</asrwt>
<pdfrwt beam="1">  1        2 0.94731370E-03 0.91523210E+02</pdfrwt>
<pdfrwt beam="2">  1       -2 0.66769125E-01 0.91523210E+02</pdfrwt>
<totfact> 0.28587646E+04</totfact>
</mgrwt>
</event>
<event>
 6    1  0.3062576E-002  0.9668179E+02  0.7546771E-02  0.1378983E+00
          3   -1    0    0  501    0  0.00000000000E+00  0.00000000000E+00  0.56519756545E+03  0.56519756545E+03  0.00000000000E+00 0.  1.
         -3   -1    0    0    0  501 -0.00000000000E+00 -0.00000000000E+00 -0.69119024848E+01  0.69119024848E+01  0.00000000000E+00 0. -1.
         23    2    1    2    0    0  0.85901672294E+01 -0.17426070760E+02  0.52269482120E+03  0.53156113957E+03  0.94709609247E+02 0.  0.
         13    1    3    3    0    0  0.19185298242E+02 -0.47051452587E+02  0.44261650971E+03  0.44552361276E+03  0.00000000000E+00 0.  1.
        -13    1    3    3    0    0 -0.10595131013E+02  0.29625381827E+02  0.80078311484E+02  0.86037526811E+02  0.00000000000E+00 0. -1.
         22    1    1    2    0    0 -0.85901672294E+01  0.17426070760E+02  0.35590841773E+02  0.40548328366E+02  0.00000000000E+00 0. -1.
<mgrwt>
<rscale>  0 0.64731733E+02</rscale>
<asrwt>0</asrwt>
<pdfrwt beam="1">  1        3 0.86953435E-01 0.96681792E+02</pdfrwt>
<pdfrwt beam="2">  1       -3 0.10633701E-02 0.96681792E+02</pdfrwt>
<totfact> 0.65479016E+03</totfact>
</mgrwt>
</event>
<event>
 6    1  0.3062576E-002  0.9353484E+02  0.7546771E-02  0.1413354E+00
         -1   -1    0    0    0  501 -0.00000000000E+00  0.00000000000E+00  0.38007978262E+01  0.38007978262E+01  0.00000000000E+00 0.  1.
          1   -1    0    0  501    0  0.00000000000E+00 -0.00000000000E+00 -0.17953310071E+04  0.17953310071E+04  0.00000000000E+00 0. -1.
         23    2    1    2    0    0 -0.96771242710E+00 -0.12373098981E+02 -0.17791323551E+04  0.17815893754E+04  0.92707796402E+02 0.  0.
         11    1    3    3    0    0 -0.27954973429E+01  0.28315674682E+02 -0.20889728706E+03  0.21082615772E+03  0.00000000000E+00 0.  1.
        -11    1    3    3    0    0  0.18277849158E+01 -0.40688773663E+02 -0.15702350680E+04  0.15707632176E+04  0.00000000000E+00 0. -1.
         22    1    1    2    0    0  0.96771242710E+00  0.12373098981E+02 -0.12397854176E+02  0.17542429532E+02  0.00000000000E+00 0.  1.
<mgrwt>
<rscale>  0 0.56452181E+02</rscale>
<asrwt>0</asrwt>
<pdfrwt beam="1">  1        1 0.27620433E+00 0.93534836E+02</pdfrwt>
<pdfrwt beam="2">  1       -1 0.58473906E-03 0.93534836E+02</pdfrwt>
<totfact> 0.17658172E+04</totfact>
</mgrwt>
</event>
<event>
 6    1  0.3062576E-002  0.1102508E+03  0.7546771E-02  0.1290226E+00
         -1   -1    0    0    0  501 -0.00000000000E+00  0.00000000000E+00  0.62600413599E+02  0.62600413599E+02  0.00000000000E+00 0.  1.
          1   -1    0    0  501    0  0.00000000000E+00 -0.00000000000E+00 -0.39369498205E+03  0.39369498205E+03  0.00000000000E+00 0. -1.
         23    2    1    2    0    0  0.16409497428E+02 -0.59652725073E+02 -0.36806472372E+03  0.38422243543E+03  0.91255245448E+02 0.  0.
         13    1    3    3    0    0  0.13259612818E+02 -0.50083331862E+02 -0.37029687300E+03  0.37390363948E+03  0.00000000000E+00 0. -1.
        -13    1    3    3    0    0  0.31498846098E+01 -0.95693932109E+01  0.22321492742E+01  0.10318795950E+02  0.00000000000E+00 0.  1.
         22    1    1    2    0    0 -0.16409497428E+02  0.59652725073E+02  0.36970155272E+02  0.72072960223E+02  0.00000000000E+00 0.  1.
<mgrwt>
<rscale>  0 0.95423166E+02</rscale>
<asrwt>0</asrwt>
<pdfrwt beam="1">  1        1 0.60568459E-01 0.11025080E+03</pdfrwt>
<pdfrwt beam="2">  1       -1 0.96308328E-02 0.11025080E+03</pdfrwt>
<totfact> 0.38230484E+03</totfact>
</mgrwt>
</event>
<event>
 6    1  0.3062576E-002  0.9331713E+02  0.7546771E-02  0.1385222E+00
          2   -1    0    0  501    0  0.00000000000E+00  0.00000000000E+00  0.15936985332E+03  0.15936985332E+03  0.00000000000E+00 0. -1.
         -2   -1    0    0    0  501 -0.00000000000E+00 -0.00000000000E+00 -0.21988662489E+02  0.21988662489E+02  0.00000000000E+00 0.  1.
         23    2    1    2    0    0  0.17820674382E+02 -0.79716135913E+01  0.13096223490E+03  0.16080794273E+03  0.91252202255E+02 0.  0.
         11    1    3    3    0    0  0.30644248363E+02  0.36116336331E+02  0.68759357195E+02  0.83494364538E+02  0.00000000000E+00 0. -1.
        -11    1    3    3    0    0 -0.12823573982E+02 -0.44087949923E+02  0.62202877703E+02  0.77313578190E+02  0.00000000000E+00 0.  1.
         22    1    1    2    0    0 -0.17820674382E+02  0.79716135913E+01  0.64189559340E+01  0.20550573081E+02  0.00000000000E+00 0.  1.
<mgrwt>
<rscale>  0 0.63110874E+02</rscale>
<asrwt>0</asrwt>
<pdfrwt beam="1">  1        2 0.24518438E-01 0.93317134E+02</pdfrwt>
<pdfrwt beam="2">  1       -2 0.33828713E-02 0.93317134E+02</pdfrwt>
<totfact> 0.67215348E+04</totfact>
</mgrwt>
</event>
<event>
 6    1  0.3062576E-002  0.9855104E+02  0.7546771E-02  0.1334857E+00
         -2   -1    0    0    0  501 -0.00000000000E+00  0.00000000000E+00  0.20217118748E+02  0.20217118748E+02  0.00000000000E+00 0.  1.
          2   -1    0    0  501    0  0.00000000000E+00 -0.00000000000E+00 -0.29184327144E+03  0.29184327144E+03  0.00000000000E+00 0. -1.
         23    2    1    2    0    0  0.14375444291E+02 -0.35877456485E+02 -0.24774634559E+03  0.26662812776E+03  0.90655730513E+02 0.  0.
         13    1    3    3    0    0  0.40785977883E+02 -0.76995973929E+00 -0.18854025934E+03  0.19290287250E+03  0.00000000000E+00 0. -1.
        -13    1    3    3    0    0 -0.26410533592E+02 -0.35107496746E+02 -0.59206086255E+02  0.73725255253E+02  0.00000000000E+00 0.  1.
         22    1    1    2    0    0 -0.14375444291E+02  0.35877456485E+02 -0.23879807102E+02  0.45432262432E+02  0.00000000000E+00 0.  1.
<mgrwt>
<rscale>  0 0.77989134E+02</rscale>
<asrwt>0</asrwt>
<pdfrwt beam="1">  1        2 0.44898964E-01 0.98551036E+02</pdfrwt>
<pdfrwt beam="2">  1       -2 0.31103260E-02 0.98551036E+02</pdfrwt>
<totfact> 0.40177299E+04</totfact>
</mgrwt>
</event>
<event>
 6    1  0.3062576E-002  0.9293059E+02  0.7546771E-02  0.1408145E+00
          2   -1    0    0  501    0  0.00000000000E+00  0.00000000000E+00  0.29318875092E+03  0.29318875092E+03  0.00000000000E+00 0.  1.
         -2   -1    0    0    0  501 -0.00000000000E+00 -0.00000000000E+00 -0.15051259343E+02  0.15051259343E+02  0.00000000000E+00 0. -1.
         23    2    1    2    0    0  0.21964516593E+01 -0.13548101614E+02  0.27940736233E+03  0.29445639575E+03  0.91911475981E+02 0.  0.
         13    1    3    3    0    0 -0.21779836886E+02 -0.18528104037E+02  0.26395774996E+03  0.26550206345E+03  0.00000000000E+00 0.  1.
        -13    1    3    3    0    0  0.23976288545E+02  0.49800024236E+01  0.15449612375E+02  0.28954332302E+02  0.00000000000E+00 0. -1.
         22    1    1    2    0    0 -0.21964516593E+01  0.13548101614E+02 -0.12698707546E+01  0.13783614510E+02  0.00000000000E+00 0. -1.
<mgrwt>
<rscale>  0 0.57609893E+02</rscale>
<asrwt>0</asrwt>
<pdfrwt beam="1">  1        2 0.45105957E-01 0.92930592E+02</pdfrwt>
<pdfrwt beam="2">  1       -2 0.23155786E-02 0.92930592E+02</pdfrwt>
<totfact> 0.60891479E+04</totfact>
</mgrwt>
</event>
<event>
 6    1  0.3062576E-002  0.9414214E+02  0.7546771E-02  0.1383333E+00
         -3   -1    0    0    0  501 -0.00000000000E+00  0.00000000000E+00  0.98526174037E+02  0.98526174037E+02  0.00000000000E+00 0. -1.
          3   -1    0    0  501    0  0.00000000000E+00 -0.00000000000E+00 -0.60158170136E+02  0.60158170136E+02  0.00000000000E+00 0.  1.
         23    2    1    2    0    0  0.14361536320E+02  0.13344957916E+02 -0.20748870406E+02  0.96401549959E+02  0.92078236213E+02 0.  0.
         13    1    3    3    0    0  0.14299733764E+02 -0.19741095053E+01 -0.56071604037E+02  0.57899950547E+02  0.00000000000E+00 0.  1.
        -13    1    3    3    0    0  0.61802556076E-01  0.15319067421E+02  0.35322733630E+02  0.38501599413E+02  0.00000000000E+00 0. -1.
         22    1    1    2    0    0 -0.14361536320E+02 -0.13344957916E+02  0.59116874307E+02  0.62282794214E+02  0.00000000000E+00 0. -1.
<mgrwt>
<rscale>  0 0.63595698E+02</rscale>
<asrwt>0</asrwt>
<pdfrwt beam="1">  1        3 0.92551031E-02 0.94142144E+02</pdfrwt>
<pdfrwt beam="2">  1       -3 0.15157873E-01 0.94142144E+02</pdfrwt>
<totfact> 0.64165371E+03</totfact>
</mgrwt>
</event>
<event>
 6    1  0.3062576E-002  0.9105758E+02  0.7546771E-02  0.1397198E+00
         -1   -1    0    0    0  501 -0.00000000000E+00  0.00000000000E+00  0.33187639354E+01  0.33187639354E+01  0.00000000000E+00 0.  1.
          1   -1    0    0  501    0  0.00000000000E+00 -0.00000000000E+00 -0.10662449687E+04  0.10662449687E+04  0.00000000000E+00 0. -1.
         23    2    1    2    0    0  0.12889302348E+02 -0.11597935402E+02 -0.10045057893E+04  0.10086244910E+04  0.89391481760E+02 0.  0.
         11    1    3    3    0    0  0.33929985290E+02  0.27090626659E+02 -0.63934617486E+03  0.64081875540E+03  0.00000000000E+00 0. -1.
        -11    1    3    3    0    0 -0.21040682942E+02 -0.38688562062E+02 -0.36515961440E+03  0.36780573563E+03  0.00000000000E+00 0.  1.
         22    1    1    2    0    0 -0.12889302348E+02  0.11597935402E+02 -0.58420415484E+02  0.60939241593E+02  0.00000000000E+00 0.  1.
<mgrwt>
<rscale>  0 0.60151166E+02</rscale>
<asrwt>0</asrwt>
<pdfrwt beam="1">  1        1 0.16403748E+00 0.91057582E+02</pdfrwt>
<pdfrwt beam="2">  1       -1 0.51057973E-03 0.91057582E+02</pdfrwt>
<totfact> 0.63495427E+04</totfact>
</mgrwt>
</event>
<event>
 6    1  0.3062576E-002  0.9056524E+02  0.7546771E-02  0.1420424E+00
         -2   -1    0    0    0  501 -0.00000000000E+00  0.00000000000E+00  0.16597364167E+02  0.16597364167E+02  0.00000000000E+00 0.  1.
          2   -1    0    0  501    0  0.00000000000E+00 -0.00000000000E+00 -0.34190836982E+03  0.34190836982E+03  0.00000000000E+00 0. -1.
         23    2    1    2    0    0  0.48696058512E+01 -0.11248528303E+02 -0.33228324923E+03  0.34440415143E+03  0.89731930522E+02 0.  0.
         11    1    3    3    0    0 -0.20460981729E+02  0.31518632088E+02 -0.19022154953E+03  0.19389768913E+03  0.00000000000E+00 0. -1.
        -11    1    3    3    0    0  0.25330587580E+02 -0.42767160391E+02 -0.14206169970E+03  0.15050646231E+03  0.00000000000E+00 0.  1.
         22    1    1    2    0    0 -0.48696058512E+01  0.11248528303E+02  0.69722435739E+01  0.14101582556E+02  0.00000000000E+00 0.  1.
<mgrwt>
<rscale>  0 0.54931344E+02</rscale>
<asrwt>0</asrwt>
<pdfrwt beam="1">  1        2 0.52601279E-01 0.90565235E+02</pdfrwt>
<pdfrwt beam="2">  1       -2 0.25534411E-02 0.90565235E+02</pdfrwt>
<totfact> 0.44870109E+04</totfact>
</mgrwt>
</event>
<event>
 6    1  0.3062576E-002  0.9385937E+02  0.7546771E-02  0.1419239E+00
         -2   -1    0    0    0  501 -0.00000000000E+00  0.00000000000E+00  0.78062112549E+01  0.78062112549E+01  0.00000000000E+00 0.  1.
          2   -1    0    0  501    0  0.00000000000E+00 -0.00000000000E+00 -0.35360888051E+03  0.35360888051E+03  0.00000000000E+00 0. -1.
         23    2    1    2    0    0  0.15049475438E+01  0.11112700474E+02 -0.30991395946E+03  0.32381513871E+03  0.93187042077E+02 0.  0.
         13    1    3    3    0    0 -0.78277350049E+01 -0.24370434671E+02 -0.22533548731E+02  0.34102087030E+02  0.00000000000E+00 0.  1.
        -13    1    3    3    0    0  0.93326825487E+01  0.35483135145E+02 -0.28738041073E+03  0.28971305168E+03  0.00000000000E+00 0. -1.
         22    1    1    2    0    0 -0.15049475438E+01 -0.11112700474E+02 -0.35888709790E+02  0.37599953050E+02  0.00000000000E+00 0.  1.
<mgrwt>
<rscale>  0 0.55182293E+02</rscale>
<asrwt>0</asrwt>
<pdfrwt beam="1">  1        2 0.54401371E-01 0.93859372E+02</pdfrwt>
<pdfrwt beam="2">  1       -2 0.12009555E-02 0.93859372E+02</pdfrwt>
<totfact> 0.12827811E+05</totfact>
</mgrwt>
</event>
<event>
 6    1  0.3062576E-002  0.8917804E+02  0.7546771E-02  0.1430408E+00
         -1   -1    0    0    0  501 -0.00000000000E+00  0.00000000000E+00  0.10684570568E+02  0.10684570568E+02  0.00000000000E+00 0.  1.
          1   -1    0    0  501    0  0.00000000000E+00 -0.00000000000E+00 -0.36688702622E+03  0.36688702622E+03  0.00000000000E+00 0. -1.
         23    2    1    2    0    0  0.49877563816E+01  0.98308519321E+01 -0.35551196076E+03  0.36652622913E+03  0.88494062169E+02 0.  0.
         11    1    3    3    0    0 -0.13281543808E+02 -0.23040047897E+02 -0.28817509590E+03  0.28939960109E+03  0.00000000000E+00 0.  1.
        -11    1    3    3    0    0  0.18269300189E+02  0.32870899829E+02 -0.67336864852E+02  0.77126628042E+02  0.00000000000E+00 0. -1.
         22    1    1    2    0    0 -0.49877563816E+01 -0.98308519321E+01 -0.69049489770E+00  0.11045367655E+02  0.00000000000E+00 0.  1.
<mgrwt>
<rscale>  0 0.52878108E+02</rscale>
<asrwt>0</asrwt>
<pdfrwt beam="1">  1        1 0.56444143E-01 0.89178038E+02</pdfrwt>
<pdfrwt beam="2">  1       -1 0.16437805E-02 0.89178038E+02</pdfrwt>
<totfact> 0.54017002E+04</totfact>
</mgrwt>
</event>
<event>
 6    1  0.3062576E-002  0.9501432E+02  0.7546771E-02  0.1366375E+00
          2   -1    0    0  501    0  0.00000000000E+00  0.00000000000E+00  0.81992578108E+02  0.81992578108E+02  0.00000000000E+00 0. -1.
         -2   -1    0    0    0  501 -0.00000000000E+00 -0.00000000000E+00 -0.46410659965E+02  0.46410659965E+02  0.00000000000E+00 0.  1.
         23    2    1    2    0    0  0.22400523119E+02  0.11543037758E+02  0.15695614417E+02  0.96301988370E+02  0.91611655892E+02 0.  0.
         13    1    3    3    0    0 -0.15409371459E+02 -0.29258644653E+02  0.22881239865E+02  0.40212785945E+02  0.00000000000E+00 0. -1.
        -13    1    3    3    0    0  0.37809894578E+02  0.40801682411E+02 -0.71856254478E+01  0.56089202425E+02  0.00000000000E+00 0.  1.
         22    1    1    2    0    0 -0.22400523119E+02 -0.11543037758E+02  0.19886303726E+02  0.32101249704E+02  0.00000000000E+00 0. -1.
<mgrwt>
<rscale>  0 0.68185285E+02</rscale>
<asrwt>0</asrwt>
<pdfrwt beam="1">  1        2 0.12614243E-01 0.95014318E+02</pdfrwt>
<pdfrwt beam="2">  1       -2 0.71401015E-02 0.95014318E+02</pdfrwt>
<totfact> 0.47206028E+04</totfact>
</mgrwt>
</event>
<event>
 6    1  0.3062576E-002  0.9242672E+02  0.7546771E-02  0.1371163E+00
         -2   -1    0    0    0  501 -0.00000000000E+00  0.00000000000E+00  0.26157631314E+02  0.26157631314E+02  0.00000000000E+00 0. -1.
          2   -1    0    0  501    0  0.00000000000E+00 -0.00000000000E+00 -0.66464485135E+03  0.66464485135E+03  0.00000000000E+00 0.  1.
         23    2    1    2    0    0  0.23963044462E+02  0.80717901406E+01 -0.65442049431E+03  0.66091518561E+03  0.88900606890E+02 0.  0.
         11    1    3    3    0    0  0.38531266540E+02 -0.65540368858E+01 -0.12228144627E+03  0.12837587781E+03  0.00000000000E+00 0. -1.
        -11    1    3    3    0    0 -0.14568222078E+02  0.14625827026E+02 -0.53213904804E+03  0.53253930780E+03  0.00000000000E+00 0.  1.
         22    1    1    2    0    0 -0.23963044462E+02 -0.80717901406E+01  0.15933274274E+02  0.29887297051E+02  0.00000000000E+00 0. -1.
<mgrwt>
<rscale>  0 0.66844882E+02</rscale>
<asrwt>0</asrwt>
<pdfrwt beam="1">  1        2 0.10225305E+00 0.92426723E+02</pdfrwt>
<pdfrwt beam="2">  1       -2 0.40242511E-02 0.92426723E+02</pdfrwt>
<totfact> 0.11289003E+04</totfact>
</mgrwt>
</event>
<event>
 6    1  0.3062576E-002  0.9411257E+02  0.7546771E-02  0.1418293E+00
         -2   -1    0    0    0  501 -0.00000000000E+00  0.00000000000E+00  0.36931439496E+01  0.36931439496E+01  0.00000000000E+00 0.  1.
          2   -1    0    0  501    0  0.00000000000E+00 -0.00000000000E+00 -0.85750722095E+03  0.85750722095E+03  0.00000000000E+00 0. -1.
         23    2    1    2    0    0  0.11834494176E+01 -0.11224966609E+02 -0.82337196877E+03  0.82873311399E+03  0.93433264123E+02 0.  0.
         11    1    3    3    0    0 -0.39249611006E+02 -0.11071049780E+02 -0.20362550139E+03  0.20766907551E+03  0.00000000000E+00 0.  1.
        -11    1    3    3    0    0  0.40433060424E+02 -0.15391682957E+00 -0.61974646738E+03  0.62106403848E+03  0.00000000000E+00 0. -1.
         22    1    1    2    0    0 -0.11834494176E+01  0.11224966609E+02 -0.30442108227E+02  0.32467250903E+02  0.00000000000E+00 0.  1.
<mgrwt>
<rscale>  0 0.55383714E+02</rscale>
<asrwt>0</asrwt>
<pdfrwt beam="1">  1        2 0.13192438E+00 0.94112567E+02</pdfrwt>
<pdfrwt beam="2">  1       -2 0.56817516E-03 0.94112567E+02</pdfrwt>
<totfact> 0.13726391E+05</totfact>
</mgrwt>
</event>
<event>
 6    1  0.3062576E-002  0.9188148E+02  0.7546771E-02  0.1392006E+00
         -2   -1    0    0    0  501 -0.00000000000E+00  0.00000000000E+00  0.52106874687E+01  0.52106874687E+01  0.00000000000E+00 0.  1.
          2   -1    0    0  501    0  0.00000000000E+00 -0.00000000000E+00 -0.58386768476E+03  0.58386768476E+03  0.00000000000E+00 0. -1.
         23    2    1    2    0    0  0.92283648164E+01 -0.15843641265E+02 -0.49131282708E+03  0.49983047166E+03  0.90033453020E+02 0.  0.
         13    1    3    3    0    0 -0.18345843003E+02  0.31541091417E+02 -0.16972269778E+03  0.17360070433E+03  0.00000000000E+00 0. -1.
        -13    1    3    3    0    0  0.27574207819E+02 -0.47384732682E+02 -0.32159012930E+03  0.32622976733E+03  0.00000000000E+00 0.  1.
         22    1    1    2    0    0 -0.92283648164E+01  0.15843641265E+02 -0.87344170218E+02  0.89247900573E+02  0.00000000000E+00 0. -1.
<mgrwt>
<rscale>  0 0.61410561E+02</rscale>
<asrwt>0</asrwt>
<pdfrwt beam="1">  1        2 0.89825830E-01 0.91881480E+02</pdfrwt>
<pdfrwt beam="2">  1       -2 0.80164394E-03 0.91881480E+02</pdfrwt>
<totfact> 0.13241518E+05</totfact>
</mgrwt>
</event>
<event>
 6    1  0.3062576E-002  0.9031101E+02  0.7546771E-02  0.1384804E+00
          4   -1    0    0  501    0  0.00000000000E+00  0.00000000000E+00  0.34664487746E+02  0.34664487746E+02  0.00000000000E+00 0.  1.
         -4   -1    0    0    0  501 -0.00000000000E+00 -0.00000000000E+00 -0.92776646566E+02  0.92776646566E+02  0.00000000000E+00 0. -1.
         23    2    1    2    0    0  0.20454297581E+02 -0.71976352390E+01 -0.38397081660E+02  0.98134675808E+02  0.87669233335E+02 0.  0.
         13    1    3    3    0    0 -0.15290364783E+02 -0.84443980192E+01 -0.55720255066E+02  0.58393920383E+02  0.00000000000E+00 0. -1.
        -13    1    3    3    0    0  0.35744662364E+02  0.12467627802E+01  0.17323173406E+02  0.39740755425E+02  0.00000000000E+00 0.  1.
         22    1    1    2    0    0 -0.20454297581E+02  0.71976352390E+01 -0.19715077161E+02  0.29306458503E+02  0.00000000000E+00 0.  1.
<mgrwt>
<rscale>  0 0.63217750E+02</rscale>
<asrwt>0</asrwt>
<pdfrwt beam="1">  1        4 0.53329981E-02 0.90311011E+02</pdfrwt>
<pdfrwt beam="2">  1       -4 0.14273330E-01 0.90311011E+02</pdfrwt>
<totfact> 0.12775834E+04</totfact>
</mgrwt>
</event>
<event>
 6    1  0.3062576E-002  0.9402740E+02  0.7546771E-02  0.1375235E+00
         -2   -1    0    0    0  501 -0.00000000000E+00  0.00000000000E+00  0.38049512772E+02  0.38049512772E+02  0.00000000000E+00 0.  1.
          2   -1    0    0  501    0  0.00000000000E+00 -0.00000000000E+00 -0.90701258746E+02  0.90701258746E+02  0.00000000000E+00 0. -1.
         23    2    1    2    0    0 -0.14901653675E+02  0.16801926163E+02 -0.48895492652E+02  0.10598075957E+03  0.91306014001E+02 0.  0.
         11    1    3    3    0    0 -0.26272424361E+02  0.38706120103E+02 -0.62290200199E+02  0.77900404723E+02  0.00000000000E+00 0. -1.
        -11    1    3    3    0    0  0.11370770687E+02 -0.21904193940E+02  0.13394707547E+02  0.28080354849E+02  0.00000000000E+00 0.  1.
         22    1    1    2    0    0  0.14901653675E+02 -0.16801926163E+02 -0.37562533216E+01  0.22770011946E+02  0.00000000000E+00 0.  1.
<mgrwt>
<rscale>  0 0.65733058E+02</rscale>
<asrwt>0</asrwt>
<pdfrwt beam="1">  1        2 0.13954040E-01 0.94027401E+02</pdfrwt>
<pdfrwt beam="2">  1       -2 0.58537712E-02 0.94027401E+02</pdfrwt>
<totfact> 0.56498240E+04</totfact>
</mgrwt>
</event>
<event>
 6    1  0.3062576E-002  0.1014567E+03  0.7546771E-02  0.1367876E+00
          2   -1    0    0  501    0  0.00000000000E+00  0.00000000000E+00  0.68328025680E+03  0.68328025680E+03  0.00000000000E+00 0. -1.
         -2   -1    0    0    0  501 -0.00000000000E+00 -0.00000000000E+00 -0.14400047997E+02  0.14400047997E+02  0.00000000000E+00 0.  1.
         23    2    1    2    0    0 -0.26738949361E+01  0.20009743988E+02  0.66983028691E+03  0.67747035139E+03  0.99427984863E+02 0.  0.
         11    1    3    3    0    0  0.14310895946E+02  0.52596120605E+02  0.53339826067E+03  0.53617614469E+03  0.00000000000E+00 0. -1.
        -11    1    3    3    0    0 -0.16984790882E+02 -0.32586376616E+02  0.13643202624E+03  0.14129420670E+03  0.00000000000E+00 0.  1.
         22    1    1    2    0    0  0.26738949361E+01 -0.20009743988E+02 -0.95007810630E+00  0.20209953414E+02  0.00000000000E+00 0.  1.
<mgrwt>
<rscale>  0 0.67761311E+02</rscale>
<asrwt>0</asrwt>
<pdfrwt beam="1">  1        2 0.10512001E+00 0.10145671E+03</pdfrwt>
<pdfrwt beam="2">  1       -2 0.22153925E-02 0.10145671E+03</pdfrwt>
<totfact> 0.26301526E+04</totfact>
</mgrwt>
</event>
<event>
 6    1  0.3062576E-002  0.9185225E+02  0.7546771E-02  0.1429813E+00
          2   -1    0    0  501    0  0.00000000000E+00  0.00000000000E+00  0.34965561326E+02  0.34965561326E+02  0.00000000000E+00 0. -1.
         -2   -1    0    0    0  501 -0.00000000000E+00 -0.00000000000E+00 -0.77406493651E+02  0.77406493651E+02  0.00000000000E+00 0.  1.
         23    2    1    2    0    0 -0.99806945058E+01 -0.20054429067E+01 -0.30733498725E+02  0.96857543526E+02  0.91286361139E+02 0.  0.
         13    1    3    3    0    0 -0.22587597177E+02 -0.33728966492E+02 -0.44334127113E+02  0.60111209884E+02  0.00000000000E+00 0.  1.
        -13    1    3    3    0    0  0.12606902671E+02  0.31723523585E+02  0.13600628387E+02  0.36746333643E+02  0.00000000000E+00 0. -1.
         22    1    1    2    0    0  0.99806945058E+01  0.20054429067E+01 -0.11707433599E+02  0.15514511451E+02  0.00000000000E+00 0. -1.
<mgrwt>
<rscale>  0 0.52997601E+02</rscale>
<asrwt>0</asrwt>
<pdfrwt beam="1">  1        2 0.53793172E-02 0.91852250E+02</pdfrwt>
<pdfrwt beam="2">  1       -2 0.11908691E-01 0.91852250E+02</pdfrwt>
<totfact> 0.61052814E+04</totfact>
</mgrwt>
</event>
<event>
 6    1  0.3062576E-002  0.9280311E+02  0.7546771E-02  0.1376937E+00
         -2   -1    0    0    0  501 -0.00000000000E+00  0.00000000000E+00  0.14134767016E+02  0.14134767016E+02  0.00000000000E+00 0. -1.
          2   -1    0    0  501    0  0.00000000000E+00 -0.00000000000E+00 -0.42429409530E+03  0.42429409530E+03  0.00000000000E+00 0.  1.
         23    2    1    2    0    0 -0.19251793298E+02 -0.12056472115E+02 -0.40451341857E+03  0.41502231704E+03  0.89980152122E+02 0.  0.
         13    1    3    3    0    0 -0.26531175955E+02  0.22373855069E+02 -0.33796208157E+03  0.33973940199E+03  0.00000000000E+00 0.  1.
        -13    1    3    3    0    0  0.72793826569E+01 -0.34430327184E+02 -0.66551337001E+02  0.75282915051E+02  0.00000000000E+00 0. -1.
         22    1    1    2    0    0  0.19251793298E+02  0.12056472115E+02 -0.56459097125E+01  0.23406545271E+02  0.00000000000E+00 0. -1.
<mgrwt>
<rscale>  0 0.65275781E+02</rscale>
<asrwt>0</asrwt>
<pdfrwt beam="1">  1        2 0.65276007E-01 0.92803113E+02</pdfrwt>
<pdfrwt beam="2">  1       -2 0.21745798E-02 0.92803113E+02</pdfrwt>
<totfact> 0.45225501E+04</totfact>
</mgrwt>
</event>
<event>
 6    1  0.3062576E-002  0.9039971E+02  0.7546771E-02  0.1392991E+00
         -2   -1    0    0    0  501 -0.00000000000E+00  0.00000000000E+00  0.33081059710E+01  0.33081059710E+01  0.00000000000E+00 0.  1.
          2   -1    0    0  501    0  0.00000000000E+00 -0.00000000000E+00 -0.11126254479E+04  0.11126254479E+04  0.00000000000E+00 0. -1.
         23    2    1    2    0    0 -0.73967181696E+01 -0.17447466612E+02 -0.10444464274E+04  0.10483512996E+04  0.88391075814E+02 0.  0.
         13    1    3    3    0    0  0.13611139522E+02  0.32982104311E+02 -0.43561185641E+03  0.43707067137E+03  0.00000000000E+00 0. -1.
        -13    1    3    3    0    0 -0.21007857692E+02 -0.50429570923E+02 -0.60883457096E+03  0.61128062827E+03  0.00000000000E+00 0.  1.
         22    1    1    2    0    0  0.73967181696E+01  0.17447466612E+02 -0.64870914537E+02  0.67582254207E+02  0.00000000000E+00 0.  1.
<mgrwt>
<rscale>  0 0.61168956E+02</rscale>
<asrwt>0</asrwt>
<pdfrwt beam="1">  1        2 0.17117317E+00 0.90399711E+02</pdfrwt>
<pdfrwt beam="2">  1       -2 0.50893931E-03 0.90399711E+02</pdfrwt>
<totfact> 0.11243956E+05</totfact>
</mgrwt>
</event>
<event>
 6    1  0.3062576E-002  0.1008217E+03  0.7546771E-02  0.1324367E+00
         -2   -1    0    0    0  501 -0.00000000000E+00  0.00000000000E+00  0.18641320720E+03  0.18641320720E+03  0.00000000000E+00 0.  1.
          2   -1    0    0  501    0  0.00000000000E+00 -0.00000000000E+00 -0.28275626067E+02  0.28275626067E+02  0.00000000000E+00 0. -1.
         23    2    1    2    0    0  0.43416064102E+02  0.41418459371E+00  0.12145653150E+03  0.15785024098E+03  0.90993864420E+02 0.  0.
         13    1    3    3    0    0  0.10454605744E+01 -0.19616231858E+02  0.10702365763E+03  0.10881154733E+03  0.00000000000E+00 0.  1.
        -13    1    3    3    0    0  0.42370603528E+02  0.20030416451E+02  0.14432873869E+02  0.49038693647E+02  0.00000000000E+00 0. -1.
         22    1    1    2    0    0 -0.43416064102E+02 -0.41418459371E+00  0.36681049634E+02  0.56838592287E+02  0.00000000000E+00 0. -1.
<mgrwt>
<rscale>  0 0.81673840E+02</rscale>
<asrwt>0</asrwt>
<pdfrwt beam="1">  1        2 0.43500964E-02 0.10082167E+03</pdfrwt>
<pdfrwt beam="2">  1       -2 0.28678954E-01 0.10082167E+03</pdfrwt>
<totfact> 0.18814986E+04</totfact>
</mgrwt>
</event>
<event>
 6    1  0.3062576E-002  0.9241905E+02  0.7546771E-02  0.1424902E+00
          2   -1    0    0  501    0  0.00000000000E+00  0.00000000000E+00  0.35585023061E+03  0.35585023061E+03  0.00000000000E+00 0. -1.
         -2   -1    0    0    0  501 -0.00000000000E+00 -0.00000000000E+00 -0.78424730210E+01  0.78424730210E+01  0.00000000000E+00 0.  1.
         23    2    1    2    0    0  0.59250721902E+01 -0.89931492927E+01  0.33012509177E+03  0.34281752815E+03  0.91789423001E+02 0.  0.
         11    1    3    3    0    0 -0.11292126473E+01 -0.39671550305E+02  0.28527725286E+03  0.28802468301E+03  0.00000000000E+00 0. -1.
        -11    1    3    3    0    0  0.70542848375E+01  0.30678401012E+02  0.44847838910E+02  0.54792845136E+02  0.00000000000E+00 0.  1.
         22    1    1    2    0    0 -0.59250721902E+01  0.89931492927E+01  0.17882665821E+02  0.20875175485E+02  0.00000000000E+00 0.  1.
<mgrwt>
<rscale>  0 0.53997112E+02</rscale>
<asrwt>0</asrwt>
<pdfrwt beam="1">  1        2 0.54746177E-01 0.92419053E+02</pdfrwt>
<pdfrwt beam="2">  1       -2 0.12065346E-02 0.92419053E+02</pdfrwt>
<totfact> 0.12629580E+05</totfact>
</mgrwt>
</event>
<event>
 6    1  0.3062576E-002  0.9004047E+02  0.7546771E-02  0.1412452E+00
         -1   -1    0    0    0  501 -0.00000000000E+00  0.00000000000E+00  0.56088965670E+02  0.56088965670E+02  0.00000000000E+00 0.  1.
          1   -1    0    0  501    0  0.00000000000E+00 -0.00000000000E+00 -0.51016993839E+02  0.51016993839E+02  0.00000000000E+00 0. -1.
         23    2    1    2    0    0 -0.61485159344E+01  0.12698774700E+02 -0.43412581161E+01  0.90145062566E+02  0.88928188197E+02 0.  0.
         11    1    3    3    0    0  0.40850309414E+02  0.97271011603E+01 -0.85868772109E+01  0.42861389810E+02  0.00000000000E+00 0. -1.
        -11    1    3    3    0    0 -0.46998825349E+02  0.29716735398E+01  0.42456190948E+01  0.47283672756E+02  0.00000000000E+00 0.  1.
         22    1    1    2    0    0  0.61485159344E+01 -0.12698774700E+02  0.94132299467E+01  0.16960896943E+02  0.00000000000E+00 0.  1.
<mgrwt>
<rscale>  0 0.56650293E+02</rscale>
<asrwt>0</asrwt>
<pdfrwt beam="1">  1        1 0.78487683E-02 0.90040467E+02</pdfrwt>
<pdfrwt beam="2">  1       -1 0.86290716E-02 0.90040467E+02</pdfrwt>
<totfact> 0.58351425E+04</totfact>
</mgrwt>
</event>
<event>
 6    1  0.3062576E-002  0.9600358E+02  0.7546771E-02  0.1356749E+00
          2   -1    0    0  501    0  0.00000000000E+00  0.00000000000E+00  0.18237306311E+02  0.18237306311E+02  0.00000000000E+00 0. -1.
         -2   -1    0    0    0  501 -0.00000000000E+00 -0.00000000000E+00 -0.24425065501E+03  0.24425065501E+03  0.00000000000E+00 0.  1.
         23    2    1    2    0    0 -0.20874970369E+02 -0.19706477882E+02 -0.12582272983E+03  0.15826574792E+03  0.91611014415E+02 0.  0.
         13    1    3    3    0    0 -0.43278940616E+02 -0.44850120993E+02 -0.81729656481E+02  0.10278295969E+03  0.00000000000E+00 0. -1.
        -13    1    3    3    0    0  0.22403970247E+02  0.25143643111E+02 -0.44093073353E+02  0.55482788227E+02  0.00000000000E+00 0.  1.
         22    1    1    2    0    0  0.20874970369E+02  0.19706477882E+02 -0.10019061886E+03  0.10422221340E+03  0.00000000000E+00 0.  1.
<mgrwt>
<rscale>  0 0.70992701E+02</rscale>
<asrwt>0</asrwt>
<pdfrwt beam="1">  1        2 0.28057395E-02 0.96003581E+02</pdfrwt>
<pdfrwt beam="2">  1       -2 0.37577023E-01 0.96003581E+02</pdfrwt>
<totfact> 0.20447169E+04</totfact>
</mgrwt>
</event>
<event>
 6    1  0.3062576E-002  0.9209460E+02  0.7546771E-02  0.1426037E+00
         -2   -1    0    0    0  501 -0.00000000000E+00  0.00000000000E+00  0.78543656856E+02  0.78543656856E+02  0.00000000000E+00 0.  1.
          2   -1    0    0  501    0  0.00000000000E+00 -0.00000000000E+00 -0.34165305345E+02  0.34165305345E+02  0.00000000000E+00 0. -1.
         23    2    1    2    0    0  0.38537361551E+01  0.99786471521E+01  0.35126772369E+02  0.98566246834E+02  0.91471253389E+02 0.  0.
         11    1    3    3    0    0  0.26684758029E+01  0.24361168909E+02 -0.26017452141E+02  0.35742063870E+02  0.00000000000E+00 0. -1.
        -11    1    3    3    0    0  0.11852603522E+01 -0.14382521757E+02  0.61144224510E+02  0.62824182965E+02  0.00000000000E+00 0.  1.
         22    1    1    2    0    0 -0.38537361551E+01 -0.99786471521E+01  0.92515791418E+01  0.14142715367E+02  0.00000000000E+00 0.  1.
<mgrwt>
<rscale>  0 0.53763877E+02</rscale>
<asrwt>0</asrwt>
<pdfrwt beam="1">  1        2 0.52562008E-02 0.92094597E+02</pdfrwt>
<pdfrwt beam="2">  1       -2 0.12083640E-01 0.92094597E+02</pdfrwt>
<totfact> 0.61485628E+04</totfact>
</mgrwt>
</event>
<event>
 6    1  0.3062576E-002  0.9242830E+02  0.7546771E-02  0.1406049E+00
          2   -1    0    0  501    0  0.00000000000E+00  0.00000000000E+00  0.49849606495E+03  0.49849606495E+03  0.00000000000E+00 0. -1.
         -2   -1    0    0    0  501 -0.00000000000E+00 -0.00000000000E+00 -0.61463636338E+01  0.61463636338E+01  0.00000000000E+00 0.  1.
         23    2    1    2    0    0 -0.78287746419E+01  0.12104614379E+02  0.46047183618E+03  0.46965657877E+03  0.91297199649E+02 0.  0.
         11    1    3    3    0    0  0.95722790984E+01  0.40259254686E+02  0.38536274165E+03  0.38757822277E+03  0.00000000000E+00 0. -1.
        -11    1    3    3    0    0 -0.17401053740E+02 -0.28154640307E+02  0.75109094538E+02  0.82078356005E+02  0.00000000000E+00 0.  1.
         22    1    1    2    0    0  0.78287746419E+01 -0.12104614379E+02  0.31877865134E+02  0.34985849813E+02  0.00000000000E+00 0.  1.
<mgrwt>
<rscale>  0 0.58084785E+02</rscale>
<asrwt>0</asrwt>
<pdfrwt beam="1">  1        2 0.76691670E-01 0.92428297E+02</pdfrwt>
<pdfrwt beam="2">  1       -2 0.94559480E-03 0.92428297E+02</pdfrwt>
<totfact> 0.12479911E+05</totfact>
</mgrwt>
</event>
<event>
 6    1  0.3062576E-002  0.7560643E+02  0.7546771E-02  0.1434575E+00
          2   -1    0    0  501    0  0.00000000000E+00  0.00000000000E+00  0.22759248659E+02  0.22759248659E+02  0.00000000000E+00 0.  1.
         -2   -1    0    0    0  501 -0.00000000000E+00 -0.00000000000E+00 -0.95401379487E+02  0.95401379487E+02  0.00000000000E+00 0. -1.
         23    2    1    2    0    0 -0.15996292474E+02 -0.57137707141E+01 -0.64228226188E+02  0.99204828507E+02  0.73673634437E+02 0.  0.
         11    1    3    3    0    0 -0.68208255379E+01 -0.26939848683E+02  0.31509527513E+01  0.27967974745E+02  0.00000000000E+00 0.  1.
        -11    1    3    3    0    0 -0.91754669358E+01  0.21226077969E+02 -0.67379178939E+02  0.71236853762E+02  0.00000000000E+00 0. -1.
         22    1    1    2    0    0  0.15996292474E+02  0.57137707141E+01 -0.84139046401E+01  0.18955799639E+02  0.00000000000E+00 0.  1.
<mgrwt>
<rscale>  0 0.52052629E+02</rscale>
<asrwt>0</asrwt>
<pdfrwt beam="1">  1        2 0.35014230E-02 0.75606435E+02</pdfrwt>
<pdfrwt beam="2">  1       -2 0.14677135E-01 0.75606435E+02</pdfrwt>
<totfact> 0.74099376E+04</totfact>
</mgrwt>
</event>
<event>
 6    1  0.3062576E-002  0.9260659E+02  0.7546771E-02  0.1400507E+00
         -2   -1    0    0    0  501 -0.00000000000E+00  0.00000000000E+00  0.41452408363E+02  0.41452408363E+02  0.00000000000E+00 0.  1.
          2   -1    0    0  501    0  0.00000000000E+00 -0.00000000000E+00 -0.71350734801E+02  0.71350734801E+02  0.00000000000E+00 0. -1.
         23    2    1    2    0    0  0.14002811726E+02  0.69681729258E+01 -0.29374064778E+02  0.97153573827E+02  0.91276212978E+02 0.  0.
         13    1    3    3    0    0  0.53161823724E+02  0.48015057542E+01 -0.17618952288E+02  0.56210865844E+02  0.00000000000E+00 0.  1.
        -13    1    3    3    0    0 -0.39159011999E+02  0.21666671716E+01 -0.11755112490E+02  0.40942707983E+02  0.00000000000E+00 0. -1.
         22    1    1    2    0    0 -0.14002811726E+02 -0.69681729258E+01 -0.52426166058E+00  0.15649569337E+02  0.00000000000E+00 0. -1.
<mgrwt>
<rscale>  0 0.59367133E+02</rscale>
<asrwt>0</asrwt>
<pdfrwt beam="1">  1        2 0.10977036E-01 0.92606594E+02</pdfrwt>
<pdfrwt beam="2">  1       -2 0.63772937E-02 0.92606594E+02</pdfrwt>
<totfact> 0.65856150E+04</totfact>
</mgrwt>
</event>
<event>
 6    1  0.3062576E-002  0.9281507E+02  0.7546771E-02  0.1401555E+00
         -2   -1    0    0    0  501 -0.00000000000E+00  0.00000000000E+00  0.24959465411E+01  0.24959465411E+01  0.00000000000E+00 0.  1.
          2   -1    0    0  501    0  0.00000000000E+00 -0.00000000000E+00 -0.18164181437E+04  0.18164181437E+04  0.00000000000E+00 0. -1.
         23    2    1    2    0    0 -0.12376040054E+02 -0.89622698702E+01 -0.17695895447E+04  0.17720219510E+04  0.91548618030E+02 0.  0.
         13    1    3    3    0    0  0.11453354793E+02  0.37475610548E+02 -0.91628183643E+03  0.91711940580E+03  0.00000000000E+00 0.  1.
        -13    1    3    3    0    0 -0.23829394848E+02 -0.46437880418E+02 -0.85330770822E+03  0.85490254515E+03  0.00000000000E+00 0. -1.
         22    1    1    2    0    0  0.12376040054E+02  0.89622698702E+01 -0.44332652464E+02  0.46892139247E+02  0.00000000000E+00 0.  1.
<mgrwt>
<rscale>  0 0.59121727E+02</rscale>
<asrwt>0</asrwt>
<pdfrwt beam="1">  1        2 0.27944772E+00 0.92815075E+02</pdfrwt>
<pdfrwt beam="2">  1       -2 0.38399346E-03 0.92815075E+02</pdfrwt>
<totfact> 0.72134604E+04</totfact>
</mgrwt>
</event>
<event>
 6    1  0.3062576E-002  0.1311017E+03  0.7546771E-02  0.1240974E+00
          2   -1    0    0  501    0  0.00000000000E+00  0.00000000000E+00  0.85834381862E+03  0.85834381862E+03  0.00000000000E+00 0. -1.
         -2   -1    0    0    0  501 -0.00000000000E+00 -0.00000000000E+00 -0.18007009652E+02  0.18007009652E+02  0.00000000000E+00 0.  1.
         23    2    1    2    0    0 -0.57830685992E+02 -0.76708330521E+02  0.65063398374E+03  0.66371094934E+03  0.89213716778E+02 0.  0.
         13    1    3    3    0    0 -0.17532114311E+01  0.18741790617E+02  0.63490642157E+02  0.66222278029E+02  0.00000000000E+00 0.  1.
        -13    1    3    3    0    0 -0.56077474561E+02 -0.95450121138E+02  0.58714334158E+03  0.59748867131E+03  0.00000000000E+00 0. -1.
         22    1    1    2    0    0  0.57830685992E+02  0.76708330521E+02  0.18970282523E+03  0.21263987893E+03  0.00000000000E+00 0.  1.
<mgrwt>
<rscale>  0 0.12129638E+03</rscale>
<asrwt>0</asrwt>
<pdfrwt beam="1">  1        2 0.13205286E+00 0.13110165E+03</pdfrwt>
<pdfrwt beam="2">  1       -2 0.27703098E-02 0.13110165E+03</pdfrwt>
<totfact> 0.14708296E+04</totfact>
</mgrwt>
</event>
<event>
 6    1  0.3062576E-002  0.9496965E+02  0.7546771E-02  0.1414579E+00
          2   -1    0    0  501    0  0.00000000000E+00  0.00000000000E+00  0.20772215301E+03  0.20772215301E+03  0.00000000000E+00 0. -1.
         -2   -1    0    0    0  501 -0.00000000000E+00 -0.00000000000E+00 -0.18830494257E+02  0.18830494257E+02  0.00000000000E+00 0.  1.
         23    2    1    2    0    0  0.76508100944E+01 -0.87638800418E+01  0.19226377840E+03  0.21444018759E+03  0.94254406161E+02 0.  0.
         13    1    3    3    0    0  0.41938005564E+02  0.23317776480E+02  0.99837989570E+02  0.11077066025E+03  0.00000000000E+00 0. -1.
        -13    1    3    3    0    0 -0.34287195470E+02 -0.32081656522E+02  0.92425788826E+02  0.10366952734E+03  0.00000000000E+00 0.  1.
         22    1    1    2    0    0 -0.76508100944E+01  0.87638800418E+01 -0.33721196470E+01  0.12112459676E+02  0.00000000000E+00 0.  1.
<mgrwt>
<rscale>  0 0.56184572E+02</rscale>
<asrwt>0</asrwt>
<pdfrwt beam="1">  1        2 0.31957253E-01 0.94969646E+02</pdfrwt>
<pdfrwt beam="2">  1       -2 0.28969993E-02 0.94969646E+02</pdfrwt>
<totfact> 0.63479108E+04</totfact>
</mgrwt>
</event>
<event>
 6    1  0.3062576E-002  0.9226402E+02  0.7546771E-02  0.1418224E+00
         -4   -1    0    0    0  501 -0.00000000000E+00  0.00000000000E+00  0.81573861400E+02  0.81573861400E+02  0.00000000000E+00 0.  1.
          4   -1    0    0  501    0  0.00000000000E+00 -0.00000000000E+00 -0.33601103872E+02  0.33601103872E+02  0.00000000000E+00 0. -1.
         23    2    1    2    0    0  0.66303230606E+01  0.99922897231E+01  0.38861072416E+02  0.10011409400E+03  0.91481374229E+02 0.  0.
         13    1    3    3    0    0 -0.72064909650E+01 -0.39732481004E+02  0.13278857646E+02  0.42508018292E+02  0.00000000000E+00 0. -1.
        -13    1    3    3    0    0  0.13836814026E+02  0.49724770727E+02  0.25582214770E+02  0.57606075711E+02  0.00000000000E+00 0.  1.
         22    1    1    2    0    0 -0.66303230606E+01 -0.99922897231E+01  0.91116851125E+01  0.15060871269E+02  0.00000000000E+00 0. -1.
<mgrwt>
<rscale>  0 0.55398345E+02</rscale>
<asrwt>0</asrwt>
<pdfrwt beam="1">  1        4 0.51694006E-02 0.92264017E+02</pdfrwt>
<pdfrwt beam="2">  1       -4 0.12549825E-01 0.92264017E+02</pdfrwt>
<totfact> 0.16848734E+04</totfact>
</mgrwt>
</event>
<event>
 6    1  0.3062576E-002  0.9729754E+02  0.7546771E-02  0.1350624E+00
         -2   -1    0    0    0  501 -0.00000000000E+00  0.00000000000E+00  0.29655071651E+02  0.29655071651E+02  0.00000000000E+00 0.  1.
          2   -1    0    0  501    0  0.00000000000E+00 -0.00000000000E+00 -0.15673010697E+03  0.15673010697E+03  0.00000000000E+00 0. -1.
         23    2    1    2    0    0 -0.93780579048E+01 -0.29125061556E+02 -0.12086838193E+03  0.15516435661E+03  0.92361218223E+02 0.  0.
         11    1    3    3    0    0 -0.82932424559E+00  0.31720449264E+02 -0.64039500955E+02  0.71469800355E+02  0.00000000000E+00 0. -1.
        -11    1    3    3    0    0 -0.85487336592E+01 -0.60845510820E+02 -0.56828880972E+02  0.83694556254E+02  0.00000000000E+00 0.  1.
         22    1    1    2    0    0  0.93780579048E+01  0.29125061556E+02 -0.62066533918E+01  0.31220822011E+02  0.00000000000E+00 0. -1.
<mgrwt>
<rscale>  0 0.72861562E+02</rscale>
<asrwt>0</asrwt>
<pdfrwt beam="1">  1        2 0.24112324E-01 0.97297543E+02</pdfrwt>
<pdfrwt beam="2">  1       -2 0.45623188E-02 0.97297543E+02</pdfrwt>
<totfact> 0.44332811E+04</totfact>
</mgrwt>
</event>
<event>
 6    1  0.3062576E-002  0.9365697E+02  0.7546771E-02  0.1378674E+00
          2   -1    0    0  501    0  0.00000000000E+00  0.00000000000E+00  0.10914809298E+03  0.10914809298E+03  0.00000000000E+00 0. -1.
         -2   -1    0    0    0  501 -0.00000000000E+00 -0.00000000000E+00 -0.38359316308E+02  0.38359316308E+02  0.00000000000E+00 0.  1.
         23    2    1    2    0    0  0.91890424198E+01 -0.19415627810E+02  0.80906174513E+02  0.12376363446E+03  0.91160424734E+02 0.  0.
         11    1    3    3    0    0  0.42650539633E-01  0.26729438468E+02 -0.36744583990E+01  0.26980851439E+02  0.00000000000E+00 0.  1.
        -11    1    3    3    0    0  0.91463918802E+01 -0.46145066278E+02  0.84580632912E+02  0.96782783025E+02  0.00000000000E+00 0. -1.
         22    1    1    2    0    0 -0.91890424198E+01  0.19415627810E+02 -0.10117397841E+02  0.23743774825E+02  0.00000000000E+00 0.  1.
<mgrwt>
<rscale>  0 0.64813486E+02</rscale>
<asrwt>0</asrwt>
<pdfrwt beam="1">  1        2 0.16792014E-01 0.93656971E+02</pdfrwt>
<pdfrwt beam="2">  1       -2 0.59014333E-02 0.93656971E+02</pdfrwt>
<totfact> 0.45048094E+04</totfact>
</mgrwt>
</event>
<event>
 6    1  0.3062576E-002  0.1365380E+03  0.7546771E-02  0.1230831E+00
         -2   -1    0    0    0  501 -0.00000000000E+00  0.00000000000E+00  0.60708109516E+02  0.60708109516E+02  0.00000000000E+00 0.  1.
          2   -1    0    0  501    0  0.00000000000E+00 -0.00000000000E+00 -0.24374405459E+03  0.24374405459E+03  0.00000000000E+00 0. -1.
         23    2    1    2    0    0 -0.55044640799E+02  0.88993447839E+02 -0.12323926312E+03  0.18393084063E+03  0.87709132488E+02 0.  0.
         11    1    3    3    0    0 -0.76318712761E+02  0.47918488317E+02 -0.77099751104E+02  0.11859637035E+03  0.00000000000E+00 0. -1.
        -11    1    3    3    0    0  0.21274071962E+02  0.41074959523E+02 -0.46139512018E+02  0.65334470281E+02  0.00000000000E+00 0.  1.
         22    1    1    2    0    0  0.55044640799E+02 -0.88993447839E+02 -0.59796681948E+02  0.12052132347E+03  0.00000000000E+00 0.  1.
<mgrwt>
<rscale>  0 0.12775143E+03</rscale>
<asrwt>0</asrwt>
<pdfrwt beam="1">  1        2 0.37499085E-01 0.13653805E+03</pdfrwt>
<pdfrwt beam="2">  1       -2 0.93397092E-02 0.13653805E+03</pdfrwt>
<totfact> 0.95965671E+03</totfact>
</mgrwt>
</event>
<event>
 6    1  0.3062576E-002  0.9618388E+02  0.7546771E-02  0.1388209E+00
         -2   -1    0    0    0  501 -0.00000000000E+00  0.00000000000E+00  0.65919133278E+02  0.65919133278E+02  0.00000000000E+00 0.  1.
          2   -1    0    0  501    0  0.00000000000E+00 -0.00000000000E+00 -0.15622153653E+03  0.15622153653E+03  0.00000000000E+00 0. -1.
         23    2    1    2    0    0 -0.12047598458E+02  0.11977775969E+02 -0.13986599483E+03  0.16974638236E+03  0.94671675111E+02 0.  0.
         13    1    3    3    0    0  0.16294215866E+00  0.32523970444E+02 -0.51535619005E+01  0.32930144304E+02  0.00000000000E+00 0.  1.
        -13    1    3    3    0    0 -0.12210540617E+02 -0.20546194475E+02 -0.13471243293E+03  0.13681623806E+03  0.00000000000E+00 0. -1.
         22    1    1    2    0    0  0.12047598458E+02 -0.11977775969E+02  0.49563591585E+02  0.52394287442E+02  0.00000000000E+00 0.  1.
<mgrwt>
<rscale>  0 0.62354235E+02</rscale>
<asrwt>0</asrwt>
<pdfrwt beam="1">  1        2 0.24034082E-01 0.96183875E+02</pdfrwt>
<pdfrwt beam="2">  1       -2 0.10141405E-01 0.96183875E+02</pdfrwt>
<totfact> 0.13233075E+04</totfact>
</mgrwt>
</event>
<event>
 6    1  0.3062576E-002  0.9305876E+02  0.7546771E-02  0.1416434E+00
          1   -1    0    0  501    0  0.00000000000E+00  0.00000000000E+00  0.63068060711E+03  0.63068060711E+03  0.00000000000E+00 0. -1.
         -1   -1    0    0    0  501 -0.00000000000E+00 -0.00000000000E+00 -0.66117883629E+01  0.66117883629E+01  0.00000000000E+00 0.  1.
         23    2    1    2    0    0  0.11859264126E+02 -0.19279785495E+01  0.61559691528E+03  0.62259095353E+03  0.92279868142E+02 0.  0.
         11    1    3    3    0    0 -0.27988697851E+02  0.17842197763E+02  0.44679914112E+03  0.44803033796E+03  0.00000000000E+00 0.  1.
        -11    1    3    3    0    0  0.39847961977E+02 -0.19770176313E+02  0.16879777416E+03  0.17456061556E+03  0.00000000000E+00 0. -1.
         22    1    1    2    0    0 -0.11859264126E+02  0.19279785495E+01  0.84719034648E+01  0.14701441944E+02  0.00000000000E+00 0.  1.
<mgrwt>
<rscale>  0 0.55782572E+02</rscale>
<asrwt>0</asrwt>
<pdfrwt beam="1">  1        1 0.97027738E-01 0.93058763E+02</pdfrwt>
<pdfrwt beam="2">  1       -1 0.10171987E-02 0.93058763E+02</pdfrwt>
<totfact> 0.53500324E+04</totfact>
</mgrwt>
</event>
<event>
 6    1  0.3062576E-002  0.9190085E+02  0.7546771E-02  0.1412306E+00
          2   -1    0    0  501    0  0.00000000000E+00  0.00000000000E+00  0.22458775162E+03  0.22458775162E+03  0.00000000000E+00 0.  1.
         -2   -1    0    0    0  501 -0.00000000000E+00 -0.00000000000E+00 -0.12894328905E+02  0.12894328905E+02  0.00000000000E+00 0. -1.
         23    2    1    2    0    0  0.11593208560E+02 -0.65172514602E+01  0.19853290428E+03  0.21877175459E+03  0.90933434285E+02 0.  0.
         11    1    3    3    0    0  0.25081917444E+01 -0.47928058689E+02  0.85492762649E+02  0.98042859510E+02  0.00000000000E+00 0. -1.
        -11    1    3    3    0    0  0.90850168157E+01  0.41410807229E+02  0.11304014163E+03  0.12072889508E+03  0.00000000000E+00 0.  1.
         22    1    1    2    0    0 -0.11593208560E+02  0.65172514602E+01  0.13160518433E+02  0.18710325939E+02  0.00000000000E+00 0. -1.
<mgrwt>
<rscale>  0 0.56682447E+02</rscale>
<asrwt>0</asrwt>
<pdfrwt beam="1">  1        2 0.34551959E-01 0.91900852E+02</pdfrwt>
<pdfrwt beam="2">  1       -2 0.19837431E-02 0.91900852E+02</pdfrwt>
<totfact> 0.10051203E+05</totfact>
</mgrwt>
</event>
<event>
 6    1  0.3062576E-002  0.9667509E+02  0.7546771E-02  0.1351484E+00
         -2   -1    0    0    0  501 -0.00000000000E+00  0.00000000000E+00  0.85899838745E+02  0.85899838745E+02  0.00000000000E+00 0.  1.
          2   -1    0    0  501    0  0.00000000000E+00 -0.00000000000E+00 -0.91404933685E+03  0.91404933685E+03  0.00000000000E+00 0. -1.
         23    2    1    2    0    0 -0.22711596652E+02 -0.20713672878E+02 -0.90865061785E+03  0.91377897687E+03  0.91658062247E+02 0.  0.
         11    1    3    3    0    0  0.35059484520E+01  0.10744320458E+02 -0.74489297011E+03  0.74497870374E+03  0.00000000000E+00 0. -1.
        -11    1    3    3    0    0 -0.26217545104E+02 -0.31457993337E+02 -0.16375764774E+03  0.16880027313E+03  0.00000000000E+00 0.  1.
         22    1    1    2    0    0  0.22711596652E+02  0.20713672878E+02  0.80501119752E+02  0.86170198723E+02  0.00000000000E+00 0.  1.
<mgrwt>
<rscale>  0 0.72595151E+02</rscale>
<asrwt>0</asrwt>
<pdfrwt beam="1">  1        2 0.14062297E+00 0.96675091E+02</pdfrwt>
<pdfrwt beam="2">  1       -2 0.13215360E-01 0.96675091E+02</pdfrwt>
<totfact> 0.12524482E+03</totfact>
</mgrwt>
</event>
<event>
 6    1  0.3062576E-002  0.9017084E+02  0.7546771E-02  0.1429067E+00
         -3   -1    0    0    0  501 -0.00000000000E+00  0.00000000000E+00  0.32889217862E+02  0.32889217862E+02  0.00000000000E+00 0.  1.
          3   -1    0    0  501    0  0.00000000000E+00 -0.00000000000E+00 -0.10641659147E+03  0.10641659147E+03  0.00000000000E+00 0. -1.
         23    2    1    2    0    0 -0.94467391138E+01  0.54031649605E+01 -0.84697198425E+02  0.12371093653E+03  0.89511704960E+02 0.  0.
         11    1    3    3    0    0 -0.12829961850E+01  0.16038193481E+02 -0.10118720763E+03  0.10245838530E+03  0.00000000000E+00 0. -1.
        -11    1    3    3    0    0 -0.81637429288E+01 -0.10635028520E+02  0.16490009208E+02  0.21252551233E+02  0.00000000000E+00 0.  1.
         22    1    1    2    0    0  0.94467391138E+01 -0.54031649605E+01  0.11169824812E+02  0.15594872805E+02  0.00000000000E+00 0.  1.
<mgrwt>
<rscale>  0 0.53147719E+02</rscale>
<asrwt>0</asrwt>
<pdfrwt beam="1">  1        3 0.16371784E-01 0.90170840E+02</pdfrwt>
<pdfrwt beam="2">  1       -3 0.50598796E-02 0.90170840E+02</pdfrwt>
<totfact> 0.14607964E+04</totfact>
</mgrwt>
</event>
<event>
 6    1  0.3062576E-002  0.9338748E+02  0.7546771E-02  0.1404603E+00
          2   -1    0    0  501    0  0.00000000000E+00  0.00000000000E+00  0.17363208751E+03  0.17363208751E+03  0.00000000000E+00 0. -1.
         -2   -1    0    0    0  501 -0.00000000000E+00 -0.00000000000E+00 -0.16827669210E+02  0.16827669210E+02  0.00000000000E+00 0.  1.
         23    2    1    2    0    0  0.21307110974E+01 -0.14137672130E+02  0.14127319194E+03  0.16934974262E+03  0.92286547568E+02 0.  0.
         11    1    3    3    0    0 -0.43708556381E+02 -0.47952810538E+01  0.88534102656E+02  0.98852010371E+02  0.00000000000E+00 0. -1.
        -11    1    3    3    0    0  0.45839267478E+02 -0.93423910762E+01  0.52739089285E+02  0.70497732251E+02  0.00000000000E+00 0.  1.
         22    1    1    2    0    0 -0.21307110974E+01  0.14137672130E+02  0.15531226363E+02  0.21110014102E+02  0.00000000000E+00 0. -1.
<mgrwt>
<rscale>  0 0.58415786E+02</rscale>
<asrwt>0</asrwt>
<pdfrwt beam="1">  1        2 0.26712628E-01 0.93387475E+02</pdfrwt>
<pdfrwt beam="2">  1       -2 0.25888723E-02 0.93387475E+02</pdfrwt>
<totfact> 0.90366533E+04</totfact>
</mgrwt>
</event>
<event>
 6    1  0.3062576E-002  0.9215859E+02  0.7546771E-02  0.1399445E+00
          2   -1    0    0  501    0  0.00000000000E+00  0.00000000000E+00  0.14375773675E+03  0.14375773675E+03  0.00000000000E+00 0. -1.
         -2   -1    0    0    0  501 -0.00000000000E+00 -0.00000000000E+00 -0.38566815103E+02  0.38566815103E+02  0.00000000000E+00 0.  1.
         23    2    1    2    0    0  0.13674954088E+02  0.85712741402E+01  0.12592733960E+03  0.15604775337E+03  0.90734422149E+02 0.  0.
         11    1    3    3    0    0  0.22145092383E+01 -0.34574542981E+02  0.96624061973E+02  0.10264751544E+03  0.00000000000E+00 0. -1.
        -11    1    3    3    0    0  0.11460444850E+02  0.43145817121E+02  0.29303277624E+02  0.53400237927E+02  0.00000000000E+00 0.  1.
         22    1    1    2    0    0 -0.13674954088E+02 -0.85712741402E+01 -0.20736417946E+02  0.26276798491E+02  0.00000000000E+00 0.  1.
<mgrwt>
<rscale>  0 0.59617234E+02</rscale>
<asrwt>0</asrwt>
<pdfrwt beam="1">  1        2 0.22116575E-01 0.92158594E+02</pdfrwt>
<pdfrwt beam="2">  1       -2 0.59333562E-02 0.92158594E+02</pdfrwt>
<totfact> 0.32732713E+04</totfact>
</mgrwt>
</event>
<event>
 6    1  0.3062576E-002  0.9333440E+02  0.7546771E-02  0.1397224E+00
         -2   -1    0    0    0  501 -0.00000000000E+00  0.00000000000E+00  0.40984814181E+01  0.40984814181E+01  0.00000000000E+00 0. -1.
          2   -1    0    0  501    0  0.00000000000E+00 -0.00000000000E+00 -0.73839781483E+03  0.73839781483E+03  0.00000000000E+00 0.  1.
         23    2    1    2    0    0 -0.84804077199E+01 -0.13678950237E+02 -0.65096362498E+03  0.65762067375E+03  0.91936274130E+02 0.  0.
         13    1    3    3    0    0 -0.22777113831E+02 -0.52186941611E+01 -0.63191032116E+03  0.63234222196E+03  0.00000000000E+00 0.  1.
        -13    1    3    3    0    0  0.14296706111E+02 -0.84602560754E+01 -0.19053303821E+02  0.25278451791E+02  0.00000000000E+00 0. -1.
         22    1    1    2    0    0  0.84804077199E+01  0.13678950237E+02 -0.83335708424E+02  0.84875622491E+02  0.00000000000E+00 0.  1.
<mgrwt>
<rscale>  0 0.60145101E+02</rscale>
<asrwt>0</asrwt>
<pdfrwt beam="1">  1        2 0.11359960E+00 0.93334396E+02</pdfrwt>
<pdfrwt beam="2">  1       -2 0.63053598E-03 0.93334396E+02</pdfrwt>
<totfact> 0.14216939E+05</totfact>
</mgrwt>
</event>
<event>
 6    1  0.3062576E-002  0.9567985E+02  0.7546771E-02  0.1405917E+00
         -2   -1    0    0    0  501 -0.00000000000E+00  0.00000000000E+00  0.37005007760E+01  0.37005007760E+01  0.00000000000E+00 0. -1.
          2   -1    0    0  501    0  0.00000000000E+00 -0.00000000000E+00 -0.12905512069E+04  0.12905512069E+04  0.00000000000E+00 0.  1.
         23    2    1    2    0    0 -0.12791018170E+02 -0.24442445866E+01 -0.12663837525E+04  0.12699930872E+04  0.94789495324E+02 0.  0.
         13    1    3    3    0    0 -0.89384134243E+01 -0.17529636480E+02 -0.53408825351E+02  0.56918239740E+02  0.00000000000E+00 0. -1.
        -13    1    3    3    0    0 -0.38526047459E+01  0.15085391894E+02 -0.12129749272E+04  0.12130748475E+04  0.00000000000E+00 0.  1.
         22    1    1    2    0    0  0.12791018170E+02  0.24442445866E+01 -0.20466953616E+02  0.24258620483E+02  0.00000000000E+00 0. -1.
<mgrwt>
<rscale>  0 0.58115050E+02</rscale>
<asrwt>0</asrwt>
<pdfrwt beam="1">  1        2 0.19854616E+00 0.95679846E+02</pdfrwt>
<pdfrwt beam="2">  1       -2 0.56930833E-03 0.95679846E+02</pdfrwt>
<totfact> 0.77410496E+04</totfact>
</mgrwt>
</event>
<event>
 6    1  0.3062576E-002  0.1006424E+03  0.7546771E-02  0.1324351E+00
          2   -1    0    0  501    0  0.00000000000E+00  0.00000000000E+00  0.13335396189E+04  0.13335396189E+04  0.00000000000E+00 0. -1.
         -2   -1    0    0    0  501 -0.00000000000E+00 -0.00000000000E+00 -0.64025035371E+01  0.64025035371E+01  0.00000000000E+00 0.  1.
         23    2    1    2    0    0 -0.40908821107E+02  0.15263194609E+02  0.12214691908E+04  0.12256083696E+04  0.90677421842E+02 0.  0.
         13    1    3    3    0    0 -0.68663279851E+02  0.78042130871E+01  0.98032063919E+03  0.98275332986E+03  0.00000000000E+00 0. -1.
        -13    1    3    3    0    0  0.27754458744E+02  0.74589815223E+01  0.24114855159E+03  0.24285503973E+03  0.00000000000E+00 0.  1.
         22    1    1    2    0    0  0.40908821107E+02 -0.15263194609E+02  0.10566792457E+03  0.11433375283E+03  0.00000000000E+00 0.  1.
<mgrwt>
<rscale>  0 0.81679906E+02</rscale>
<asrwt>0</asrwt>
<pdfrwt beam="1">  1        2 0.20515972E+00 0.10064239E+03</pdfrwt>
<pdfrwt beam="2">  1       -2 0.98500160E-03 0.10064239E+03</pdfrwt>
<totfact> 0.34043094E+04</totfact>
</mgrwt>
</event>
<event>
 6    1  0.3062576E-002  0.9119950E+02  0.7546771E-02  0.1428839E+00
         -4   -1    0    0    0  501 -0.00000000000E+00  0.00000000000E+00  0.67368924576E+02  0.67368924576E+02  0.00000000000E+00 0. -1.
          4   -1    0    0  501    0  0.00000000000E+00 -0.00000000000E+00 -0.85570338197E+02  0.85570338197E+02  0.00000000000E+00 0.  1.
         23    2    1    2    0    0 -0.80535999965E+01  0.68228800197E+01 -0.60435232012E+02  0.10940642941E+03  0.90586629056E+02 0.  0.
         13    1    3    3    0    0  0.37467698902E+02 -0.10470831467E+02 -0.11970023651E+02  0.40703172343E+02  0.00000000000E+00 0. -1.
        -13    1    3    3    0    0 -0.45521298898E+02  0.17293711486E+02 -0.48465208360E+02  0.68703257068E+02  0.00000000000E+00 0.  1.
         22    1    1    2    0    0  0.80535999965E+01 -0.68228800197E+01  0.42233818390E+02  0.43532833362E+02  0.00000000000E+00 0. -1.
<mgrwt>
<rscale>  0 0.53193790E+02</rscale>
<asrwt>0</asrwt>
<pdfrwt beam="1">  1        4 0.13164667E-01 0.91199504E+02</pdfrwt>
<pdfrwt beam="2">  1       -4 0.10364450E-01 0.91199504E+02</pdfrwt>
<totfact> 0.49677687E+03</totfact>
</mgrwt>
</event>
<event>
 6    1  0.3062576E-002  0.9591911E+02  0.7546771E-02  0.1354907E+00
         -2   -1    0    0    0  501 -0.00000000000E+00  0.00000000000E+00  0.20742572803E+02  0.20742572803E+02  0.00000000000E+00 0.  1.
          2   -1    0    0  501    0  0.00000000000E+00 -0.00000000000E+00 -0.40249185928E+03  0.40249185928E+03  0.00000000000E+00 0. -1.
         23    2    1    2    0    0 -0.13319129273E+02 -0.26539612511E+02 -0.38167171344E+03  0.39354005123E+03  0.91207043812E+02 0.  0.
         13    1    3    3    0    0 -0.19528480004E+02 -0.41767102426E+02 -0.87460154137E+02  0.98869261846E+02  0.00000000000E+00 0.  1.
        -13    1    3    3    0    0  0.62093507311E+01  0.15227489915E+02 -0.29421155930E+03  0.29467078938E+03  0.00000000000E+00 0. -1.
         22    1    1    2    0    0  0.13319129273E+02  0.26539612511E+02 -0.77573033938E-01  0.29694380856E+02  0.00000000000E+00 0.  1.
<mgrwt>
<rscale>  0 0.71547925E+02</rscale>
<asrwt>0</asrwt>
<pdfrwt beam="1">  1        2 0.61921821E-01 0.95919107E+02</pdfrwt>
<pdfrwt beam="2">  1       -2 0.31911652E-02 0.95919107E+02</pdfrwt>
<totfact> 0.27530162E+04</totfact>
</mgrwt>
</event>
<event>
 6    1  0.3062576E-002  0.9187969E+02  0.7546771E-02  0.1393526E+00
          1   -1    0    0  501    0  0.00000000000E+00  0.00000000000E+00  0.34208160970E+02  0.34208160970E+02  0.00000000000E+00 0. -1.
         -1   -1    0    0    0  501 -0.00000000000E+00 -0.00000000000E+00 -0.17120289375E+03  0.17120289375E+03  0.00000000000E+00 0.  1.
         23    2    1    2    0    0 -0.13549990386E+02 -0.11689687890E+02 -0.29591835963E+02  0.96527477965E+02  0.90120065492E+02 0.  0.
         11    1    3    3    0    0  0.20530654023E+02 -0.35495533540E+02  0.64471886601E+01  0.41509118246E+02  0.00000000000E+00 0.  1.
        -11    1    3    3    0    0 -0.34080644409E+02  0.23805845650E+02 -0.36039024623E+02  0.55018359720E+02  0.00000000000E+00 0. -1.
         22    1    1    2    0    0  0.13549990386E+02  0.11689687890E+02 -0.10740289682E+03  0.10888357676E+03  0.00000000000E+00 0.  1.
<mgrwt>
<rscale>  0 0.61038093E+02</rscale>
<asrwt>0</asrwt>
<pdfrwt beam="1">  1        1 0.52627940E-02 0.91879689E+02</pdfrwt>
<pdfrwt beam="2">  1       -1 0.26338907E-01 0.91879689E+02</pdfrwt>
<totfact> 0.17590716E+04</totfact>
</mgrwt>
</event>
<event>
 6    1  0.3062576E-002  0.8845565E+02  0.7546771E-02  0.1416420E+00
         -1   -1    0    0    0  501 -0.00000000000E+00  0.00000000000E+00  0.22900017559E+03  0.22900017559E+03  0.00000000000E+00 0.  1.
          1   -1    0    0  501    0  0.00000000000E+00 -0.00000000000E+00 -0.11513223597E+02  0.11513223597E+02  0.00000000000E+00 0. -1.
         23    2    1    2    0    0  0.12210050095E+02  0.68351919798E+01  0.18167942742E+03  0.20206884185E+03  0.87341841787E+02 0.  0.
         11    1    3    3    0    0  0.31491460600E+02 -0.23113986080E+02  0.39725408797E+02  0.55714240076E+02  0.00000000000E+00 0. -1.
        -11    1    3    3    0    0 -0.19281410505E+02  0.29949178059E+02  0.14195401862E+03  0.14635460178E+03  0.00000000000E+00 0.  1.
         22    1    1    2    0    0 -0.12210050095E+02 -0.68351919798E+01  0.35807524576E+02  0.38444557338E+02  0.00000000000E+00 0.  1.
<mgrwt>
<rscale>  0 0.55785614E+02</rscale>
<asrwt>0</asrwt>
<pdfrwt beam="1">  1        1 0.17712653E-02 0.88455653E+02</pdfrwt>
<pdfrwt beam="2">  1       -1 0.35230793E-01 0.88455653E+02</pdfrwt>
<totfact> 0.47761456E+04</totfact>
</mgrwt>
</event>
<event>
 6    1  0.3062576E-002  0.6458656E+02  0.7546771E-02  0.1426734E+00
          1   -1    0    0  501    0  0.00000000000E+00  0.00000000000E+00  0.46330606522E+03  0.46330606522E+03  0.00000000000E+00 0.  1.
         -1   -1    0    0    0  501 -0.00000000000E+00 -0.00000000000E+00 -0.50282730214E+01  0.50282730214E+01  0.00000000000E+00 0. -1.
         23    2    1    2    0    0 -0.30361021449E+02  0.44444900006E+01  0.27323337948E+03  0.28076307233E+03  0.56832015721E+02 0.  0.
         13    1    3    3    0    0 -0.27393647027E+02  0.20375564191E+02  0.81713825965E+02  0.88559160268E+02  0.00000000000E+00 0. -1.
        -13    1    3    3    0    0 -0.29673744219E+01 -0.15931074190E+02  0.19151955351E+03  0.19220391206E+03  0.00000000000E+00 0.  1.
         22    1    1    2    0    0  0.30361021449E+02 -0.44444900006E+01  0.18504441272E+03  0.18757126591E+03  0.00000000000E+00 0.  1.
<mgrwt>
<rscale>  0 0.53621225E+02</rscale>
<asrwt>0</asrwt>
<pdfrwt beam="1">  1        1 0.71277823E-01 0.64586555E+02</pdfrwt>
<pdfrwt beam="2">  1       -1 0.77358083E-03 0.64586555E+02</pdfrwt>
<totfact> 0.11117755E+05</totfact>
</mgrwt>
</event>
<event>
 6    1  0.3062576E-002  0.9273527E+02  0.7546771E-02  0.1390230E+00
          2   -1    0    0  501    0  0.00000000000E+00  0.00000000000E+00  0.70011666141E+03  0.70011666141E+03  0.00000000000E+00 0. -1.
         -2   -1    0    0    0  501 -0.00000000000E+00 -0.00000000000E+00 -0.47235120787E+01  0.47235120787E+01  0.00000000000E+00 0.  1.
         23    2    1    2    0    0 -0.16945211348E+02  0.70384673457E+01  0.63454737169E+03  0.64128792044E+03  0.90901868956E+02 0.  0.
         11    1    3    3    0    0  0.37279132040E+01 -0.32261019717E+02  0.10562464414E+03  0.11050446227E+03  0.00000000000E+00 0.  1.
        -11    1    3    3    0    0 -0.20673124552E+02  0.39299487063E+02  0.52892272754E+03  0.53078345818E+03  0.00000000000E+00 0. -1.
         22    1    1    2    0    0  0.16945211348E+02 -0.70384673457E+01  0.60845777647E+02  0.63552253049E+02  0.00000000000E+00 0. -1.
<mgrwt>
<rscale>  0 0.61849458E+02</rscale>
<asrwt>0</asrwt>
<pdfrwt beam="1">  1        2 0.10771017E+00 0.92735268E+02</pdfrwt>
<pdfrwt beam="2">  1       -2 0.72669472E-03 0.92735268E+02</pdfrwt>
<totfact> 0.12383769E+05</totfact>
</mgrwt>
</event>
<event>
 6    1  0.3062576E-002  0.9210957E+02  0.7546771E-02  0.1423704E+00
          2   -1    0    0  501    0  0.00000000000E+00  0.00000000000E+00  0.16350059520E+04  0.16350059520E+04  0.00000000000E+00 0. -1.
         -2   -1    0    0    0  501 -0.00000000000E+00 -0.00000000000E+00 -0.86382086971E+01  0.86382086971E+01  0.00000000000E+00 0.  1.
         23    2    1    2    0    0  0.38513445348E+01 -0.10388641875E+02  0.16295229075E+04  0.16321241001E+04  0.91440775324E+02 0.  0.
         11    1    3    3    0    0 -0.16448252356E+01 -0.28055880015E+02  0.15577872906E+04  0.15580407827E+04  0.00000000000E+00 0. -1.
        -11    1    3    3    0    0  0.54961697704E+01  0.17667238140E+02  0.71735616929E+02  0.74083317433E+02  0.00000000000E+00 0.  1.
         22    1    1    2    0    0 -0.38513445348E+01  0.10388641875E+02 -0.31551641921E+01  0.11520060582E+02  0.00000000000E+00 0.  1.
<mgrwt>
<rscale>  0 0.54244938E+02</rscale>
<asrwt>0</asrwt>
<pdfrwt beam="1">  1        2 0.25153913E+00 0.92109566E+02</pdfrwt>
<pdfrwt beam="2">  1       -2 0.13289565E-02 0.92109566E+02</pdfrwt>
<totfact> 0.15461448E+04</totfact>
</mgrwt>
</event>
<event>
 6    1  0.3062576E-002  0.1028308E+03  0.7546771E-02  0.1331002E+00
         -2   -1    0    0    0  501 -0.00000000000E+00  0.00000000000E+00  0.10110359053E+02  0.10110359053E+02  0.00000000000E+00 0.  1.
          2   -1    0    0  501    0  0.00000000000E+00 -0.00000000000E+00 -0.51328561190E+03  0.51328561190E+03  0.00000000000E+00 0. -1.
         23    2    1    2    0    0 -0.42669540834E+01 -0.36147956460E+02 -0.42341387981E+03  0.43572181124E+03  0.96173289005E+02 0.  0.
         11    1    3    3    0    0 -0.10700321320E+02  0.73732269844E+01 -0.34924481295E+03  0.34948648146E+03  0.00000000000E+00 0. -1.
        -11    1    3    3    0    0  0.64333672366E+01 -0.43521183445E+02 -0.74169066864E+02  0.86235329778E+02  0.00000000000E+00 0.  1.
         22    1    1    2    0    0  0.42669540834E+01  0.36147956460E+02 -0.79761373038E+02  0.87674159718E+02  0.00000000000E+00 0. -1.
<mgrwt>
<rscale>  0 0.79316711E+02</rscale>
<asrwt>0</asrwt>
<pdfrwt beam="1">  1        2 0.78966990E-01 0.10283085E+03</pdfrwt>
<pdfrwt beam="2">  1       -2 0.15554404E-02 0.10283085E+03</pdfrwt>
<totfact> 0.60409754E+04</totfact>
</mgrwt>
</event>
<event>
 6    1  0.3062576E-002  0.9292313E+02  0.7546771E-02  0.1386343E+00
         -1   -1    0    0    0  501 -0.00000000000E+00  0.00000000000E+00  0.59070910056E+01  0.59070910056E+01  0.00000000000E+00 0.  1.
          1   -1    0    0  501    0  0.00000000000E+00 -0.00000000000E+00 -0.70245131753E+03  0.70245131753E+03  0.00000000000E+00 0. -1.
         23    2    1    2    0    0  0.44878825516E+01  0.18890598882E+02 -0.66393672653E+03  0.67040785028E+03  0.90871959738E+02 0.  0.
         13    1    3    3    0    0  0.39240666233E+02  0.33228069488E+02 -0.47442000803E+03  0.47719836389E+03  0.00000000000E+00 0. -1.
        -13    1    3    3    0    0 -0.34752783682E+02 -0.14337470606E+02 -0.18951671851E+03  0.19320948639E+03  0.00000000000E+00 0.  1.
         22    1    1    2    0    0 -0.44878825516E+01 -0.18890598882E+02 -0.32607499990E+02  0.37950558250E+02  0.00000000000E+00 0.  1.
<mgrwt>
<rscale>  0 0.62825355E+02</rscale>
<asrwt>0</asrwt>
<pdfrwt beam="1">  1        1 0.10806948E+00 0.92923134E+02</pdfrwt>
<pdfrwt beam="2">  1       -1 0.90878288E-03 0.92923134E+02</pdfrwt>
<totfact> 0.54016215E+04</totfact>
</mgrwt>
</event>
<event>
 6    1  0.3062576E-002  0.9282398E+02  0.7546771E-02  0.1393184E+00
          1   -1    0    0  501    0  0.00000000000E+00  0.00000000000E+00  0.13486966030E+02  0.13486966030E+02  0.00000000000E+00 0. -1.
         -1   -1    0    0    0  501 -0.00000000000E+00 -0.00000000000E+00 -0.23841251891E+03  0.23841251891E+03  0.00000000000E+00 0.  1.
         23    2    1    2    0    0 -0.12769504537E+02  0.11893381455E+02 -0.16316316787E+03  0.18771923119E+03  0.91168951088E+02 0.  0.
         13    1    3    3    0    0 -0.27497446162E+02 -0.82890122121E+01 -0.69872020124E+01  0.29557372360E+02  0.00000000000E+00 0. -1.
        -13    1    3    3    0    0  0.14727941624E+02  0.20182393667E+02 -0.15617596586E+03  0.15816185883E+03  0.00000000000E+00 0.  1.
         22    1    1    2    0    0  0.12769504537E+02 -0.11893381455E+02 -0.61762385013E+02  0.64180253747E+02  0.00000000000E+00 0. -1.
<mgrwt>
<rscale>  0 0.61121754E+02</rscale>
<asrwt>0</asrwt>
<pdfrwt beam="1">  1        1 0.20749180E-02 0.92823975E+02</pdfrwt>
<pdfrwt beam="2">  1       -1 0.36678847E-01 0.92823975E+02</pdfrwt>
<totfact> 0.36101638E+04</totfact>
</mgrwt>
</event>
<event>
 6    1  0.3062576E-002  0.9797473E+02  0.7546771E-02  0.1341471E+00
          4   -1    0    0  501    0  0.00000000000E+00  0.00000000000E+00  0.39077656587E+03  0.39077656587E+03  0.00000000000E+00 0. -1.
         -4   -1    0    0    0  501 -0.00000000000E+00 -0.00000000000E+00 -0.20451950646E+02  0.20451950646E+02  0.00000000000E+00 0.  1.
         23    2    1    2    0    0 -0.11891312045E+02 -0.32988210506E+02  0.36222225819E+03  0.37523860787E+03  0.91484551575E+02 0.  0.
         11    1    3    3    0    0 -0.32275737206E+02  0.20241007491E+02  0.19149247869E+03  0.19524546343E+03  0.00000000000E+00 0.  1.
        -11    1    3    3    0    0  0.20384425161E+02 -0.53229217997E+02  0.17072977950E+03  0.17999314444E+03  0.00000000000E+00 0. -1.
         22    1    1    2    0    0  0.11891312045E+02  0.32988210506E+02  0.81023570349E+01  0.35989908642E+02  0.00000000000E+00 0.  1.
<mgrwt>
<rscale>  0 0.75780448E+02</rscale>
<asrwt>0</asrwt>
<pdfrwt beam="1">  1        4 0.60119466E-01 0.97974734E+02</pdfrwt>
<pdfrwt beam="2">  1       -4 0.31464542E-02 0.97974734E+02</pdfrwt>
<totfact> 0.20117494E+03</totfact>
</mgrwt>
</event>
<event>
 6    1  0.3062576E-002  0.1051709E+03  0.7546771E-02  0.1311809E+00
          2   -1    0    0  501    0  0.00000000000E+00  0.00000000000E+00  0.27982865157E+02  0.27982865157E+02  0.00000000000E+00 0. -1.
         -2   -1    0    0    0  501 -0.00000000000E+00 -0.00000000000E+00 -0.25906482498E+03  0.25906482498E+03  0.00000000000E+00 0.  1.
         23    2    1    2    0    0 -0.89795026721E+01  0.47056946868E+02 -0.91256369016E+02  0.13924314501E+03  0.93626603210E+02 0.  0.
         11    1    3    3    0    0 -0.33748806611E+02  0.40131536036E+01  0.15100136740E+01  0.34020104215E+02  0.00000000000E+00 0. -1.
        -11    1    3    3    0    0  0.24769303939E+02  0.43043793264E+02 -0.92766382690E+02  0.10522304079E+03  0.00000000000E+00 0.  1.
         22    1    1    2    0    0  0.89795026721E+01 -0.47056946868E+02 -0.13982559081E+03  0.14780454513E+03  0.00000000000E+00 0. -1.
<mgrwt>
<rscale>  0 0.86401124E+02</rscale>
<asrwt>0</asrwt>
<pdfrwt beam="1">  1        2 0.43050562E-02 0.10517095E+03</pdfrwt>
<pdfrwt beam="2">  1       -2 0.39856127E-01 0.10517095E+03</pdfrwt>
<totfact> 0.10509240E+04</totfact>
</mgrwt>
</event>
<event>
 6    1  0.3062576E-002  0.9774946E+02  0.7546771E-02  0.1347405E+00
          2   -1    0    0  501    0  0.00000000000E+00  0.00000000000E+00  0.12517603580E+03  0.12517603580E+03  0.00000000000E+00 0. -1.
         -2   -1    0    0    0  501 -0.00000000000E+00 -0.00000000000E+00 -0.39501800009E+02  0.39501800009E+02  0.00000000000E+00 0.  1.
         23    2    1    2    0    0 -0.31852100797E+02  0.13681190279E+01  0.89542566539E+02  0.13256254261E+03  0.92404157941E+02 0.  0.
         11    1    3    3    0    0 -0.37536927689E+02  0.39206448465E+02  0.72773440120E+02  0.90786233144E+02  0.00000000000E+00 0. -1.
        -11    1    3    3    0    0  0.56848268917E+01 -0.37838329437E+02  0.16769126419E+02  0.41776309462E+02  0.00000000000E+00 0.  1.
         22    1    1    2    0    0  0.31852100797E+02 -0.13681190279E+01 -0.38683307462E+01  0.32115293205E+02  0.00000000000E+00 0.  1.
<mgrwt>
<rscale>  0 0.73870383E+02</rscale>
<asrwt>0</asrwt>
<pdfrwt beam="1">  1        2 0.19257852E-01 0.97749458E+02</pdfrwt>
<pdfrwt beam="2">  1       -2 0.60772000E-02 0.97749458E+02</pdfrwt>
<totfact> 0.37107848E+04</totfact>
</mgrwt>
</event>
<event>
 6    1  0.3062576E-002  0.9220271E+02  0.7546771E-02  0.1405013E+00
          2   -1    0    0  501    0  0.00000000000E+00  0.00000000000E+00  0.22049887302E+04  0.22049887302E+04  0.00000000000E+00 0.  1.
         -2   -1    0    0    0  501 -0.00000000000E+00 -0.00000000000E+00 -0.21641118956E+01  0.21641118956E+01  0.00000000000E+00 0. -1.
         23    2    1    2    0    0 -0.14760099102E+02 -0.12748350490E-01  0.21578324989E+04  0.21598014800E+04  0.91013618863E+02 0.  0.
         13    1    3    3    0    0  0.17828038314E+02 -0.22788382736E+02  0.26917696485E+03  0.27072751568E+03  0.00000000000E+00 0. -1.
        -13    1    3    3    0    0 -0.32588137416E+02  0.22775634385E+02  0.18886555340E+04  0.18890739643E+04  0.00000000000E+00 0.  1.
         22    1    1    2    0    0  0.14760099102E+02  0.12748350490E-01  0.44992119390E+02  0.47351362127E+02  0.00000000000E+00 0. -1.
<mgrwt>
<rscale>  0 0.58321693E+02</rscale>
<asrwt>0</asrwt>
<pdfrwt beam="1">  1        2 0.33922724E+00 0.92202709E+02</pdfrwt>
<pdfrwt beam="2">  1       -2 0.33294206E-03 0.92202709E+02</pdfrwt>
<totfact> 0.56042490E+04</totfact>
</mgrwt>
</event>
<event>
 6    1  0.3062576E-002  0.8193363E+02  0.7546771E-02  0.1385043E+00
         -2   -1    0    0    0  501 -0.00000000000E+00  0.00000000000E+00  0.75398990893E+01  0.75398990893E+01  0.00000000000E+00 0.  1.
          2   -1    0    0  501    0  0.00000000000E+00 -0.00000000000E+00 -0.51446202776E+03  0.51446202776E+03  0.00000000000E+00 0. -1.
         23    2    1    2    0    0  0.90403743510E+01 -0.27476947808E+02 -0.45715384742E+03  0.46443811141E+03  0.76657733400E+02 0.  0.
         13    1    3    3    0    0 -0.27941229656E+02  0.74267324466E+01 -0.11783280542E+03  0.12132781504E+03  0.00000000000E+00 0.  1.
        -13    1    3    3    0    0  0.36981604007E+02 -0.34903680255E+02 -0.33932104200E+03  0.34311029637E+03  0.00000000000E+00 0. -1.
         22    1    1    2    0    0 -0.90403743510E+01  0.27476947808E+02 -0.49768281251E+02  0.57563815439E+02  0.00000000000E+00 0.  1.
<mgrwt>
<rscale>  0 0.63156575E+02</rscale>
<asrwt>0</asrwt>
<pdfrwt beam="1">  1        2 0.79148034E-01 0.81933626E+02</pdfrwt>
<pdfrwt beam="2">  1       -2 0.11599840E-02 0.81933626E+02</pdfrwt>
<totfact> 0.88737008E+04</totfact>
</mgrwt>
</event>
<event>
 6    1  0.3062576E-002  0.8990497E+02  0.7546771E-02  0.1396035E+00
          1   -1    0    0  501    0  0.00000000000E+00  0.00000000000E+00  0.46484043700E+03  0.46484043700E+03  0.00000000000E+00 0. -1.
         -1   -1    0    0    0  501 -0.00000000000E+00 -0.00000000000E+00 -0.64098837061E+01  0.64098837061E+01  0.00000000000E+00 0.  1.
         23    2    1    2    0    0  0.67375297235E+01 -0.17069841567E+02  0.40117719746E+03  0.41112777458E+03  0.88012098457E+02 0.  0.
         11    1    3    3    0    0 -0.37812006242E+01 -0.15842997041E+02  0.40015739569E+03  0.40048875060E+03  0.00000000000E+00 0. -1.
        -11    1    3    3    0    0  0.10518730348E+02 -0.12268445267E+01  0.10198017687E+01  0.10639023981E+02  0.00000000000E+00 0.  1.
         22    1    1    2    0    0 -0.67375297235E+01  0.17069841567E+02  0.57253355834E+02  0.60122546122E+02  0.00000000000E+00 0.  1.
<mgrwt>
<rscale>  0 0.60430342E+02</rscale>
<asrwt>0</asrwt>
<pdfrwt beam="1">  1        1 0.71513887E-01 0.89904968E+02</pdfrwt>
<pdfrwt beam="2">  1       -1 0.98613632E-03 0.89904968E+02</pdfrwt>
<totfact> 0.82947925E+04</totfact>
</mgrwt>
</event>
<event>
 6    1  0.3062576E-002  0.1035718E+03  0.7546771E-02  0.1314355E+00
         -1   -1    0    0    0  501 -0.00000000000E+00  0.00000000000E+00  0.17483350863E+03  0.17483350863E+03  0.00000000000E+00 0.  1.
          1   -1    0    0  501    0  0.00000000000E+00 -0.00000000000E+00 -0.42037750470E+02  0.42037750470E+02  0.00000000000E+00 0. -1.
         23    2    1    2    0    0  0.24105129554E+02  0.41397934564E+02  0.37390232199E+02  0.11011424228E+03  0.91827395866E+02 0.  0.
         13    1    3    3    0    0  0.20362652853E+02  0.39928683413E+01 -0.27902837257E+02  0.34772819210E+02  0.00000000000E+00 0. -1.
        -13    1    3    3    0    0  0.37424767011E+01  0.37405066222E+02  0.65293069455E+02  0.75341423068E+02  0.00000000000E+00 0.  1.
         22    1    1    2    0    0 -0.24105129554E+02 -0.41397934564E+02  0.95405525959E+02  0.10675701682E+03  0.00000000000E+00 0.  1.
<mgrwt>
<rscale>  0 0.85413266E+02</rscale>
<asrwt>0</asrwt>
<pdfrwt beam="1">  1        1 0.64673463E-02 0.10357180E+03</pdfrwt>
<pdfrwt beam="2">  1       -1 0.26897462E-01 0.10357180E+03</pdfrwt>
<totfact> 0.13044750E+04</totfact>
</mgrwt>
</event>
<event>
 6    1  0.3062576E-002  0.9504213E+02  0.7546771E-02  0.1399938E+00
         -2   -1    0    0    0  501 -0.00000000000E+00  0.00000000000E+00  0.51890519200E+01  0.51890519200E+01  0.00000000000E+00 0.  1.
          2   -1    0    0  501    0  0.00000000000E+00 -0.00000000000E+00 -0.57933721434E+03  0.57933721434E+03  0.00000000000E+00 0. -1.
         23    2    1    2    0    0 -0.91150154631E+01 -0.11404989682E+02 -0.50100680578E+03  0.50994198275E+03  0.93914051291E+02 0.  0.
         13    1    3    3    0    0 -0.10792472346E+02  0.19926047585E+01 -0.49507100869E+03  0.49519264088E+03  0.00000000000E+00 0. -1.
        -13    1    3    3    0    0  0.16774568831E+01 -0.13397594440E+02 -0.59357970881E+01  0.14749341865E+02  0.00000000000E+00 0.  1.
         22    1    1    2    0    0  0.91150154631E+01  0.11404989682E+02 -0.73141356635E+02  0.74584283511E+02  0.00000000000E+00 0.  1.
<mgrwt>
<rscale>  0 0.59501052E+02</rscale>
<asrwt>0</asrwt>
<pdfrwt beam="1">  1        2 0.89128738E-01 0.95042129E+02</pdfrwt>
<pdfrwt beam="2">  1       -2 0.79831626E-03 0.95042129E+02</pdfrwt>
<totfact> 0.13502677E+05</totfact>
</mgrwt>
</event>
<event>
 6    1  0.3062576E-002  0.9207002E+02  0.7546771E-02  0.1390531E+00
          2   -1    0    0  501    0  0.00000000000E+00  0.00000000000E+00  0.52143394396E+03  0.52143394396E+03  0.00000000000E+00 0. -1.
         -2   -1    0    0    0  501 -0.00000000000E+00 -0.00000000000E+00 -0.60047063364E+01  0.60047063364E+01  0.00000000000E+00 0.  1.
         23    2    1    2    0    0  0.97995374483E+01 -0.15878737844E+02  0.45384145408E+03  0.46308633618E+03  0.90159436942E+02 0.  0.
         13    1    3    3    0    0 -0.15557420957E+02  0.32392624428E+02  0.22411108449E+03  0.22697377305E+03  0.00000000000E+00 0.  1.
        -13    1    3    3    0    0  0.25356958405E+02 -0.48271362271E+02  0.22973036959E+03  0.23611256313E+03  0.00000000000E+00 0. -1.
         22    1    1    2    0    0 -0.97995374483E+01  0.15878737844E+02  0.61587783540E+02  0.64352314108E+02  0.00000000000E+00 0.  1.
<mgrwt>
<rscale>  0 0.61774874E+02</rscale>
<asrwt>0</asrwt>
<pdfrwt beam="1">  1        2 0.80220571E-01 0.92070024E+02</pdfrwt>
<pdfrwt beam="2">  1       -2 0.92380138E-03 0.92070024E+02</pdfrwt>
<totfact> 0.12276895E+05</totfact>
</mgrwt>
</event>
<event>
 6    1  0.3062576E-002  0.9377946E+02  0.7546771E-02  0.1421519E+00
         -3   -1    0    0    0  501 -0.00000000000E+00  0.00000000000E+00  0.10184320696E+03  0.10184320696E+03  0.00000000000E+00 0.  1.
          3   -1    0    0  501    0  0.00000000000E+00 -0.00000000000E+00 -0.35157164198E+02  0.35157164198E+02  0.00000000000E+00 0. -1.
         23    2    1    2    0    0  0.94184499140E+01  0.53976809241E+01  0.29572304461E+02  0.98331627595E+02  0.93149050645E+02 0.  0.
         11    1    3    3    0    0  0.91279123596E+01  0.47430801278E+02  0.28910600145E+02  0.56292295162E+02  0.00000000000E+00 0. -1.
        -11    1    3    3    0    0  0.29053755442E+00 -0.42033120354E+02  0.66170431610E+00  0.42039332432E+02  0.00000000000E+00 0.  1.
         22    1    1    2    0    0 -0.94184499140E+01 -0.53976809241E+01  0.37113738300E+02  0.38668743563E+02  0.00000000000E+00 0.  1.
<mgrwt>
<rscale>  0 0.54700764E+02</rscale>
<asrwt>0</asrwt>
<pdfrwt beam="1">  1        3 0.54087945E-02 0.93779464E+02</pdfrwt>
<pdfrwt beam="2">  1       -3 0.15668186E-01 0.93779464E+02</pdfrwt>
<totfact> 0.14316610E+04</totfact>
</mgrwt>
</event>
<event>
 6    1  0.3062576E-002  0.1080078E+03  0.7546771E-02  0.1387091E+00
         -2   -1    0    0    0  501 -0.00000000000E+00  0.00000000000E+00  0.17682917505E+01  0.17682917505E+01  0.00000000000E+00 0. -1.
          2   -1    0    0  501    0  0.00000000000E+00 -0.00000000000E+00 -0.32590276471E+04  0.32590276471E+04  0.00000000000E+00 0.  1.
         23    2    1    2    0    0 -0.85283707791E+01  0.87464848454E+01 -0.32148074208E+04  0.32166212759E+04  0.10731470184E+03 0.  0.
         13    1    3    3    0    0 -0.20224280889E+02  0.55860137323E+02 -0.17177139473E+04  0.17187409873E+04  0.00000000000E+00 0.  1.
        -13    1    3    3    0    0  0.11695910110E+02 -0.47113652478E+02 -0.14970934735E+04  0.14978802886E+04  0.00000000000E+00 0. -1.
         22    1    1    2    0    0  0.85283707791E+01 -0.87464848454E+01 -0.42451934532E+02  0.44174662996E+02  0.00000000000E+00 0. -1.
<mgrwt>
<rscale>  0 0.62636109E+02</rscale>
<asrwt>0</asrwt>
<pdfrwt beam="1">  1        2 0.50138642E+00 0.10800777E+03</pdfrwt>
<pdfrwt beam="2">  1       -2 0.27204621E-03 0.10800777E+03</pdfrwt>
<totfact> 0.19774296E+04</totfact>
</mgrwt>
</event>
<event>
 6    1  0.3062576E-002  0.9538648E+02  0.7546771E-02  0.1368065E+00
          2   -1    0    0  501    0  0.00000000000E+00  0.00000000000E+00  0.56453358429E+03  0.56453358429E+03  0.00000000000E+00 0. -1.
         -2   -1    0    0    0  501 -0.00000000000E+00 -0.00000000000E+00 -0.67741194805E+01  0.67741194805E+01  0.00000000000E+00 0.  1.
         23    2    1    2    0    0  0.57268863033E+01  0.23528813244E+02  0.49356489362E+03  0.50269760795E+03  0.92261468322E+02 0.  0.
         13    1    3    3    0    0  0.46251067035E+02  0.50780173236E+01  0.32658582252E+03  0.32988368698E+03  0.00000000000E+00 0. -1.
        -13    1    3    3    0    0 -0.40524180732E+02  0.18450795920E+02  0.16697907110E+03  0.17281392097E+03  0.00000000000E+00 0.  1.
         22    1    1    2    0    0 -0.57268863033E+01 -0.23528813244E+02  0.64194571184E+02  0.68610095824E+02  0.00000000000E+00 0.  1.
<mgrwt>
<rscale>  0 0.67707936E+02</rscale>
<asrwt>0</asrwt>
<pdfrwt beam="1">  1        2 0.86851283E-01 0.95386481E+02</pdfrwt>
<pdfrwt beam="2">  1       -2 0.10421727E-02 0.95386481E+02</pdfrwt>
<totfact> 0.95342819E+04</totfact>
</mgrwt>
</event>
<event>
 6    1  0.3062576E-002  0.7698235E+02  0.7546771E-02  0.1383041E+00
          2   -1    0    0  501    0  0.00000000000E+00  0.00000000000E+00  0.93956208716E+03  0.93956208716E+03  0.00000000000E+00 0. -1.
         -2   -1    0    0    0  501 -0.00000000000E+00 -0.00000000000E+00 -0.35944832006E+01  0.35944832006E+01  0.00000000000E+00 0.  1.
         23    2    1    2    0    0 -0.18488352335E+02  0.30918348416E+02  0.73150839124E+03  0.73554796479E+03  0.68033216977E+02 0.  0.
         13    1    3    3    0    0 -0.24532415912E+02 -0.16750335162E+01  0.93511151931E+02  0.96690127227E+02  0.00000000000E+00 0. -1.
        -13    1    3    3    0    0  0.60440635766E+01  0.32593381932E+02  0.63799723931E+03  0.63885783756E+03  0.00000000000E+00 0.  1.
         22    1    1    2    0    0  0.18488352335E+02 -0.30918348416E+02  0.20445921272E+03  0.20760860557E+03  0.00000000000E+00 0.  1.
<mgrwt>
<rscale>  0 0.63671167E+02</rscale>
<asrwt>0</asrwt>
<pdfrwt beam="1">  1        2 0.14454782E+00 0.76982349E+02</pdfrwt>
<pdfrwt beam="2">  1       -2 0.55299816E-03 0.76982349E+02</pdfrwt>
<totfact> 0.12327350E+05</totfact>
</mgrwt>
</event>
<event>
 6    1  0.3062576E-002  0.9827216E+02  0.7546771E-02  0.1329683E+00
          2   -1    0    0  501    0  0.00000000000E+00  0.00000000000E+00  0.38136060704E+03  0.38136060704E+03  0.00000000000E+00 0. -1.
         -2   -1    0    0    0  501 -0.00000000000E+00 -0.00000000000E+00 -0.13576018407E+02  0.13576018407E+02  0.00000000000E+00 0.  1.
         23    2    1    2    0    0 -0.15408468501E+02 -0.39802965297E+02  0.29018700549E+03  0.30637544966E+03  0.88519608267E+02 0.  0.
         13    1    3    3    0    0  0.23317124915E+02 -0.30605335322E+02  0.23613765566E+03  0.23925168188E+03  0.00000000000E+00 0. -1.
        -13    1    3    3    0    0 -0.38725593416E+02 -0.91976299743E+01  0.54049349837E+02  0.67123767775E+02  0.00000000000E+00 0.  1.
         22    1    1    2    0    0  0.15408468501E+02  0.39802965297E+02  0.77597583142E+02  0.88561175791E+02  0.00000000000E+00 0.  1.
<mgrwt>
<rscale>  0 0.79777864E+02</rscale>
<asrwt>0</asrwt>
<pdfrwt beam="1">  1        2 0.58670855E-01 0.98272163E+02</pdfrwt>
<pdfrwt beam="2">  1       -2 0.20886185E-02 0.98272163E+02</pdfrwt>
<totfact> 0.54027938E+04</totfact>
</mgrwt>
</event>
<event>
 6    1  0.3062576E-002  0.9259457E+02  0.7546771E-02  0.1414275E+00
         -2   -1    0    0    0  501 -0.00000000000E+00  0.00000000000E+00  0.35756367424E+02  0.35756367424E+02  0.00000000000E+00 0.  1.
          2   -1    0    0  501    0  0.00000000000E+00 -0.00000000000E+00 -0.85034391329E+02  0.85034391329E+02  0.00000000000E+00 0. -1.
         23    2    1    2    0    0 -0.11120441448E+02 -0.59478915415E+01 -0.54156136231E+02  0.10726901287E+03  0.91731741504E+02 0.  0.
         11    1    3    3    0    0 -0.48675998131E+02  0.13203767716E+02 -0.29097124028E+02  0.58226582440E+02  0.00000000000E+00 0.  1.
        -11    1    3    3    0    0  0.37555556683E+02 -0.19151659258E+02 -0.25059012203E+02  0.49042430432E+02  0.00000000000E+00 0. -1.
         22    1    1    2    0    0  0.11120441448E+02  0.59478915415E+01  0.48781123267E+01  0.13521745880E+02  0.00000000000E+00 0. -1.
<mgrwt>
<rscale>  0 0.56250707E+02</rscale>
<asrwt>0</asrwt>
<pdfrwt beam="1">  1        2 0.13082214E-01 0.92594568E+02</pdfrwt>
<pdfrwt beam="2">  1       -2 0.55009797E-02 0.92594568E+02</pdfrwt>
<totfact> 0.66731613E+04</totfact>
</mgrwt>
</event>
<event>
 6    1  0.3062576E-002  0.9338869E+02  0.7546771E-02  0.1413907E+00
          2   -1    0    0  501    0  0.00000000000E+00  0.00000000000E+00  0.11822954439E+03  0.11822954439E+03  0.00000000000E+00 0. -1.
         -2   -1    0    0    0  501 -0.00000000000E+00 -0.00000000000E+00 -0.25683404305E+02  0.25683404305E+02  0.00000000000E+00 0.  1.
         23    2    1    2    0    0  0.18063733072E+01  0.12229974409E+02  0.92649436232E+02  0.13154986135E+03  0.92566801441E+02 0.  0.
         11    1    3    3    0    0 -0.32929527172E+01  0.30096738594E+02  0.10497451665E+03  0.10925340433E+03  0.00000000000E+00 0. -1.
        -11    1    3    3    0    0  0.50993260244E+01 -0.17866764185E+02 -0.12325080420E+02  0.22296457021E+02  0.00000000000E+00 0.  1.
         22    1    1    2    0    0 -0.18063733072E+01 -0.12229974409E+02 -0.10329614711E+00  0.12363087344E+02  0.00000000000E+00 0. -1.
<mgrwt>
<rscale>  0 0.56331157E+02</rscale>
<asrwt>0</asrwt>
<pdfrwt beam="1">  1        2 0.18189160E-01 0.93388693E+02</pdfrwt>
<pdfrwt beam="2">  1       -2 0.39512930E-02 0.93388693E+02</pdfrwt>
<totfact> 0.74593074E+04</totfact>
</mgrwt>
</event>
<event>
 6    1  0.3062576E-002  0.9544020E+02  0.7546771E-02  0.1343108E+00
          2   -1    0    0  501    0  0.00000000000E+00  0.00000000000E+00  0.85222065443E+01  0.85222065443E+01  0.00000000000E+00 0. -1.
         -2   -1    0    0    0  501 -0.00000000000E+00 -0.00000000000E+00 -0.51628825283E+03  0.51628825283E+03  0.00000000000E+00 0.  1.
         23    2    1    2    0    0  0.34080451217E+02 -0.14087323900E+02 -0.34866321998E+03  0.36148979568E+03  0.88027845407E+02 0.  0.
         13    1    3    3    0    0  0.44482741687E+02  0.27654967766E+01 -0.75970297059E+02  0.88078648466E+02  0.00000000000E+00 0. -1.
        -13    1    3    3    0    0 -0.10402290470E+02 -0.16852820677E+02 -0.27269292292E+03  0.27341114721E+03  0.00000000000E+00 0.  1.
         22    1    1    2    0    0 -0.34080451217E+02  0.14087323900E+02 -0.15910282631E+03  0.16332066369E+03  0.00000000000E+00 0.  1.
<mgrwt>
<rscale>  0 0.75246805E+02</rscale>
<asrwt>0</asrwt>
<pdfrwt beam="1">  1        2 0.13111091E-02 0.95440198E+02</pdfrwt>
<pdfrwt beam="2">  1       -2 0.79428940E-01 0.95440198E+02</pdfrwt>
<totfact> 0.12739741E+04</totfact>
</mgrwt>
</event>
<event>
 6    1  0.3062576E-002  0.9720503E+02  0.7546771E-02  0.1363612E+00
         -4   -1    0    0    0  501 -0.00000000000E+00  0.00000000000E+00  0.32318782184E+02  0.32318782184E+02  0.00000000000E+00 0.  1.
          4   -1    0    0  501    0  0.00000000000E+00 -0.00000000000E+00 -0.12542545416E+03  0.12542545416E+03  0.00000000000E+00 0. -1.
         23    2    1    2    0    0 -0.63656986945E+01 -0.23807846934E+02 -0.90758507192E+02  0.13298843756E+03  0.94029156130E+02 0.  0.
         13    1    3    3    0    0 -0.19441311631E+01  0.35533832762E+01 -0.10272104063E+03  0.10280086754E+03  0.00000000000E+00 0. -1.
        -13    1    3    3    0    0 -0.44215675314E+01 -0.27361230210E+02  0.11962533434E+02  0.30187570029E+02  0.00000000000E+00 0.  1.
         22    1    1    2    0    0  0.63656986945E+01  0.23807846934E+02 -0.23481647872E+01  0.24755798783E+02  0.00000000000E+00 0. -1.
<mgrwt>
<rscale>  0 0.68975547E+02</rscale>
<asrwt>0</asrwt>
<pdfrwt beam="1">  1        4 0.19296224E-01 0.97205030E+02</pdfrwt>
<pdfrwt beam="2">  1       -4 0.49721202E-02 0.97205030E+02</pdfrwt>
<totfact> 0.86161239E+03</totfact>
</mgrwt>
</event>
<event>
 6    1  0.3062576E-002  0.8924763E+02  0.7546771E-02  0.1424031E+00
         -2   -1    0    0    0  501 -0.00000000000E+00  0.00000000000E+00  0.97832953144E+01  0.97832953144E+01  0.00000000000E+00 0.  1.
          2   -1    0    0  501    0  0.00000000000E+00 -0.00000000000E+00 -0.28327961990E+03  0.28327961990E+03  0.00000000000E+00 0. -1.
         23    2    1    2    0    0  0.11177335642E+02 -0.46839546430E+01 -0.20622183357E+03  0.22470554981E+03  0.88420965912E+02 0.  0.
         11    1    3    3    0    0  0.35411625871E+02  0.30122308146E+02 -0.11767003071E+03  0.12652103707E+03  0.00000000000E+00 0. -1.
        -11    1    3    3    0    0 -0.24234290229E+02 -0.34806262789E+02 -0.88551802865E+02  0.98184512745E+02  0.00000000000E+00 0.  1.
         22    1    1    2    0    0 -0.11177335642E+02  0.46839546430E+01 -0.67274491018E+02  0.68357365403E+02  0.00000000000E+00 0.  1.
<mgrwt>
<rscale>  0 0.54177005E+02</rscale>
<asrwt>0</asrwt>
<pdfrwt beam="1">  1        2 0.43581479E-01 0.89247630E+02</pdfrwt>
<pdfrwt beam="2">  1       -2 0.15051224E-02 0.89247630E+02</pdfrwt>
<totfact> 0.11638739E+05</totfact>
</mgrwt>
</event>
<event>
 6    1  0.3062576E-002  0.1003327E+03  0.7546771E-02  0.1331117E+00
          2   -1    0    0  501    0  0.00000000000E+00  0.00000000000E+00  0.23169714309E+03  0.23169714309E+03  0.00000000000E+00 0. -1.
         -2   -1    0    0    0  501 -0.00000000000E+00 -0.00000000000E+00 -0.28660062311E+02  0.28660062311E+02  0.00000000000E+00 0.  1.
         23    2    1    2    0    0 -0.39082536171E+02 -0.13792294000E+01  0.19660286629E+03  0.22072456704E+03  0.92397513803E+02 0.  0.
         13    1    3    3    0    0 -0.45814315073E+02  0.88041181005E+01  0.20204355703E+03  0.20735974272E+03  0.00000000000E+00 0. -1.
        -13    1    3    3    0    0  0.67317789020E+01 -0.10183347500E+02 -0.54406907455E+01  0.13364824327E+02  0.00000000000E+00 0.  1.
         22    1    1    2    0    0  0.39082536171E+02  0.13792294000E+01  0.64342144944E+01  0.39632638361E+02  0.00000000000E+00 0. -1.
<mgrwt>
<rscale>  0 0.79276611E+02</rscale>
<asrwt>0</asrwt>
<pdfrwt beam="1">  1        2 0.35645713E-01 0.10033268E+03</pdfrwt>
<pdfrwt beam="2">  1       -2 0.44092405E-02 0.10033268E+03</pdfrwt>
<totfact> 0.30739575E+04</totfact>
</mgrwt>
</event>
<event>
 6    1  0.3062576E-002  0.9435205E+02  0.7546771E-02  0.1363379E+00
          4   -1    0    0  501    0  0.00000000000E+00  0.00000000000E+00  0.12858125945E+03  0.12858125945E+03  0.00000000000E+00 0. -1.
         -4   -1    0    0    0  501 -0.00000000000E+00 -0.00000000000E+00 -0.28851274849E+02  0.28851274849E+02  0.00000000000E+00 0.  1.
         23    2    1    2    0    0  0.21342113050E+02 -0.16625063488E+02  0.82698803943E+02  0.12546474364E+03  0.90390437528E+02 0.  0.
         13    1    3    3    0    0  0.39533437181E+02  0.13690681379E+02  0.79661849740E+02  0.89979651677E+02  0.00000000000E+00 0. -1.
        -13    1    3    3    0    0 -0.18191324130E+02 -0.30315744867E+02  0.30369542030E+01  0.35485091958E+02  0.00000000000E+00 0.  1.
         22    1    1    2    0    0 -0.21342113050E+02  0.16625063488E+02  0.17031180661E+02  0.31967790667E+02  0.00000000000E+00 0. -1.
<mgrwt>
<rscale>  0 0.69042799E+02</rscale>
<asrwt>0</asrwt>
<pdfrwt beam="1">  1        4 0.19781732E-01 0.94352052E+02</pdfrwt>
<pdfrwt beam="2">  1       -4 0.44386577E-02 0.94352052E+02</pdfrwt>
<totfact> 0.97886661E+03</totfact>
</mgrwt>
</event>
<event>
 6    1  0.3062576E-002  0.9297885E+02  0.7546771E-02  0.1420337E+00
         -2   -1    0    0    0  501 -0.00000000000E+00  0.00000000000E+00  0.70076622832E+01  0.70076622832E+01  0.00000000000E+00 0. -1.
          2   -1    0    0  501    0  0.00000000000E+00 -0.00000000000E+00 -0.38853374345E+03  0.38853374345E+03  0.00000000000E+00 0.  1.
         23    2    1    2    0    0  0.66899055379E+01  0.91594562543E+01 -0.33661207362E+03  0.34921734558E+03  0.92284429205E+02 0.  0.
         11    1    3    3    0    0 -0.38236052350E+02  0.24287009379E+02 -0.17796712956E+03  0.18364137259E+03  0.00000000000E+00 0. -1.
        -11    1    3    3    0    0  0.44925957888E+02 -0.15127553124E+02 -0.15864494407E+03  0.16557597300E+03  0.00000000000E+00 0.  1.
         22    1    1    2    0    0 -0.66899055379E+01 -0.91594562543E+01 -0.44914007544E+02  0.46324060149E+02  0.00000000000E+00 0. -1.
<mgrwt>
<rscale>  0 0.54949602E+02</rscale>
<asrwt>0</asrwt>
<pdfrwt beam="1">  1        2 0.59774432E-01 0.92978849E+02</pdfrwt>
<pdfrwt beam="2">  1       -2 0.10781017E-02 0.92978849E+02</pdfrwt>
<totfact> 0.13524228E+05</totfact>
</mgrwt>
</event>
<event>
 6    1  0.3062576E-002  0.9046799E+02  0.7546771E-02  0.1402544E+00
         -2   -1    0    0    0  501 -0.00000000000E+00  0.00000000000E+00  0.30945659821E+01  0.30945659821E+01  0.00000000000E+00 0. -1.
          2   -1    0    0  501    0  0.00000000000E+00 -0.00000000000E+00 -0.10757740567E+04  0.10757740567E+04  0.00000000000E+00 0.  1.
         23    2    1    2    0    0  0.56055569450E+01  0.15247311610E+02 -0.10125450945E+04  0.10165785882E+04  0.88997499573E+02 0.  0.
         11    1    3    3    0    0 -0.35050202982E+02  0.11315113229E+02 -0.22667860715E+03  0.22965134325E+03  0.00000000000E+00 0. -1.
        -11    1    3    3    0    0  0.40655759927E+02  0.39321983806E+01 -0.78586648734E+03  0.78692724500E+03  0.00000000000E+00 0.  1.
         22    1    1    2    0    0 -0.56055569450E+01 -0.15247311610E+02 -0.60134396224E+02  0.62290034429E+02  0.00000000000E+00 0. -1.
<mgrwt>
<rscale>  0 0.58891377E+02</rscale>
<asrwt>0</asrwt>
<pdfrwt beam="1">  1        2 0.16550375E+00 0.90467993E+02</pdfrwt>
<pdfrwt beam="2">  1       -2 0.47608694E-03 0.90467993E+02</pdfrwt>
<totfact> 0.12950809E+05</totfact>
</mgrwt>
</event>
<event>
 6    1  0.3062576E-002  0.1050242E+03  0.7546771E-02  0.1309362E+00
          2   -1    0    0  501    0  0.00000000000E+00  0.00000000000E+00  0.58083028471E+03  0.58083028471E+03  0.00000000000E+00 0. -1.
         -2   -1    0    0    0  501 -0.00000000000E+00 -0.00000000000E+00 -0.11790648976E+02  0.11790648976E+02  0.00000000000E+00 0.  1.
         23    2    1    2    0    0  0.33457546806E+02  0.37544608603E+02  0.46944898739E+03  0.48105345495E+03  0.92201245574E+02 0.  0.
         13    1    3    3    0    0  0.24793682208E+02 -0.17026044605E+02  0.52872783848E+02  0.60828810150E+02  0.00000000000E+00 0.  1.
        -13    1    3    3    0    0  0.86638645975E+01  0.54570653208E+02  0.41657620354E+03  0.42022464480E+03  0.00000000000E+00 0. -1.
         22    1    1    2    0    0 -0.33457546806E+02 -0.37544608603E+02  0.99590648339E+02  0.11156747873E+03  0.00000000000E+00 0.  1.
<mgrwt>
<rscale>  0 0.87364628E+02</rscale>
<asrwt>0</asrwt>
<pdfrwt beam="1">  1        2 0.89358483E-01 0.10502416E+03</pdfrwt>
<pdfrwt beam="2">  1       -2 0.18139464E-02 0.10502416E+03</pdfrwt>
<totfact> 0.42375221E+04</totfact>
</mgrwt>
</event>
<event>
 6    1  0.3062576E-002  0.9095840E+02  0.7546771E-02  0.1428748E+00
          2   -1    0    0  501    0  0.00000000000E+00  0.00000000000E+00  0.26085042742E+04  0.26085042742E+04  0.00000000000E+00 0. -1.
         -2   -1    0    0    0  501 -0.00000000000E+00 -0.00000000000E+00 -0.27775080871E+01  0.27775080871E+01  0.00000000000E+00 0.  1.
         23    2    1    2    0    0  0.10193491632E+02  0.30987610899E+01  0.25933763879E+04  0.25949710057E+04  0.90332282296E+02 0.  0.
         11    1    3    3    0    0  0.40183635854E+00  0.41916623911E+02  0.18836854434E+04  0.18841518024E+04  0.00000000000E+00 0. -1.
        -11    1    3    3    0    0  0.97916552737E+01 -0.38817862821E+02  0.70969094456E+03  0.71081920329E+03  0.00000000000E+00 0.  1.
         22    1    1    2    0    0 -0.10193491632E+02 -0.30987610899E+01  0.12350378119E+02  0.16310776549E+02  0.00000000000E+00 0.  1.
<mgrwt>
<rscale>  0 0.53212196E+02</rscale>
<asrwt>0</asrwt>
<pdfrwt beam="1">  1        2 0.40130639E+00 0.90958402E+02</pdfrwt>
<pdfrwt beam="2">  1       -2 0.42731102E-03 0.90958402E+02</pdfrwt>
<totfact> 0.24377547E+04</totfact>
</mgrwt>
</event>
<event>
 6    1  0.3062576E-002  0.1203296E+03  0.7546771E-02  0.1268224E+00
          2   -1    0    0  501    0  0.00000000000E+00  0.00000000000E+00  0.14763804929E+03  0.14763804929E+03  0.00000000000E+00 0. -1.
         -2   -1    0    0    0  501 -0.00000000000E+00 -0.00000000000E+00 -0.77097877021E+02  0.77097877021E+02  0.00000000000E+00 0.  1.
         23    2    1    2    0    0  0.59585363663E+02 -0.41079853357E+02  0.89446996381E+02  0.14993326652E+03  0.96131416986E+02 0.  0.
         13    1    3    3    0    0 -0.54451436582E+01  0.22446482791E+02  0.10338449307E+01  0.23120618817E+02  0.00000000000E+00 0. -1.
        -13    1    3    3    0    0  0.65030507321E+02 -0.63526336148E+02  0.88413151450E+02  0.12681264770E+03  0.00000000000E+00 0.  1.
         22    1    1    2    0    0 -0.59585363663E+02  0.41079853357E+02 -0.18906824111E+02  0.74802659796E+02  0.00000000000E+00 0. -1.
<mgrwt>
<rscale>  0 0.10596802E+03</rscale>
<asrwt>0</asrwt>
<pdfrwt beam="1">  1        2 0.22713546E-01 0.12032963E+03</pdfrwt>
<pdfrwt beam="2">  1       -2 0.11861212E-01 0.12032963E+03</pdfrwt>
<totfact> 0.11232700E+04</totfact>
</mgrwt>
</event>
<event>
 6    1  0.3062576E-002  0.9251614E+02  0.7546771E-02  0.1385489E+00
         -2   -1    0    0    0  501 -0.00000000000E+00  0.00000000000E+00  0.14730219552E+02  0.14730219552E+02  0.00000000000E+00 0.  1.
          2   -1    0    0  501    0  0.00000000000E+00 -0.00000000000E+00 -0.22191350434E+03  0.22191350434E+03  0.00000000000E+00 0. -1.
         23    2    1    2    0    0  0.82738792184E+01 -0.18150459972E+02 -0.18478161751E+03  0.20664820804E+03  0.90340131953E+02 0.  0.
         13    1    3    3    0    0  0.21800827021E+02 -0.10649768615E+02 -0.32741806748E+01  0.24482930573E+02  0.00000000000E+00 0.  1.
        -13    1    3    3    0    0 -0.13526947802E+02 -0.75006913566E+01 -0.18150743683E+03  0.18216527746E+03  0.00000000000E+00 0. -1.
         22    1    1    2    0    0 -0.82738792184E+01  0.18150459972E+02 -0.22401667278E+02  0.29995515854E+02  0.00000000000E+00 0.  1.
<mgrwt>
<rscale>  0 0.63042635E+02</rscale>
<asrwt>0</asrwt>
<pdfrwt beam="1">  1        2 0.34140539E-01 0.92516138E+02</pdfrwt>
<pdfrwt beam="2">  1       -2 0.22661877E-02 0.92516138E+02</pdfrwt>
<totfact> 0.84130264E+04</totfact>
</mgrwt>
</event>
<event>
 6    1  0.3062576E-002  0.9269639E+02  0.7546771E-02  0.1400191E+00
          2   -1    0    0  501    0  0.00000000000E+00  0.00000000000E+00  0.13155974349E+03  0.13155974349E+03  0.00000000000E+00 0.  1.
         -2   -1    0    0    0  501 -0.00000000000E+00 -0.00000000000E+00 -0.22404341541E+02  0.22404341541E+02  0.00000000000E+00 0. -1.
         23    2    1    2    0    0  0.85790744346E+01 -0.13117240845E+02  0.96605384950E+02  0.13388510467E+03  0.91361689599E+02 0.  0.
         13    1    3    3    0    0  0.76873693078E+01  0.39156401742E+02  0.34930307076E+02  0.53032497553E+02  0.00000000000E+00 0. -1.
        -13    1    3    3    0    0  0.89170512685E+00 -0.52273642587E+02  0.61675077874E+02  0.80852607120E+02  0.00000000000E+00 0.  1.
         22    1    1    2    0    0 -0.85790744346E+01  0.13117240845E+02  0.12550016996E+02  0.20078980356E+02  0.00000000000E+00 0.  1.
<mgrwt>
<rscale>  0 0.59441462E+02</rscale>
<asrwt>0</asrwt>
<pdfrwt beam="1">  1        2 0.20239960E-01 0.92696391E+02</pdfrwt>
<pdfrwt beam="2">  1       -2 0.34468218E-02 0.92696391E+02</pdfrwt>
<totfact> 0.80742131E+04</totfact>
</mgrwt>
</event>
<event>
 6    1  0.3062576E-002  0.9375758E+02  0.7546771E-02  0.1375497E+00
          2   -1    0    0  501    0  0.00000000000E+00  0.00000000000E+00  0.50129968911E+03  0.50129968911E+03  0.00000000000E+00 0. -1.
         -2   -1    0    0    0  501 -0.00000000000E+00 -0.00000000000E+00 -0.92832073532E+01  0.92832073532E+01  0.00000000000E+00 0.  1.
         23    2    1    2    0    0 -0.22499755419E+02  0.15800032040E+01  0.46928859551E+03  0.47856271194E+03  0.91004109644E+02 0.  0.
         11    1    3    3    0    0 -0.22369311644E+02 -0.59736255836E+01  0.24497759949E+02  0.33707722388E+02  0.00000000000E+00 0.  1.
        -11    1    3    3    0    0 -0.13044377435E+00  0.75536287877E+01  0.44479083557E+03  0.44485498955E+03  0.00000000000E+00 0. -1.
         22    1    1    2    0    0  0.22499755419E+02 -0.15800032040E+01  0.22727886240E+02  0.32020184524E+02  0.00000000000E+00 0.  1.
<mgrwt>
<rscale>  0 0.65662328E+02</rscale>
<asrwt>0</asrwt>
<pdfrwt beam="1">  1        2 0.77123008E-01 0.93757578E+02</pdfrwt>
<pdfrwt beam="2">  1       -2 0.14281861E-02 0.93757578E+02</pdfrwt>
<totfact> 0.69198658E+04</totfact>
</mgrwt>
</event>
<event>
 6    1  0.3062576E-002  0.9859730E+02  0.7546771E-02  0.1393756E+00
          2   -1    0    0  501    0  0.00000000000E+00  0.00000000000E+00  0.12224672702E+04  0.12224672702E+04  0.00000000000E+00 0. -1.
         -2   -1    0    0    0  501 -0.00000000000E+00 -0.00000000000E+00 -0.29959780338E+01  0.29959780338E+01  0.00000000000E+00 0.  1.
         23    2    1    2    0    0 -0.13723797704E+02 -0.44536462407E+01  0.11632132351E+04  0.11673844520E+04  0.97535895202E+02 0.  0.
         11    1    3    3    0    0  0.20403320212E+02  0.20118379843E+02  0.92795252762E+03  0.92839481806E+03  0.00000000000E+00 0. -1.
        -11    1    3    3    0    0 -0.34127117916E+02 -0.24572026083E+02  0.23526070744E+03  0.23898963389E+03  0.00000000000E+00 0.  1.
         22    1    1    2    0    0  0.13723797704E+02  0.44536462407E+01  0.56258057134E+02  0.58078796309E+02  0.00000000000E+00 0. -1.
<mgrwt>
<rscale>  0 0.60982192E+02</rscale>
<asrwt>0</asrwt>
<pdfrwt beam="1">  1        2 0.18807149E+00 0.98597304E+02</pdfrwt>
<pdfrwt beam="2">  1       -2 0.46092067E-03 0.98597304E+02</pdfrwt>
<totfact> 0.11367244E+05</totfact>
</mgrwt>
</event>
<event>
 6    1  0.3062576E-002  0.9381450E+02  0.7546771E-02  0.1376921E+00
          2   -1    0    0  501    0  0.00000000000E+00  0.00000000000E+00  0.10651851941E+04  0.10651851941E+04  0.00000000000E+00 0. -1.
         -2   -1    0    0    0  501 -0.00000000000E+00 -0.00000000000E+00 -0.51831958811E+01  0.51831958811E+01  0.00000000000E+00 0.  1.
         23    2    1    2    0    0  0.21784472590E+02  0.30331848703E+01  0.10232213211E+04  0.10275130325E+04  0.91199761615E+02 0.  0.
         13    1    3    3    0    0 -0.32015266429E+02  0.18256976737E+02  0.33389007561E+03  0.33591796183E+03  0.00000000000E+00 0.  1.
        -13    1    3    3    0    0  0.53799739019E+02 -0.15223791867E+02  0.68933124553E+03  0.69159507070E+03  0.00000000000E+00 0. -1.
         22    1    1    2    0    0 -0.21784472590E+02 -0.30331848703E+01  0.36780677100E+02  0.42855357476E+02  0.00000000000E+00 0.  1.
<mgrwt>
<rscale>  0 0.65280219E+02</rscale>
<asrwt>0</asrwt>
<pdfrwt beam="1">  1        2 0.16387447E+00 0.93814498E+02</pdfrwt>
<pdfrwt beam="2">  1       -2 0.79741560E-03 0.93814498E+02</pdfrwt>
<totfact> 0.63885454E+04</totfact>
</mgrwt>
</event>
<event>
 6    1  0.3062576E-002  0.9093458E+02  0.7546771E-02  0.1416478E+00
          2   -1    0    0  501    0  0.00000000000E+00  0.00000000000E+00  0.42225349985E+03  0.42225349985E+03  0.00000000000E+00 0. -1.
         -2   -1    0    0    0  501 -0.00000000000E+00 -0.00000000000E+00 -0.64809228849E+01  0.64809228849E+01  0.00000000000E+00 0.  1.
         23    2    1    2    0    0  0.16513447630E+01 -0.12761650073E+02  0.37964087213E+03  0.39037967406E+03  0.90019506054E+02 0.  0.
         13    1    3    3    0    0  0.18846467297E+00 -0.45901599657E+02  0.30836394342E+03  0.31176163005E+03  0.00000000000E+00 0. -1.
        -13    1    3    3    0    0  0.14628800900E+01  0.33139949584E+02  0.71276928711E+02  0.78618044004E+02  0.00000000000E+00 0.  1.
         22    1    1    2    0    0 -0.16513447630E+01  0.12761650073E+02  0.36131704832E+02  0.38354748678E+02  0.00000000000E+00 0. -1.
<mgrwt>
<rscale>  0 0.55773124E+02</rscale>
<asrwt>0</asrwt>
<pdfrwt beam="1">  1        2 0.64962056E-01 0.90934582E+02</pdfrwt>
<pdfrwt beam="2">  1       -2 0.99706538E-03 0.90934582E+02</pdfrwt>
<totfact> 0.13790996E+05</totfact>
</mgrwt>
</event>
<event>
 6    1  0.3062576E-002  0.9280263E+02  0.7546771E-02  0.1415678E+00
         -1   -1    0    0    0  501 -0.00000000000E+00  0.00000000000E+00  0.20945707275E+02  0.20945707275E+02  0.00000000000E+00 0.  1.
          1   -1    0    0  501    0  0.00000000000E+00 -0.00000000000E+00 -0.16603735957E+03  0.16603735957E+03  0.00000000000E+00 0. -1.
         23    2    1    2    0    0  0.12241173760E+02 -0.62746855146E+00 -0.14771537117E+03  0.17444815749E+03  0.91989612018E+02 0.  0.
         13    1    3    3    0    0  0.27262270781E+02 -0.40654623288E+02 -0.65367502441E+02  0.81663579264E+02  0.00000000000E+00 0. -1.
        -13    1    3    3    0    0 -0.15021097021E+02  0.40027154736E+02 -0.82347868728E+02  0.92784578223E+02  0.00000000000E+00 0.  1.
         22    1    1    2    0    0 -0.12241173760E+02  0.62746855146E+00  0.26237188767E+01  0.12534909355E+02  0.00000000000E+00 0.  1.
<mgrwt>
<rscale>  0 0.55945923E+02</rscale>
<asrwt>0</asrwt>
<pdfrwt beam="1">  1        1 0.25544210E-01 0.92802633E+02</pdfrwt>
<pdfrwt beam="2">  1       -1 0.32224165E-02 0.92802633E+02</pdfrwt>
<totfact> 0.54742844E+04</totfact>
</mgrwt>
</event>
<event>
 6    1  0.3062576E-002  0.9152250E+02  0.7546771E-02  0.1430475E+00
          4   -1    0    0  501    0  0.00000000000E+00  0.00000000000E+00  0.38432700198E+02  0.38432700198E+02  0.00000000000E+00 0. -1.
         -4   -1    0    0    0  501 -0.00000000000E+00 -0.00000000000E+00 -0.68545767309E+02  0.68545767309E+02  0.00000000000E+00 0.  1.
         23    2    1    2    0    0  0.10149099849E+02 -0.88791027408E+00 -0.31288541848E+02  0.96723012702E+02  0.90953700984E+02 0.  0.
         13    1    3    3    0    0  0.46002690959E+02  0.18324622409E+02 -0.25302719217E+02  0.55608155531E+02  0.00000000000E+00 0.  1.
        -13    1    3    3    0    0 -0.35853591110E+02 -0.19212532683E+02 -0.59858226312E+01  0.41114857170E+02  0.00000000000E+00 0. -1.
         22    1    1    2    0    0 -0.10149099849E+02  0.88791027408E+00  0.11754747367E+01  0.10255454805E+02  0.00000000000E+00 0. -1.
<mgrwt>
<rscale>  0 0.52864815E+02</rscale>
<asrwt>0</asrwt>
<pdfrwt beam="1">  1        4 0.59127232E-02 0.91522502E+02</pdfrwt>
<pdfrwt beam="2">  1       -4 0.10545503E-01 0.91522502E+02</pdfrwt>
<totfact> 0.18182041E+04</totfact>
</mgrwt>
</event>
<event>
 6    1  0.3062576E-002  0.9458819E+02  0.7546771E-02  0.1365144E+00
         -1   -1    0    0    0  501 -0.00000000000E+00  0.00000000000E+00  0.14211455253E+02  0.14211455253E+02  0.00000000000E+00 0.  1.
          1   -1    0    0  501    0  0.00000000000E+00 -0.00000000000E+00 -0.93103225026E+03  0.93103225026E+03  0.00000000000E+00 0. -1.
         23    2    1    2    0    0  0.96572530658E+01 -0.24216481914E+02 -0.91415632224E+03  0.91903683718E+03  0.90924287505E+02 0.  0.
         11    1    3    3    0    0  0.47751539289E+01 -0.34512086708E+02 -0.12409072374E+03  0.12888907612E+03  0.00000000000E+00 0.  1.
        -11    1    3    3    0    0  0.48820991369E+01  0.10295604794E+02 -0.79006559850E+03  0.79014776106E+03  0.00000000000E+00 0. -1.
         22    1    1    2    0    0 -0.96572530658E+01  0.24216481914E+02 -0.26644727683E+01  0.26206868340E+02  0.00000000000E+00 0.  1.
<mgrwt>
<rscale>  0 0.68535787E+02</rscale>
<asrwt>0</asrwt>
<pdfrwt beam="1">  1        1 0.14323572E+00 0.94588195E+02</pdfrwt>
<pdfrwt beam="2">  1       -1 0.21863780E-02 0.94588195E+02</pdfrwt>
<totfact> 0.10212747E+04</totfact>
</mgrwt>
</event>
<event>
 6    1  0.3062576E-002  0.1483355E+03  0.7546771E-02  0.1213808E+00
          2   -1    0    0  501    0  0.00000000000E+00  0.00000000000E+00  0.46962835472E+03  0.46962835472E+03  0.00000000000E+00 0. -1.
         -2   -1    0    0    0  501 -0.00000000000E+00 -0.00000000000E+00 -0.38195312576E+02  0.38195312576E+02  0.00000000000E+00 0.  1.
         23    2    1    2    0    0 -0.83621408338E+02 -0.81127448009E+02  0.20331539171E+03  0.25167553595E+03  0.91810806205E+02 0.  0.
         11    1    3    3    0    0 -0.21602240291E+02 -0.13482254162E+01  0.11638015055E+03  0.11837573205E+03  0.00000000000E+00 0. -1.
        -11    1    3    3    0    0 -0.62019168047E+02 -0.79779222592E+02  0.86935241159E+02  0.13329980389E+03  0.00000000000E+00 0.  1.
         22    1    1    2    0    0  0.83621408338E+02  0.81127448009E+02  0.22811765044E+03  0.25614813135E+03  0.00000000000E+00 0.  1.
<mgrwt>
<rscale>  0 0.13964428E+03</rscale>
<asrwt>0</asrwt>
<pdfrwt beam="1">  1        2 0.72250512E-01 0.14833552E+03</pdfrwt>
<pdfrwt beam="2">  1       -2 0.58762023E-02 0.14833552E+03</pdfrwt>
<totfact> 0.97771339E+03</totfact>
</mgrwt>
</event>
<event>
 6    1  0.3062576E-002  0.9105678E+02  0.7546771E-02  0.1417922E+00
          2   -1    0    0  501    0  0.00000000000E+00  0.00000000000E+00  0.28257722474E+03  0.28257722474E+03  0.00000000000E+00 0. -1.
         -2   -1    0    0    0  501 -0.00000000000E+00 -0.00000000000E+00 -0.10400054192E+02  0.10400054192E+02  0.00000000000E+00 0.  1.
         23    2    1    2    0    0  0.88742742881E+01 -0.88510278790E+01  0.26007423838E+03  0.27555389218E+03  0.90190047076E+02 0.  0.
         13    1    3    3    0    0 -0.29029269382E+02 -0.31778575049E+02  0.89357143357E+02  0.99183039790E+02  0.00000000000E+00 0. -1.
        -13    1    3    3    0    0  0.37903543670E+02  0.22927547170E+02  0.17071709502E+03  0.17637085239E+03  0.00000000000E+00 0.  1.
         22    1    1    2    0    0 -0.88742742881E+01  0.88510278790E+01  0.12102932173E+02  0.17423386750E+02  0.00000000000E+00 0.  1.
<mgrwt>
<rscale>  0 0.55463081E+02</rscale>
<asrwt>0</asrwt>
<pdfrwt beam="1">  1        2 0.43473413E-01 0.91056785E+02</pdfrwt>
<pdfrwt beam="2">  1       -2 0.16000086E-02 0.91056785E+02</pdfrwt>
<totfact> 0.10727410E+05</totfact>
</mgrwt>
</event>
<event>
 6    1  0.3062576E-002  0.9265984E+02  0.7546771E-02  0.1390522E+00
         -2   -1    0    0    0  501 -0.00000000000E+00  0.00000000000E+00  0.11187829681E+02  0.11187829681E+02  0.00000000000E+00 0.  1.
          2   -1    0    0  501    0  0.00000000000E+00 -0.00000000000E+00 -0.36629478071E+03  0.36629478071E+03  0.00000000000E+00 0. -1.
         23    2    1    2    0    0 -0.13423911590E+02 -0.12448903206E+02 -0.34356338604E+03  0.35583935541E+03  0.90833198989E+02 0.  0.
         11    1    3    3    0    0  0.18210650366E+02 -0.16522668829E+02 -0.22924155256E+02  0.33617603516E+02  0.00000000000E+00 0.  1.
        -11    1    3    3    0    0 -0.31634561956E+02  0.40737656229E+01 -0.32063923078E+03  0.32222175190E+03  0.00000000000E+00 0. -1.
         22    1    1    2    0    0  0.13423911590E+02  0.12448903206E+02 -0.11543564986E+02  0.21643254977E+02  0.00000000000E+00 0.  1.
<mgrwt>
<rscale>  0 0.61777152E+02</rscale>
<asrwt>0</asrwt>
<pdfrwt beam="1">  1        2 0.56353048E-01 0.92659844E+02</pdfrwt>
<pdfrwt beam="2">  1       -2 0.17212044E-02 0.92659844E+02</pdfrwt>
<totfact> 0.73846680E+04</totfact>
</mgrwt>
</event>
<event>
 6    1  0.3062576E-002  0.9562184E+02  0.7546771E-02  0.1378537E+00
         -2   -1    0    0    0  501 -0.00000000000E+00  0.00000000000E+00  0.96165976133E+02  0.96165976133E+02  0.00000000000E+00 0.  1.
          2   -1    0    0  501    0  0.00000000000E+00 -0.00000000000E+00 -0.35524468718E+02  0.35524468718E+02  0.00000000000E+00 0. -1.
         23    2    1    2    0    0 -0.46020903351E+01  0.19698231385E+02  0.42981967340E+02  0.10483790473E+03  0.93457675967E+02 0.  0.
         13    1    3    3    0    0 -0.41574597069E+01  0.14966567609E+02 -0.28894173769E+02  0.32804815119E+02  0.00000000000E+00 0. -1.
        -13    1    3    3    0    0 -0.44463062818E+00  0.47316637756E+01  0.71876141110E+02  0.72033089614E+02  0.00000000000E+00 0.  1.
         22    1    1    2    0    0  0.46020903351E+01 -0.19698231385E+02  0.17659540075E+02  0.26852540118E+02  0.00000000000E+00 0.  1.
<mgrwt>
<rscale>  0 0.64849962E+02</rscale>
<asrwt>0</asrwt>
<pdfrwt beam="1">  1        2 0.54653029E-02 0.95621842E+02</pdfrwt>
<pdfrwt beam="2">  1       -2 0.14794765E-01 0.95621842E+02</pdfrwt>
<totfact> 0.42531226E+04</totfact>
</mgrwt>
</event>
<event>
 6    1  0.3062576E-002  0.1020178E+03  0.7546771E-02  0.1400764E+00
          2   -1    0    0  501    0  0.00000000000E+00  0.00000000000E+00  0.11315158678E+04  0.11315158678E+04  0.00000000000E+00 0. -1.
         -2   -1    0    0    0  501 -0.00000000000E+00 -0.00000000000E+00 -0.14947509850E+02  0.14947509850E+02  0.00000000000E+00 0.  1.
         23    2    1    2    0    0 -0.11641041914E+02  0.50029169936E+00  0.11265262432E+04  0.11311361592E+04  0.10135023328E+03 0.  0.
         13    1    3    3    0    0  0.36018151366E+02 -0.11280596234E+02  0.80491642709E+03  0.80580085237E+03  0.00000000000E+00 0. -1.
        -13    1    3    3    0    0 -0.47659193280E+02  0.11780887933E+02  0.32160981613E+03  0.32533530681E+03  0.00000000000E+00 0.  1.
         22    1    1    2    0    0  0.11641041914E+02 -0.50029169936E+00 -0.99578852394E+01  0.15327218504E+02  0.00000000000E+00 0.  1.
<mgrwt>
<rscale>  0 0.59306889E+02</rscale>
<asrwt>0</asrwt>
<pdfrwt beam="1">  1        2 0.17407930E+00 0.10201781E+03</pdfrwt>
<pdfrwt beam="2">  1       -2 0.22996178E-02 0.10201781E+03</pdfrwt>
<totfact> 0.13024715E+04</totfact>
</mgrwt>
</event>
<event>
 6    1  0.3062576E-002  0.9203335E+02  0.7546771E-02  0.1386824E+00
          1   -1    0    0  501    0  0.00000000000E+00  0.00000000000E+00  0.35670851169E+03  0.35670851169E+03  0.00000000000E+00 0. -1.
         -1   -1    0    0    0  501 -0.00000000000E+00 -0.00000000000E+00 -0.11431127406E+02  0.11431127406E+02  0.00000000000E+00 0.  1.
         23    2    1    2    0    0 -0.16543037801E+02 -0.10935313986E+02  0.33138362387E+03  0.34392621781E+03  0.89871485685E+02 0.  0.
         11    1    3    3    0    0 -0.15883463728E+01  0.36476632459E+02  0.83923728473E+02  0.91521908637E+02  0.00000000000E+00 0.  1.
        -11    1    3    3    0    0 -0.14954691429E+02 -0.47411946445E+02  0.24745989540E+03  0.25240430918E+03  0.00000000000E+00 0. -1.
         22    1    1    2    0    0  0.16543037801E+02  0.10935313986E+02  0.13893760413E+02  0.24213421280E+02  0.00000000000E+00 0.  1.
<mgrwt>
<rscale>  0 0.62703668E+02</rscale>
<asrwt>0</asrwt>
<pdfrwt beam="1">  1        1 0.54878224E-01 0.92033348E+02</pdfrwt>
<pdfrwt beam="2">  1       -1 0.17586353E-02 0.92033348E+02</pdfrwt>
<totfact> 0.51015255E+04</totfact>
</mgrwt>
</event>
<event>
 6    1  0.3062576E-002  0.9243589E+02  0.7546771E-02  0.1426537E+00
          2   -1    0    0  501    0  0.00000000000E+00  0.00000000000E+00  0.57241999501E+03  0.57241999501E+03  0.00000000000E+00 0. -1.
         -2   -1    0    0    0  501 -0.00000000000E+00 -0.00000000000E+00 -0.57845860439E+01  0.57845860439E+01  0.00000000000E+00 0.  1.
         23    2    1    2    0    0  0.45935716812E+00  0.10488460956E+02  0.55452769281E+03  0.56217911342E+03  0.91837762679E+02 0.  0.
         11    1    3    3    0    0 -0.93597522245E+01 -0.36299561056E+02  0.14103681423E+03  0.14593370434E+03  0.00000000000E+00 0.  1.
        -11    1    3    3    0    0  0.98191093926E+01  0.46788022012E+02  0.41349087858E+03  0.41624540909E+03  0.00000000000E+00 0. -1.
         22    1    1    2    0    0 -0.45935716812E+00 -0.10488460956E+02  0.12107716153E+02  0.16025467628E+02  0.00000000000E+00 0.  1.
<mgrwt>
<rscale>  0 0.53661454E+02</rscale>
<asrwt>0</asrwt>
<pdfrwt beam="1">  1        2 0.88064570E-01 0.92435888E+02</pdfrwt>
<pdfrwt beam="2">  1       -2 0.88993676E-03 0.92435888E+02</pdfrwt>
<totfact> 0.11689337E+05</totfact>
</mgrwt>
</event>
<event>
 6    1  0.3062576E-002  0.9156858E+02  0.7546771E-02  0.1418970E+00
          2   -1    0    0  501    0  0.00000000000E+00  0.00000000000E+00  0.32947921580E+02  0.32947921580E+02  0.00000000000E+00 0. -1.
         -2   -1    0    0    0  501 -0.00000000000E+00 -0.00000000000E+00 -0.83763813666E+02  0.83763813666E+02  0.00000000000E+00 0.  1.
         23    2    1    2    0    0  0.10048428252E+02  0.67894838401E+01 -0.38214338104E+02  0.99222676841E+02  0.90761974205E+02 0.  0.
         13    1    3    3    0    0 -0.30560666491E+02  0.66906827748E+01 -0.48145284301E+02  0.57416791732E+02  0.00000000000E+00 0.  1.
        -13    1    3    3    0    0  0.40609094743E+02  0.98801065315E-01  0.99309461963E+01  0.41805885110E+02  0.00000000000E+00 0. -1.
         22    1    1    2    0    0 -0.10048428252E+02 -0.67894838401E+01 -0.12601553982E+02  0.17489058405E+02  0.00000000000E+00 0.  1.
<mgrwt>
<rscale>  0 0.55239484E+02</rscale>
<asrwt>0</asrwt>
<pdfrwt beam="1">  1        2 0.50689111E-02 0.91568575E+02</pdfrwt>
<pdfrwt beam="2">  1       -2 0.12886740E-01 0.91568575E+02</pdfrwt>
<totfact> 0.58122381E+04</totfact>
</mgrwt>
</event>
<event>
 6    1  0.3062576E-002  0.9392159E+02  0.7546771E-02  0.1424666E+00
          2   -1    0    0  501    0  0.00000000000E+00  0.00000000000E+00  0.34315214443E+03  0.34315214443E+03  0.00000000000E+00 0.  1.
         -2   -1    0    0    0  501 -0.00000000000E+00 -0.00000000000E+00 -0.10157573204E+02  0.10157573204E+02  0.00000000000E+00 0. -1.
         23    2    1    2    0    0 -0.45349663094E+01 -0.92456781548E+01  0.32919824201E+03  0.34233426322E+03  0.93355325254E+02 0.  0.
         11    1    3    3    0    0  0.26347534335E+02  0.25113810558E+02  0.68461022093E+02  0.77535847144E+02  0.00000000000E+00 0. -1.
        -11    1    3    3    0    0 -0.30882500645E+02 -0.34359488713E+02  0.26073721991E+03  0.26479841608E+03  0.00000000000E+00 0.  1.
         22    1    1    2    0    0  0.45349663094E+01  0.92456781548E+01  0.37963292220E+01  0.10975454411E+02  0.00000000000E+00 0. -1.
<mgrwt>
<rscale>  0 0.54045823E+02</rscale>
<asrwt>0</asrwt>
<pdfrwt beam="1">  1        2 0.52792629E-01 0.93921591E+02</pdfrwt>
<pdfrwt beam="2">  1       -2 0.15627038E-02 0.93921591E+02</pdfrwt>
<totfact> 0.90970029E+04</totfact>
</mgrwt>
</event>
<event>
 6    1  0.3062576E-002  0.9545917E+02  0.7546771E-02  0.1378217E+00
         -2   -1    0    0    0  501 -0.00000000000E+00  0.00000000000E+00  0.31979140276E+02  0.31979140276E+02  0.00000000000E+00 0.  1.
          2   -1    0    0  501    0  0.00000000000E+00 -0.00000000000E+00 -0.15985746790E+03  0.15985746790E+03  0.00000000000E+00 0. -1.
         23    2    1    2    0    0  0.16766523038E+02 -0.11689023355E+02 -0.13895812769E+03  0.16858770430E+03  0.93245392537E+02 0.  0.
         13    1    3    3    0    0 -0.18677432510E+02 -0.15188670720E+02  0.10735351383E+01  0.24097607373E+02  0.00000000000E+00 0.  1.
        -13    1    3    3    0    0  0.35443955548E+02  0.34996473655E+01 -0.14003166282E+03  0.14449009693E+03  0.00000000000E+00 0. -1.
         22    1    1    2    0    0 -0.16766523038E+02  0.11689023355E+02  0.11079800066E+02  0.23248903872E+02  0.00000000000E+00 0. -1.
<mgrwt>
<rscale>  0 0.64934834E+02</rscale>
<asrwt>0</asrwt>
<pdfrwt beam="1">  1        2 0.24593457E-01 0.95459168E+02</pdfrwt>
<pdfrwt beam="2">  1       -2 0.49198677E-02 0.95459168E+02</pdfrwt>
<totfact> 0.38695148E+04</totfact>
</mgrwt>
</event>
<event>
 6    1  0.3062576E-002  0.8975482E+02  0.7546771E-02  0.1434536E+00
         -2   -1    0    0    0  501 -0.00000000000E+00  0.00000000000E+00  0.22041091930E+01  0.22041091930E+01  0.00000000000E+00 0. -1.
          2   -1    0    0  501    0  0.00000000000E+00 -0.00000000000E+00 -0.17344148878E+04  0.17344148878E+04  0.00000000000E+00 0.  1.
         23    2    1    2    0    0  0.98466879893E+01  0.24997259039E+01 -0.17080849184E+04  0.17104414680E+04  0.89178030099E+02 0.  0.
         13    1    3    3    0    0 -0.12959348788E+02  0.92965952042E+00 -0.37262581097E+02  0.39462753805E+02  0.00000000000E+00 0. -1.
        -13    1    3    3    0    0  0.22806036778E+02  0.15700663835E+01 -0.16708223373E+04  0.16709787142E+04  0.00000000000E+00 0.  1.
         22    1    1    2    0    0 -0.98466879893E+01 -0.24997259039E+01 -0.24125860172E+02  0.26177528970E+02  0.00000000000E+00 0. -1.
<mgrwt>
<rscale>  0 0.52060266E+02</rscale>
<asrwt>0</asrwt>
<pdfrwt beam="1">  1        2 0.26683209E+00 0.89754816E+02</pdfrwt>
<pdfrwt beam="2">  1       -2 0.33909496E-03 0.89754816E+02</pdfrwt>
<totfact> 0.94004613E+04</totfact>
</mgrwt>
</event>
<event>
 6    1  0.3062576E-002  0.1011260E+03  0.7546771E-02  0.1323284E+00
         -2   -1    0    0    0  501 -0.00000000000E+00  0.00000000000E+00  0.33288859038E+03  0.33288859038E+03  0.00000000000E+00 0.  1.
          2   -1    0    0  501    0  0.00000000000E+00 -0.00000000000E+00 -0.17390320410E+02  0.17390320410E+02  0.00000000000E+00 0. -1.
         23    2    1    2    0    0  0.33163737693E+02 -0.28707896368E+02  0.16504579121E+03  0.19356284532E+03  0.91117973421E+02 0.  0.
         11    1    3    3    0    0  0.30589446945E+01 -0.22669025242E+02  0.16097215919E+03  0.16258929203E+03  0.00000000000E+00 0.  1.
        -11    1    3    3    0    0  0.30104792999E+02 -0.60388711257E+01  0.40736320273E+01  0.30973553297E+02  0.00000000000E+00 0. -1.
         22    1    1    2    0    0 -0.33163737693E+02  0.28707896368E+02  0.15045247875E+03  0.15671606546E+03  0.00000000000E+00 0.  1.
<mgrwt>
<rscale>  0 0.82067652E+02</rscale>
<asrwt>0</asrwt>
<pdfrwt beam="1">  1        2 0.26754342E-02 0.10112597E+03</pdfrwt>
<pdfrwt beam="2">  1       -2 0.51213624E-01 0.10112597E+03</pdfrwt>
<totfact> 0.12119725E+04</totfact>
</mgrwt>
</event>
<event>
 6    1  0.3062576E-002  0.8833257E+02  0.7546771E-02  0.1419259E+00
          2   -1    0    0  501    0  0.00000000000E+00  0.00000000000E+00  0.38874556663E+02  0.38874556663E+02  0.00000000000E+00 0. -1.
         -2   -1    0    0    0  501 -0.00000000000E+00 -0.00000000000E+00 -0.94094955002E+02  0.94094955002E+02  0.00000000000E+00 0.  1.
         23    2    1    2    0    0  0.10206093329E+02  0.87589868262E+01 -0.13779590020E+02  0.89400890096E+02  0.87302679556E+02 0.  0.
         11    1    3    3    0    0  0.48365689262E+02  0.77445840950E+01 -0.50140565072E+00  0.48984384127E+02  0.00000000000E+00 0.  1.
        -11    1    3    3    0    0 -0.38159595933E+02  0.10144027312E+01 -0.13278184369E+02  0.40416505970E+02  0.00000000000E+00 0. -1.
         22    1    1    2    0    0 -0.10206093329E+02 -0.87589868262E+01 -0.41440808319E+02  0.43568621569E+02  0.00000000000E+00 0. -1.
<mgrwt>
<rscale>  0 0.55177969E+02</rscale>
<asrwt>0</asrwt>
<pdfrwt beam="1">  1        2 0.59807010E-02 0.88332565E+02</pdfrwt>
<pdfrwt beam="2">  1       -2 0.14476147E-01 0.88332565E+02</pdfrwt>
<totfact> 0.38837909E+04</totfact>
</mgrwt>
</event>
<event>
 6    1  0.3062576E-002  0.8973902E+02  0.7546771E-02  0.1385533E+00
          4   -1    0    0  501    0  0.00000000000E+00  0.00000000000E+00  0.75063801742E+02  0.75063801742E+02  0.00000000000E+00 0. -1.
         -4   -1    0    0    0  501 -0.00000000000E+00 -0.00000000000E+00 -0.74882024215E+02  0.74882024215E+02  0.00000000000E+00 0.  1.
         23    2    1    2    0    0  0.20281120434E+01  0.21747394824E+02  0.44776332584E+02  0.10028964043E+03  0.87040390613E+02 0.  0.
         13    1    3    3    0    0 -0.54460982543E+01  0.39743737840E+02 -0.10677279792E+02  0.41511793354E+02  0.00000000000E+00 0.  1.
        -13    1    3    3    0    0  0.74742102977E+01 -0.17996343016E+02  0.55453612376E+02  0.58777847078E+02  0.00000000000E+00 0. -1.
         22    1    1    2    0    0 -0.20281120434E+01 -0.21747394824E+02 -0.44594555058E+02  0.49656185525E+02  0.00000000000E+00 0.  1.
<mgrwt>
<rscale>  0 0.63031537E+02</rscale>
<asrwt>0</asrwt>
<pdfrwt beam="1">  1        4 0.11548277E-01 0.89739022E+02</pdfrwt>
<pdfrwt beam="2">  1       -4 0.11520311E-01 0.89739022E+02</pdfrwt>
<totfact> 0.51710892E+03</totfact>
</mgrwt>
</event>
<event>
 6    1  0.3062576E-002  0.9095339E+02  0.7546771E-02  0.1423926E+00
         -4   -1    0    0    0  501 -0.00000000000E+00  0.00000000000E+00  0.42527573219E+02  0.42527573219E+02  0.00000000000E+00 0.  1.
          4   -1    0    0  501    0  0.00000000000E+00 -0.00000000000E+00 -0.62149361589E+02  0.62149361589E+02  0.00000000000E+00 0. -1.
         23    2    1    2    0    0 -0.11107239381E+02 -0.28553124895E+01 -0.20290135694E+02  0.93189103672E+02  0.90227467329E+02 0.  0.
         11    1    3    3    0    0 -0.36204477813E+02  0.31268491653E+02 -0.47666441883E+01  0.48074979779E+02  0.00000000000E+00 0. -1.
        -11    1    3    3    0    0  0.25097238432E+02 -0.34123804142E+02 -0.15523491506E+02  0.45114123893E+02  0.00000000000E+00 0.  1.
         22    1    1    2    0    0  0.11107239381E+02  0.28553124895E+01  0.66834732438E+00  0.11487831137E+02  0.00000000000E+00 0.  1.
<mgrwt>
<rscale>  0 0.54198794E+02</rscale>
<asrwt>0</asrwt>
<pdfrwt beam="1">  1        4 0.95614402E-02 0.90953392E+02</pdfrwt>
<pdfrwt beam="2">  1       -4 0.65427036E-02 0.90953392E+02</pdfrwt>
<totfact> 0.18150390E+04</totfact>
</mgrwt>
</event>
<event>
 6    1  0.3062576E-002  0.9643169E+02  0.7546771E-02  0.1359421E+00
         -1   -1    0    0    0  501 -0.00000000000E+00  0.00000000000E+00  0.33018380279E+01  0.33018380279E+01  0.00000000000E+00 0.  1.
          1   -1    0    0  501    0  0.00000000000E+00 -0.00000000000E+00 -0.24203284257E+04  0.24203284257E+04  0.00000000000E+00 0. -1.
         23    2    1    2    0    0 -0.25305914682E+02 -0.96384161462E+01 -0.23399318028E+04  0.23419179988E+04  0.92551515480E+02 0.  0.
         11    1    3    3    0    0 -0.57847725280E+00  0.70243388921E+00 -0.21600643387E+04  0.21600645304E+04  0.00000000000E+00 0. -1.
        -11    1    3    3    0    0 -0.24727437429E+02 -0.10340850035E+02 -0.17986746404E+03  0.18185346838E+03  0.00000000000E+00 0.  1.
         22    1    1    2    0    0  0.25305914682E+02  0.96384161462E+01 -0.77094784912E+02  0.81712264957E+02  0.00000000000E+00 0. -1.
<mgrwt>
<rscale>  0 0.70197912E+02</rscale>
<asrwt>0</asrwt>
<pdfrwt beam="1">  1        1 0.37235745E+00 0.96431693E+02</pdfrwt>
<pdfrwt beam="2">  1       -1 0.50797614E-03 0.96431693E+02</pdfrwt>
<totfact> 0.86874260E+03</totfact>
</mgrwt>
</event>
<event>
 6    1  0.3062576E-002  0.9320850E+02  0.7546771E-02  0.1395511E+00
         -2   -1    0    0    0  501 -0.00000000000E+00  0.00000000000E+00  0.39811510528E+02  0.39811510528E+02  0.00000000000E+00 0.  1.
          2   -1    0    0  501    0  0.00000000000E+00 -0.00000000000E+00 -0.78645992403E+02  0.78645992403E+02  0.00000000000E+00 0. -1.
         23    2    1    2    0    0 -0.16206262773E+02  0.36234123121E+01 -0.40777090677E+02  0.10173787977E+03  0.91717244754E+02 0.  0.
         13    1    3    3    0    0 -0.25817749546E+02 -0.73059077558E+01 -0.66763394778E+02  0.71953341563E+02  0.00000000000E+00 0. -1.
        -13    1    3    3    0    0  0.96114867734E+01  0.10929320068E+02  0.25986304101E+02  0.29784538203E+02  0.00000000000E+00 0.  1.
         22    1    1    2    0    0  0.16206262773E+02 -0.36234123121E+01  0.19426088013E+01  0.16719623166E+02  0.00000000000E+00 0. -1.
<mgrwt>
<rscale>  0 0.60556454E+02</rscale>
<asrwt>0</asrwt>
<pdfrwt beam="1">  1        2 0.12099383E-01 0.93208503E+02</pdfrwt>
<pdfrwt beam="2">  1       -2 0.61248478E-02 0.93208503E+02</pdfrwt>
<totfact> 0.62362250E+04</totfact>
</mgrwt>
</event>
<event>
 6    1  0.3062576E-002  0.9108420E+02  0.7546771E-02  0.1412075E+00
         -2   -1    0    0    0  501 -0.00000000000E+00  0.00000000000E+00  0.20477907661E+02  0.20477907661E+02  0.00000000000E+00 0.  1.
          2   -1    0    0  501    0  0.00000000000E+00 -0.00000000000E+00 -0.13808032425E+03  0.13808032425E+03  0.00000000000E+00 0. -1.
         23    2    1    2    0    0  0.13154870146E+02 -0.38605957985E+01 -0.11022681168E+03  0.14299049745E+03  0.90046529857E+02 0.  0.
         11    1    3    3    0    0 -0.14132130085E+02  0.17237154180E+02 -0.10590918641E+03  0.10822935069E+03  0.00000000000E+00 0. -1.
        -11    1    3    3    0    0  0.27287000231E+02 -0.21097749979E+02 -0.43176252651E+01  0.34761146755E+02  0.00000000000E+00 0.  1.
         22    1    1    2    0    0 -0.13154870146E+02  0.38605957985E+01 -0.73756049100E+01  0.15567734461E+02  0.00000000000E+00 0.  1.
<mgrwt>
<rscale>  0 0.56733422E+02</rscale>
<asrwt>0</asrwt>
<pdfrwt beam="1">  1        2 0.21243127E-01 0.91084205E+02</pdfrwt>
<pdfrwt beam="2">  1       -2 0.31504473E-02 0.91084205E+02</pdfrwt>
<totfact> 0.87015147E+04</totfact>
</mgrwt>
</event>
<event>
 6    1  0.3062576E-002  0.1019779E+03  0.7546771E-02  0.1318536E+00
          2   -1    0    0  501    0  0.00000000000E+00  0.00000000000E+00  0.22145675672E+03  0.22145675672E+03  0.00000000000E+00 0. -1.
         -2   -1    0    0    0  501 -0.00000000000E+00 -0.00000000000E+00 -0.27184219664E+02  0.27184219664E+02  0.00000000000E+00 0.  1.
         23    2    1    2    0    0 -0.26529041653E+02  0.38256716428E+02  0.16396273321E+03  0.19308874320E+03  0.90731022620E+02 0.  0.
         13    1    3    3    0    0 -0.38248444409E+02  0.63136072210E+02  0.10921745999E+03  0.13182397612E+03  0.00000000000E+00 0.  1.
        -13    1    3    3    0    0  0.11719402756E+02 -0.24879355783E+02  0.54745273219E+02  0.61264767076E+02  0.00000000000E+00 0. -1.
         22    1    1    2    0    0  0.26529041653E+02 -0.38256716428E+02  0.30309803849E+02  0.55552233188E+02  0.00000000000E+00 0. -1.
<mgrwt>
<rscale>  0 0.83824501E+02</rscale>
<asrwt>0</asrwt>
<pdfrwt beam="1">  1        2 0.34070269E-01 0.10197786E+03</pdfrwt>
<pdfrwt beam="2">  1       -2 0.41821878E-02 0.10197786E+03</pdfrwt>
<totfact> 0.34940093E+04</totfact>
</mgrwt>
</event>
<event>
 6    1  0.3062576E-002  0.9312428E+02  0.7546771E-02  0.1412994E+00
          2   -1    0    0  501    0  0.00000000000E+00  0.00000000000E+00  0.33768839364E+02  0.33768839364E+02  0.00000000000E+00 0. -1.
         -2   -1    0    0    0  501 -0.00000000000E+00 -0.00000000000E+00 -0.90668307373E+02  0.90668307373E+02  0.00000000000E+00 0.  1.
         23    2    1    2    0    0  0.99301181515E+01  0.78308126304E+01 -0.35661184952E+02  0.99718863216E+02  0.92261599249E+02 0.  0.
         13    1    3    3    0    0 -0.19615958677E+02  0.36244503481E+02  0.55597943241E+01  0.41585588613E+02  0.00000000000E+00 0. -1.
        -13    1    3    3    0    0  0.29546076828E+02 -0.28413690850E+02 -0.41220979276E+02  0.58133274603E+02  0.00000000000E+00 0.  1.
         22    1    1    2    0    0 -0.99301181515E+01 -0.78308126304E+01 -0.21238283058E+02  0.24718283521E+02  0.00000000000E+00 0.  1.
<mgrwt>
<rscale>  0 0.56531181E+02</rscale>
<asrwt>0</asrwt>
<pdfrwt beam="1">  1        2 0.51952062E-02 0.93124280E+02</pdfrwt>
<pdfrwt beam="2">  1       -2 0.13948970E-01 0.93124280E+02</pdfrwt>
<totfact> 0.49729301E+04</totfact>
</mgrwt>
</event>
<event>
 6    1  0.3062576E-002  0.9529155E+02  0.7546771E-02  0.1379555E+00
          2   -1    0    0  501    0  0.00000000000E+00  0.00000000000E+00  0.41373569175E+03  0.41373569175E+03  0.00000000000E+00 0. -1.
         -2   -1    0    0    0  501 -0.00000000000E+00 -0.00000000000E+00 -0.41369795835E+02  0.41369795835E+02  0.00000000000E+00 0.  1.
         23    2    1    2    0    0 -0.12997121470E+02 -0.15335877698E+02  0.40539270992E+03  0.41644174804E+03  0.93147012542E+02 0.  0.
         13    1    3    3    0    0 -0.40467705672E+02 -0.40795550172E+02  0.22704644946E+03  0.23420504334E+03  0.00000000000E+00 0. -1.
        -13    1    3    3    0    0  0.27470584202E+02  0.25459672474E+02  0.17834626046E+03  0.18223670470E+03  0.00000000000E+00 0.  1.
         22    1    1    2    0    0  0.12997121470E+02  0.15335877698E+02 -0.33026814011E+02  0.38663739536E+02  0.00000000000E+00 0.  1.
<mgrwt>
<rscale>  0 0.64580862E+02</rscale>
<asrwt>0</asrwt>
<pdfrwt beam="1">  1        2 0.63651642E-01 0.95291554E+02</pdfrwt>
<pdfrwt beam="2">  1       -2 0.63645843E-02 0.95291554E+02</pdfrwt>
<totfact> 0.96113305E+03</totfact>
</mgrwt>
</event>
<event>
 6    1  0.3062576E-002  0.9480838E+02  0.7546771E-02  0.1378238E+00
         -2   -1    0    0    0  501 -0.00000000000E+00  0.00000000000E+00  0.94939332828E+01  0.94939332828E+01  0.00000000000E+00 0.  1.
          2   -1    0    0  501    0  0.00000000000E+00 -0.00000000000E+00 -0.40189124325E+03  0.40189124325E+03  0.00000000000E+00 0. -1.
         23    2    1    2    0    0  0.28540325378E+01  0.20659174333E+02 -0.36404873580E+03  0.37619158844E+03  0.92486118882E+02 0.  0.
         13    1    3    3    0    0 -0.78976334900E+01  0.24459187210E+02 -0.36388028509E+03  0.36478690537E+03  0.00000000000E+00 0. -1.
        -13    1    3    3    0    0  0.10751666028E+02 -0.38000128771E+01 -0.16845071511E+00  0.11404683068E+02  0.00000000000E+00 0.  1.
         22    1    1    2    0    0 -0.28540325378E+01 -0.20659174333E+02 -0.28348574166E+02  0.35193588096E+02  0.00000000000E+00 0. -1.
<mgrwt>
<rscale>  0 0.64929131E+02</rscale>
<asrwt>0</asrwt>
<pdfrwt beam="1">  1        2 0.61829436E-01 0.94808381E+02</pdfrwt>
<pdfrwt beam="2">  1       -2 0.14606048E-02 0.94808381E+02</pdfrwt>
<totfact> 0.84973371E+04</totfact>
</mgrwt>
</event>
<event>
 6    1  0.3062576E-002  0.9611227E+02  0.7546771E-02  0.1386629E+00
          1   -1    0    0  501    0  0.00000000000E+00  0.00000000000E+00  0.10036905992E+04  0.10036905992E+04  0.00000000000E+00 0. -1.
         -1   -1    0    0    0  501 -0.00000000000E+00 -0.00000000000E+00 -0.35637447425E+01  0.35637447425E+01  0.00000000000E+00 0.  1.
         23    2    1    2    0    0 -0.27322492630E+01  0.17251150362E+02  0.93128052719E+03  0.93622699602E+03  0.94511906001E+02 0.  0.
         13    1    3    3    0    0  0.26931723773E+00  0.23051114876E+02  0.92903520070E+03  0.92932116654E+03  0.00000000000E+00 0. -1.
        -13    1    3    3    0    0 -0.30015665008E+01 -0.57999645140E+01  0.22453264901E+01  0.69058294846E+01  0.00000000000E+00 0.  1.
         22    1    1    2    0    0  0.27322492630E+01 -0.17251150362E+02  0.68846327258E+02  0.71027347914E+02  0.00000000000E+00 0.  1.
<mgrwt>
<rscale>  0 0.62752869E+02</rscale>
<asrwt>0</asrwt>
<pdfrwt beam="1">  1        1 0.15441371E+00 0.96112266E+02</pdfrwt>
<pdfrwt beam="2">  1       -1 0.54826922E-03 0.96112266E+02</pdfrwt>
<totfact> 0.64070031E+04</totfact>
</mgrwt>
</event>
<event>
 6    1  0.3062576E-002  0.9633116E+02  0.7546771E-02  0.1358455E+00
         -2   -1    0    0    0  501 -0.00000000000E+00  0.00000000000E+00  0.13299641213E+03  0.13299641213E+03  0.00000000000E+00 0.  1.
          2   -1    0    0  501    0  0.00000000000E+00 -0.00000000000E+00 -0.45131466834E+02  0.45131466834E+02  0.00000000000E+00 0. -1.
         23    2    1    2    0    0  0.26653630162E+02 -0.72031626706E+01  0.11609784381E+02  0.97028241977E+02  0.92289712831E+02 0.  0.
         11    1    3    3    0    0  0.38041205109E+02  0.43683663450E+01 -0.32374688707E+02  0.50143158851E+02  0.00000000000E+00 0. -1.
        -11    1    3    3    0    0 -0.11387574947E+02 -0.11571529016E+02  0.43984473088E+02  0.46885083126E+02  0.00000000000E+00 0.  1.
         22    1    1    2    0    0 -0.26653630162E+02  0.72031626706E+01  0.76255160913E+02  0.81099636985E+02  0.00000000000E+00 0.  1.
<mgrwt>
<rscale>  0 0.70484066E+02</rscale>
<asrwt>0</asrwt>
<pdfrwt beam="1">  1        2 0.69433026E-02 0.96331161E+02</pdfrwt>
<pdfrwt beam="2">  1       -2 0.20460986E-01 0.96331161E+02</pdfrwt>
<totfact> 0.18397075E+04</totfact>
</mgrwt>
</event>
<event>
 6    1  0.3062576E-002  0.8387526E+02  0.7546771E-02  0.1444744E+00
          1   -1    0    0  501    0  0.00000000000E+00  0.00000000000E+00  0.60352766980E+02  0.60352766980E+02  0.00000000000E+00 0. -1.
         -1   -1    0    0    0  501 -0.00000000000E+00 -0.00000000000E+00 -0.37357750332E+02  0.37357750332E+02  0.00000000000E+00 0.  1.
         23    2    1    2    0    0 -0.78136790091E-01 -0.10686122680E+02  0.17450375337E+02  0.85671315903E+02  0.83191702987E+02 0.  0.
         13    1    3    3    0    0 -0.19694982940E+02 -0.54062285079E+01  0.46174309468E+02  0.50489469343E+02  0.00000000000E+00 0. -1.
        -13    1    3    3    0    0  0.19616846150E+02 -0.52798941725E+01 -0.28723934132E+02  0.35181846560E+02  0.00000000000E+00 0.  1.
         22    1    1    2    0    0  0.78136790091E-01  0.10686122680E+02  0.55446413117E+01  0.12039201409E+02  0.00000000000E+00 0. -1.
<mgrwt>
<rscale>  0 0.50111031E+02</rscale>
<asrwt>0</asrwt>
<pdfrwt beam="1">  1        1 0.92850410E-02 0.83875257E+02</pdfrwt>
<pdfrwt beam="2">  1       -1 0.57473462E-02 0.83875257E+02</pdfrwt>
<totfact> 0.84448004E+04</totfact>
</mgrwt>
</event>
<event>
 6    1  0.3062576E-002  0.9930896E+02  0.7546771E-02  0.1413855E+00
         -2   -1    0    0    0  501 -0.00000000000E+00  0.00000000000E+00  0.81532968079E+01  0.81532968079E+01  0.00000000000E+00 0.  1.
          2   -1    0    0  501    0  0.00000000000E+00 -0.00000000000E+00 -0.38730188318E+03  0.38730188318E+03  0.00000000000E+00 0. -1.
         23    2    1    2    0    0  0.91526640861E+01 -0.47005197033E+01 -0.36273109829E+03  0.37607993650E+03  0.98774504933E+02 0.  0.
         11    1    3    3    0    0  0.47392535402E+02 -0.10464086118E+02 -0.10766248287E+03  0.11809640015E+03  0.00000000000E+00 0.  1.
        -11    1    3    3    0    0 -0.38239871315E+02  0.57635664144E+01 -0.25506861542E+03  0.25798353635E+03  0.00000000000E+00 0. -1.
         22    1    1    2    0    0 -0.91526640861E+01  0.47005197033E+01 -0.16417488085E+02  0.19375243492E+02  0.00000000000E+00 0. -1.
<mgrwt>
<rscale>  0 0.56342479E+02</rscale>
<asrwt>0</asrwt>
<pdfrwt beam="1">  1        2 0.59584899E-01 0.99308957E+02</pdfrwt>
<pdfrwt beam="2">  1       -2 0.12543535E-02 0.99308957E+02</pdfrwt>
<totfact> 0.11050284E+05</totfact>
</mgrwt>
</event>
<event>
 6    1  0.3062576E-002  0.9130058E+02  0.7546771E-02  0.1415436E+00
          1   -1    0    0  501    0  0.00000000000E+00  0.00000000000E+00  0.80905206341E+03  0.80905206341E+03  0.00000000000E+00 0. -1.
         -1   -1    0    0    0  501 -0.00000000000E+00 -0.00000000000E+00 -0.44367974307E+01  0.44367974307E+01  0.00000000000E+00 0.  1.
         23    2    1    2    0    0  0.10091199818E+02  0.80688150482E+01  0.78301004762E+03  0.78831499442E+03  0.90381733049E+02 0.  0.
         13    1    3    3    0    0  0.41494293232E+02 -0.14716218705E+02  0.24626622832E+03  0.25017073904E+03  0.00000000000E+00 0. -1.
        -13    1    3    3    0    0 -0.31403093414E+02  0.22785033753E+02  0.53674381930E+03  0.53814425538E+03  0.00000000000E+00 0.  1.
         22    1    1    2    0    0 -0.10091199818E+02 -0.80688150482E+01  0.21605218360E+02  0.25173866418E+02  0.00000000000E+00 0.  1.
<mgrwt>
<rscale>  0 0.55998266E+02</rscale>
<asrwt>0</asrwt>
<pdfrwt beam="1">  1        1 0.12446943E+00 0.91300579E+02</pdfrwt>
<pdfrwt beam="2">  1       -1 0.68258486E-03 0.91300579E+02</pdfrwt>
<totfact> 0.65705026E+04</totfact>
</mgrwt>
</event>
<event>
 6    1  0.3062576E-002  0.8964349E+02  0.7546771E-02  0.1368538E+00
         -2   -1    0    0    0  501 -0.00000000000E+00  0.00000000000E+00  0.73301848197E+01  0.73301848197E+01  0.00000000000E+00 0.  1.
          2   -1    0    0  501    0  0.00000000000E+00 -0.00000000000E+00 -0.56046060750E+03  0.56046060750E+03  0.00000000000E+00 0. -1.
         23    2    1    2    0    0 -0.28047822079E+02 -0.71570646623E+01 -0.49265908380E+03  0.50074836751E+03  0.84841327305E+02 0.  0.
         13    1    3    3    0    0  0.47964762968E+01 -0.31918944491E+02 -0.83410413559E+02  0.89437812431E+02  0.00000000000E+00 0.  1.
        -13    1    3    3    0    0 -0.32844298376E+02  0.24761879829E+02 -0.40924867024E+03  0.41131055508E+03  0.00000000000E+00 0. -1.
         22    1    1    2    0    0  0.28047822079E+02  0.71570646623E+01 -0.60471338884E+02  0.67042424810E+02  0.00000000000E+00 0.  1.
<mgrwt>
<rscale>  0 0.67575354E+02</rscale>
<asrwt>0</asrwt>
<pdfrwt beam="1">  1        2 0.86224714E-01 0.89643487E+02</pdfrwt>
<pdfrwt beam="2">  1       -2 0.11277207E-02 0.89643487E+02</pdfrwt>
<totfact> 0.85200512E+04</totfact>
</mgrwt>
</event>
<event>
 6    1  0.3062576E-002  0.9260185E+02  0.7546771E-02  0.1401696E+00
          1   -1    0    0  501    0  0.00000000000E+00  0.00000000000E+00  0.14394184246E+04  0.14394184246E+04  0.00000000000E+00 0. -1.
         -1   -1    0    0    0  501 -0.00000000000E+00 -0.00000000000E+00 -0.24500128080E+01  0.24500128080E+01  0.00000000000E+00 0.  1.
         23    2    1    2    0    0  0.11712380886E+02 -0.99247675703E+01  0.13715633684E+04  0.13746858461E+04  0.91320430221E+02 0.  0.
         11    1    3    3    0    0  0.30840638481E+01 -0.10599862274E+02  0.18141800386E+02  0.21236606398E+02  0.00000000000E+00 0.  1.
        -11    1    3    3    0    0  0.86283170380E+01  0.67509470413E+00  0.13534215681E+04  0.13534492397E+04  0.00000000000E+00 0. -1.
         22    1    1    2    0    0 -0.11712380886E+02  0.99247675703E+01  0.65405043329E+02  0.67182591274E+02  0.00000000000E+00 0.  1.
<mgrwt>
<rscale>  0 0.59088814E+02</rscale>
<asrwt>0</asrwt>
<pdfrwt beam="1">  1        1 0.22144831E+00 0.92601846E+02</pdfrwt>
<pdfrwt beam="2">  1       -1 0.37692620E-03 0.92601846E+02</pdfrwt>
<totfact> 0.54794190E+04</totfact>
</mgrwt>
</event>
<event>
 6    1  0.3062576E-002  0.9576358E+02  0.7546771E-02  0.1412457E+00
          2   -1    0    0  501    0  0.00000000000E+00  0.00000000000E+00  0.25773943502E+03  0.25773943502E+03  0.00000000000E+00 0. -1.
         -2   -1    0    0    0  501 -0.00000000000E+00 -0.00000000000E+00 -0.11983449795E+02  0.11983449795E+02  0.00000000000E+00 0.  1.
         23    2    1    2    0    0 -0.26523469644E+01 -0.11422740962E+02  0.23518729345E+03  0.25393646022E+03  0.95042879148E+02 0.  0.
         13    1    3    3    0    0  0.36153856436E+02 -0.22571348581E+02  0.56662365382E+02  0.70902685159E+02  0.00000000000E+00 0. -1.
        -13    1    3    3    0    0 -0.38806203400E+02  0.11148607620E+02  0.17852492806E+03  0.18303377506E+03  0.00000000000E+00 0.  1.
         22    1    1    2    0    0  0.26523469644E+01  0.11422740962E+02  0.10568691780E+02  0.15786424593E+02  0.00000000000E+00 0.  1.
<mgrwt>
<rscale>  0 0.56649179E+02</rscale>
<asrwt>0</asrwt>
<pdfrwt beam="1">  1        2 0.39652217E-01 0.95763578E+02</pdfrwt>
<pdfrwt beam="2">  1       -2 0.18436079E-02 0.95763578E+02</pdfrwt>
<totfact> 0.97157912E+04</totfact>
</mgrwt>
</event>
<event>
 6    1  0.3062576E-002  0.8972534E+02  0.7546771E-02  0.1393285E+00
         -2   -1    0    0    0  501 -0.00000000000E+00  0.00000000000E+00  0.31441127351E+01  0.31441127351E+01  0.00000000000E+00 0.  1.
          2   -1    0    0  501    0  0.00000000000E+00 -0.00000000000E+00 -0.11140633203E+04  0.11140633203E+04  0.00000000000E+00 0. -1.
         23    2    1    2    0    0  0.84024312995E+01 -0.17363896554E+02 -0.10347762698E+04  0.10386590230E+04  0.87627231284E+02 0.  0.
         11    1    3    3    0    0  0.17746283100E+02  0.95314532026E+01 -0.92597210677E+03  0.92619119067E+03  0.00000000000E+00 0. -1.
        -11    1    3    3    0    0 -0.93438518008E+01 -0.26895349757E+02 -0.10880416306E+03  0.11246783231E+03  0.00000000000E+00 0.  1.
         22    1    1    2    0    0 -0.84024312995E+01  0.17363896554E+02 -0.76142937788E+02  0.78548410106E+02  0.00000000000E+00 0. -1.
<mgrwt>
<rscale>  0 0.61096967E+02</rscale>
<asrwt>0</asrwt>
<pdfrwt beam="1">  1        2 0.17139455E+00 0.89725344E+02</pdfrwt>
<pdfrwt beam="2">  1       -2 0.48370910E-03 0.89725344E+02</pdfrwt>
<totfact> 0.12039837E+05</totfact>
</mgrwt>
</event>
<event>
 6    1  0.3062576E-002  0.9643387E+02  0.7546771E-02  0.1377664E+00
          2   -1    0    0  501    0  0.00000000000E+00  0.00000000000E+00  0.14022394167E+03  0.14022394167E+03  0.00000000000E+00 0. -1.
         -2   -1    0    0    0  501 -0.00000000000E+00 -0.00000000000E+00 -0.53847489589E+02  0.53847489589E+02  0.00000000000E+00 0.  1.
         23    2    1    2    0    0  0.19996741025E+02 -0.59162746689E+00  0.12060918685E+03  0.15442171747E+03  0.94335948601E+02 0.  0.
         11    1    3    3    0    0  0.84114901020E+01  0.11139118130E+02  0.13304197673E+03  0.13377219700E+03  0.00000000000E+00 0. -1.
        -11    1    3    3    0    0  0.11585250923E+02 -0.11730745597E+02 -0.12432789881E+02  0.20649520465E+02  0.00000000000E+00 0.  1.
         22    1    1    2    0    0 -0.19996741025E+02  0.59162746689E+00 -0.34232734764E+02  0.39649713796E+02  0.00000000000E+00 0.  1.
<mgrwt>
<rscale>  0 0.65081791E+02</rscale>
<asrwt>0</asrwt>
<pdfrwt beam="1">  1        2 0.21572914E-01 0.96433868E+02</pdfrwt>
<pdfrwt beam="2">  1       -2 0.82842292E-02 0.96433868E+02</pdfrwt>
<totfact> 0.20387678E+04</totfact>
</mgrwt>
</event>
<event>
 6    1  0.3062576E-002  0.1168449E+03  0.7546771E-02  0.1273436E+00
          2   -1    0    0  501    0  0.00000000000E+00  0.00000000000E+00  0.80815587428E+03  0.80815587428E+03  0.00000000000E+00 0.  1.
         -2   -1    0    0    0  501 -0.00000000000E+00 -0.00000000000E+00 -0.14313076468E+02  0.14313076468E+02  0.00000000000E+00 0. -1.
         23    2    1    2    0    0 -0.71019337320E+02 -0.80576690104E+01  0.66446883041E+03  0.67466402612E+03  0.92434026464E+02 0.  0.
         13    1    3    3    0    0 -0.13225939100E+02 -0.20216393374E+02  0.35570225253E+02  0.42998476144E+02  0.00000000000E+00 0. -1.
        -13    1    3    3    0    0 -0.57793398220E+02  0.12158724363E+02  0.62889860516E+03  0.63166554998E+03  0.00000000000E+00 0.  1.
         22    1    1    2    0    0  0.71019337320E+02  0.80576690104E+01  0.12937396740E+03  0.14780492462E+03  0.00000000000E+00 0. -1.
<mgrwt>
<rscale>  0 0.10333459E+03</rscale>
<asrwt>0</asrwt>
<pdfrwt beam="1">  1        2 0.12433164E+00 0.11684486E+03</pdfrwt>
<pdfrwt beam="2">  1       -2 0.22020124E-02 0.11684486E+03</pdfrwt>
<totfact> 0.21973789E+04</totfact>
</mgrwt>
</event>
<event>
 6    1  0.3062576E-002  0.9708654E+02  0.7546771E-02  0.1392198E+00
         -2   -1    0    0    0  501 -0.00000000000E+00  0.00000000000E+00  0.42613871562E+02  0.42613871562E+02  0.00000000000E+00 0.  1.
          2   -1    0    0  501    0  0.00000000000E+00 -0.00000000000E+00 -0.83244142638E+02  0.83244142638E+02  0.00000000000E+00 0. -1.
         23    2    1    2    0    0  0.11451028398E+02 -0.10437020629E+02 -0.48448180846E+02  0.10850355759E+03  0.95842257548E+02 0.  0.
         11    1    3    3    0    0  0.40779400631E+02  0.22905851500E+02 -0.43409713514E+02  0.63812544035E+02  0.00000000000E+00 0.  1.
        -11    1    3    3    0    0 -0.29328372234E+02 -0.33342872129E+02 -0.50384673323E+01  0.44691013557E+02  0.00000000000E+00 0. -1.
         22    1    1    2    0    0 -0.11451028398E+02  0.10437020629E+02  0.78179097703E+01  0.17354456608E+02  0.00000000000E+00 0.  1.
<mgrwt>
<rscale>  0 0.61363293E+02</rscale>
<asrwt>0</asrwt>
<pdfrwt beam="1">  1        2 0.12806791E-01 0.97086538E+02</pdfrwt>
<pdfrwt beam="2">  1       -2 0.65559802E-02 0.97086538E+02</pdfrwt>
<totfact> 0.52921253E+04</totfact>
</mgrwt>
</event>
<event>
 6    1  0.3062576E-002  0.9453428E+02  0.7546771E-02  0.1378036E+00
          2   -1    0    0  501    0  0.00000000000E+00  0.00000000000E+00  0.12834527029E+02  0.12834527029E+02  0.00000000000E+00 0. -1.
         -2   -1    0    0    0  501 -0.00000000000E+00 -0.00000000000E+00 -0.26692524395E+03  0.26692524395E+03  0.00000000000E+00 0.  1.
         23    2    1    2    0    0  0.40359849427E+01  0.20717616399E+02 -0.18884915360E+03  0.21118885595E+03  0.92147822857E+02 0.  0.
         11    1    3    3    0    0  0.11601295717E+02  0.69969549662E+01  0.66296802688E+01  0.15083106496E+02  0.00000000000E+00 0. -1.
        -11    1    3    3    0    0 -0.75653107741E+01  0.13720661433E+02 -0.19547883387E+03  0.19610574945E+03  0.00000000000E+00 0.  1.
         22    1    1    2    0    0 -0.40359849427E+01 -0.20717616399E+02 -0.65241563325E+02  0.68570915036E+02  0.00000000000E+00 0. -1.
<mgrwt>
<rscale>  0 0.64982891E+02</rscale>
<asrwt>0</asrwt>
<pdfrwt beam="1">  1        2 0.19745429E-02 0.94534280E+02</pdfrwt>
<pdfrwt beam="2">  1       -2 0.41065417E-01 0.94534280E+02</pdfrwt>
<totfact> 0.27699440E+04</totfact>
</mgrwt>
</event>
<event>
 6    1  0.3062576E-002  0.9114098E+02  0.7546771E-02  0.1392368E+00
         -2   -1    0    0    0  501 -0.00000000000E+00  0.00000000000E+00  0.12986366403E+02  0.12986366403E+02  0.00000000000E+00 0.  1.
          2   -1    0    0  501    0  0.00000000000E+00 -0.00000000000E+00 -0.25553389084E+03  0.25553389084E+03  0.00000000000E+00 0. -1.
         23    2    1    2    0    0 -0.15079200677E+02 -0.11020712057E+02 -0.16241541673E+03  0.18624028961E+03  0.89206723383E+02 0.  0.
         11    1    3    3    0    0  0.11376917558E+02 -0.12460231085E+02  0.43166080698E+01  0.17416219942E+02  0.00000000000E+00 0.  1.
        -11    1    3    3    0    0 -0.26456118235E+02  0.14395190281E+01 -0.16673202480E+03  0.16882406967E+03  0.00000000000E+00 0. -1.
         22    1    1    2    0    0  0.15079200677E+02  0.11020712057E+02 -0.80132107706E+02  0.82279967627E+02  0.00000000000E+00 0. -1.
<mgrwt>
<rscale>  0 0.61321575E+02</rscale>
<asrwt>0</asrwt>
<pdfrwt beam="1">  1        2 0.39312906E-01 0.91140978E+02</pdfrwt>
<pdfrwt beam="2">  1       -2 0.19979025E-02 0.91140978E+02</pdfrwt>
<totfact> 0.86724119E+04</totfact>
</mgrwt>
</event>
<event>
 6    1  0.3062576E-002  0.9619356E+02  0.7546771E-02  0.1354822E+00
         -2   -1    0    0    0  501 -0.00000000000E+00  0.00000000000E+00  0.30916281683E+01  0.30916281683E+01  0.00000000000E+00 0.  1.
          2   -1    0    0  501    0  0.00000000000E+00 -0.00000000000E+00 -0.14965321134E+04  0.14965321134E+04  0.00000000000E+00 0. -1.
         23    2    1    2    0    0  0.29285669345E+02  0.34077853433E+01 -0.13351595825E+04  0.13386203018E+04  0.91563848582E+02 0.  0.
         11    1    3    3    0    0 -0.32079248833E+02 -0.60826346776E+01 -0.35616633940E+03  0.35765980760E+03  0.00000000000E+00 0.  1.
        -11    1    3    3    0    0  0.61364918179E+02  0.94904200209E+01 -0.97899324308E+03  0.98096049424E+03  0.00000000000E+00 0. -1.
         22    1    1    2    0    0 -0.29285669345E+02 -0.34077853433E+01 -0.15828090273E+03  0.16100343972E+03  0.00000000000E+00 0.  1.
<mgrwt>
<rscale>  0 0.71573695E+02</rscale>
<asrwt>0</asrwt>
<pdfrwt beam="1">  1        2 0.23023557E+00 0.96193564E+02</pdfrwt>
<pdfrwt beam="2">  1       -2 0.47563539E-03 0.96193564E+02</pdfrwt>
<totfact> 0.77868174E+04</totfact>
</mgrwt>
</event>
<event>
 6    1  0.3062576E-002  0.9222981E+02  0.7546771E-02  0.1410219E+00
         -2   -1    0    0    0  501 -0.00000000000E+00  0.00000000000E+00  0.59251273918E+02  0.59251273918E+02  0.00000000000E+00 0.  1.
          2   -1    0    0  501    0  0.00000000000E+00 -0.00000000000E+00 -0.47374006277E+02  0.47374006277E+02  0.00000000000E+00 0. -1.
         23    2    1    2    0    0 -0.13006582016E+02 -0.39478181914E+01  0.85079464232E+01  0.92621396101E+02  0.91222702324E+02 0.  0.
         13    1    3    3    0    0 -0.22069129398E+01 -0.45851782494E+02  0.16180829552E+02  0.48673151404E+02  0.00000000000E+00 0. -1.
        -13    1    3    3    0    0 -0.10799669077E+02  0.41903964303E+02 -0.76728831292E+01  0.43948244697E+02  0.00000000000E+00 0.  1.
         22    1    1    2    0    0  0.13006582016E+02  0.39478181914E+01  0.33693212179E+01  0.14003884093E+02  0.00000000000E+00 0.  1.
<mgrwt>
<rscale>  0 0.57145026E+02</rscale>
<asrwt>0</asrwt>
<pdfrwt beam="1">  1        2 0.72883086E-02 0.92229810E+02</pdfrwt>
<pdfrwt beam="2">  1       -2 0.91155806E-02 0.92229810E+02</pdfrwt>
<totfact> 0.63094646E+04</totfact>
</mgrwt>
</event>
<event>
 6    1  0.3062576E-002  0.8961594E+02  0.7546771E-02  0.1387756E+00
          2   -1    0    0  501    0  0.00000000000E+00  0.00000000000E+00  0.12731389511E+03  0.12731389511E+03  0.00000000000E+00 0.  1.
         -2   -1    0    0    0  501 -0.00000000000E+00 -0.00000000000E+00 -0.37322648491E+02  0.37322648491E+02  0.00000000000E+00 0. -1.
         23    2    1    2    0    0 -0.14836006090E+02 -0.15085331300E+02  0.10548435734E+03  0.13841230334E+03  0.87082384998E+02 0.  0.
         11    1    3    3    0    0  0.14833749575E+02 -0.42182770855E+02  0.33135839102E+02  0.55654380928E+02  0.00000000000E+00 0.  1.
        -11    1    3    3    0    0 -0.29669755665E+02  0.27097439556E+02  0.72348518234E+02  0.82757922414E+02  0.00000000000E+00 0. -1.
         22    1    1    2    0    0  0.14836006090E+02  0.15085331300E+02 -0.15493110721E+02  0.26224240255E+02  0.00000000000E+00 0. -1.
<mgrwt>
<rscale>  0 0.62468231E+02</rscale>
<asrwt>0</asrwt>
<pdfrwt beam="1">  1        2 0.19586753E-01 0.89615936E+02</pdfrwt>
<pdfrwt beam="2">  1       -2 0.57419460E-02 0.89615936E+02</pdfrwt>
<totfact> 0.39211158E+04</totfact>
</mgrwt>
</event>
<event>
 6    1  0.3062576E-002  0.1007741E+03  0.7546771E-02  0.1331192E+00
          2   -1    0    0  501    0  0.00000000000E+00  0.00000000000E+00  0.31488181882E+03  0.31488181882E+03  0.00000000000E+00 0. -1.
         -2   -1    0    0    0  501 -0.00000000000E+00 -0.00000000000E+00 -0.21723349652E+02  0.21723349652E+02  0.00000000000E+00 0.  1.
         23    2    1    2    0    0  0.23098980545E+02  0.30856494765E+02  0.10896113730E+03  0.14841817838E+03  0.93111438938E+02 0.  0.
         11    1    3    3    0    0  0.51918389462E+02  0.28734731448E+02  0.34718925568E+02  0.68750329078E+02  0.00000000000E+00 0.  1.
        -11    1    3    3    0    0 -0.28819408917E+02  0.21217633164E+01  0.74242211731E+02  0.79667849303E+02  0.00000000000E+00 0. -1.
         22    1    1    2    0    0 -0.23098980545E+02 -0.30856494765E+02  0.18419733186E+03  0.18818699009E+03  0.00000000000E+00 0. -1.
<mgrwt>
<rscale>  0 0.79250625E+02</rscale>
<asrwt>0</asrwt>
<pdfrwt beam="1">  1        2 0.48443353E-01 0.10077413E+03</pdfrwt>
<pdfrwt beam="2">  1       -2 0.33420540E-02 0.10077413E+03</pdfrwt>
<totfact> 0.33490955E+04</totfact>
</mgrwt>
</event>
<event>
 6    1  0.3062576E-002  0.9197873E+02  0.7546771E-02  0.1424290E+00
         -2   -1    0    0    0  501 -0.00000000000E+00  0.00000000000E+00  0.56272988077E+01  0.56272988077E+01  0.00000000000E+00 0.  1.
          2   -1    0    0  501    0  0.00000000000E+00 -0.00000000000E+00 -0.47723475834E+03  0.47723475834E+03  0.00000000000E+00 0. -1.
         23    2    1    2    0    0 -0.11004363231E+02 -0.71626267010E+00 -0.43554712460E+03  0.44515321471E+03  0.91315265865E+02 0.  0.
         11    1    3    3    0    0  0.18671633201E+02 -0.38860004747E+02 -0.22948876575E+03  0.23350336927E+03  0.00000000000E+00 0. -1.
        -11    1    3    3    0    0 -0.29675996432E+02  0.38143742077E+02 -0.20605835885E+03  0.21164984544E+03  0.00000000000E+00 0.  1.
         22    1    1    2    0    0  0.11004363231E+02  0.71626267010E+00 -0.36060334936E+02  0.37708842438E+02  0.00000000000E+00 0.  1.
<mgrwt>
<rscale>  0 0.54123552E+02</rscale>
<asrwt>0</asrwt>
<pdfrwt beam="1">  1        2 0.73420757E-01 0.91978730E+02</pdfrwt>
<pdfrwt beam="2">  1       -2 0.86573799E-03 0.91978730E+02</pdfrwt>
<totfact> 0.14806550E+05</totfact>
</mgrwt>
</event>
<event>
 6    1  0.3062576E-002  0.9604305E+02  0.7546771E-02  0.1366803E+00
         -2   -1    0    0    0  501 -0.00000000000E+00  0.00000000000E+00  0.12418490666E+02  0.12418490666E+02  0.00000000000E+00 0.  1.
          2   -1    0    0  501    0  0.00000000000E+00 -0.00000000000E+00 -0.33753532666E+03  0.33753532666E+03  0.00000000000E+00 0. -1.
         23    2    1    2    0    0 -0.95861716568E+01 -0.22247962289E+02 -0.30025215207E+03  0.31523899312E+03  0.92937621262E+02 0.  0.
         13    1    3    3    0    0  0.73079337593E+00 -0.46982134639E+02 -0.75728760307E+02  0.89121827696E+02  0.00000000000E+00 0.  1.
        -13    1    3    3    0    0 -0.10316965033E+02  0.24734172350E+02 -0.22452339177E+03  0.22611716543E+03  0.00000000000E+00 0. -1.
         22    1    1    2    0    0  0.95861716568E+01  0.22247962289E+02 -0.24864683917E+02  0.34714824201E+02  0.00000000000E+00 0. -1.
<mgrwt>
<rscale>  0 0.68063908E+02</rscale>
<asrwt>0</asrwt>
<pdfrwt beam="1">  1        2 0.51928504E-01 0.96043053E+02</pdfrwt>
<pdfrwt beam="2">  1       -2 0.19105373E-02 0.96043053E+02</pdfrwt>
<totfact> 0.69615102E+04</totfact>
</mgrwt>
</event>
<event>
 6    1  0.3062576E-002  0.1062286E+03  0.7546771E-02  0.1311306E+00
          2   -1    0    0  501    0  0.00000000000E+00  0.00000000000E+00  0.20363737190E+03  0.20363737190E+03  0.00000000000E+00 0. -1.
         -2   -1    0    0    0  501 -0.00000000000E+00 -0.00000000000E+00 -0.31608641283E+02  0.31608641283E+02  0.00000000000E+00 0.  1.
         23    2    1    2    0    0 -0.45988830631E+02 -0.92730627261E+01  0.14898347037E+03  0.18297703333E+03  0.95307701932E+02 0.  0.
         11    1    3    3    0    0 -0.30572008310E+02  0.31906584441E+02  0.12566001357E+03  0.13320329137E+03  0.00000000000E+00 0. -1.
        -11    1    3    3    0    0 -0.15416822321E+02 -0.41179647167E+02  0.23323456805E+02  0.49773741959E+02  0.00000000000E+00 0.  1.
         22    1    1    2    0    0  0.45988830631E+02  0.92730627261E+01  0.23045260246E+02  0.52268979854E+02  0.00000000000E+00 0. -1.
<mgrwt>
<rscale>  0 0.86597975E+02</rscale>
<asrwt>0</asrwt>
<pdfrwt beam="1">  1        2 0.31328826E-01 0.10622862E+03</pdfrwt>
<pdfrwt beam="2">  1       -2 0.48628680E-02 0.10622862E+03</pdfrwt>
<totfact> 0.30697286E+04</totfact>
</mgrwt>
</event>
<event>
 6    1  0.3062576E-002  0.9623008E+02  0.7546771E-02  0.1417184E+00
         -1   -1    0    0    0  501 -0.00000000000E+00  0.00000000000E+00  0.58246363744E+01  0.58246363744E+01  0.00000000000E+00 0.  1.
          1   -1    0    0  501    0  0.00000000000E+00 -0.00000000000E+00 -0.52955629733E+03  0.52955629733E+03  0.00000000000E+00 0. -1.
         23    2    1    2    0    0 -0.10665053856E+02  0.12719331605E+01 -0.50199770637E+03  0.51113787347E+03  0.95628799557E+02 0.  0.
         11    1    3    3    0    0 -0.26689202744E+01  0.47967925376E+02 -0.21958679116E+03  0.22478079067E+03  0.00000000000E+00 0.  1.
        -11    1    3    3    0    0 -0.79961335820E+01 -0.46695992215E+02 -0.28241091521E+03  0.28635708280E+03  0.00000000000E+00 0. -1.
         22    1    1    2    0    0  0.10665053856E+02 -0.12719331605E+01 -0.21733954590E+02  0.24243060241E+02  0.00000000000E+00 0.  1.
<mgrwt>
<rscale>  0 0.55621232E+02</rscale>
<asrwt>0</asrwt>
<pdfrwt beam="1">  1        1 0.81470226E-01 0.96230081E+02</pdfrwt>
<pdfrwt beam="2">  1       -1 0.89609761E-03 0.96230081E+02</pdfrwt>
<totfact> 0.81071906E+04</totfact>
</mgrwt>
</event>
<event>
 6    1  0.3062576E-002  0.8939844E+02  0.7546771E-02  0.1421251E+00
          3   -1    0    0  501    0  0.00000000000E+00  0.00000000000E+00  0.90457321876E+02  0.90457321876E+02  0.00000000000E+00 0. -1.
         -3   -1    0    0    0  501 -0.00000000000E+00 -0.00000000000E+00 -0.37514753505E+02  0.37514753505E+02  0.00000000000E+00 0.  1.
         23    2    1    2    0    0 -0.10212421714E+02 -0.73504592606E+01  0.65010975802E+02  0.11053736097E+03  0.88508521552E+02 0.  0.
         11    1    3    3    0    0  0.20540009484E+02  0.12198075114E+02 -0.10956926982E+02  0.26281919164E+02  0.00000000000E+00 0.  1.
        -11    1    3    3    0    0 -0.30752431198E+02 -0.19548534374E+02  0.75967902784E+02  0.84255441808E+02  0.00000000000E+00 0. -1.
         22    1    1    2    0    0  0.10212421714E+02  0.73504592606E+01 -0.12068407431E+02  0.17434714409E+02  0.00000000000E+00 0.  1.
<mgrwt>
<rscale>  0 0.54757094E+02</rscale>
<asrwt>0</asrwt>
<pdfrwt beam="1">  1        3 0.13916511E-01 0.89398441E+02</pdfrwt>
<pdfrwt beam="2">  1       -3 0.57715006E-02 0.89398441E+02</pdfrwt>
<totfact> 0.15606826E+04</totfact>
</mgrwt>
</event>
<event>
 6    1  0.3062576E-002  0.9009589E+02  0.7546771E-02  0.1429368E+00
          2   -1    0    0  501    0  0.00000000000E+00  0.00000000000E+00  0.47449875312E+03  0.47449875312E+03  0.00000000000E+00 0. -1.
         -2   -1    0    0    0  501 -0.00000000000E+00 -0.00000000000E+00 -0.58604560571E+01  0.58604560571E+01  0.00000000000E+00 0.  1.
         23    2    1    2    0    0  0.64613809620E+01 -0.87289459887E+01  0.44869111483E+03  0.45764722950E+03  0.89438952343E+02 0.  0.
         11    1    3    3    0    0 -0.26729430658E+02 -0.91067939154E+01  0.38306422407E+03  0.38410362654E+03  0.00000000000E+00 0. -1.
        -11    1    3    3    0    0  0.33190811620E+02  0.37784792675E+00  0.65626890764E+02  0.73543602960E+02  0.00000000000E+00 0.  1.
         22    1    1    2    0    0 -0.64613809620E+01  0.87289459887E+01  0.19947182236E+02  0.22711979684E+02  0.00000000000E+00 0. -1.
<mgrwt>
<rscale>  0 0.53087003E+02</rscale>
<asrwt>0</asrwt>
<pdfrwt beam="1">  1        2 0.72999778E-01 0.90095894E+02</pdfrwt>
<pdfrwt beam="2">  1       -2 0.90160899E-03 0.90095894E+02</pdfrwt>
<totfact> 0.14022812E+05</totfact>
</mgrwt>
</event>
<event>
 6    1  0.3062576E-002  0.9438093E+02  0.7546771E-02  0.1424530E+00
         -4   -1    0    0    0  501 -0.00000000000E+00  0.00000000000E+00  0.40585938282E+02  0.40585938282E+02  0.00000000000E+00 0.  1.
          4   -1    0    0  501    0  0.00000000000E+00 -0.00000000000E+00 -0.75020250387E+02  0.75020250387E+02  0.00000000000E+00 0. -1.
         23    2    1    2    0    0 -0.99674030946E+01  0.20170090406E+01 -0.41623991487E+02  0.10315191472E+03  0.93831462706E+02 0.  0.
         13    1    3    3    0    0  0.20538674147E+02 -0.38516385069E+02 -0.19356109551E+02  0.47749429646E+02  0.00000000000E+00 0.  1.
        -13    1    3    3    0    0 -0.30506077241E+02  0.40533394110E+02 -0.22267881936E+02  0.55402485077E+02  0.00000000000E+00 0. -1.
         22    1    1    2    0    0  0.99674030946E+01 -0.20170090406E+01  0.71896793821E+01  0.12454273947E+02  0.00000000000E+00 0. -1.
<mgrwt>
<rscale>  0 0.54073868E+02</rscale>
<asrwt>0</asrwt>
<pdfrwt beam="1">  1        4 0.11541577E-01 0.94380935E+02</pdfrwt>
<pdfrwt beam="2">  1       -4 0.62439905E-02 0.94380935E+02</pdfrwt>
<totfact> 0.14437655E+04</totfact>
</mgrwt>
</event>
<event>
 6    1  0.3062576E-002  0.9192011E+02  0.7546771E-02  0.1420560E+00
         -4   -1    0    0    0  501 -0.00000000000E+00  0.00000000000E+00  0.11257375397E+03  0.11257375397E+03  0.00000000000E+00 0.  1.
          4   -1    0    0  501    0  0.00000000000E+00 -0.00000000000E+00 -0.23853366050E+02  0.23853366050E+02  0.00000000000E+00 0. -1.
         23    2    1    2    0    0  0.77360193324E+01 -0.87758462376E+01  0.79542040359E+02  0.12155756938E+03  0.91172611111E+02 0.  0.
         11    1    3    3    0    0 -0.46677887184E+01  0.38584609766E+02  0.53432584408E+02  0.66072698135E+02  0.00000000000E+00 0.  1.
        -11    1    3    3    0    0  0.12403808051E+02 -0.47360456004E+02  0.26109455951E+02  0.55484871245E+02  0.00000000000E+00 0. -1.
         22    1    1    2    0    0 -0.77360193324E+01  0.87758462376E+01  0.91783475599E+01  0.14869550640E+02  0.00000000000E+00 0. -1.
<mgrwt>
<rscale>  0 0.54902617E+02</rscale>
<asrwt>0</asrwt>
<pdfrwt beam="1">  1        4 0.36697487E-02 0.91920109E+02</pdfrwt>
<pdfrwt beam="2">  1       -4 0.17319039E-01 0.91920109E+02</pdfrwt>
<totfact> 0.16584143E+04</totfact>
</mgrwt>
</event>
<event>
 6    1  0.3062576E-002  0.9187046E+02  0.7546771E-02  0.1423908E+00
         -2   -1    0    0    0  501 -0.00000000000E+00  0.00000000000E+00  0.11717358204E+02  0.11717358204E+02  0.00000000000E+00 0.  1.
          2   -1    0    0  501    0  0.00000000000E+00 -0.00000000000E+00 -0.22690936915E+03  0.22690936915E+03  0.00000000000E+00 0. -1.
         23    2    1    2    0    0 -0.96736472336E+01 -0.55072041847E+01 -0.19538279871E+03  0.21590419145E+03  0.91193602314E+02 0.  0.
         11    1    3    3    0    0  0.39858552626E+02  0.42206860998E+01 -0.10484626478E+03  0.11224641485E+03  0.00000000000E+00 0. -1.
        -11    1    3    3    0    0 -0.49532199860E+02 -0.97278902845E+01 -0.90536533931E+02  0.10365777659E+03  0.00000000000E+00 0.  1.
         22    1    1    2    0    0  0.96736472336E+01  0.55072041847E+01 -0.19809212235E+02  0.22722535909E+02  0.00000000000E+00 0. -1.
<mgrwt>
<rscale>  0 0.54202544E+02</rscale>
<asrwt>0</asrwt>
<pdfrwt beam="1">  1        2 0.34909133E-01 0.91870462E+02</pdfrwt>
<pdfrwt beam="2">  1       -2 0.18026705E-02 0.91870462E+02</pdfrwt>
<totfact> 0.11405314E+05</totfact>
</mgrwt>
</event>
<event>
 6    1  0.3062576E-002  0.1039714E+03  0.7546771E-02  0.1346733E+00
         -2   -1    0    0    0  501 -0.00000000000E+00  0.00000000000E+00  0.39561371896E+02  0.39561371896E+02  0.00000000000E+00 0.  1.
          2   -1    0    0  501    0  0.00000000000E+00 -0.00000000000E+00 -0.76665806272E+03  0.76665806272E+03  0.00000000000E+00 0. -1.
         23    2    1    2    0    0 -0.15991172044E+02  0.21507221400E+02 -0.75812372214E+03  0.76521998550E+03  0.10045780197E+03 0.  0.
         13    1    3    3    0    0 -0.36627747807E+02  0.44095908611E+02 -0.65883291722E+03  0.66132205005E+03  0.00000000000E+00 0. -1.
        -13    1    3    3    0    0  0.20636575763E+02 -0.22588687211E+02 -0.99290804922E+02  0.10389793545E+03  0.00000000000E+00 0.  1.
         22    1    1    2    0    0  0.15991172044E+02 -0.21507221400E+02  0.31027031317E+02  0.40999449119E+02  0.00000000000E+00 0.  1.
<mgrwt>
<rscale>  0 0.74083577E+02</rscale>
<asrwt>0</asrwt>
<pdfrwt beam="1">  1        2 0.11794739E+00 0.10397138E+03</pdfrwt>
<pdfrwt beam="2">  1       -2 0.60863653E-02 0.10397138E+03</pdfrwt>
<totfact> 0.51931924E+03</totfact>
</mgrwt>
</event>
<event>
 6    1  0.3062576E-002  0.9001979E+02  0.7546771E-02  0.1398804E+00
          2   -1    0    0  501    0  0.00000000000E+00  0.00000000000E+00  0.32776134863E+03  0.32776134863E+03  0.00000000000E+00 0. -1.
         -2   -1    0    0    0  501 -0.00000000000E+00 -0.00000000000E+00 -0.90283473008E+01  0.90283473008E+01  0.00000000000E+00 0.  1.
         23    2    1    2    0    0  0.76210045576E+01  0.15746646750E+02  0.28356661718E+03  0.29751233389E+03  0.88303600417E+02 0.  0.
         11    1    3    3    0    0  0.34487961829E+02 -0.17259003278E+02  0.20053127908E+03  0.20420599059E+03  0.00000000000E+00 0. -1.
        -11    1    3    3    0    0 -0.26866957271E+02  0.33005650027E+02  0.83035338097E+02  0.93306343298E+02  0.00000000000E+00 0.  1.
         22    1    1    2    0    0 -0.76210045576E+01 -0.15746646750E+02  0.35166384151E+02  0.39277362037E+02  0.00000000000E+00 0.  1.
<mgrwt>
<rscale>  0 0.59768886E+02</rscale>
<asrwt>0</asrwt>
<pdfrwt beam="1">  1        2 0.50424814E-01 0.90019789E+02</pdfrwt>
<pdfrwt beam="2">  1       -2 0.13889768E-02 0.90019789E+02</pdfrwt>
<totfact> 0.11221052E+05</totfact>
</mgrwt>
</event>
<event>
 6    1  0.3062576E-002  0.9308346E+02  0.7546771E-02  0.1422747E+00
          2   -1    0    0  501    0  0.00000000000E+00  0.00000000000E+00  0.22171778419E+02  0.22171778419E+02  0.00000000000E+00 0. -1.
         -2   -1    0    0    0  501 -0.00000000000E+00 -0.00000000000E+00 -0.12191026615E+03  0.12191026615E+03  0.00000000000E+00 0.  1.
         23    2    1    2    0    0 -0.10880541867E+02 -0.53827864221E+00 -0.89612193143E+02  0.12920865298E+03  0.92443793252E+02 0.  0.
         13    1    3    3    0    0 -0.30671221310E+02 -0.74350161759E+01  0.53075588660E+01  0.32002710249E+02  0.00000000000E+00 0. -1.
        -13    1    3    3    0    0  0.19790679443E+02  0.68967375337E+01 -0.94919752009E+02  0.97205942734E+02  0.00000000000E+00 0.  1.
         22    1    1    2    0    0  0.10880541867E+02  0.53827864221E+00 -0.10126294590E+02  0.14873391588E+02  0.00000000000E+00 0.  1.
<mgrwt>
<rscale>  0 0.54443963E+02</rscale>
<asrwt>0</asrwt>
<pdfrwt beam="1">  1        2 0.34110428E-02 0.93083462E+02</pdfrwt>
<pdfrwt beam="2">  1       -2 0.18755426E-01 0.93083462E+02</pdfrwt>
<totfact> 0.53086461E+04</totfact>
</mgrwt>
</event>
<event>
 6    1  0.3062576E-002  0.9601933E+02  0.7546771E-02  0.1399468E+00
         -2   -1    0    0    0  501 -0.00000000000E+00  0.00000000000E+00  0.30990029936E+01  0.30990029936E+01  0.00000000000E+00 0.  1.
          2   -1    0    0  501    0  0.00000000000E+00 -0.00000000000E+00 -0.10054987553E+04  0.10054987553E+04  0.00000000000E+00 0. -1.
         23    2    1    2    0    0  0.13326300296E+02  0.50878346358E+01 -0.91717967875E+03  0.92219210293E+03  0.94953858604E+02 0.  0.
         11    1    3    3    0    0  0.50925327670E+02  0.21136035866E+02 -0.52908498001E+03  0.53195022049E+03  0.00000000000E+00 0. -1.
        -11    1    3    3    0    0 -0.37599027373E+02 -0.16048201230E+02 -0.38809469874E+03  0.39024188244E+03  0.00000000000E+00 0.  1.
         22    1    1    2    0    0 -0.13326300296E+02 -0.50878346358E+01 -0.85220073535E+02  0.86405655336E+02  0.00000000000E+00 0. -1.
<mgrwt>
<rscale>  0 0.59611938E+02</rscale>
<asrwt>0</asrwt>
<pdfrwt beam="1">  1        2 0.15469211E+00 0.96019329E+02</pdfrwt>
<pdfrwt beam="2">  1       -2 0.47676972E-03 0.96019329E+02</pdfrwt>
<totfact> 0.14303093E+05</totfact>
</mgrwt>
</event>
<event>
 6    1  0.3062576E-002  0.2863017E+03  0.7546771E-02  0.1094284E+00
         -2   -1    0    0    0  501 -0.00000000000E+00  0.00000000000E+00  0.57695365150E+03  0.57695365150E+03  0.00000000000E+00 0. -1.
          2   -1    0    0  501    0  0.00000000000E+00 -0.00000000000E+00 -0.19852252536E+03  0.19852252536E+03  0.00000000000E+00 0.  1.
         23    2    1    2    0    0  0.27082415174E+03  0.22194110813E+02  0.41196688595E+03  0.50168255585E+03  0.90168575521E+02 0.  0.
         11    1    3    3    0    0  0.23795334462E+02  0.30956645085E+02  0.52402932440E+02  0.65349821311E+02  0.00000000000E+00 0.  1.
        -11    1    3    3    0    0  0.24702881727E+03 -0.87625342726E+01  0.35956395351E+03  0.43633273454E+03  0.00000000000E+00 0. -1.
         22    1    1    2    0    0 -0.27082415174E+03 -0.22194110813E+02 -0.33535759816E+02  0.27379362101E+03  0.00000000000E+00 0.  1.
<mgrwt>
<rscale>  0 0.28258765E+03</rscale>
<asrwt>0</asrwt>
<pdfrwt beam="1">  1        2 0.30541927E-01 0.28630171E+03</pdfrwt>
<pdfrwt beam="2">  1       -2 0.88762099E-01 0.28630171E+03</pdfrwt>
<totfact> 0.19495795E+02</totfact>
</mgrwt>
</event>
<event>
 6    1  0.3062576E-002  0.9435358E+02  0.7546771E-02  0.1413666E+00
          2   -1    0    0  501    0  0.00000000000E+00  0.00000000000E+00  0.75349379308E+03  0.75349379308E+03  0.00000000000E+00 0. -1.
         -2   -1    0    0    0  501 -0.00000000000E+00 -0.00000000000E+00 -0.39717132328E+01  0.39717132328E+01  0.00000000000E+00 0.  1.
         23    2    1    2    0    0  0.60572472914E+01 -0.10396245269E+02  0.70719322431E+03  0.71345977747E+03  0.93583253781E+02 0.  0.
         11    1    3    3    0    0 -0.25646394425E+02  0.18680085954E+02  0.53621672311E+03  0.53715459349E+03  0.00000000000E+00 0.  1.
        -11    1    3    3    0    0  0.31703641716E+02 -0.29076331224E+02  0.17097650120E+03  0.17630518398E+03  0.00000000000E+00 0. -1.
         22    1    1    2    0    0 -0.60572472914E+01  0.10396245269E+02  0.42328855538E+02  0.44005728850E+02  0.00000000000E+00 0.  1.
<mgrwt>
<rscale>  0 0.56383809E+02</rscale>
<asrwt>0</asrwt>
<pdfrwt beam="1">  1        2 0.11592201E+00 0.94353577E+02</pdfrwt>
<pdfrwt beam="2">  1       -2 0.61103340E-03 0.94353577E+02</pdfrwt>
<totfact> 0.14527725E+05</totfact>
</mgrwt>
</event>
<event>
 6    1  0.3062576E-002  0.1065494E+03  0.7546771E-02  0.1304246E+00
         -1   -1    0    0    0  501 -0.00000000000E+00  0.00000000000E+00  0.10951672560E+02  0.10951672560E+02  0.00000000000E+00 0.  1.
          1   -1    0    0  501    0  0.00000000000E+00 -0.00000000000E+00 -0.58115268439E+03  0.58115268439E+03  0.00000000000E+00 0. -1.
         23    2    1    2    0    0  0.35953510026E+02  0.38764151605E+02 -0.36939375943E+03  0.38445352755E+03  0.92506491711E+02 0.  0.
         13    1    3    3    0    0  0.21671159616E+02 -0.21934520008E+02 -0.47886368886E+02  0.56954952832E+02  0.00000000000E+00 0. -1.
        -13    1    3    3    0    0  0.14282350410E+02  0.60698671613E+02 -0.32150739054E+03  0.32749857472E+03  0.00000000000E+00 0.  1.
         22    1    1    2    0    0 -0.35953510026E+02 -0.38764151605E+02 -0.20080725240E+03  0.20765082940E+03  0.00000000000E+00 0. -1.
<mgrwt>
<rscale>  0 0.89426648E+02</rscale>
<asrwt>0</asrwt>
<pdfrwt beam="1">  1        1 0.89408105E-01 0.10654936E+03</pdfrwt>
<pdfrwt beam="2">  1       -1 0.16848727E-02 0.10654936E+03</pdfrwt>
<totfact> 0.29634260E+04</totfact>
</mgrwt>
</event>
<event>
 6    1  0.3062576E-002  0.9363303E+02  0.7546771E-02  0.1399100E+00
         -2   -1    0    0    0  501 -0.00000000000E+00  0.00000000000E+00  0.13138656208E+02  0.13138656208E+02  0.00000000000E+00 0. -1.
          2   -1    0    0  501    0  0.00000000000E+00 -0.00000000000E+00 -0.27277218291E+03  0.27277218291E+03  0.00000000000E+00 0.  1.
         23    2    1    2    0    0 -0.66190365710E+01 -0.13985734817E+02 -0.25163910717E+03  0.26849466367E+03  0.92345718580E+02 0.  0.
         13    1    3    3    0    0 -0.38155209550E+02 -0.16144668987E+01 -0.44660316537E+02  0.58761980841E+02  0.00000000000E+00 0. -1.
        -13    1    3    3    0    0  0.31536172979E+02 -0.12371267918E+02 -0.20697879063E+03  0.20973268283E+03  0.00000000000E+00 0.  1.
         22    1    1    2    0    0  0.66190365710E+01  0.13985734817E+02 -0.79944195325E+01  0.17416175446E+02  0.00000000000E+00 0.  1.
<mgrwt>
<rscale>  0 0.59698737E+02</rscale>
<asrwt>0</asrwt>
<pdfrwt beam="1">  1        2 0.41964948E-01 0.93633029E+02</pdfrwt>
<pdfrwt beam="2">  1       -2 0.20213319E-02 0.93633029E+02</pdfrwt>
<totfact> 0.79951891E+04</totfact>
</mgrwt>
</event>
<event>
 6    1  0.3062576E-002  0.9191375E+02  0.7546771E-02  0.1405453E+00
          1   -1    0    0  501    0  0.00000000000E+00  0.00000000000E+00  0.45358202316E+02  0.45358202316E+02  0.00000000000E+00 0. -1.
         -1   -1    0    0    0  501 -0.00000000000E+00 -0.00000000000E+00 -0.62828233363E+02  0.62828233363E+02  0.00000000000E+00 0.  1.
         23    2    1    2    0    0 -0.88153489069E+01 -0.11884435657E+02 -0.13830905641E+02  0.92948541436E+02  0.90714867674E+02 0.  0.
         11    1    3    3    0    0 -0.45659182884E+01 -0.51266851384E+02 -0.16092004254E+01  0.51494923892E+02  0.00000000000E+00 0.  1.
        -11    1    3    3    0    0 -0.42494306185E+01  0.39382415727E+02 -0.12221705215E+02  0.41453617544E+02  0.00000000000E+00 0. -1.
         22    1    1    2    0    0  0.88153489069E+01  0.11884435657E+02 -0.36391254063E+01  0.15237894243E+02  0.00000000000E+00 0. -1.
<mgrwt>
<rscale>  0 0.58220848E+02</rscale>
<asrwt>0</asrwt>
<pdfrwt beam="1">  1        1 0.69781849E-02 0.91913750E+02</pdfrwt>
<pdfrwt beam="2">  1       -1 0.96658821E-02 0.91913750E+02</pdfrwt>
<totfact> 0.57706255E+04</totfact>
</mgrwt>
</event>
<event>
 6    1  0.3062576E-002  0.8264917E+02  0.7546771E-02  0.1440912E+00
         -1   -1    0    0    0  501 -0.00000000000E+00  0.00000000000E+00  0.11881003124E+03  0.11881003124E+03  0.00000000000E+00 0. -1.
          1   -1    0    0  501    0  0.00000000000E+00 -0.00000000000E+00 -0.31091369621E+02  0.31091369621E+02  0.00000000000E+00 0.  1.
         23    2    1    2    0    0  0.11410860750E+02 -0.31007995718E+01  0.25390275471E+02  0.86461268288E+02  0.81798912734E+02 0.  0.
         13    1    3    3    0    0  0.82565130547E+01  0.11904254128E+02  0.52964815098E+02  0.54910408053E+02  0.00000000000E+00 0. -1.
        -13    1    3    3    0    0  0.31543476958E+01 -0.15005053700E+02 -0.27574539627E+02  0.31550860235E+02  0.00000000000E+00 0.  1.
         22    1    1    2    0    0 -0.11410860750E+02  0.31007995718E+01  0.62328386146E+02  0.63440132571E+02  0.00000000000E+00 0. -1.
<mgrwt>
<rscale>  0 0.50830698E+02</rscale>
<asrwt>0</asrwt>
<pdfrwt beam="1">  1        1 0.47832877E-02 0.82649167E+02</pdfrwt>
<pdfrwt beam="2">  1       -1 0.18278466E-01 0.82649167E+02</pdfrwt>
<totfact> 0.35439999E+04</totfact>
</mgrwt>
</event>
<event>
 6    1  0.3062576E-002  0.9160642E+02  0.7546771E-02  0.1417778E+00
          2   -1    0    0  501    0  0.00000000000E+00  0.00000000000E+00  0.22467746899E+03  0.22467746899E+03  0.00000000000E+00 0. -1.
         -2   -1    0    0    0  501 -0.00000000000E+00 -0.00000000000E+00 -0.12096942464E+02  0.12096942464E+02  0.00000000000E+00 0.  1.
         23    2    1    2    0    0 -0.12061871987E+02  0.25898618462E+01  0.18078901505E+03  0.20267314547E+03  0.90771910796E+02 0.  0.
         13    1    3    3    0    0  0.26248389613E+02 -0.21313966046E+02  0.29778573574E+02  0.45055815939E+02  0.00000000000E+00 0. -1.
        -13    1    3    3    0    0 -0.38310261600E+02  0.23903827892E+02  0.15101044148E+03  0.15761732953E+03  0.00000000000E+00 0.  1.
         22    1    1    2    0    0  0.12061871987E+02 -0.25898618462E+01  0.31791511477E+02  0.34101265991E+02  0.00000000000E+00 0. -1.
<mgrwt>
<rscale>  0 0.55493853E+02</rscale>
<asrwt>0</asrwt>
<pdfrwt beam="1">  1        2 0.34565761E-01 0.91606419E+02</pdfrwt>
<pdfrwt beam="2">  1       -2 0.18610682E-02 0.91606419E+02</pdfrwt>
<totfact> 0.11005520E+05</totfact>
</mgrwt>
</event>
<event>
 6    1  0.3062576E-002  0.8990547E+02  0.7546771E-02  0.1420048E+00
         -1   -1    0    0    0  501 -0.00000000000E+00  0.00000000000E+00  0.41174131674E+01  0.41174131674E+01  0.00000000000E+00 0.  1.
          1   -1    0    0  501    0  0.00000000000E+00 -0.00000000000E+00 -0.64772258671E+03  0.64772258671E+03  0.00000000000E+00 0. -1.
         23    2    1    2    0    0  0.62979705787E+01  0.10915179384E+02 -0.58731580908E+03  0.59415726307E+03  0.89017908788E+02 0.  0.
         11    1    3    3    0    0 -0.39264856023E+02 -0.47177394130E+01 -0.20133583629E+03  0.20518310106E+03  0.00000000000E+00 0.  1.
        -11    1    3    3    0    0  0.45562826602E+02  0.15632918797E+02 -0.38597997279E+03  0.38897416201E+03  0.00000000000E+00 0. -1.
         22    1    1    2    0    0 -0.62979705787E+01 -0.10915179384E+02 -0.56289364467E+02  0.57682736815E+02  0.00000000000E+00 0. -1.
<mgrwt>
<rscale>  0 0.55010781E+02</rscale>
<asrwt>0</asrwt>
<pdfrwt beam="1">  1        1 0.99649622E-01 0.89905471E+02</pdfrwt>
<pdfrwt beam="2">  1       -1 0.63344822E-03 0.89905471E+02</pdfrwt>
<totfact> 0.99982839E+04</totfact>
</mgrwt>
</event>
<event>
 6    1  0.3062576E-002  0.9428724E+02  0.7546771E-02  0.1365629E+00
         -3   -1    0    0    0  501 -0.00000000000E+00  0.00000000000E+00  0.10911431351E+03  0.10911431351E+03  0.00000000000E+00 0.  1.
          3   -1    0    0  501    0  0.00000000000E+00 -0.00000000000E+00 -0.63091397665E+02  0.63091397665E+02  0.00000000000E+00 0. -1.
         23    2    1    2    0    0 -0.23779115793E+02  0.10782948056E+02 -0.24151574267E+02  0.97331300464E+02  0.90600028663E+02 0.  0.
         13    1    3    3    0    0  0.13654036494E+02  0.42837470545E+02 -0.10034731701E+02  0.46067097103E+02  0.00000000000E+00 0.  1.
        -13    1    3    3    0    0 -0.37433152287E+02 -0.32054522489E+02 -0.14116842567E+02  0.51264203360E+02  0.00000000000E+00 0. -1.
         22    1    1    2    0    0  0.23779115793E+02 -0.10782948056E+02  0.70174490115E+02  0.74874410712E+02  0.00000000000E+00 0.  1.
<mgrwt>
<rscale>  0 0.68397513E+02</rscale>
<asrwt>0</asrwt>
<pdfrwt beam="1">  1        3 0.97063689E-02 0.94287239E+02</pdfrwt>
<pdfrwt beam="2">  1       -3 0.16786817E-01 0.94287239E+02</pdfrwt>
<totfact> 0.49899152E+03</totfact>
</mgrwt>
</event>
<event>
 6    1  0.3062576E-002  0.1024004E+03  0.7546771E-02  0.1315764E+00
          2   -1    0    0  501    0  0.00000000000E+00  0.00000000000E+00  0.56808986809E+03  0.56808986809E+03  0.00000000000E+00 0. -1.
         -2   -1    0    0    0  501 -0.00000000000E+00 -0.00000000000E+00 -0.11053515464E+02  0.11053515464E+02  0.00000000000E+00 0.  1.
         23    2    1    2    0    0  0.11416449427E+02  0.46958190590E+02  0.45301810102E+03  0.46444724740E+03  0.90279780606E+02 0.  0.
         11    1    3    3    0    0 -0.16045932710E+02  0.39767680071E+02  0.41389114268E+03  0.41610673909E+03  0.00000000000E+00 0. -1.
        -11    1    3    3    0    0  0.27462382137E+02  0.71905105191E+01  0.39126958347E+02  0.48340508310E+02  0.00000000000E+00 0.  1.
         22    1    1    2    0    0 -0.11416449427E+02 -0.46958190590E+02  0.10401825160E+03  0.11469613615E+03  0.00000000000E+00 0. -1.
<mgrwt>
<rscale>  0 0.84873404E+02</rscale>
<asrwt>0</asrwt>
<pdfrwt beam="1">  1        2 0.87398418E-01 0.10240042E+03</pdfrwt>
<pdfrwt beam="2">  1       -2 0.17005413E-02 0.10240042E+03</pdfrwt>
<totfact> 0.47518639E+04</totfact>
</mgrwt>
</event>
<event>
 6    1  0.3062576E-002  0.1198755E+03  0.7546771E-02  0.1315111E+00
         -2   -1    0    0    0  501 -0.00000000000E+00  0.00000000000E+00  0.17032208353E+02  0.17032208353E+02  0.00000000000E+00 0.  1.
          2   -1    0    0  501    0  0.00000000000E+00 -0.00000000000E+00 -0.33183707775E+03  0.33183707775E+03  0.00000000000E+00 0. -1.
         23    2    1    2    0    0  0.19562877313E+02  0.23372237666E+02 -0.25201351381E+03  0.27907156408E+03  0.11593601285E+03 0.  0.
         13    1    3    3    0    0 -0.36719532337E+02  0.40671499191E+02 -0.16619984366E+03  0.17499966553E+03  0.00000000000E+00 0. -1.
        -13    1    3    3    0    0  0.56282409649E+02 -0.17299261525E+02 -0.85813670149E+02  0.10407189856E+03  0.00000000000E+00 0.  1.
         22    1    1    2    0    0 -0.19562877313E+02 -0.23372237666E+02 -0.62791355590E+02  0.69797722019E+02  0.00000000000E+00 0. -1.
<mgrwt>
<rscale>  0 0.85123172E+02</rscale>
<asrwt>0</asrwt>
<pdfrwt beam="1">  1        2 0.51051859E-01 0.11987546E+03</pdfrwt>
<pdfrwt beam="2">  1       -2 0.26203397E-02 0.11987546E+03</pdfrwt>
<totfact> 0.46138516E+04</totfact>
</mgrwt>
</event>
<event>
 6    1  0.3062576E-002  0.9160297E+02  0.7546771E-02  0.1414424E+00
         -2   -1    0    0    0  501 -0.00000000000E+00  0.00000000000E+00  0.49428613255E+01  0.49428613255E+01  0.00000000000E+00 0. -1.
          2   -1    0    0  501    0  0.00000000000E+00 -0.00000000000E+00 -0.99343658948E+03  0.99343658948E+03  0.00000000000E+00 0.  1.
         23    2    1    2    0    0 -0.29911632697E+00 -0.12991747344E+02 -0.97620708647E+03  0.98049547660E+03  0.90676507333E+02 0.  0.
         11    1    3    3    0    0 -0.14184254248E+02 -0.22945976390E+02 -0.86157252558E+02  0.90281687343E+02  0.00000000000E+00 0. -1.
        -11    1    3    3    0    0  0.13885137921E+02  0.99542290464E+01 -0.89004983392E+03  0.89021378926E+03  0.00000000000E+00 0.  1.
         22    1    1    2    0    0  0.29911632697E+00  0.12991747344E+02 -0.12286641683E+02  0.17883974208E+02  0.00000000000E+00 0. -1.
<mgrwt>
<rscale>  0 0.56218315E+02</rscale>
<asrwt>0</asrwt>
<pdfrwt beam="1">  1        2 0.15283650E+00 0.91602969E+02</pdfrwt>
<pdfrwt beam="2">  1       -2 0.76043969E-03 0.91602969E+02</pdfrwt>
<totfact> 0.74957620E+04</totfact>
</mgrwt>
</event>
<event>
 6    1  0.3062576E-002  0.8766721E+02  0.7546771E-02  0.1394522E+00
         -4   -1    0    0    0  501 -0.00000000000E+00  0.00000000000E+00  0.22535439082E+02  0.22535439082E+02  0.00000000000E+00 0.  1.
          4   -1    0    0  501    0  0.00000000000E+00 -0.00000000000E+00 -0.37132494045E+03  0.37132494045E+03  0.00000000000E+00 0. -1.
         23    2    1    2    0    0  0.19695299809E+02  0.48174701932E+01 -0.36011737098E+03  0.37063467215E+03  0.85290248353E+02 0.  0.
         11    1    3    3    0    0  0.17162166976E+02  0.32621390440E+02 -0.31784204122E+03  0.31997227732E+03  0.00000000000E+00 0. -1.
        -11    1    3    3    0    0  0.25331328332E+01 -0.27803920247E+02 -0.42275329760E+02  0.50662394825E+02  0.00000000000E+00 0.  1.
         22    1    1    2    0    0 -0.19695299809E+02 -0.48174701932E+01  0.11327869610E+02  0.23225707385E+02  0.00000000000E+00 0.  1.
<mgrwt>
<rscale>  0 0.60795721E+02</rscale>
<asrwt>0</asrwt>
<pdfrwt beam="1">  1        4 0.57126910E-01 0.87667208E+02</pdfrwt>
<pdfrwt beam="2">  1       -4 0.34669909E-02 0.87667208E+02</pdfrwt>
<totfact> 0.18676394E+03</totfact>
</mgrwt>
</event>
<event>
 6    1  0.3062576E-002  0.9754534E+02  0.7546771E-02  0.1410396E+00
         -1   -1    0    0    0  501 -0.00000000000E+00  0.00000000000E+00  0.37495125700E+01  0.37495125700E+01  0.00000000000E+00 0.  1.
          1   -1    0    0  501    0  0.00000000000E+00 -0.00000000000E+00 -0.92221172914E+03  0.92221172914E+03  0.00000000000E+00 0. -1.
         23    2    1    2    0    0 -0.42329732715E+01  0.10647070072E+02 -0.88922350584E+03  0.89455773284E+03  0.96870098031E+02 0.  0.
         13    1    3    3    0    0 -0.14902552813E+00  0.45906859073E+02 -0.23917506183E+03  0.24354090441E+03  0.00000000000E+00 0. -1.
        -13    1    3    3    0    0 -0.40839477433E+01 -0.35259789001E+02 -0.65004844400E+03  0.65101682843E+03  0.00000000000E+00 0.  1.
         22    1    1    2    0    0  0.42329732715E+01 -0.10647070072E+02 -0.29238710734E+02  0.31403508868E+02  0.00000000000E+00 0.  1.
<mgrwt>
<rscale>  0 0.57105635E+02</rscale>
<asrwt>0</asrwt>
<pdfrwt beam="1">  1        1 0.14187901E+00 0.97545344E+02</pdfrwt>
<pdfrwt beam="2">  1       -1 0.57684694E-03 0.97545344E+02</pdfrwt>
<totfact> 0.68594696E+04</totfact>
</mgrwt>
</event>
<event>
 6    1  0.3062576E-002  0.9852373E+02  0.7546771E-02  0.1340728E+00
          3   -1    0    0  501    0  0.00000000000E+00  0.00000000000E+00  0.23949521829E+03  0.23949521829E+03  0.00000000000E+00 0. -1.
         -3   -1    0    0    0  501 -0.00000000000E+00 -0.00000000000E+00 -0.18613696543E+02  0.18613696543E+02  0.00000000000E+00 0.  1.
         23    2    1    2    0    0 -0.32831335034E+02 -0.11923012264E+02  0.15903145539E+03  0.18707733390E+03  0.92124211113E+02 0.  0.
         13    1    3    3    0    0 -0.78318846358E+01  0.37154152381E+02  0.36194749516E+02  0.52457881664E+02  0.00000000000E+00 0.  1.
        -13    1    3    3    0    0 -0.24999450399E+02 -0.49077164645E+02  0.12283670587E+03  0.13461945223E+03  0.00000000000E+00 0. -1.
         22    1    1    2    0    0  0.32831335034E+02  0.11923012264E+02  0.61850066356E+02  0.71031580933E+02  0.00000000000E+00 0. -1.
<mgrwt>
<rscale>  0 0.76024408E+02</rscale>
<asrwt>0</asrwt>
<pdfrwt beam="1">  1        3 0.36845416E-01 0.98523728E+02</pdfrwt>
<pdfrwt beam="2">  1       -3 0.28636458E-02 0.98523728E+02</pdfrwt>
<totfact> 0.84279130E+03</totfact>
</mgrwt>
</event>
<event>
 6    1  0.3062576E-002  0.1011025E+03  0.7546771E-02  0.1324329E+00
         -4   -1    0    0    0  501 -0.00000000000E+00  0.00000000000E+00  0.12235967542E+03  0.12235967542E+03  0.00000000000E+00 0.  1.
          4   -1    0    0  501    0  0.00000000000E+00 -0.00000000000E+00 -0.58132381070E+02  0.58132381070E+02  0.00000000000E+00 0. -1.
         23    2    1    2    0    0  0.40880594355E+02  0.13609493345E+02 -0.24185562268E+01  0.10113141950E+03  0.91461867970E+02 0.  0.
         11    1    3    3    0    0  0.54154989228E+02 -0.15053971468E+01 -0.33800609064E+02  0.63855385458E+02  0.00000000000E+00 0.  1.
        -11    1    3    3    0    0 -0.13274394873E+02  0.15114890492E+02  0.31382052838E+02  0.37276034045E+02  0.00000000000E+00 0. -1.
         22    1    1    2    0    0 -0.40880594355E+02 -0.13609493345E+02  0.66645850576E+02  0.79360636987E+02  0.00000000000E+00 0. -1.
<mgrwt>
<rscale>  0 0.81687680E+02</rscale>
<asrwt>0</asrwt>
<pdfrwt beam="1">  1        4 0.89434433E-02 0.10110250E+03</pdfrwt>
<pdfrwt beam="2">  1       -4 0.18824565E-01 0.10110250E+03</pdfrwt>
<totfact> 0.35042432E+03</totfact>
</mgrwt>
</event>
<event>
 6    1  0.3062576E-002  0.1158422E+03  0.7546771E-02  0.1274491E+00
         -1   -1    0    0    0  501 -0.00000000000E+00  0.00000000000E+00  0.76458517444E+02  0.76458517444E+02  0.00000000000E+00 0.  1.
          1   -1    0    0  501    0  0.00000000000E+00 -0.00000000000E+00 -0.16041184598E+03  0.16041184598E+03  0.00000000000E+00 0. -1.
         23    2    1    2    0    0  0.59772085850E+02 -0.39916389198E+02 -0.11065114326E+03  0.16019707157E+03  0.90848257335E+02 0.  0.
         13    1    3    3    0    0  0.19600819226E+02 -0.10838507698E+02 -0.10825562055E+03  0.11054838192E+03  0.00000000000E+00 0. -1.
        -13    1    3    3    0    0  0.40171266623E+02 -0.29077881500E+02 -0.23955227037E+01  0.49648689647E+02  0.00000000000E+00 0.  1.
         22    1    1    2    0    0 -0.59772085850E+02  0.39916389198E+02  0.26697814722E+02  0.76673291858E+02  0.00000000000E+00 0.  1.
<mgrwt>
<rscale>  0 0.10281222E+03</rscale>
<asrwt>0</asrwt>
<pdfrwt beam="1">  1        1 0.24678745E-01 0.11584225E+03</pdfrwt>
<pdfrwt beam="2">  1       -1 0.11762849E-01 0.11584225E+03</pdfrwt>
<totfact> 0.85760190E+03</totfact>
</mgrwt>
</event>
<event>
 6    1  0.3062576E-002  0.8665790E+02  0.7546771E-02  0.1375339E+00
          2   -1    0    0  501    0  0.00000000000E+00  0.00000000000E+00  0.26014446710E+03  0.26014446710E+03  0.00000000000E+00 0. -1.
         -2   -1    0    0    0  501 -0.00000000000E+00 -0.00000000000E+00 -0.13078661944E+02  0.13078661944E+02  0.00000000000E+00 0.  1.
         23    2    1    2    0    0 -0.11440920450E+01  0.28617125065E+02  0.20230545355E+03  0.22008427443E+03  0.81788400907E+02 0.  0.
         13    1    3    3    0    0 -0.15687839756E+02  0.15736436750E+02  0.19916950266E+03  0.20040517595E+03  0.00000000000E+00 0. -1.
        -13    1    3    3    0    0  0.14543747711E+02  0.12880688315E+02  0.31359508844E+01  0.19679098477E+02  0.00000000000E+00 0.  1.
         22    1    1    2    0    0  0.11440920450E+01 -0.28617125065E+02  0.44760351614E+02  0.53138854619E+02  0.00000000000E+00 0.  1.
<mgrwt>
<rscale>  0 0.65705135E+02</rscale>
<asrwt>0</asrwt>
<pdfrwt beam="1">  1        2 0.40022222E-01 0.86657898E+02</pdfrwt>
<pdfrwt beam="2">  1       -2 0.20121020E-02 0.86657898E+02</pdfrwt>
<totfact> 0.83621478E+04</totfact>
</mgrwt>
</event>
<event>
 6    1  0.3062576E-002  0.9173359E+02  0.7546771E-02  0.1411807E+00
         -4   -1    0    0    0  501 -0.00000000000E+00  0.00000000000E+00  0.86205426628E+02  0.86205426628E+02  0.00000000000E+00 0. -1.
          4   -1    0    0  501    0  0.00000000000E+00 -0.00000000000E+00 -0.12673349145E+03  0.12673349145E+03  0.00000000000E+00 0.  1.
         23    2    1    2    0    0  0.11187782233E+02 -0.75135030083E+01 -0.10939448202E+03  0.14276625519E+03  0.90738259430E+02 0.  0.
         13    1    3    3    0    0 -0.74195359476E+01 -0.76728053646E+01 -0.12058241518E+03  0.12105387357E+03  0.00000000000E+00 0.  1.
        -13    1    3    3    0    0  0.18607318181E+02  0.15930235633E+00  0.11187933157E+02  0.21712381617E+02  0.00000000000E+00 0. -1.
         22    1    1    2    0    0 -0.11187782233E+02  0.75135030083E+01  0.68866417202E+02  0.70172662890E+02  0.00000000000E+00 0. -1.
<mgrwt>
<rscale>  0 0.56792567E+02</rscale>
<asrwt>0</asrwt>
<pdfrwt beam="1">  1        4 0.19497460E-01 0.91733587E+02</pdfrwt>
<pdfrwt beam="2">  1       -4 0.13262373E-01 0.91733587E+02</pdfrwt>
<totfact> 0.16533432E+03</totfact>
</mgrwt>
</event>
<event>
 6    1  0.3062576E-002  0.9189614E+02  0.7546771E-02  0.1329405E+00
         -1   -1    0    0    0  501 -0.00000000000E+00  0.00000000000E+00  0.51948159081E+02  0.51948159081E+02  0.00000000000E+00 0.  1.
          1   -1    0    0  501    0  0.00000000000E+00 -0.00000000000E+00 -0.22815290098E+03  0.22815290098E+03  0.00000000000E+00 0. -1.
         23    2    1    2    0    0  0.26012626437E+02  0.45547397028E+02 -0.20179874283E+03  0.22173775829E+03  0.75456469127E+02 0.  0.
         11    1    3    3    0    0 -0.41974825526E+01  0.39148921596E+02 -0.36864016928E+02  0.53937117702E+02  0.00000000000E+00 0.  1.
        -11    1    3    3    0    0  0.30210108990E+02  0.63984754313E+01 -0.16493472590E+03  0.16780064058E+03  0.00000000000E+00 0. -1.
         22    1    1    2    0    0 -0.26012626437E+02 -0.45547397028E+02  0.25594000930E+02  0.58363301772E+02  0.00000000000E+00 0.  1.
<mgrwt>
<rscale>  0 0.79875514E+02</rscale>
<asrwt>0</asrwt>
<pdfrwt beam="1">  1        1 0.35100446E-01 0.91896142E+02</pdfrwt>
<pdfrwt beam="2">  1       -1 0.79920245E-02 0.91896142E+02</pdfrwt>
<totfact> 0.97696893E+03</totfact>
</mgrwt>
</event>
<event>
 6    1  0.3062576E-002  0.9698775E+02  0.7546771E-02  0.1360456E+00
         -2   -1    0    0    0  501 -0.00000000000E+00  0.00000000000E+00  0.15462985667E+02  0.15462985667E+02  0.00000000000E+00 0. -1.
          2   -1    0    0  501    0  0.00000000000E+00 -0.00000000000E+00 -0.24926642495E+03  0.24926642495E+03  0.00000000000E+00 0.  1.
         23    2    1    2    0    0  0.57083970636E+01  0.25526819154E+02 -0.19696227038E+03  0.21954671460E+03  0.93393895120E+02 0.  0.
         11    1    3    3    0    0  0.54029500801E+00  0.52210612634E+02 -0.18020414082E+03  0.18761602373E+03  0.00000000000E+00 0.  1.
        -11    1    3    3    0    0  0.51681020556E+01 -0.26683793480E+02 -0.16758129559E+02  0.31930690873E+02  0.00000000000E+00 0. -1.
         22    1    1    2    0    0 -0.57083970636E+01 -0.25526819154E+02 -0.36841168908E+02  0.45182696020E+02  0.00000000000E+00 0. -1.
<mgrwt>
<rscale>  0 0.69893356E+02</rscale>
<asrwt>0</asrwt>
<pdfrwt beam="1">  1        2 0.38348680E-01 0.96987751E+02</pdfrwt>
<pdfrwt beam="2">  1       -2 0.23789209E-02 0.96987751E+02</pdfrwt>
<totfact> 0.69834022E+04</totfact>
</mgrwt>
</event>
<event>
 6    1  0.3062576E-002  0.9219084E+02  0.7546771E-02  0.1427005E+00
          2   -1    0    0  501    0  0.00000000000E+00  0.00000000000E+00  0.16547239613E+02  0.16547239613E+02  0.00000000000E+00 0. -1.
         -2   -1    0    0    0  501 -0.00000000000E+00 -0.00000000000E+00 -0.16103366122E+03  0.16103366122E+03  0.00000000000E+00 0.  1.
         23    2    1    2    0    0 -0.99837068906E+01 -0.32753553935E+01 -0.13466140670E+03  0.16319572533E+03  0.91590108396E+02 0.  0.
         13    1    3    3    0    0 -0.42397282424E+01  0.27015321760E+02 -0.24707030011E+01  0.27457372028E+02  0.00000000000E+00 0. -1.
        -13    1    3    3    0    0 -0.57439786482E+01 -0.30290677153E+02 -0.13219070370E+03  0.13573835331E+03  0.00000000000E+00 0.  1.
         22    1    1    2    0    0  0.99837068906E+01  0.32753553935E+01 -0.98250149026E+01  0.14385175497E+02  0.00000000000E+00 0. -1.
<mgrwt>
<rscale>  0 0.53565863E+02</rscale>
<asrwt>0</asrwt>
<pdfrwt beam="1">  1        2 0.25457291E-02 0.92190836E+02</pdfrwt>
<pdfrwt beam="2">  1       -2 0.24774410E-01 0.92190836E+02</pdfrwt>
<totfact> 0.48806473E+04</totfact>
</mgrwt>
</event>
<event>
 6    1  0.3062576E-002  0.9039340E+02  0.7546771E-02  0.1422580E+00
          2   -1    0    0  501    0  0.00000000000E+00  0.00000000000E+00  0.44464558463E+02  0.44464558463E+02  0.00000000000E+00 0. -1.
         -2   -1    0    0    0  501 -0.00000000000E+00 -0.00000000000E+00 -0.58889849504E+02  0.58889849504E+02  0.00000000000E+00 0.  1.
         23    2    1    2    0    0  0.11893262285E+02 -0.88412772286E+00 -0.13449242847E+02  0.91388454612E+02  0.89603214974E+02 0.  0.
         11    1    3    3    0    0 -0.24786112792E+02 -0.13800709558E+02  0.24180052103E+02  0.37275808393E+02  0.00000000000E+00 0. -1.
        -11    1    3    3    0    0  0.36679375077E+02  0.12916581836E+02 -0.37629294951E+02  0.54112646219E+02  0.00000000000E+00 0.  1.
         22    1    1    2    0    0 -0.11893262285E+02  0.88412772286E+00 -0.97604819426E+00  0.11965953355E+02  0.00000000000E+00 0.  1.
<mgrwt>
<rscale>  0 0.54478731E+02</rscale>
<asrwt>0</asrwt>
<pdfrwt beam="1">  1        2 0.68407013E-02 0.90393404E+02</pdfrwt>
<pdfrwt beam="2">  1       -2 0.90599769E-02 0.90393404E+02</pdfrwt>
<totfact> 0.68759722E+04</totfact>
</mgrwt>
</event>
<event>
 6    1  0.3062576E-002  0.1093254E+03  0.7546771E-02  0.1388241E+00
         -1   -1    0    0    0  501 -0.00000000000E+00  0.00000000000E+00  0.28787553297E+01  0.28787553297E+01  0.00000000000E+00 0.  1.
          1   -1    0    0  501    0  0.00000000000E+00 -0.00000000000E+00 -0.13268015944E+04  0.13268015944E+04  0.00000000000E+00 0. -1.
         23    2    1    2    0    0  0.11536968191E+02 -0.77788238979E+00 -0.12588365732E+04  0.12635749132E+04  0.10871217257E+03 0.  0.
         13    1    3    3    0    0 -0.47622697654E+02  0.89612935610E+01 -0.64471277217E+03  0.64653134859E+03  0.00000000000E+00 0.  1.
        -13    1    3    3    0    0  0.59159665845E+02 -0.97391759508E+01 -0.61412380103E+03  0.61704356459E+03  0.00000000000E+00 0. -1.
         22    1    1    2    0    0 -0.11536968191E+02  0.77788238979E+00 -0.65086265883E+02  0.66105436559E+02  0.00000000000E+00 0. -1.
<mgrwt>
<rscale>  0 0.62346197E+02</rscale>
<asrwt>0</asrwt>
<pdfrwt beam="1">  1        1 0.20412370E+00 0.10932540E+03</pdfrwt>
<pdfrwt beam="2">  1       -1 0.44288462E-03 0.10932540E+03</pdfrwt>
<totfact> 0.52656820E+04</totfact>
</mgrwt>
</event>
<event>
 6    1  0.3062576E-002  0.9109003E+02  0.7546771E-02  0.1415518E+00
          2   -1    0    0  501    0  0.00000000000E+00  0.00000000000E+00  0.66191298704E+03  0.66191298704E+03  0.00000000000E+00 0.  1.
         -2   -1    0    0    0  501 -0.00000000000E+00 -0.00000000000E+00 -0.10050743733E+02  0.10050743733E+02  0.00000000000E+00 0. -1.
         23    2    1    2    0    0  0.24480028835E+00  0.12991524101E+02  0.65262143047E+03  0.65894774096E+03  0.90158494826E+02 0.  0.
         13    1    3    3    0    0 -0.17655558036E+02  0.48013500361E+02  0.40588366902E+03  0.40909481508E+03  0.00000000000E+00 0.  1.
        -13    1    3    3    0    0  0.17900358324E+02 -0.35021976260E+02  0.24673776145E+03  0.24985292589E+03  0.00000000000E+00 0. -1.
         22    1    1    2    0    0 -0.24480028835E+00 -0.12991524101E+02 -0.75918715828E+00  0.13015989813E+02  0.00000000000E+00 0. -1.
<mgrwt>
<rscale>  0 0.55980585E+02</rscale>
<asrwt>0</asrwt>
<pdfrwt beam="1">  1        2 0.10183273E+00 0.91090031E+02</pdfrwt>
<pdfrwt beam="2">  1       -2 0.15462688E-02 0.91090031E+02</pdfrwt>
<totfact> 0.45202136E+04</totfact>
</mgrwt>
</event>
<event>
 6    1  0.3062576E-002  0.8628407E+02  0.7546771E-02  0.1371714E+00
          2   -1    0    0  501    0  0.00000000000E+00  0.00000000000E+00  0.11284205112E+03  0.11284205112E+03  0.00000000000E+00 0.  1.
         -2   -1    0    0    0  501 -0.00000000000E+00 -0.00000000000E+00 -0.30370505877E+02  0.30370505877E+02  0.00000000000E+00 0. -1.
         23    2    1    2    0    0  0.30136201505E+02 -0.63515531804E+01  0.60730959282E+02  0.10551393704E+03  0.80600301641E+02 0.  0.
         11    1    3    3    0    0  0.34264291504E+02  0.42355153543E+01 -0.83370165254E+01  0.35517419771E+02  0.00000000000E+00 0. -1.
        -11    1    3    3    0    0 -0.41280899998E+01 -0.10587068535E+02  0.69067975807E+02  0.69996517265E+02  0.00000000000E+00 0.  1.
         22    1    1    2    0    0 -0.30136201505E+02  0.63515531804E+01  0.21740585961E+02  0.37698619959E+02  0.00000000000E+00 0.  1.
<mgrwt>
<rscale>  0 0.66692889E+02</rscale>
<asrwt>0</asrwt>
<pdfrwt beam="1">  1        2 0.17360315E-01 0.86284074E+02</pdfrwt>
<pdfrwt beam="2">  1       -2 0.46723856E-02 0.86284074E+02</pdfrwt>
<totfact> 0.60713951E+04</totfact>
</mgrwt>
</event>
<event>
 6    1  0.3062576E-002  0.1055427E+03  0.7546771E-02  0.1307287E+00
         -3   -1    0    0    0  501 -0.00000000000E+00  0.00000000000E+00  0.35373822193E+03  0.35373822193E+03  0.00000000000E+00 0.  1.
          3   -1    0    0  501    0  0.00000000000E+00 -0.00000000000E+00 -0.17706949925E+02  0.17706949925E+02  0.00000000000E+00 0. -1.
         23    2    1    2    0    0 -0.51017773701E+02  0.67173612078E+01  0.24715697380E+03  0.26874864291E+03  0.92148397681E+02 0.  0.
         13    1    3    3    0    0  0.25069077989E+02  0.77078296659E+01  0.96013515095E+02  0.99531223192E+02  0.00000000000E+00 0.  1.
        -13    1    3    3    0    0 -0.76086851690E+02 -0.99046845813E+00  0.15114345871E+03  0.16921741972E+03  0.00000000000E+00 0. -1.
         22    1    1    2    0    0  0.51017773701E+02 -0.67173612078E+01  0.88874298209E+02  0.10269652894E+03  0.00000000000E+00 0. -1.
<mgrwt>
<rscale>  0 0.88193102E+02</rscale>
<asrwt>0</asrwt>
<pdfrwt beam="1">  1        3 0.27241464E-02 0.10554271E+03</pdfrwt>
<pdfrwt beam="2">  1       -3 0.54421259E-01 0.10554271E+03</pdfrwt>
<totfact> 0.43183556E+03</totfact>
</mgrwt>
</event>
<event>
 6    1  0.3062576E-002  0.9285447E+02  0.7546771E-02  0.1412417E+00
          1   -1    0    0  501    0  0.00000000000E+00  0.00000000000E+00  0.24260727264E+03  0.24260727264E+03  0.00000000000E+00 0. -1.
         -1   -1    0    0    0  501 -0.00000000000E+00 -0.00000000000E+00 -0.13890309606E+02  0.13890309606E+02  0.00000000000E+00 0.  1.
         23    2    1    2    0    0  0.12743094871E+02 -0.18156372842E+01  0.22451267901E+03  0.24295657010E+03  0.91957973630E+02 0.  0.
         13    1    3    3    0    0  0.25657304825E+02 -0.10420757461E+02  0.22570010679E+03  0.22739267288E+03  0.00000000000E+00 0. -1.
        -13    1    3    3    0    0 -0.12914209954E+02  0.86051201765E+01 -0.11874277764E+01  0.15563897221E+02  0.00000000000E+00 0.  1.
         22    1    1    2    0    0 -0.12743094871E+02  0.18156372842E+01  0.42042840202E+01  0.13541012140E+02  0.00000000000E+00 0. -1.
<mgrwt>
<rscale>  0 0.56658079E+02</rscale>
<asrwt>0</asrwt>
<pdfrwt beam="1">  1        1 0.37324193E-01 0.92854466E+02</pdfrwt>
<pdfrwt beam="2">  1       -1 0.21369709E-02 0.92854466E+02</pdfrwt>
<totfact> 0.61981628E+04</totfact>
</mgrwt>
</event>
<event>
 6    1  0.3062576E-002  0.9162408E+02  0.7546771E-02  0.1415532E+00
         -2   -1    0    0    0  501 -0.00000000000E+00  0.00000000000E+00  0.42683284958E+01  0.42683284958E+01  0.00000000000E+00 0.  1.
          2   -1    0    0  501    0  0.00000000000E+00 -0.00000000000E+00 -0.83513901515E+03  0.83513901515E+03  0.00000000000E+00 0. -1.
         23    2    1    2    0    0  0.19435143100E+01  0.12616354260E+02 -0.80830438168E+03  0.81348075955E+03  0.90730496923E+02 0.  0.
         13    1    3    3    0    0  0.38433118529E+02  0.87958260592E-01 -0.18325497913E+03  0.18724182149E+03  0.00000000000E+00 0. -1.
        -13    1    3    3    0    0 -0.36489604219E+02  0.12528395999E+02 -0.62504940254E+03  0.62623893806E+03  0.00000000000E+00 0.  1.
         22    1    1    2    0    0 -0.19435143100E+01 -0.12616354260E+02 -0.22566304971E+02  0.25926584093E+02  0.00000000000E+00 0.  1.
<mgrwt>
<rscale>  0 0.55977553E+02</rscale>
<asrwt>0</asrwt>
<pdfrwt beam="1">  1        2 0.12848293E+00 0.91624084E+02</pdfrwt>
<pdfrwt beam="2">  1       -2 0.65666591E-03 0.91624084E+02</pdfrwt>
<totfact> 0.11532598E+05</totfact>
</mgrwt>
</event>
<event>
 6    1  0.3062576E-002  0.8289753E+02  0.7546771E-02  0.1444085E+00
          2   -1    0    0  501    0  0.00000000000E+00  0.00000000000E+00  0.12364416468E+03  0.12364416468E+03  0.00000000000E+00 0. -1.
         -2   -1    0    0    0  501 -0.00000000000E+00 -0.00000000000E+00 -0.48064852232E+02  0.48064852232E+02  0.00000000000E+00 0.  1.
         23    2    1    2    0    0  0.88635421026E+01 -0.68104422714E+01  0.10872872262E+03  0.13672576524E+03  0.82140460532E+02 0.  0.
         13    1    3    3    0    0 -0.42549805697E+01 -0.20652472108E+02  0.11479327639E+03  0.11671386279E+03  0.00000000000E+00 0. -1.
        -13    1    3    3    0    0  0.13118522672E+02  0.13842029837E+02 -0.60645537737E+01  0.20011902448E+02  0.00000000000E+00 0.  1.
         22    1    1    2    0    0 -0.88635421026E+01  0.68104422714E+01 -0.33149410172E+02  0.34983251668E+02  0.00000000000E+00 0.  1.
<mgrwt>
<rscale>  0 0.50233775E+02</rscale>
<asrwt>0</asrwt>
<pdfrwt beam="1">  1        2 0.19022179E-01 0.82897526E+02</pdfrwt>
<pdfrwt beam="2">  1       -2 0.73945927E-02 0.82897526E+02</pdfrwt>
<totfact> 0.27408905E+04</totfact>
</mgrwt>
</event>
<event>
 6    1  0.3062576E-002  0.1000531E+03  0.7546771E-02  0.1330864E+00
          2   -1    0    0  501    0  0.00000000000E+00  0.00000000000E+00  0.34267222729E+02  0.34267222729E+02  0.00000000000E+00 0. -1.
         -2   -1    0    0    0  501 -0.00000000000E+00 -0.00000000000E+00 -0.16835526363E+03  0.16835526363E+03  0.00000000000E+00 0.  1.
         23    2    1    2    0    0  0.10175996694E+02 -0.38281538501E+02 -0.55010298560E+02  0.11417862601E+03  0.91878172556E+02 0.  0.
         11    1    3    3    0    0 -0.92192936316E+01  0.10462464653E+02  0.18933931690E+02  0.23514938038E+02  0.00000000000E+00 0. -1.
        -11    1    3    3    0    0  0.19395290326E+02 -0.48744003154E+02 -0.73944230250E+02  0.90663687977E+02  0.00000000000E+00 0.  1.
         22    1    1    2    0    0 -0.10175996694E+02  0.38281538501E+02 -0.79077742341E+02  0.88443860344E+02  0.00000000000E+00 0.  1.
<mgrwt>
<rscale>  0 0.79364588E+02</rscale>
<asrwt>0</asrwt>
<pdfrwt beam="1">  1        2 0.52718804E-02 0.10005311E+03</pdfrwt>
<pdfrwt beam="2">  1       -2 0.25900810E-01 0.10005311E+03</pdfrwt>
<totfact> 0.17523715E+04</totfact>
</mgrwt>
</event>
<event>
 6    1  0.3062576E-002  0.9252299E+02  0.7546771E-02  0.1385636E+00
          2   -1    0    0  501    0  0.00000000000E+00  0.00000000000E+00  0.35113751493E+03  0.35113751493E+03  0.00000000000E+00 0. -1.
         -2   -1    0    0    0  501 -0.00000000000E+00 -0.00000000000E+00 -0.13935599651E+02  0.13935599651E+02  0.00000000000E+00 0.  1.
         23    2    1    2    0    0  0.17385876808E+02 -0.96733300799E+01  0.33179773305E+03  0.34445644141E+03  0.90358521152E+02 0.  0.
         11    1    3    3    0    0 -0.26348934232E+01  0.38961475939E+02  0.16526088159E+03  0.16981194968E+03  0.00000000000E+00 0. -1.
        -11    1    3    3    0    0  0.20020770232E+02 -0.48634806018E+02  0.16653685146E+03  0.17464449173E+03  0.00000000000E+00 0.  1.
         22    1    1    2    0    0 -0.17385876808E+02  0.96733300799E+01  0.54041822363E+01  0.20616673177E+02  0.00000000000E+00 0. -1.
<mgrwt>
<rscale>  0 0.63005360E+02</rscale>
<asrwt>0</asrwt>
<pdfrwt beam="1">  1        2 0.54021150E-01 0.92522994E+02</pdfrwt>
<pdfrwt beam="2">  1       -2 0.21439387E-02 0.92522994E+02</pdfrwt>
<totfact> 0.56308067E+04</totfact>
</mgrwt>
</event>
<event>
 6    1  0.3062576E-002  0.9406331E+02  0.7546771E-02  0.1346627E+00
         -2   -1    0    0    0  501 -0.00000000000E+00  0.00000000000E+00  0.13271718305E+02  0.13271718305E+02  0.00000000000E+00 0.  1.
          2   -1    0    0  501    0  0.00000000000E+00 -0.00000000000E+00 -0.37076307130E+03  0.37076307130E+03  0.00000000000E+00 0. -1.
         23    2    1    2    0    0  0.26318124256E+02 -0.24941260681E+02 -0.31194376698E+03  0.32581715705E+03  0.86793985508E+02 0.  0.
         11    1    3    3    0    0 -0.24047118473E+02  0.88898929302E+01 -0.42561823528E+02  0.49687049874E+02  0.00000000000E+00 0.  1.
        -11    1    3    3    0    0  0.50365242729E+02 -0.33831153611E+02 -0.26938194345E+03  0.27613010717E+03  0.00000000000E+00 0. -1.
         22    1    1    2    0    0 -0.26318124256E+02  0.24941260681E+02 -0.45547586014E+02  0.58217632556E+02  0.00000000000E+00 0.  1.
<mgrwt>
<rscale>  0 0.74117189E+02</rscale>
<asrwt>0</asrwt>
<pdfrwt beam="1">  1        2 0.57040463E-01 0.94063309E+02</pdfrwt>
<pdfrwt beam="2">  1       -2 0.20418032E-02 0.94063309E+02</pdfrwt>
<totfact> 0.57176706E+04</totfact>
</mgrwt>
</event>
<event>
 6    1  0.3062576E-002  0.9293382E+02  0.7546771E-02  0.1348843E+00
          1   -1    0    0  501    0  0.00000000000E+00  0.00000000000E+00  0.91095046490E+03  0.91095046490E+03  0.00000000000E+00 0. -1.
         -1   -1    0    0    0  501 -0.00000000000E+00 -0.00000000000E+00 -0.49005757041E+01  0.49005757041E+01  0.00000000000E+00 0.  1.
         23    2    1    2    0    0 -0.23194861790E+02 -0.27788814062E+02  0.74556498182E+03  0.75133470313E+03  0.85594825842E+02 0.  0.
         13    1    3    3    0    0 -0.19942253564E+02 -0.54323052464E+02  0.33997979133E+03  0.34486946229E+03  0.00000000000E+00 0. -1.
        -13    1    3    3    0    0 -0.32526082256E+01  0.26534238402E+02  0.40558519049E+03  0.40646524084E+03  0.00000000000E+00 0.  1.
         22    1    1    2    0    0  0.23194861790E+02  0.27788814062E+02  0.16048490737E+03  0.16451633747E+03  0.00000000000E+00 0.  1.
<mgrwt>
<rscale>  0 0.73417289E+02</rscale>
<asrwt>0</asrwt>
<pdfrwt beam="1">  1        1 0.14014609E+00 0.92933815E+02</pdfrwt>
<pdfrwt beam="2">  1       -1 0.75393545E-03 0.92933815E+02</pdfrwt>
<totfact> 0.47742959E+04</totfact>
</mgrwt>
</event>
<event>
 6    1  0.3062576E-002  0.9934193E+02  0.7546771E-02  0.1359549E+00
         -2   -1    0    0    0  501 -0.00000000000E+00  0.00000000000E+00  0.31228413613E+01  0.31228413613E+01  0.00000000000E+00 0.  1.
          2   -1    0    0  501    0  0.00000000000E+00 -0.00000000000E+00 -0.17306484222E+04  0.17306484222E+04  0.00000000000E+00 0. -1.
         23    2    1    2    0    0 -0.33228012785E+01 -0.24490826049E+02 -0.16345738549E+04  0.16375898469E+04  0.96218385745E+02 0.  0.
         13    1    3    3    0    0 -0.35506511751E+02 -0.71301388637E+01 -0.13724368616E+04  0.13729145968E+04  0.00000000000E+00 0. -1.
        -13    1    3    3    0    0  0.32183710472E+02 -0.17360687185E+02 -0.26213699338E+03  0.26467525003E+03  0.00000000000E+00 0.  1.
         22    1    1    2    0    0  0.33228012785E+01  0.24490826049E+02 -0.92951725904E+02  0.96181416695E+02  0.00000000000E+00 0. -1.
<mgrwt>
<rscale>  0 0.70160152E+02</rscale>
<asrwt>0</asrwt>
<pdfrwt beam="1">  1        2 0.26625307E+00 0.99341931E+02</pdfrwt>
<pdfrwt beam="2">  1       -2 0.48043809E-03 0.99341931E+02</pdfrwt>
<totfact> 0.58586851E+04</totfact>
</mgrwt>
</event>
<event>
 6    1  0.3062576E-002  0.9783975E+02  0.7546771E-02  0.1343655E+00
          2   -1    0    0  501    0  0.00000000000E+00  0.00000000000E+00  0.82593245471E+03  0.82593245471E+03  0.00000000000E+00 0. -1.
         -2   -1    0    0    0  501 -0.00000000000E+00 -0.00000000000E+00 -0.66883570757E+01  0.66883570757E+01  0.00000000000E+00 0.  1.
         23    2    1    2    0    0  0.33854379720E+02 -0.19227391669E+01  0.73981392589E+03  0.74625549389E+03  0.91775820710E+02 0.  0.
         11    1    3    3    0    0  0.51913589346E+02 -0.21521529103E+02  0.65371900264E+03  0.65613011772E+03  0.00000000000E+00 0. -1.
        -11    1    3    3    0    0 -0.18059209626E+02  0.19598789936E+02  0.86094923251E+02  0.90125376164E+02  0.00000000000E+00 0.  1.
         22    1    1    2    0    0 -0.33854379720E+02  0.19227391669E+01  0.79430171751E+02  0.86365317904E+02  0.00000000000E+00 0.  1.
<mgrwt>
<rscale>  0 0.75069764E+02</rscale>
<asrwt>0</asrwt>
<pdfrwt beam="1">  1        2 0.12706645E+00 0.97839753E+02</pdfrwt>
<pdfrwt beam="2">  1       -2 0.10289787E-02 0.97839753E+02</pdfrwt>
<totfact> 0.62516142E+04</totfact>
</mgrwt>
</event>
<event>
 6    1  0.3062576E-002  0.9094418E+02  0.7546771E-02  0.1412901E+00
          2   -1    0    0  501    0  0.00000000000E+00  0.00000000000E+00  0.76752829079E+02  0.76752829079E+02  0.00000000000E+00 0. -1.
         -2   -1    0    0    0  501 -0.00000000000E+00 -0.00000000000E+00 -0.37214558215E+02  0.37214558215E+02  0.00000000000E+00 0.  1.
         23    2    1    2    0    0 -0.94873222894E+01 -0.97404498207E+01  0.41958055914E+02  0.10015648556E+03  0.89921952255E+02 0.  0.
         11    1    3    3    0    0 -0.18200780050E-01 -0.10827715421E+02 -0.27756350129E+02  0.29793534953E+02  0.00000000000E+00 0.  1.
        -11    1    3    3    0    0 -0.94691215093E+01  0.10872656008E+01  0.69714406043E+02  0.70362950610E+02  0.00000000000E+00 0. -1.
         22    1    1    2    0    0  0.94873222894E+01  0.97404498207E+01 -0.24197850495E+01  0.13810901731E+02  0.00000000000E+00 0.  1.
<mgrwt>
<rscale>  0 0.56551492E+02</rscale>
<asrwt>0</asrwt>
<pdfrwt beam="1">  1        2 0.11808127E-01 0.90944176E+02</pdfrwt>
<pdfrwt beam="2">  1       -2 0.57253167E-02 0.90944176E+02</pdfrwt>
<totfact> 0.70777793E+04</totfact>
</mgrwt>
</event>
<event>
 6    1  0.3062576E-002  0.9614354E+02  0.7546771E-02  0.1359686E+00
          2   -1    0    0  501    0  0.00000000000E+00  0.00000000000E+00  0.98240173140E+02  0.98240173140E+02  0.00000000000E+00 0. -1.
         -2   -1    0    0    0  501 -0.00000000000E+00 -0.00000000000E+00 -0.59593040091E+02  0.59593040091E+02  0.00000000000E+00 0.  1.
         23    2    1    2    0    0 -0.26125738820E+02  0.75762562525E+01  0.68040586197E+02  0.11778413115E+03  0.92215108808E+02 0.  0.
         13    1    3    3    0    0 -0.50970410448E+02 -0.14270173918E+02  0.66048572518E+02  0.84640619897E+02  0.00000000000E+00 0. -1.
        -13    1    3    3    0    0  0.24844671628E+02  0.21846430170E+02  0.19920136788E+01  0.33143511250E+02  0.00000000000E+00 0.  1.
         22    1    1    2    0    0  0.26125738820E+02 -0.75762562525E+01 -0.29393453148E+02  0.40049082083E+02  0.00000000000E+00 0.  1.
<mgrwt>
<rscale>  0 0.70119799E+02</rscale>
<asrwt>0</asrwt>
<pdfrwt beam="1">  1        2 0.15113873E-01 0.96143539E+02</pdfrwt>
<pdfrwt beam="2">  1       -2 0.91681600E-02 0.96143539E+02</pdfrwt>
<totfact> 0.26089898E+04</totfact>
</mgrwt>
</event>
<event>
 6    1  0.3062576E-002  0.1118973E+03  0.7546771E-02  0.1290995E+00
          3   -1    0    0  501    0  0.00000000000E+00  0.00000000000E+00  0.21684298897E+03  0.21684298897E+03  0.00000000000E+00 0. -1.
         -3   -1    0    0    0  501 -0.00000000000E+00 -0.00000000000E+00 -0.70117159875E+02  0.70117159875E+02  0.00000000000E+00 0.  1.
         23    2    1    2    0    0 -0.51180202102E+02 -0.27985313194E+02  0.18569908980E+03  0.21680670352E+03  0.95490334048E+02 0.  0.
         11    1    3    3    0    0 -0.44950480335E+01 -0.46322788180E+02  0.14477671198E+03  0.15207334577E+03  0.00000000000E+00 0. -1.
        -11    1    3    3    0    0 -0.46685154069E+02  0.18337474986E+02  0.40922377822E+02  0.64733357753E+02  0.00000000000E+00 0.  1.
         22    1    1    2    0    0  0.51180202102E+02  0.27985313194E+02 -0.38973260702E+02  0.70153445329E+02  0.00000000000E+00 0. -1.
<mgrwt>
<rscale>  0 0.95080351E+02</rscale>
<asrwt>0</asrwt>
<pdfrwt beam="1">  1        3 0.33360460E-01 0.11189725E+03</pdfrwt>
<pdfrwt beam="2">  1       -3 0.10787255E-01 0.11189725E+03</pdfrwt>
<totfact> 0.12730892E+03</totfact>
</mgrwt>
</event>
<event>
 6    1  0.3062576E-002  0.9634261E+02  0.7546771E-02  0.1362839E+00
          1   -1    0    0  501    0  0.00000000000E+00  0.00000000000E+00  0.60907374930E+03  0.60907374930E+03  0.00000000000E+00 0. -1.
         -1   -1    0    0    0  501 -0.00000000000E+00 -0.00000000000E+00 -0.63287153890E+01  0.63287153890E+01  0.00000000000E+00 0.  1.
         23    2    1    2    0    0 -0.22484434486E+02 -0.12325752522E+02  0.51722058401E+03  0.52611693675E+03  0.92867780403E+02 0.  0.
         11    1    3    3    0    0 -0.44844550511E+01 -0.94287299365E+01  0.50270272510E+03  0.50281113861E+03  0.00000000000E+00 0. -1.
        -11    1    3    3    0    0 -0.17999979435E+02 -0.28970225853E+01  0.14517858913E+02  0.23305798140E+02  0.00000000000E+00 0.  1.
         22    1    1    2    0    0  0.22484434486E+02  0.12325752522E+02  0.85524449904E+02  0.89285527947E+02  0.00000000000E+00 0. -1.
<mgrwt>
<rscale>  0 0.69198810E+02</rscale>
<asrwt>0</asrwt>
<pdfrwt beam="1">  1        1 0.93703607E-01 0.96342611E+02</pdfrwt>
<pdfrwt beam="2">  1       -1 0.97364900E-03 0.96342611E+02</pdfrwt>
<totfact> 0.59921303E+04</totfact>
</mgrwt>
</event>
<event>
 6    1  0.3062576E-002  0.1035821E+03  0.7546771E-02  0.1366153E+00
         -2   -1    0    0    0  501 -0.00000000000E+00  0.00000000000E+00  0.61537783200E+02  0.61537783200E+02  0.00000000000E+00 0.  1.
          2   -1    0    0  501    0  0.00000000000E+00 -0.00000000000E+00 -0.62659502188E+02  0.62659502188E+02  0.00000000000E+00 0. -1.
         23    2    1    2    0    0  0.19517514065E+02  0.40100181247E+00  0.51016132378E+01  0.10370767774E+03  0.10172591512E+03 0.  0.
         13    1    3    3    0    0  0.25619161625E+02  0.20692267570E+02 -0.41225954221E+02  0.52764483140E+02  0.00000000000E+00 0. -1.
        -13    1    3    3    0    0 -0.61016475597E+01 -0.20291265757E+02  0.46327567459E+02  0.50943194596E+02  0.00000000000E+00 0.  1.
         22    1    1    2    0    0 -0.19517514065E+02 -0.40100181247E+00 -0.62233322262E+01  0.20489607652E+02  0.00000000000E+00 0.  1.
<mgrwt>
<rscale>  0 0.68248426E+02</rscale>
<asrwt>0</asrwt>
<pdfrwt beam="1">  1        2 0.96399234E-02 0.10358212E+03</pdfrwt>
<pdfrwt beam="2">  1       -2 0.94673513E-02 0.10358212E+03</pdfrwt>
<totfact> 0.42781264E+04</totfact>
</mgrwt>
</event>
<event>
 6    1  0.3062576E-002  0.9355965E+02  0.7546771E-02  0.1404354E+00
         -4   -1    0    0    0  501 -0.00000000000E+00  0.00000000000E+00  0.11074782999E+02  0.11074782999E+02  0.00000000000E+00 0.  1.
          4   -1    0    0  501    0  0.00000000000E+00 -0.00000000000E+00 -0.30883812064E+03  0.30883812064E+03  0.00000000000E+00 0. -1.
         23    2    1    2    0    0  0.12699671435E+02  0.65173935885E+01 -0.28747689660E+03  0.30231833223E+03  0.92464316624E+02 0.  0.
         11    1    3    3    0    0 -0.33190368714E+02  0.22958876955E+02 -0.17737150013E+03  0.18190480935E+03  0.00000000000E+00 0.  1.
        -11    1    3    3    0    0  0.45890040149E+02 -0.16441483367E+02 -0.11010539648E+03  0.12041352288E+03  0.00000000000E+00 0. -1.
         22    1    1    2    0    0 -0.12699671435E+02 -0.65173935885E+01 -0.10286441037E+02  0.17594571406E+02  0.00000000000E+00 0.  1.
<mgrwt>
<rscale>  0 0.58473056E+02</rscale>
<asrwt>0</asrwt>
<pdfrwt beam="1">  1        4 0.47513547E-01 0.93559649E+02</pdfrwt>
<pdfrwt beam="2">  1       -4 0.17038131E-02 0.93559649E+02</pdfrwt>
<totfact> 0.82566144E+03</totfact>
</mgrwt>
</event>
<event>
 6    1  0.3062576E-002  0.9420286E+02  0.7546771E-02  0.1410632E+00
          2   -1    0    0  501    0  0.00000000000E+00  0.00000000000E+00  0.12026186762E+03  0.12026186762E+03  0.00000000000E+00 0. -1.
         -2   -1    0    0    0  501 -0.00000000000E+00 -0.00000000000E+00 -0.29809007773E+02  0.29809007773E+02  0.00000000000E+00 0.  1.
         23    2    1    2    0    0 -0.84107234487E+01  0.94814218335E+01  0.97495617733E+02  0.13557128687E+03  0.93346348169E+02 0.  0.
         11    1    3    3    0    0 -0.35873906733E+02  0.38111151208E+02  0.69553912257E+02  0.87046790526E+02  0.00000000000E+00 0. -1.
        -11    1    3    3    0    0  0.27463183284E+02 -0.28629729374E+02  0.27941705476E+02  0.48524496340E+02  0.00000000000E+00 0.  1.
         22    1    1    2    0    0  0.84107234487E+01 -0.94814218335E+01 -0.70427578833E+01  0.14499588529E+02  0.00000000000E+00 0. -1.
<mgrwt>
<rscale>  0 0.57053063E+02</rscale>
<asrwt>0</asrwt>
<pdfrwt beam="1">  1        2 0.18501826E-01 0.94202857E+02</pdfrwt>
<pdfrwt beam="2">  1       -2 0.45860013E-02 0.94202857E+02</pdfrwt>
<totfact> 0.58803176E+04</totfact>
</mgrwt>
</event>
<event>
 6    1  0.3062576E-002  0.9286307E+02  0.7546771E-02  0.1406646E+00
         -2   -1    0    0    0  501 -0.00000000000E+00  0.00000000000E+00  0.57854438778E+02  0.57854438778E+02  0.00000000000E+00 0.  1.
          2   -1    0    0  501    0  0.00000000000E+00 -0.00000000000E+00 -0.25947765024E+03  0.25947765024E+03  0.00000000000E+00 0. -1.
         23    2    1    2    0    0  0.51459117642E+01 -0.13107726664E+02 -0.25013569734E+03  0.26681719822E+03  0.91789200213E+02 0.  0.
         13    1    3    3    0    0 -0.17212718721E+02 -0.36957004467E+02 -0.52371218351E+02  0.66368986557E+02  0.00000000000E+00 0.  1.
        -13    1    3    3    0    0  0.22358630486E+02  0.23849277804E+02 -0.19776447899E+03  0.20044821166E+03  0.00000000000E+00 0. -1.
         22    1    1    2    0    0 -0.51459117642E+01  0.13107726664E+02  0.48512485879E+02  0.50514890798E+02  0.00000000000E+00 0.  1.
<mgrwt>
<rscale>  0 0.57948965E+02</rscale>
<asrwt>0</asrwt>
<pdfrwt beam="1">  1        2 0.39919639E-01 0.92863072E+02</pdfrwt>
<pdfrwt beam="2">  1       -2 0.89006828E-02 0.92863072E+02</pdfrwt>
<totfact> 0.93851220E+03</totfact>
</mgrwt>
</event>
<event>
 6    1  0.3062576E-002  0.9248558E+02  0.7546771E-02  0.1428018E+00
          2   -1    0    0  501    0  0.00000000000E+00  0.00000000000E+00  0.22135600830E+03  0.22135600830E+03  0.00000000000E+00 0. -1.
         -2   -1    0    0    0  501 -0.00000000000E+00 -0.00000000000E+00 -0.34366556080E+02  0.34366556080E+02  0.00000000000E+00 0.  1.
         23    2    1    2    0    0  0.96143577683E+01  0.35475846567E+01  0.21058416416E+03  0.22999841884E+03  0.91916055401E+02 0.  0.
         13    1    3    3    0    0  0.18618491745E+02  0.45681609906E+02  0.11686263002E+03  0.12684767248E+03  0.00000000000E+00 0. -1.
        -13    1    3    3    0    0 -0.90041339769E+01 -0.42134025250E+02  0.93721534138E+02  0.10315074636E+03  0.00000000000E+00 0.  1.
         22    1    1    2    0    0 -0.96143577683E+01 -0.35475846567E+01 -0.23594711942E+02  0.25724145541E+02  0.00000000000E+00 0.  1.
<mgrwt>
<rscale>  0 0.53359918E+02</rscale>
<asrwt>0</asrwt>
<pdfrwt beam="1">  1        2 0.34054770E-01 0.92485580E+02</pdfrwt>
<pdfrwt beam="2">  1       -2 0.52871626E-02 0.92485580E+02</pdfrwt>
<totfact> 0.24409982E+04</totfact>
</mgrwt>
</event>
<event>
 6    1  0.3062576E-002  0.9206923E+02  0.7546771E-02  0.1424079E+00
         -2   -1    0    0    0  501 -0.00000000000E+00  0.00000000000E+00  0.45918132121E+01  0.45918132121E+01  0.00000000000E+00 0.  1.
          2   -1    0    0  501    0  0.00000000000E+00 -0.00000000000E+00 -0.59305576668E+03  0.59305576668E+03  0.00000000000E+00 0. -1.
         23    2    1    2    0    0  0.11558864834E+01 -0.10969992675E+02 -0.54918706056E+03  0.55685112013E+03  0.91406048417E+02 0.  0.
         11    1    3    3    0    0  0.34880947478E+00  0.34737632508E+02 -0.38039643831E+03  0.38197941706E+03  0.00000000000E+00 0.  1.
        -11    1    3    3    0    0  0.80707700863E+00 -0.45707625184E+02 -0.16879062226E+03  0.17487170307E+03  0.00000000000E+00 0. -1.
         22    1    1    2    0    0 -0.11558864834E+01  0.10969992675E+02 -0.39276892906E+02  0.40796459763E+02  0.00000000000E+00 0.  1.
<mgrwt>
<rscale>  0 0.54167258E+02</rscale>
<asrwt>0</asrwt>
<pdfrwt beam="1">  1        2 0.91239373E-01 0.92069227E+02</pdfrwt>
<pdfrwt beam="2">  1       -2 0.70643261E-03 0.92069227E+02</pdfrwt>
<totfact> 0.15556585E+05</totfact>
</mgrwt>
</event>
<event>
 6    1  0.3062576E-002  0.1106788E+03  0.7546771E-02  0.1288263E+00
         -3   -1    0    0    0  501 -0.00000000000E+00  0.00000000000E+00  0.18160156726E+03  0.18160156726E+03  0.00000000000E+00 0.  1.
          3   -1    0    0  501    0  0.00000000000E+00 -0.00000000000E+00 -0.44530514662E+02  0.44530514662E+02  0.00000000000E+00 0. -1.
         23    2    1    2    0    0  0.48171620301E+02  0.41291181985E+02  0.58646665202E+02  0.12525665751E+03  0.90688103954E+02 0.  0.
         11    1    3    3    0    0 -0.16027088294E+02  0.25027308754E+02 -0.85346708847E+01  0.30920451966E+02  0.00000000000E+00 0.  1.
        -11    1    3    3    0    0  0.64198708595E+02  0.16263873231E+02  0.67181336087E+02  0.94336205543E+02  0.00000000000E+00 0. -1.
         22    1    1    2    0    0 -0.48171620301E+02 -0.41291181985E+02  0.78424387399E+02  0.10087542442E+03  0.00000000000E+00 0.  1.
<mgrwt>
<rscale>  0 0.96305345E+02</rscale>
<asrwt>0</asrwt>
<pdfrwt beam="1">  1        3 0.68508485E-02 0.11067881E+03</pdfrwt>
<pdfrwt beam="2">  1       -3 0.27938702E-01 0.11067881E+03</pdfrwt>
<totfact> 0.36896008E+03</totfact>
</mgrwt>
</event>
<event>
 6    1  0.3062576E-002  0.9489138E+02  0.7546771E-02  0.1397188E+00
          2   -1    0    0  501    0  0.00000000000E+00  0.00000000000E+00  0.69769900131E+03  0.69769900131E+03  0.00000000000E+00 0.  1.
         -2   -1    0    0    0  501 -0.00000000000E+00 -0.00000000000E+00 -0.43668957466E+01  0.43668957466E+01  0.00000000000E+00 0. -1.
         23    2    1    2    0    0 -0.10035848047E+02  0.11580407166E+02  0.61000523391E+03  0.61734168791E+03  0.93645876346E+02 0.  0.
         11    1    3    3    0    0 -0.48747472463E+02  0.87702248188E+00  0.43821011123E+03  0.44091403564E+03  0.00000000000E+00 0. -1.
        -11    1    3    3    0    0  0.38711624416E+02  0.10703384684E+02  0.17179512268E+03  0.17642765227E+03  0.00000000000E+00 0.  1.
         22    1    1    2    0    0  0.10035848047E+02 -0.11580407166E+02  0.83326871656E+02  0.84724209150E+02  0.00000000000E+00 0.  1.
<mgrwt>
<rscale>  0 0.60153777E+02</rscale>
<asrwt>0</asrwt>
<pdfrwt beam="1">  1        2 0.10733822E+00 0.94891381E+02</pdfrwt>
<pdfrwt beam="2">  1       -2 0.67183067E-03 0.94891381E+02</pdfrwt>
<totfact> 0.13933888E+05</totfact>
</mgrwt>
</event>
<event>
 6    1  0.3062576E-002  0.9153051E+02  0.7546771E-02  0.1398266E+00
         -2   -1    0    0    0  501 -0.00000000000E+00  0.00000000000E+00  0.24699633908E+01  0.24699633908E+01  0.00000000000E+00 0. -1.
          2   -1    0    0  501    0  0.00000000000E+00 -0.00000000000E+00 -0.12784808457E+04  0.12784808457E+04  0.00000000000E+00 0.  1.
         23    2    1    2    0    0  0.56956486667E+01 -0.15788855542E+02 -0.11745437348E+04  0.11781047572E+04  0.89978361426E+02 0.  0.
         11    1    3    3    0    0  0.24618851655E+02  0.95203718628E+01 -0.11113543211E+03  0.11422700910E+03  0.00000000000E+00 0. -1.
        -11    1    3    3    0    0 -0.18923202988E+02 -0.25309227405E+02 -0.10634083027E+04  0.10638777481E+04  0.00000000000E+00 0.  1.
         22    1    1    2    0    0 -0.56956486667E+01  0.15788855542E+02 -0.10146714755E+03  0.10284605196E+03  0.00000000000E+00 0. -1.
<mgrwt>
<rscale>  0 0.59896746E+02</rscale>
<asrwt>0</asrwt>
<pdfrwt beam="1">  1        2 0.19668898E+00 0.91530508E+02</pdfrwt>
<pdfrwt beam="2">  1       -2 0.37999510E-03 0.91530508E+02</pdfrwt>
<totfact> 0.13767921E+05</totfact>
</mgrwt>
</event>
<event>
 6    1  0.3062576E-002  0.9412609E+02  0.7546771E-02  0.1379832E+00
         -2   -1    0    0    0  501 -0.00000000000E+00  0.00000000000E+00  0.12985032214E+02  0.12985032214E+02  0.00000000000E+00 0.  1.
          2   -1    0    0  501    0  0.00000000000E+00 -0.00000000000E+00 -0.40950031025E+03  0.40950031025E+03  0.00000000000E+00 0. -1.
         23    2    1    2    0    0 -0.75039236107E+01 -0.19361129166E+02 -0.38927760592E+03  0.40049566102E+03  0.91807177467E+02 0.  0.
         13    1    3    3    0    0 -0.59048116995E+01 -0.33299535541E+00 -0.37854453728E+03  0.37859073469E+03  0.00000000000E+00 0. -1.
        -13    1    3    3    0    0 -0.15991119112E+01 -0.19028133811E+02 -0.10733068638E+02  0.21904926332E+02  0.00000000000E+00 0.  1.
         22    1    1    2    0    0  0.75039236107E+01  0.19361129166E+02 -0.72376721127E+01  0.21989681438E+02  0.00000000000E+00 0.  1.
<mgrwt>
<rscale>  0 0.64507852E+02</rscale>
<asrwt>0</asrwt>
<pdfrwt beam="1">  1        2 0.63000033E-01 0.94126086E+02</pdfrwt>
<pdfrwt beam="2">  1       -2 0.19976977E-02 0.94126086E+02</pdfrwt>
<totfact> 0.53146390E+04</totfact>
</mgrwt>
</event>
<event>
 6    1  0.3062576E-002  0.9224144E+02  0.7546771E-02  0.1417438E+00
          4   -1    0    0  501    0  0.00000000000E+00  0.00000000000E+00  0.10826768713E+03  0.10826768713E+03  0.00000000000E+00 0. -1.
         -4   -1    0    0    0  501 -0.00000000000E+00 -0.00000000000E+00 -0.26941882650E+02  0.26941882650E+02  0.00000000000E+00 0.  1.
         23    2    1    2    0    0 -0.12125290669E+02 -0.73181425050E+00  0.81459463410E+02  0.12306147978E+03  0.91438096006E+02 0.  0.
         11    1    3    3    0    0  0.36837640904E+02 -0.14917738947E+02  0.46897737696E+02  0.61473152869E+02  0.00000000000E+00 0. -1.
        -11    1    3    3    0    0 -0.48962931572E+02  0.14185924696E+02  0.34561725714E+02  0.61588326913E+02  0.00000000000E+00 0.  1.
         22    1    1    2    0    0  0.12125290669E+02  0.73181425050E+00 -0.13365893049E+00  0.12148089998E+02  0.00000000000E+00 0.  1.
<mgrwt>
<rscale>  0 0.55566749E+02</rscale>
<asrwt>0</asrwt>
<pdfrwt beam="1">  1        4 0.16656567E-01 0.92241442E+02</pdfrwt>
<pdfrwt beam="2">  1       -4 0.41449051E-02 0.92241442E+02</pdfrwt>
<totfact> 0.14678139E+04</totfact>
</mgrwt>
</event>
<event>
 6    1  0.3062576E-002  0.9347590E+02  0.7546771E-02  0.1423534E+00
         -2   -1    0    0    0  501 -0.00000000000E+00  0.00000000000E+00  0.19688076789E+01  0.19688076789E+01  0.00000000000E+00 0.  1.
          2   -1    0    0  501    0  0.00000000000E+00 -0.00000000000E+00 -0.17947047923E+04  0.17947047923E+04  0.00000000000E+00 0. -1.
         23    2    1    2    0    0  0.74500666332E+01  0.75801268197E+01 -0.17544886167E+04  0.17569769632E+04  0.92869701313E+02 0.  0.
         13    1    3    3    0    0 -0.26632939410E+02  0.38842378896E+02 -0.83874835931E+03  0.84006955314E+03  0.00000000000E+00 0. -1.
        -13    1    3    3    0    0  0.34083006044E+02 -0.31262252076E+02 -0.91574025736E+03  0.91690741008E+03  0.00000000000E+00 0.  1.
         22    1    1    2    0    0 -0.74500666332E+01 -0.75801268197E+01 -0.38247367992E+02  0.39696636807E+02  0.00000000000E+00 0.  1.
<mgrwt>
<rscale>  0 0.54280169E+02</rscale>
<asrwt>0</asrwt>
<pdfrwt beam="1">  1        2 0.27610842E+00 0.93475897E+02</pdfrwt>
<pdfrwt beam="2">  1       -2 0.30289350E-03 0.93475897E+02</pdfrwt>
<totfact> 0.10307424E+05</totfact>
</mgrwt>
</event>
<event>
 6    1  0.3062576E-002  0.9564483E+02  0.7546771E-02  0.1395509E+00
          1   -1    0    0  501    0  0.00000000000E+00  0.00000000000E+00  0.15154404536E+03  0.15154404536E+03  0.00000000000E+00 0. -1.
         -1   -1    0    0    0  501 -0.00000000000E+00 -0.00000000000E+00 -0.20531062324E+02  0.20531062324E+02  0.00000000000E+00 0.  1.
         23    2    1    2    0    0 -0.12136940533E+02 -0.94304562130E+01  0.11830750654E+03  0.15213349384E+03  0.94401774415E+02 0.  0.
         13    1    3    3    0    0 -0.37821652801E+02 -0.23756150377E+02  0.18954599834E+02  0.48519160712E+02  0.00000000000E+00 0.  1.
        -13    1    3    3    0    0  0.25684712267E+02  0.14325694164E+02  0.99352906708E+02  0.10361433312E+03  0.00000000000E+00 0. -1.
         22    1    1    2    0    0  0.12136940533E+02  0.94304562130E+01  0.12705476494E+02  0.19941613847E+02  0.00000000000E+00 0.  1.
<mgrwt>
<rscale>  0 0.60557096E+02</rscale>
<asrwt>0</asrwt>
<pdfrwt beam="1">  1        1 0.23314468E-01 0.95644832E+02</pdfrwt>
<pdfrwt beam="2">  1       -1 0.31586251E-02 0.95644832E+02</pdfrwt>
<totfact> 0.63383086E+04</totfact>
</mgrwt>
</event>
<event>
 6    1  0.3062576E-002  0.1142989E+03  0.7546771E-02  0.1294406E+00
          1   -1    0    0  501    0  0.00000000000E+00  0.00000000000E+00  0.58053034184E+03  0.58053034184E+03  0.00000000000E+00 0. -1.
         -1   -1    0    0    0  501 -0.00000000000E+00 -0.00000000000E+00 -0.24711603255E+02  0.24711603255E+02  0.00000000000E+00 0.  1.
         23    2    1    2    0    0  0.77202744080E+01  0.50775141383E+02  0.53931922907E+03  0.55129797941E+03  0.10211030135E+03 0.  0.
         11    1    3    3    0    0 -0.20038466384E+02  0.67725498344E+02  0.46272626304E+03  0.46808533171E+03  0.00000000000E+00 0. -1.
        -11    1    3    3    0    0  0.27758740792E+02 -0.16950356961E+02  0.76592966034E+02  0.83212647701E+02  0.00000000000E+00 0.  1.
         22    1    1    2    0    0 -0.77202744080E+01 -0.50775141383E+02  0.16499509516E+02  0.53943965684E+02  0.00000000000E+00 0.  1.
<mgrwt>
<rscale>  0 0.93580419E+02</rscale>
<asrwt>0</asrwt>
<pdfrwt beam="1">  1        1 0.89312350E-01 0.11429887E+03</pdfrwt>
<pdfrwt beam="2">  1       -1 0.38017856E-02 0.11429887E+03</pdfrwt>
<totfact> 0.92304555E+03</totfact>
</mgrwt>
</event>
<event>
 6    1  0.3062576E-002  0.9375911E+02  0.7546771E-02  0.1380214E+00
         -2   -1    0    0    0  501 -0.00000000000E+00  0.00000000000E+00  0.10234632431E+03  0.10234632431E+03  0.00000000000E+00 0. -1.
          2   -1    0    0  501    0  0.00000000000E+00 -0.00000000000E+00 -0.39629830584E+02  0.39629830584E+02  0.00000000000E+00 0.  1.
         23    2    1    2    0    0  0.33233316198E+01 -0.20612653221E+02  0.22131823753E+02  0.96335806049E+02  0.91404835204E+02 0.  0.
         13    1    3    3    0    0  0.37869374615E+02  0.28129754639E+01  0.36026655575E+02  0.52344266894E+02  0.00000000000E+00 0. -1.
        -13    1    3    3    0    0 -0.34546042995E+02 -0.23425628684E+02 -0.13894831823E+02  0.43991539156E+02  0.00000000000E+00 0.  1.
         22    1    1    2    0    0 -0.33233316198E+01  0.20612653221E+02  0.40584669974E+02  0.45640348846E+02  0.00000000000E+00 0.  1.
<mgrwt>
<rscale>  0 0.64407537E+02</rscale>
<asrwt>0</asrwt>
<pdfrwt beam="1">  1        2 0.60968971E-02 0.93759106E+02</pdfrwt>
<pdfrwt beam="2">  1       -2 0.15745588E-01 0.93759106E+02</pdfrwt>
<totfact> 0.33343264E+04</totfact>
</mgrwt>
</event>
<event>
 6    1  0.3062576E-002  0.9527246E+02  0.7546771E-02  0.1418487E+00
         -2   -1    0    0    0  501 -0.00000000000E+00  0.00000000000E+00  0.45651196975E+01  0.45651196975E+01  0.00000000000E+00 0.  1.
          2   -1    0    0  501    0  0.00000000000E+00 -0.00000000000E+00 -0.10509514762E+04  0.10509514762E+04  0.00000000000E+00 0. -1.
         23    2    1    2    0    0  0.60190163816E+01  0.90243592979E+01 -0.10364077367E+04  0.10407775161E+04  0.94652912305E+02 0.  0.
         13    1    3    3    0    0 -0.23327131480E+02  0.34749519933E+02 -0.25634368594E+03  0.25973788619E+03  0.00000000000E+00 0.  1.
        -13    1    3    3    0    0  0.29346147862E+02 -0.25725160635E+02 -0.78006405071E+03  0.78103962992E+03  0.00000000000E+00 0. -1.
         22    1    1    2    0    0 -0.60190163816E+01 -0.90243592979E+01 -0.99786198272E+01  0.14739079774E+02  0.00000000000E+00 0.  1.
<mgrwt>
<rscale>  0 0.55342357E+02</rscale>
<asrwt>0</asrwt>
<pdfrwt beam="1">  1        2 0.16168512E+00 0.95272459E+02</pdfrwt>
<pdfrwt beam="2">  1       -2 0.70232492E-03 0.95272459E+02</pdfrwt>
<totfact> 0.78003133E+04</totfact>
</mgrwt>
</event>
<event>
 6    1  0.3062576E-002  0.9833404E+02  0.7546771E-02  0.1338082E+00
         -2   -1    0    0    0  501 -0.00000000000E+00  0.00000000000E+00  0.61144095315E+01  0.61144095315E+01  0.00000000000E+00 0.  1.
          2   -1    0    0  501    0  0.00000000000E+00 -0.00000000000E+00 -0.80586078448E+03  0.80586078448E+03  0.00000000000E+00 0. -1.
         23    2    1    2    0    0 -0.18051781436E+02  0.32046672432E+02 -0.66768965285E+03  0.67489188402E+03  0.91196088542E+02 0.  0.
         13    1    3    3    0    0  0.35244223973E+02  0.24709559939E+02 -0.35609525212E+03  0.35868725410E+03  0.00000000000E+00 0. -1.
        -13    1    3    3    0    0 -0.53296005409E+02  0.73371124931E+01 -0.31159440074E+03  0.31620462992E+03  0.00000000000E+00 0.  1.
         22    1    1    2    0    0  0.18051781436E+02 -0.32046672432E+02 -0.13205672210E+03  0.13708330999E+03  0.00000000000E+00 0.  1.
<mgrwt>
<rscale>  0 0.76901418E+02</rscale>
<asrwt>0</asrwt>
<pdfrwt beam="1">  1        2 0.12397846E+00 0.98334036E+02</pdfrwt>
<pdfrwt beam="2">  1       -2 0.94067930E-03 0.98334036E+02</pdfrwt>
<totfact> 0.73233543E+04</totfact>
</mgrwt>
</event>
<event>
 6    1  0.3062576E-002  0.9480068E+02  0.7546771E-02  0.1408851E+00
         -2   -1    0    0    0  501 -0.00000000000E+00  0.00000000000E+00  0.15755094113E+02  0.15755094113E+02  0.00000000000E+00 0.  1.
          2   -1    0    0  501    0  0.00000000000E+00 -0.00000000000E+00 -0.19627568953E+03  0.19627568953E+03  0.00000000000E+00 0. -1.
         23    2    1    2    0    0  0.12340966207E+02 -0.33460846682E+01 -0.17279358702E+03  0.19709082420E+03  0.93934410823E+02 0.  0.
         11    1    3    3    0    0 -0.18452591053E+02 -0.12958923356E+02 -0.16126474503E+03  0.16283350331E+03  0.00000000000E+00 0. -1.
        -11    1    3    3    0    0  0.30793557260E+02  0.96128386876E+01 -0.11528841990E+02  0.34257320882E+02  0.00000000000E+00 0.  1.
         22    1    1    2    0    0 -0.12340966207E+02  0.33460846682E+01 -0.77270083935E+01  0.14939959446E+02  0.00000000000E+00 0. -1.
<mgrwt>
<rscale>  0 0.57450908E+02</rscale>
<asrwt>0</asrwt>
<pdfrwt beam="1">  1        2 0.30196260E-01 0.94800682E+02</pdfrwt>
<pdfrwt beam="2">  1       -2 0.24238606E-02 0.94800682E+02</pdfrwt>
<totfact> 0.87312175E+04</totfact>
</mgrwt>
</event>
<event>
 6    1  0.3062576E-002  0.9254335E+02  0.7546771E-02  0.1401616E+00
         -4   -1    0    0    0  501 -0.00000000000E+00  0.00000000000E+00  0.27865671011E+01  0.27865671011E+01  0.00000000000E+00 0.  1.
          4   -1    0    0  501    0  0.00000000000E+00 -0.00000000000E+00 -0.19767762211E+04  0.19767762211E+04  0.00000000000E+00 0. -1.
         23    2    1    2    0    0  0.11506446856E+00 -0.15400104996E+02 -0.19404592460E+04  0.19426647566E+04  0.91252916641E+02 0.  0.
         13    1    3    3    0    0 -0.45029676979E+02 -0.39855307081E+01 -0.83088864174E+03  0.83211747442E+03  0.00000000000E+00 0.  1.
        -13    1    3    3    0    0  0.45144741448E+02 -0.11414574288E+02 -0.11095706042E+04  0.11105472822E+04  0.00000000000E+00 0. -1.
         22    1    1    2    0    0 -0.11506446856E+00  0.15400104996E+02 -0.33530408081E+02  0.36898031652E+02  0.00000000000E+00 0.  1.
<mgrwt>
<rscale>  0 0.59107536E+02</rscale>
<asrwt>0</asrwt>
<pdfrwt beam="1">  1        4 0.30411985E+00 0.92543348E+02</pdfrwt>
<pdfrwt beam="2">  1       -4 0.42870202E-03 0.92543348E+02</pdfrwt>
<totfact> 0.58312252E+02</totfact>
</mgrwt>
</event>
<event>
 6    1  0.3062576E-002  0.9403212E+02  0.7546771E-02  0.1377241E+00
         -2   -1    0    0    0  501 -0.00000000000E+00  0.00000000000E+00  0.72065325182E+01  0.72065325182E+01  0.00000000000E+00 0. -1.
          2   -1    0    0  501    0  0.00000000000E+00 -0.00000000000E+00 -0.11240903098E+04  0.11240903098E+04  0.00000000000E+00 0.  1.
         23    2    1    2    0    0 -0.20046419635E+02 -0.83808910298E+01 -0.10993841510E+04  0.11033981829E+04  0.91487378718E+02 0.  0.
         13    1    3    3    0    0 -0.37481284017E+02 -0.43803835880E+01 -0.18353239635E+03  0.18737175593E+03  0.00000000000E+00 0. -1.
        -13    1    3    3    0    0  0.17434864382E+02 -0.40005074418E+01 -0.91585175460E+03  0.91602642700E+03  0.00000000000E+00 0.  1.
         22    1    1    2    0    0  0.20046419635E+02  0.83808910298E+01 -0.17499626375E+02  0.27898659428E+02  0.00000000000E+00 0. -1.
<mgrwt>
<rscale>  0 0.65194537E+02</rscale>
<asrwt>0</asrwt>
<pdfrwt beam="1">  1        2 0.17293694E+00 0.94032115E+02</pdfrwt>
<pdfrwt beam="2">  1       -2 0.11086975E-02 0.94032115E+02</pdfrwt>
<totfact> 0.37129707E+04</totfact>
</mgrwt>
</event>
<event>
 6    1  0.3062576E-002  0.9410745E+02  0.7546771E-02  0.1397376E+00
         -4   -1    0    0    0  501 -0.00000000000E+00  0.00000000000E+00  0.26331628559E+02  0.26331628559E+02  0.00000000000E+00 0.  1.
          4   -1    0    0  501    0  0.00000000000E+00 -0.00000000000E+00 -0.11440216595E+03  0.11440216595E+03  0.00000000000E+00 0. -1.
         23    2    1    2    0    0 -0.13410182322E+02  0.80931338896E+01 -0.75452366289E+02  0.12062036497E+03  0.92794833152E+02 0.  0.
         11    1    3    3    0    0  0.43163897479E+01 -0.39009243895E+02 -0.51861082604E+02  0.65037867574E+02  0.00000000000E+00 0. -1.
        -11    1    3    3    0    0 -0.17726572070E+02  0.47102377785E+02 -0.23591283685E+02  0.55582497391E+02  0.00000000000E+00 0.  1.
         22    1    1    2    0    0  0.13410182322E+02 -0.80931338896E+01 -0.12618171106E+02  0.20113429547E+02  0.00000000000E+00 0.  1.
<mgrwt>
<rscale>  0 0.60108688E+02</rscale>
<asrwt>0</asrwt>
<pdfrwt beam="1">  1        4 0.17600333E-01 0.94107454E+02</pdfrwt>
<pdfrwt beam="2">  1       -4 0.40510199E-02 0.94107454E+02</pdfrwt>
<totfact> 0.13899108E+04</totfact>
</mgrwt>
</event>
<event>
 6    1  0.3062576E-002  0.9782104E+02  0.7546771E-02  0.1342798E+00
         -2   -1    0    0    0  501 -0.00000000000E+00  0.00000000000E+00  0.74890490290E+02  0.74890490290E+02  0.00000000000E+00 0.  1.
          2   -1    0    0  501    0  0.00000000000E+00 -0.00000000000E+00 -0.11185858183E+03  0.11185858183E+03  0.00000000000E+00 0. -1.
         23    2    1    2    0    0  0.32595871129E+02 -0.11097935823E+02 -0.83671751948E+02  0.12872419049E+03  0.91560363411E+02 0.  0.
         13    1    3    3    0    0 -0.24151578076E+02 -0.29355402430E+02 -0.36581099533E+02  0.52756186542E+02  0.00000000000E+00 0.  1.
        -13    1    3    3    0    0  0.56747449206E+02  0.18257466607E+02 -0.47090652415E+02  0.75968003943E+02  0.00000000000E+00 0. -1.
         22    1    1    2    0    0 -0.32595871129E+02  0.11097935823E+02  0.46703660404E+02  0.58024881640E+02  0.00000000000E+00 0.  1.
<mgrwt>
<rscale>  0 0.75347524E+02</rscale>
<asrwt>0</asrwt>
<pdfrwt beam="1">  1        2 0.17209012E-01 0.97821036E+02</pdfrwt>
<pdfrwt beam="2">  1       -2 0.11521614E-01 0.97821036E+02</pdfrwt>
<totfact> 0.15760119E+04</totfact>
</mgrwt>
</event>
<event>
 6    1  0.3062576E-002  0.7827997E+02  0.7546771E-02  0.1409583E+00
         -4   -1    0    0    0  501 -0.00000000000E+00  0.00000000000E+00  0.11077071808E+03  0.11077071808E+03  0.00000000000E+00 0.  1.
          4   -1    0    0  501    0  0.00000000000E+00 -0.00000000000E+00 -0.44776299121E+02  0.44776299121E+02  0.00000000000E+00 0. -1.
         23    2    1    2    0    0  0.21422849630E+02  0.67227292611E+01 -0.75578954250E+01  0.78643983931E+02  0.74990805105E+02 0.  0.
         11    1    3    3    0    0  0.27916828599E+02 -0.29405854617E+02 -0.10298161819E+02  0.41834265162E+02  0.00000000000E+00 0. -1.
        -11    1    3    3    0    0 -0.64939789696E+01  0.36128583879E+02  0.27402663936E+01  0.36809718769E+02  0.00000000000E+00 0.  1.
         22    1    1    2    0    0 -0.21422849630E+02 -0.67227292611E+01  0.73552314389E+02  0.76903033275E+02  0.00000000000E+00 0.  1.
<mgrwt>
<rscale>  0 0.57287017E+02</rscale>
<asrwt>0</asrwt>
<pdfrwt beam="1">  1        4 0.68886614E-02 0.78279975E+02</pdfrwt>
<pdfrwt beam="2">  1       -4 0.17041649E-01 0.78279975E+02</pdfrwt>
<totfact> 0.59560276E+03</totfact>
</mgrwt>
</event>
<event>
 6    1  0.3062576E-002  0.8884228E+02  0.7546771E-02  0.1399013E+00
         -2   -1    0    0    0  501 -0.00000000000E+00  0.00000000000E+00  0.37445541947E+02  0.37445541947E+02  0.00000000000E+00 0. -1.
          2   -1    0    0  501    0  0.00000000000E+00 -0.00000000000E+00 -0.10829003832E+03  0.10829003832E+03  0.00000000000E+00 0.  1.
         23    2    1    2    0    0  0.70773357520E+01 -0.16700827781E+02 -0.84825235846E+02  0.12283432689E+03  0.86970942827E+02 0.  0.
         11    1    3    3    0    0  0.13896043762E+02  0.28073388747E+01  0.15148246662E+02  0.20747302493E+02  0.00000000000E+00 0. -1.
        -11    1    3    3    0    0 -0.68187080104E+01 -0.19508166656E+02 -0.99973482509E+02  0.10208702440E+03  0.00000000000E+00 0.  1.
         22    1    1    2    0    0 -0.70773357520E+01  0.16700827781E+02  0.13980739475E+02  0.22901253376E+02  0.00000000000E+00 0.  1.
<mgrwt>
<rscale>  0 0.59719383E+02</rscale>
<asrwt>0</asrwt>
<pdfrwt beam="1">  1        2 0.16660006E-01 0.88842283E+02</pdfrwt>
<pdfrwt beam="2">  1       -2 0.57608526E-02 0.88842283E+02</pdfrwt>
<totfact> 0.46794679E+04</totfact>
</mgrwt>
</event>
<event>
 6    1  0.3062576E-002  0.8682948E+02  0.7546771E-02  0.1417814E+00
          2   -1    0    0  501    0  0.00000000000E+00  0.00000000000E+00  0.11850536659E+03  0.11850536659E+03  0.00000000000E+00 0. -1.
         -2   -1    0    0    0  501 -0.00000000000E+00 -0.00000000000E+00 -0.22541235340E+02  0.22541235340E+02  0.00000000000E+00 0.  1.
         23    2    1    2    0    0 -0.11090303432E+02 -0.93083249543E+01  0.90902331852E+02  0.12570836354E+03  0.85613778007E+02 0.  0.
         13    1    3    3    0    0  0.20767085419E+02 -0.23724807137E+01 -0.73741591473E+01  0.22164808248E+02  0.00000000000E+00 0.  1.
        -13    1    3    3    0    0 -0.31857388852E+02 -0.69358442406E+01  0.98276491000E+02  0.10354355529E+03  0.00000000000E+00 0. -1.
         22    1    1    2    0    0  0.11090303432E+02  0.93083249543E+01  0.50617993967E+01  0.15338238387E+02  0.00000000000E+00 0.  1.
<mgrwt>
<rscale>  0 0.55486152E+02</rscale>
<asrwt>0</asrwt>
<pdfrwt beam="1">  1        2 0.18231594E-01 0.86829481E+02</pdfrwt>
<pdfrwt beam="2">  1       -2 0.34678824E-02 0.86829481E+02</pdfrwt>
<totfact> 0.89088064E+04</totfact>
</mgrwt>
</event>
<event>
 6    1  0.3062576E-002  0.9869256E+02  0.7546771E-02  0.1331418E+00
         -2   -1    0    0    0  501 -0.00000000000E+00  0.00000000000E+00  0.18787110761E+03  0.18787110761E+03  0.00000000000E+00 0. -1.
          2   -1    0    0  501    0  0.00000000000E+00 -0.00000000000E+00 -0.26006114881E+02  0.26006114881E+02  0.00000000000E+00 0.  1.
         23    2    1    2    0    0 -0.38450876666E+02  0.13860133908E+02  0.10874668147E+03  0.14685388164E+03  0.89831222818E+02 0.  0.
         11    1    3    3    0    0  0.28659028232E+02  0.26392949973E+01  0.20098461531E+02  0.35103474660E+02  0.00000000000E+00 0.  1.
        -11    1    3    3    0    0 -0.67109904898E+02  0.11220838911E+02  0.88648219939E+02  0.11175040698E+03  0.00000000000E+00 0. -1.
         22    1    1    2    0    0  0.38450876666E+02 -0.13860133908E+02  0.53118311263E+02  0.67023340857E+02  0.00000000000E+00 0.  1.
<mgrwt>
<rscale>  0 0.79171980E+02</rscale>
<asrwt>0</asrwt>
<pdfrwt beam="1">  1        2 0.40009409E-02 0.98692562E+02</pdfrwt>
<pdfrwt beam="2">  1       -2 0.28903246E-01 0.98692562E+02</pdfrwt>
<totfact> 0.20651423E+04</totfact>
</mgrwt>
</event>
<event>
 6    1  0.3062576E-002  0.1096721E+03  0.7546771E-02  0.1291148E+00
          4   -1    0    0  501    0  0.00000000000E+00  0.00000000000E+00  0.17734470053E+02  0.17734470053E+02  0.00000000000E+00 0. -1.
         -4   -1    0    0    0  501 -0.00000000000E+00 -0.00000000000E+00 -0.52420750195E+03  0.52420750195E+03  0.00000000000E+00 0.  1.
         23    2    1    2    0    0  0.37836988613E+01 -0.61661967296E+02 -0.18901148274E+03  0.21852529065E+03  0.90617037339E+02 0.  0.
         11    1    3    3    0    0 -0.48505556604E+01 -0.50426892772E+02 -0.29984400735E+02  0.58868189137E+02  0.00000000000E+00 0. -1.
        -11    1    3    3    0    0  0.86342545216E+01 -0.11235074524E+02 -0.15902708201E+03  0.15965710151E+03  0.00000000000E+00 0.  1.
         22    1    1    2    0    0 -0.37836988613E+01  0.61661967296E+02 -0.31746154915E+03  0.32341668135E+03  0.00000000000E+00 0.  1.
<mgrwt>
<rscale>  0 0.95012421E+02</rscale>
<asrwt>0</asrwt>
<pdfrwt beam="1">  1        4 0.27283797E-02 0.10967207E+03</pdfrwt>
<pdfrwt beam="2">  1       -4 0.80647316E-01 0.10967207E+03</pdfrwt>
<totfact> 0.13758874E+03</totfact>
</mgrwt>
</event>
<event>
 6    1  0.3062576E-002  0.9300353E+02  0.7546771E-02  0.1405223E+00
         -2   -1    0    0    0  501 -0.00000000000E+00  0.00000000000E+00  0.17969760132E+02  0.17969760132E+02  0.00000000000E+00 0.  1.
          2   -1    0    0  501    0  0.00000000000E+00 -0.00000000000E+00 -0.16858606334E+03  0.16858606334E+03  0.00000000000E+00 0. -1.
         23    2    1    2    0    0 -0.75440854370E+01 -0.12188826463E+02 -0.14225993181E+03  0.16996336559E+03  0.91892201671E+02 0.  0.
         11    1    3    3    0    0 -0.42143148713E+02 -0.37765722320E+00 -0.29549749377E+02  0.51472082692E+02  0.00000000000E+00 0.  1.
        -11    1    3    3    0    0  0.34599063276E+02 -0.11811169240E+02 -0.11271018244E+03  0.11849128290E+03  0.00000000000E+00 0. -1.
         22    1    1    2    0    0  0.75440854370E+01  0.12188826463E+02 -0.83563713955E+01  0.16592457881E+02  0.00000000000E+00 0.  1.
<mgrwt>
<rscale>  0 0.58273483E+02</rscale>
<asrwt>0</asrwt>
<pdfrwt beam="1">  1        2 0.25936318E-01 0.93003535E+02</pdfrwt>
<pdfrwt beam="2">  1       -2 0.27645784E-02 0.93003535E+02</pdfrwt>
<totfact> 0.84781295E+04</totfact>
</mgrwt>
</event>
<event>
 6    1  0.3062576E-002  0.9836434E+02  0.7546771E-02  0.1339504E+00
         -2   -1    0    0    0  501 -0.00000000000E+00  0.00000000000E+00  0.82367739074E+01  0.82367739074E+01  0.00000000000E+00 0.  1.
          2   -1    0    0  501    0  0.00000000000E+00 -0.00000000000E+00 -0.57990404675E+03  0.57990404675E+03  0.00000000000E+00 0. -1.
         23    2    1    2    0    0 -0.30497345054E+02 -0.18847789416E+02 -0.47406433977E+03  0.48416168926E+03  0.91598121634E+02 0.  0.
         13    1    3    3    0    0 -0.37463764022E+02 -0.35088403601E+02 -0.45603979055E+03  0.45891940495E+03  0.00000000000E+00 0. -1.
        -13    1    3    3    0    0  0.69664189681E+01  0.16240614185E+02 -0.18024549219E+02  0.25242284304E+02  0.00000000000E+00 0.  1.
         22    1    1    2    0    0  0.30497345054E+02  0.18847789416E+02 -0.97602933072E+02  0.10397913139E+03  0.00000000000E+00 0. -1.
<mgrwt>
<rscale>  0 0.76428436E+02</rscale>
<asrwt>0</asrwt>
<pdfrwt beam="1">  1        2 0.89216007E-01 0.98364339E+02</pdfrwt>
<pdfrwt beam="2">  1       -2 0.12671960E-02 0.98364339E+02</pdfrwt>
<totfact> 0.70376661E+04</totfact>
</mgrwt>
</event>
<event>
 6    1  0.3062576E-002  0.9838484E+02  0.7546771E-02  0.1339032E+00
         -2   -1    0    0    0  501 -0.00000000000E+00  0.00000000000E+00  0.40776389961E+01  0.40776389961E+01  0.00000000000E+00 0.  1.
          2   -1    0    0  501    0  0.00000000000E+00 -0.00000000000E+00 -0.13946668091E+04  0.13946668091E+04  0.00000000000E+00 0. -1.
         23    2    1    2    0    0  0.15359336830E+02 -0.32695623127E+02 -0.12394354908E+04  0.12433341918E+04  0.91513188183E+02 0.  0.
         13    1    3    3    0    0  0.15261248642E+01 -0.40312108780E+01 -0.91709121918E+00  0.44069007873E+01  0.00000000000E+00 0.  1.
        -13    1    3    3    0    0  0.13833211966E+02 -0.28664412249E+02 -0.12385183995E+04  0.12389272910E+04  0.00000000000E+00 0. -1.
         22    1    1    2    0    0 -0.15359336830E+02  0.32695623127E+02 -0.15115367936E+03  0.15541025637E+03  0.00000000000E+00 0.  1.
<mgrwt>
<rscale>  0 0.76585020E+02</rscale>
<asrwt>0</asrwt>
<pdfrwt beam="1">  1        2 0.21456392E+00 0.98384839E+02</pdfrwt>
<pdfrwt beam="2">  1       -2 0.62732968E-03 0.98384839E+02</pdfrwt>
<totfact> 0.59708518E+04</totfact>
</mgrwt>
</event>
<event>
 6    1  0.3062576E-002  0.7332890E+02  0.7546771E-02  0.1459375E+00
          4   -1    0    0  501    0  0.00000000000E+00  0.00000000000E+00  0.97907002038E+02  0.97907002038E+02  0.00000000000E+00 0. -1.
         -4   -1    0    0    0  501 -0.00000000000E+00 -0.00000000000E+00 -0.20611039006E+02  0.20611039006E+02  0.00000000000E+00 0.  1.
         23    2    1    2    0    0 -0.40023581600E+01  0.12262243597E+02  0.75912092419E+02  0.10554512361E+03  0.72185496145E+02 0.  0.
         13    1    3    3    0    0 -0.10088349142E+02  0.52527473560E+01  0.88875741757E+02  0.89600578212E+02  0.00000000000E+00 0. -1.
        -13    1    3    3    0    0  0.60859909822E+01  0.70094962411E+01 -0.12963649338E+02  0.15944545398E+02  0.00000000000E+00 0.  1.
         22    1    1    2    0    0  0.40023581600E+01 -0.12262243597E+02  0.13838706130E+01  0.12972917434E+02  0.00000000000E+00 0. -1.
<mgrwt>
<rscale>  0 0.47489161E+02</rscale>
<asrwt>0</asrwt>
<pdfrwt beam="1">  1        4 0.15062615E-01 0.73328898E+02</pdfrwt>
<pdfrwt beam="2">  1       -4 0.31709291E-02 0.73328898E+02</pdfrwt>
<totfact> 0.24643599E+04</totfact>
</mgrwt>
</event>
<event>
 6    1  0.3062576E-002  0.9532169E+02  0.7546771E-02  0.1362476E+00
          2   -1    0    0  501    0  0.00000000000E+00  0.00000000000E+00  0.34274572989E+03  0.34274572989E+03  0.00000000000E+00 0. -1.
         -2   -1    0    0    0  501 -0.00000000000E+00 -0.00000000000E+00 -0.10855079951E+02  0.10855079951E+02  0.00000000000E+00 0.  1.
         23    2    1    2    0    0  0.28404485702E+01  0.26483361559E+02  0.25583281753E+03  0.27301402148E+03  0.91524798888E+02 0.  0.
         11    1    3    3    0    0  0.15047426919E+02  0.30435504264E+02  0.25848041681E+02  0.42671609244E+02  0.00000000000E+00 0.  1.
        -11    1    3    3    0    0 -0.12206978349E+02 -0.39521427053E+01  0.22998477585E+03  0.23034241223E+03  0.00000000000E+00 0. -1.
         22    1    1    2    0    0 -0.28404485702E+01 -0.26483361559E+02  0.76057832406E+02  0.80586788358E+02  0.00000000000E+00 0. -1.
<mgrwt>
<rscale>  0 0.69303954E+02</rscale>
<asrwt>0</asrwt>
<pdfrwt beam="1">  1        2 0.52730104E-01 0.95321694E+02</pdfrwt>
<pdfrwt beam="2">  1       -2 0.16700126E-02 0.95321694E+02</pdfrwt>
<totfact> 0.83002329E+04</totfact>
</mgrwt>
</event>
<event>
 6    1  0.3062576E-002  0.8848263E+02  0.7546771E-02  0.1403264E+00
          2   -1    0    0  501    0  0.00000000000E+00  0.00000000000E+00  0.10763542686E+03  0.10763542686E+03  0.00000000000E+00 0. -1.
         -2   -1    0    0    0  501 -0.00000000000E+00 -0.00000000000E+00 -0.43699668550E+02  0.43699668550E+02  0.00000000000E+00 0.  1.
         23    2    1    2    0    0 -0.16428323998E+02  0.49823873660E+01  0.85992352527E+02  0.12338500844E+03  0.86801276492E+02 0.  0.
         13    1    3    3    0    0 -0.13578521652E+02  0.36660291455E+02  0.90500495266E+01  0.40128002894E+02  0.00000000000E+00 0.  1.
        -13    1    3    3    0    0 -0.28498023458E+01 -0.31677904089E+02  0.76942303000E+02  0.83257005542E+02  0.00000000000E+00 0. -1.
         22    1    1    2    0    0  0.16428323998E+02 -0.49823873660E+01 -0.22056594218E+02  0.27950086972E+02  0.00000000000E+00 0.  1.
<mgrwt>
<rscale>  0 0.58724403E+02</rscale>
<asrwt>0</asrwt>
<pdfrwt beam="1">  1        2 0.16559296E-01 0.88482629E+02</pdfrwt>
<pdfrwt beam="2">  1       -2 0.67230260E-02 0.88482629E+02</pdfrwt>
<totfact> 0.37339923E+04</totfact>
</mgrwt>
</event>
<event>
 6    1  0.3062576E-002  0.9741396E+02  0.7546771E-02  0.1411817E+00
          2   -1    0    0  501    0  0.00000000000E+00  0.00000000000E+00  0.17438205928E+04  0.17438205928E+04  0.00000000000E+00 0. -1.
         -2   -1    0    0    0  501 -0.00000000000E+00 -0.00000000000E+00 -0.10594783522E+02  0.10594783522E+02  0.00000000000E+00 0.  1.
         23    2    1    2    0    0  0.44522419548E+01 -0.10333753121E+02  0.17390288082E+04  0.17417550560E+04  0.96761927206E+02 0.  0.
         11    1    3    3    0    0 -0.44862660505E+01 -0.22334335308E+02  0.16968095115E+04  0.16969624237E+04  0.00000000000E+00 0. -1.
        -11    1    3    3    0    0  0.89385080054E+01  0.12000582186E+02  0.42219296744E+02  0.44792632383E+02  0.00000000000E+00 0.  1.
         22    1    1    2    0    0 -0.44522419548E+01  0.10333753121E+02 -0.58029989580E+01  0.12660320253E+02  0.00000000000E+00 0.  1.
<mgrwt>
<rscale>  0 0.56790270E+02</rscale>
<asrwt>0</asrwt>
<pdfrwt beam="1">  1        2 0.26827986E+00 0.97413959E+02</pdfrwt>
<pdfrwt beam="2">  1       -2 0.16299681E-02 0.97413959E+02</pdfrwt>
<totfact> 0.10211762E+04</totfact>
</mgrwt>
</event>
<event>
 6    1  0.3062576E-002  0.9422184E+02  0.7546771E-02  0.1391157E+00
          2   -1    0    0  501    0  0.00000000000E+00  0.00000000000E+00  0.12498299691E+03  0.12498299691E+03  0.00000000000E+00 0. -1.
         -2   -1    0    0    0  501 -0.00000000000E+00 -0.00000000000E+00 -0.25008017970E+02  0.25008017970E+02  0.00000000000E+00 0.  1.
         23    2    1    2    0    0 -0.12273518314E+02  0.12100888438E+02  0.88632766967E+02  0.12935811578E+03  0.92631981439E+02 0.  0.
         11    1    3    3    0    0 -0.52191015141E+01 -0.40658707797E+02  0.38373654635E+02  0.56150751645E+02  0.00000000000E+00 0.  1.
        -11    1    3    3    0    0 -0.70544167994E+01  0.52759596234E+02  0.50259112332E+02  0.73207364135E+02  0.00000000000E+00 0. -1.
         22    1    1    2    0    0  0.12273518314E+02 -0.12100888438E+02  0.11342211969E+02  0.20632899096E+02  0.00000000000E+00 0.  1.
<mgrwt>
<rscale>  0 0.61619925E+02</rscale>
<asrwt>0</asrwt>
<pdfrwt beam="1">  1        2 0.19228153E-01 0.94221838E+02</pdfrwt>
<pdfrwt beam="2">  1       -2 0.38473875E-02 0.94221838E+02</pdfrwt>
<totfact> 0.72958357E+04</totfact>
</mgrwt>
</event>
<event>
 6    1  0.3062576E-002  0.9467944E+02  0.7546771E-02  0.1381753E+00
         -1   -1    0    0    0  501 -0.00000000000E+00  0.00000000000E+00  0.33175847924E+01  0.33175847924E+01  0.00000000000E+00 0.  1.
          1   -1    0    0  501    0  0.00000000000E+00 -0.00000000000E+00 -0.11105783276E+04  0.11105783276E+04  0.00000000000E+00 0. -1.
         23    2    1    2    0    0 -0.26436576355E+01 -0.19596552851E+02 -0.10218100917E+04  0.10261871466E+04  0.92591482818E+02 0.  0.
         13    1    3    3    0    0  0.35612141612E+02  0.18436890291E+02 -0.49529569175E+03  0.49691645758E+03  0.00000000000E+00 0. -1.
        -13    1    3    3    0    0 -0.38255799248E+02 -0.38033443142E+02 -0.52651439992E+03  0.52927068905E+03  0.00000000000E+00 0.  1.
         22    1    1    2    0    0  0.26436576355E+01  0.19596552851E+02 -0.85450651170E+02  0.87708765780E+02  0.00000000000E+00 0. -1.
<mgrwt>
<rscale>  0 0.64005276E+02</rscale>
<asrwt>0</asrwt>
<pdfrwt beam="1">  1        1 0.17085804E+00 0.94679441E+02</pdfrwt>
<pdfrwt beam="2">  1       -1 0.51039814E-03 0.94679441E+02</pdfrwt>
<totfact> 0.59435992E+04</totfact>
</mgrwt>
</event>
<event>
 6    1  0.3062576E-002  0.9525271E+02  0.7546771E-02  0.1363027E+00
          2   -1    0    0  501    0  0.00000000000E+00  0.00000000000E+00  0.25142248575E+03  0.25142248575E+03  0.00000000000E+00 0. -1.
         -2   -1    0    0    0  501 -0.00000000000E+00 -0.00000000000E+00 -0.20208289304E+02  0.20208289304E+02  0.00000000000E+00 0.  1.
         23    2    1    2    0    0 -0.24240373116E+02 -0.10578317918E+02  0.22518784072E+03  0.24450489327E+03  0.91507282387E+02 0.  0.
         13    1    3    3    0    0 -0.20882567151E+02  0.39580070612E+02  0.97592028783E+02  0.10736325108E+03  0.00000000000E+00 0.  1.
        -13    1    3    3    0    0 -0.33578059647E+01 -0.50158388530E+02  0.12759581193E+03  0.13714164219E+03  0.00000000000E+00 0. -1.
         22    1    1    2    0    0  0.24240373116E+02  0.10578317918E+02  0.60263557253E+01  0.27125881776E+02  0.00000000000E+00 0.  1.
<mgrwt>
<rscale>  0 0.69144272E+02</rscale>
<asrwt>0</asrwt>
<pdfrwt beam="1">  1        2 0.38680380E-01 0.95252712E+02</pdfrwt>
<pdfrwt beam="2">  1       -2 0.31089678E-02 0.95252712E+02</pdfrwt>
<totfact> 0.46812223E+04</totfact>
</mgrwt>
</event>
<event>
 6    1  0.3062576E-002  0.8868058E+02  0.7546771E-02  0.1412047E+00
          2   -1    0    0  501    0  0.00000000000E+00  0.00000000000E+00  0.12585017857E+03  0.12585017857E+03  0.00000000000E+00 0. -1.
         -2   -1    0    0    0  501 -0.00000000000E+00 -0.00000000000E+00 -0.24465469791E+02  0.24465469791E+02  0.00000000000E+00 0.  1.
         23    2    1    2    0    0 -0.14549861819E+02 -0.30267774935E+01  0.10234826635E+03  0.13542308967E+03  0.87426458988E+02 0.  0.
         13    1    3    3    0    0 -0.11995159272E+02 -0.43667094351E+02  0.37243721796E+02  0.58632702379E+02  0.00000000000E+00 0.  1.
        -13    1    3    3    0    0 -0.25547025476E+01  0.40640316858E+02  0.65104544552E+02  0.76790387294E+02  0.00000000000E+00 0. -1.
         22    1    1    2    0    0  0.14549861819E+02  0.30267774935E+01 -0.96355757286E+00  0.14892558684E+02  0.00000000000E+00 0. -1.
<mgrwt>
<rscale>  0 0.56739565E+02</rscale>
<asrwt>0</asrwt>
<pdfrwt beam="1">  1        2 0.19361565E-01 0.88680582E+02</pdfrwt>
<pdfrwt beam="2">  1       -2 0.37639185E-02 0.88680582E+02</pdfrwt>
<totfact> 0.74102425E+04</totfact>
</mgrwt>
</event>
<event>
 6    1  0.3062576E-002  0.1077046E+03  0.7546771E-02  0.1306841E+00
         -2   -1    0    0    0  501 -0.00000000000E+00  0.00000000000E+00  0.90327202400E+01  0.90327202400E+01  0.00000000000E+00 0.  1.
          2   -1    0    0  501    0  0.00000000000E+00 -0.00000000000E+00 -0.18506615624E+04  0.18506615624E+04  0.00000000000E+00 0. -1.
         23    2    1    2    0    0  0.10947973909E+02  0.47573476931E+02 -0.17684516933E+04  0.17717284430E+04  0.96006198249E+02 0.  0.
         11    1    3    3    0    0 -0.60807983759E+01  0.35073137246E+02 -0.20055763355E+03  0.20369208488E+03  0.00000000000E+00 0.  1.
        -11    1    3    3    0    0  0.17028772285E+02  0.12500339685E+02 -0.15678940598E+04  0.15680363581E+04  0.00000000000E+00 0. -1.
         22    1    1    2    0    0 -0.10947973909E+02 -0.47573476931E+02 -0.73177148825E+02  0.87965839678E+02  0.00000000000E+00 0.  1.
<mgrwt>
<rscale>  0 0.88372751E+02</rscale>
<asrwt>0</asrwt>
<pdfrwt beam="1">  1        2 0.28471729E+00 0.10770461E+03</pdfrwt>
<pdfrwt beam="2">  1       -2 0.13896487E-02 0.10770461E+03</pdfrwt>
<totfact> 0.11384062E+04</totfact>
</mgrwt>
</event>
<event>
 6    1  0.3062576E-002  0.9471942E+02  0.7546771E-02  0.1360640E+00
          1   -1    0    0  501    0  0.00000000000E+00  0.00000000000E+00  0.20766604269E+03  0.20766604269E+03  0.00000000000E+00 0. -1.
         -1   -1    0    0    0  501 -0.00000000000E+00 -0.00000000000E+00 -0.48617007499E+02  0.48617007499E+02  0.00000000000E+00 0.  1.
         23    2    1    2    0    0 -0.20748229332E+02 -0.18794995386E+02  0.19136717521E+03  0.21352555908E+03  0.90487721599E+02 0.  0.
         11    1    3    3    0    0 -0.28715829185E+02 -0.16895102134E+02  0.19933397737E+03  0.20209917826E+03  0.00000000000E+00 0. -1.
        -11    1    3    3    0    0  0.79675998533E+01 -0.18998932525E+01 -0.79668021607E+01  0.11426380812E+02  0.00000000000E+00 0.  1.
         22    1    1    2    0    0  0.20748229332E+02  0.18794995386E+02 -0.32318140018E+02  0.42757491112E+02  0.00000000000E+00 0.  1.
<mgrwt>
<rscale>  0 0.69839454E+02</rscale>
<asrwt>0</asrwt>
<pdfrwt beam="1">  1        1 0.31948621E-01 0.94719421E+02</pdfrwt>
<pdfrwt beam="2">  1       -1 0.74795397E-02 0.94719421E+02</pdfrwt>
<totfact> 0.12134287E+04</totfact>
</mgrwt>
</event>
<event>
 6    1  0.3062576E-002  0.9756035E+02  0.7546771E-02  0.1346237E+00
         -2   -1    0    0    0  501 -0.00000000000E+00  0.00000000000E+00  0.42439684400E+01  0.42439684400E+01  0.00000000000E+00 0.  1.
          2   -1    0    0  501    0  0.00000000000E+00 -0.00000000000E+00 -0.10877651221E+04  0.10877651221E+04  0.00000000000E+00 0. -1.
         23    2    1    2    0    0 -0.27119697838E+01 -0.32603119036E+02 -0.92608361049E+03  0.93120828784E+03  0.91911389747E+02 0.  0.
         13    1    3    3    0    0  0.42894945147E+02 -0.17281985300E+02 -0.57278440138E+03  0.57464825224E+03  0.00000000000E+00 0. -1.
        -13    1    3    3    0    0 -0.45606914931E+02 -0.15321133736E+02 -0.35329920911E+03  0.35656003560E+03  0.00000000000E+00 0.  1.
         22    1    1    2    0    0  0.27119697838E+01  0.32603119036E+02 -0.15743754319E+03  0.16080080273E+03  0.00000000000E+00 0. -1.
<mgrwt>
<rscale>  0 0.74241053E+02</rscale>
<asrwt>0</asrwt>
<pdfrwt beam="1">  1        2 0.16734849E+00 0.97560349E+02</pdfrwt>
<pdfrwt beam="2">  1       -2 0.65291819E-03 0.97560349E+02</pdfrwt>
<totfact> 0.82602981E+04</totfact>
</mgrwt>
</event>
<event>
 6    1  0.3062576E-002  0.9454171E+02  0.7546771E-02  0.1364699E+00
          2   -1    0    0  501    0  0.00000000000E+00  0.00000000000E+00  0.30844289233E+02  0.30844289233E+02  0.00000000000E+00 0. -1.
         -2   -1    0    0    0  501 -0.00000000000E+00 -0.00000000000E+00 -0.14463361866E+03  0.14463361866E+03  0.00000000000E+00 0.  1.
         23    2    1    2    0    0 -0.24580978999E+02 -0.93635418783E+01 -0.51042226432E+02  0.10744042279E+03  0.90808783303E+02 0.  0.
         11    1    3    3    0    0  0.24710210690E+02  0.24135651868E+02 -0.14008896315E+02  0.37274299181E+02  0.00000000000E+00 0. -1.
        -11    1    3    3    0    0 -0.49291189689E+02 -0.33499193747E+02 -0.37033330117E+02  0.70166123609E+02  0.00000000000E+00 0.  1.
         22    1    1    2    0    0  0.24580978999E+02  0.93635418783E+01 -0.62747102999E+02  0.68037485108E+02  0.00000000000E+00 0.  1.
<mgrwt>
<rscale>  0 0.68663044E+02</rscale>
<asrwt>0</asrwt>
<pdfrwt beam="1">  1        2 0.47452752E-02 0.94541713E+02</pdfrwt>
<pdfrwt beam="2">  1       -2 0.22251326E-01 0.94541713E+02</pdfrwt>
<totfact> 0.25903945E+04</totfact>
</mgrwt>
</event>
<event>
 6    1  0.3062576E-002  0.9790018E+02  0.7546771E-02  0.1406285E+00
          4   -1    0    0  501    0  0.00000000000E+00  0.00000000000E+00  0.22766938625E+02  0.22766938625E+02  0.00000000000E+00 0. -1.
         -4   -1    0    0    0  501 -0.00000000000E+00 -0.00000000000E+00 -0.13897162262E+03  0.13897162262E+03  0.00000000000E+00 0.  1.
         23    2    1    2    0    0  0.10365004379E+01 -0.12041741839E+02 -0.90445186180E+02  0.13328457018E+03  0.97151258694E+02 0.  0.
         11    1    3    3    0    0 -0.23462031894E+02 -0.45221659789E+02 -0.27125824472E+02  0.57717205476E+02  0.00000000000E+00 0. -1.
        -11    1    3    3    0    0  0.24498532332E+02  0.33179917950E+02 -0.63319361707E+02  0.75567364706E+02  0.00000000000E+00 0.  1.
         22    1    1    2    0    0 -0.10365004379E+01  0.12041741839E+02 -0.25759497819E+02  0.28453991065E+02  0.00000000000E+00 0. -1.
<mgrwt>
<rscale>  0 0.58031082E+02</rscale>
<asrwt>0</asrwt>
<pdfrwt beam="1">  1        4 0.35026059E-02 0.97900178E+02</pdfrwt>
<pdfrwt beam="2">  1       -4 0.21380250E-01 0.97900178E+02</pdfrwt>
<totfact> 0.12503243E+04</totfact>
</mgrwt>
</event>
<event>
 6    1  0.3062576E-002  0.9317991E+02  0.7546771E-02  0.1406780E+00
         -2   -1    0    0    0  501 -0.00000000000E+00  0.00000000000E+00  0.40573041254E+01  0.40573041254E+01  0.00000000000E+00 0.  1.
          2   -1    0    0  501    0  0.00000000000E+00 -0.00000000000E+00 -0.71743271426E+03  0.71743271426E+03  0.00000000000E+00 0. -1.
         23    2    1    2    0    0 -0.13815778766E+02 -0.16098869388E+01 -0.64677375605E+03  0.65345144252E+03  0.92135925343E+02 0.  0.
         11    1    3    3    0    0  0.22284377405E+02  0.35031803591E+02 -0.31152384782E+03  0.31427842513E+03  0.00000000000E+00 0. -1.
        -11    1    3    3    0    0 -0.36100156172E+02 -0.36641690529E+02 -0.33524990823E+03  0.33917301739E+03  0.00000000000E+00 0.  1.
         22    1    1    2    0    0  0.13815778766E+02  0.16098869388E+01 -0.66601654087E+02  0.68038575867E+02  0.00000000000E+00 0. -1.
<mgrwt>
<rscale>  0 0.57918556E+02</rscale>
<asrwt>0</asrwt>
<pdfrwt beam="1">  1        2 0.11037439E+00 0.93179913E+02</pdfrwt>
<pdfrwt beam="2">  1       -2 0.62419990E-03 0.93179913E+02</pdfrwt>
<totfact> 0.14916353E+05</totfact>
</mgrwt>
</event>
<event>
 6    1  0.3062576E-002  0.9676407E+02  0.7546771E-02  0.1368590E+00
          2   -1    0    0  501    0  0.00000000000E+00  0.00000000000E+00  0.13961601539E+04  0.13961601539E+04  0.00000000000E+00 0. -1.
         -2   -1    0    0    0  501 -0.00000000000E+00 -0.00000000000E+00 -0.29691499672E+01  0.29691499672E+01  0.00000000000E+00 0.  1.
         23    2    1    2    0    0 -0.12699214682E+01  0.22959928847E+02  0.12784530450E+04  0.12821097745E+04  0.93992098433E+02 0.  0.
         13    1    3    3    0    0 -0.28744941138E+02  0.16450083336E+02  0.11547639853E+04  0.11552388232E+04  0.00000000000E+00 0. -1.
        -13    1    3    3    0    0  0.27475019669E+02  0.65098455108E+01  0.12368905968E+03  0.12687095128E+03  0.00000000000E+00 0.  1.
         22    1    1    2    0    0  0.12699214682E+01 -0.22959928847E+02  0.11473795897E+03  0.11701952941E+03  0.00000000000E+00 0. -1.
<mgrwt>
<rscale>  0 0.67560687E+02</rscale>
<asrwt>0</asrwt>
<pdfrwt beam="1">  1        2 0.21479335E+00 0.96764072E+02</pdfrwt>
<pdfrwt beam="2">  1       -2 0.45679342E-03 0.96764072E+02</pdfrwt>
<totfact> 0.92914979E+04</totfact>
</mgrwt>
</event>
<event>
 6    1  0.3062576E-002  0.9115736E+02  0.7546771E-02  0.1405544E+00
          2   -1    0    0  501    0  0.00000000000E+00  0.00000000000E+00  0.20265295380E+04  0.20265295380E+04  0.00000000000E+00 0. -1.
         -2   -1    0    0    0  501 -0.00000000000E+00 -0.00000000000E+00 -0.21066408007E+01  0.21066408007E+01  0.00000000000E+00 0.  1.
         23    2    1    2    0    0 -0.99004318017E+01  0.11463214701E+02  0.19710185501E+04  0.19731253859E+04  0.89890153764E+02 0.  0.
         13    1    3    3    0    0  0.28264376623E+02  0.22187410775E+02  0.40107552904E+03  0.40268192929E+03  0.00000000000E+00 0.  1.
        -13    1    3    3    0    0 -0.38164808425E+02 -0.10724196074E+02  0.15699430210E+04  0.15704434566E+04  0.00000000000E+00 0. -1.
         22    1    1    2    0    0  0.99004318017E+01 -0.11463214701E+02  0.53404347127E+02  0.55510792944E+02  0.00000000000E+00 0.  1.
<mgrwt>
<rscale>  0 0.58200084E+02</rscale>
<asrwt>0</asrwt>
<pdfrwt beam="1">  1        2 0.31177222E+00 0.91157356E+02</pdfrwt>
<pdfrwt beam="2">  1       -2 0.32410021E-03 0.91157356E+02</pdfrwt>
<totfact> 0.71560600E+04</totfact>
</mgrwt>
</event>
<event>
 6    1  0.3062576E-002  0.9943234E+02  0.7546771E-02  0.1331629E+00
          3   -1    0    0  501    0  0.00000000000E+00  0.00000000000E+00  0.29175712035E+03  0.29175712035E+03  0.00000000000E+00 0. -1.
         -3   -1    0    0    0  501 -0.00000000000E+00 -0.00000000000E+00 -0.85601959569E+02  0.85601959569E+02  0.00000000000E+00 0.  1.
         23    2    1    2    0    0  0.10114585506E+02  0.38513576981E+02  0.27798361707E+03  0.29523157183E+03  0.91110862094E+02 0.  0.
         11    1    3    3    0    0  0.39196098045E+02  0.11113941228E+02  0.22612354560E+03  0.22976446998E+03  0.00000000000E+00 0. -1.
        -11    1    3    3    0    0 -0.29081512539E+02  0.27399635753E+02  0.51860071474E+02  0.65467101847E+02  0.00000000000E+00 0.  1.
         22    1    1    2    0    0 -0.10114585506E+02 -0.38513576981E+02 -0.71828456292E+02  0.82127508090E+02  0.00000000000E+00 0.  1.
<mgrwt>
<rscale>  0 0.79098811E+02</rscale>
<asrwt>0</asrwt>
<pdfrwt beam="1">  1        3 0.44885710E-01 0.99432337E+02</pdfrwt>
<pdfrwt beam="2">  1       -3 0.13169532E-01 0.99432337E+02</pdfrwt>
<totfact> 0.50829781E+02</totfact>
</mgrwt>
</event>
<event>
 6    1  0.3062576E-002  0.9198097E+02  0.7546771E-02  0.1426976E+00
         -2   -1    0    0    0  501 -0.00000000000E+00  0.00000000000E+00  0.26515619400E+02  0.26515619400E+02  0.00000000000E+00 0.  1.
          2   -1    0    0  501    0  0.00000000000E+00 -0.00000000000E+00 -0.10347109595E+03  0.10347109595E+03  0.00000000000E+00 0. -1.
         23    2    1    2    0    0 -0.43190818517E+01  0.96627771048E+01 -0.76077601041E+02  0.11936624480E+03  0.91369991174E+02 0.  0.
         13    1    3    3    0    0  0.39902374631E+01 -0.37426175386E+02 -0.56072957907E+02  0.67533822693E+02  0.00000000000E+00 0. -1.
        -13    1    3    3    0    0 -0.83093193148E+01  0.47088952491E+02 -0.20004643134E+02  0.51832422103E+02  0.00000000000E+00 0.  1.
         22    1    1    2    0    0  0.43190818517E+01 -0.96627771048E+01 -0.87787551045E+00  0.10620470556E+02  0.00000000000E+00 0. -1.
<mgrwt>
<rscale>  0 0.53571924E+02</rscale>
<asrwt>0</asrwt>
<pdfrwt beam="1">  1        2 0.15918630E-01 0.91980971E+02</pdfrwt>
<pdfrwt beam="2">  1       -2 0.40793261E-02 0.91980971E+02</pdfrwt>
<totfact> 0.82672409E+04</totfact>
</mgrwt>
</event>
<event>
 6    1  0.3062576E-002  0.9292888E+02  0.7546771E-02  0.1413916E+00
          2   -1    0    0  501    0  0.00000000000E+00  0.00000000000E+00  0.18825683008E+02  0.18825683008E+02  0.00000000000E+00 0. -1.
         -2   -1    0    0    0  501 -0.00000000000E+00 -0.00000000000E+00 -0.16723521236E+03  0.16723521236E+03  0.00000000000E+00 0.  1.
         23    2    1    2    0    0 -0.59445062050E+01  0.11047526055E+02 -0.10199580624E+03  0.13798159962E+03  0.92078186116E+02 0.  0.
         11    1    3    3    0    0 -0.52183805463E+01  0.45250416654E+02 -0.21201289545E+02  0.50242674901E+02  0.00000000000E+00 0. -1.
        -11    1    3    3    0    0 -0.72612565862E+00 -0.34202890598E+02 -0.80794516690E+02  0.87738924719E+02  0.00000000000E+00 0.  1.
         22    1    1    2    0    0  0.59445062050E+01 -0.11047526055E+02 -0.46413723114E+02  0.48079295744E+02  0.00000000000E+00 0.  1.
<mgrwt>
<rscale>  0 0.56329183E+02</rscale>
<asrwt>0</asrwt>
<pdfrwt beam="1">  1        2 0.28962590E-02 0.92928883E+02</pdfrwt>
<pdfrwt beam="2">  1       -2 0.25728493E-01 0.92928883E+02</pdfrwt>
<totfact> 0.38527569E+04</totfact>
</mgrwt>
</event>
<event>
 6    1  0.3062576E-002  0.9588341E+02  0.7546771E-02  0.1368196E+00
          2   -1    0    0  501    0  0.00000000000E+00  0.00000000000E+00  0.12779773213E+03  0.12779773213E+03  0.00000000000E+00 0. -1.
         -2   -1    0    0    0  501 -0.00000000000E+00 -0.00000000000E+00 -0.43159790184E+02  0.43159790184E+02  0.00000000000E+00 0.  1.
         23    2    1    2    0    0 -0.13304916262E+02 -0.19721252180E+02  0.10313674033E+03  0.14082192665E+03  0.92885301500E+02 0.  0.
         13    1    3    3    0    0 -0.49761911571E+02 -0.27665562772E+01  0.80504658105E+02  0.94683164572E+02  0.00000000000E+00 0. -1.
        -13    1    3    3    0    0  0.36456995309E+02 -0.16954695902E+02  0.22632082226E+02  0.46138762077E+02  0.00000000000E+00 0.  1.
         22    1    1    2    0    0  0.13304916262E+02  0.19721252180E+02 -0.18498798387E+02  0.30135595664E+02  0.00000000000E+00 0.  1.
<mgrwt>
<rscale>  0 0.67671331E+02</rscale>
<asrwt>0</asrwt>
<pdfrwt beam="1">  1        2 0.19661189E-01 0.95883407E+02</pdfrwt>
<pdfrwt beam="2">  1       -2 0.66399678E-02 0.95883407E+02</pdfrwt>
<totfact> 0.31647027E+04</totfact>
</mgrwt>
</event>
<event>
 6    1  0.3062576E-002  0.9360969E+02  0.7546771E-02  0.1415180E+00
         -2   -1    0    0    0  501 -0.00000000000E+00  0.00000000000E+00  0.35330830974E+02  0.35330830974E+02  0.00000000000E+00 0.  1.
          2   -1    0    0  501    0  0.00000000000E+00 -0.00000000000E+00 -0.79358682118E+02  0.79358682118E+02  0.00000000000E+00 0. -1.
         23    2    1    2    0    0 -0.19579258828E+00 -0.12033745780E+02 -0.36383761278E+02  0.10043183158E+03  0.92832781588E+02 0.  0.
         11    1    3    3    0    0 -0.14433877717E+02 -0.18437494051E+02  0.26660543344E+02  0.35483271893E+02  0.00000000000E+00 0.  1.
        -11    1    3    3    0    0  0.14238085129E+02  0.64037482702E+01 -0.63044304622E+02  0.64948559686E+02  0.00000000000E+00 0. -1.
         22    1    1    2    0    0  0.19579258828E+00  0.12033745780E+02 -0.76440898661E+01  0.14257681513E+02  0.00000000000E+00 0.  1.
<mgrwt>
<rscale>  0 0.56053817E+02</rscale>
<asrwt>0</asrwt>
<pdfrwt beam="1">  1        2 0.12209028E-01 0.93609693E+02</pdfrwt>
<pdfrwt beam="2">  1       -2 0.54355125E-02 0.93609693E+02</pdfrwt>
<totfact> 0.73827773E+04</totfact>
</mgrwt>
</event>
<event>
 6    1  0.3062576E-002  0.8600626E+02  0.7546771E-02  0.1441939E+00
         -2   -1    0    0    0  501 -0.00000000000E+00  0.00000000000E+00  0.98291010150E+02  0.98291010150E+02  0.00000000000E+00 0.  1.
          2   -1    0    0  501    0  0.00000000000E+00 -0.00000000000E+00 -0.40191229171E+02  0.40191229171E+02  0.00000000000E+00 0. -1.
         23    2    1    2    0    0 -0.71560396163E+01  0.74550401244E+01  0.69361942068E+01  0.86285504388E+02  0.85383200638E+02 0.  0.
         11    1    3    3    0    0  0.26165257352E+02 -0.16370264655E+02 -0.20438049748E+02  0.37017835359E+02  0.00000000000E+00 0. -1.
        -11    1    3    3    0    0 -0.33321296968E+02  0.23825304779E+02  0.27374243955E+02  0.49267669029E+02  0.00000000000E+00 0.  1.
         22    1    1    2    0    0  0.71560396163E+01 -0.74550401244E+01  0.51163586773E+02  0.52196734933E+02  0.00000000000E+00 0.  1.
<mgrwt>
<rscale>  0 0.50636318E+02</rscale>
<asrwt>0</asrwt>
<pdfrwt beam="1">  1        2 0.61832661E-02 0.86006264E+02</pdfrwt>
<pdfrwt beam="2">  1       -2 0.15121694E-01 0.86006264E+02</pdfrwt>
<totfact> 0.34572106E+04</totfact>
</mgrwt>
</event>
<event>
 6    1  0.3062576E-002  0.9121754E+02  0.7546771E-02  0.1428429E+00
         -2   -1    0    0    0  501 -0.00000000000E+00  0.00000000000E+00  0.53582576267E+01  0.53582576267E+01  0.00000000000E+00 0.  1.
          2   -1    0    0  501    0  0.00000000000E+00 -0.00000000000E+00 -0.49166400640E+03  0.49166400640E+03  0.00000000000E+00 0. -1.
         23    2    1    2    0    0 -0.49079681277E+01 -0.94121031085E+01 -0.45197684264E+03  0.46108969339E+03  0.90597810316E+02 0.  0.
         13    1    3    3    0    0 -0.10820575416E+02  0.20882249023E+02 -0.39962258780E+03  0.40031408401E+03  0.00000000000E+00 0. -1.
        -13    1    3    3    0    0  0.59126072884E+01 -0.30294352131E+02 -0.52354254838E+02  0.60775609381E+02  0.00000000000E+00 0.  1.
         22    1    1    2    0    0  0.49079681277E+01  0.94121031085E+01 -0.34328906140E+02  0.35932570640E+02  0.00000000000E+00 0. -1.
<mgrwt>
<rscale>  0 0.53276735E+02</rscale>
<asrwt>0</asrwt>
<pdfrwt beam="1">  1        2 0.75640623E-01 0.91217537E+02</pdfrwt>
<pdfrwt beam="2">  1       -2 0.82434726E-03 0.91217537E+02</pdfrwt>
<totfact> 0.15346756E+05</totfact>
</mgrwt>
</event>
<event>
 6    1  0.3062576E-002  0.9326663E+02  0.7546771E-02  0.1361260E+00
          4   -1    0    0  501    0  0.00000000000E+00  0.00000000000E+00  0.17149166607E+04  0.17149166607E+04  0.00000000000E+00 0. -1.
         -4   -1    0    0    0  501 -0.00000000000E+00 -0.00000000000E+00 -0.46096505388E+01  0.46096505388E+01  0.00000000000E+00 0.  1.
         23    2    1    2    0    0 -0.27677564756E+02  0.87263900034E+01  0.16496501756E+04  0.16522845902E+04  0.88636716853E+02 0.  0.
         11    1    3    3    0    0  0.17053400552E+02  0.11794412757E+02  0.10742210018E+03  0.10940490962E+03  0.00000000000E+00 0.  1.
        -11    1    3    3    0    0 -0.44730965308E+02 -0.30680227535E+01  0.15422280755E+04  0.15428796806E+04  0.00000000000E+00 0. -1.
         22    1    1    2    0    0  0.27677564756E+02 -0.87263900034E+01  0.60656834535E+02  0.67241721045E+02  0.00000000000E+00 0.  1.
<mgrwt>
<rscale>  0 0.69658075E+02</rscale>
<asrwt>0</asrwt>
<pdfrwt beam="1">  1        4 0.26383282E+00 0.93266634E+02</pdfrwt>
<pdfrwt beam="2">  1       -4 0.70917838E-03 0.93266634E+02</pdfrwt>
<totfact> 0.47072961E+02</totfact>
</mgrwt>
</event>
<event>
 6    1  0.3062576E-002  0.9084783E+02  0.7546771E-02  0.1387986E+00
          2   -1    0    0  501    0  0.00000000000E+00  0.00000000000E+00  0.29489194071E+03  0.29489194071E+03  0.00000000000E+00 0. -1.
         -2   -1    0    0    0  501 -0.00000000000E+00 -0.00000000000E+00 -0.11144620971E+02  0.11144620971E+02  0.00000000000E+00 0.  1.
         23    2    1    2    0    0 -0.20150193986E+02 -0.18410325896E+01  0.25638990972E+03  0.27200940191E+03  0.88565846722E+02 0.  0.
         11    1    3    3    0    0 -0.45259988468E+02 -0.23420612304E+01  0.23404706853E+03  0.23839459326E+03  0.00000000000E+00 0. -1.
        -11    1    3    3    0    0  0.25109794482E+02  0.50102864080E+00  0.22342841187E+02  0.33614808655E+02  0.00000000000E+00 0.  1.
         22    1    1    2    0    0  0.20150193986E+02  0.18410325896E+01  0.27357410017E+02  0.34027159763E+02  0.00000000000E+00 0.  1.
<mgrwt>
<rscale>  0 0.62410409E+02</rscale>
<asrwt>0</asrwt>
<pdfrwt beam="1">  1        2 0.45367985E-01 0.90847834E+02</pdfrwt>
<pdfrwt beam="2">  1       -2 0.17145573E-02 0.90847834E+02</pdfrwt>
<totfact> 0.92907099E+04</totfact>
</mgrwt>
</event>
<event>
 6    1  0.3062576E-002  0.9149114E+02  0.7546771E-02  0.1428418E+00
          2   -1    0    0  501    0  0.00000000000E+00  0.00000000000E+00  0.84534809204E+02  0.84534809204E+02  0.00000000000E+00 0. -1.
         -2   -1    0    0    0  501 -0.00000000000E+00 -0.00000000000E+00 -0.35789210114E+02  0.35789210114E+02  0.00000000000E+00 0.  1.
         23    2    1    2    0    0  0.97209944183E+01 -0.40255949888E+01  0.56250677885E+02  0.10740003560E+03  0.90884133578E+02 0.  0.
         13    1    3    3    0    0 -0.49156401687E+01  0.28918203158E+02 -0.10812224207E+02  0.31262280538E+02  0.00000000000E+00 0.  1.
        -13    1    3    3    0    0  0.14636634587E+02 -0.32943798147E+02  0.67062902093E+02  0.76137755059E+02  0.00000000000E+00 0. -1.
         22    1    1    2    0    0 -0.97209944183E+01  0.40255949888E+01 -0.75050787952E+01  0.12923983721E+02  0.00000000000E+00 0.  1.
<mgrwt>
<rscale>  0 0.53278781E+02</rscale>
<asrwt>0</asrwt>
<pdfrwt beam="1">  1        2 0.13005355E-01 0.91491141E+02</pdfrwt>
<pdfrwt beam="2">  1       -2 0.55060323E-02 0.91491141E+02</pdfrwt>
<totfact> 0.66988546E+04</totfact>
</mgrwt>
</event>
<event>
 6    1  0.3062576E-002  0.9225230E+02  0.7546771E-02  0.1419742E+00
         -2   -1    0    0    0  501 -0.00000000000E+00  0.00000000000E+00  0.46540634283E+02  0.46540634283E+02  0.00000000000E+00 0.  1.
          2   -1    0    0  501    0  0.00000000000E+00 -0.00000000000E+00 -0.21463913704E+03  0.21463913704E+03  0.00000000000E+00 0. -1.
         23    2    1    2    0    0 -0.11106681781E+01 -0.11666601667E+02 -0.20374451681E+03  0.22365669180E+03  0.91504887723E+02 0.  0.
         13    1    3    3    0    0 -0.19737014895E+02 -0.19186723547E+02 -0.20158294080E+03  0.20345358719E+03  0.00000000000E+00 0. -1.
        -13    1    3    3    0    0  0.18626346717E+02  0.75201218808E+01 -0.21615760118E+01  0.20203104612E+02  0.00000000000E+00 0.  1.
         22    1    1    2    0    0  0.11106681781E+01  0.11666601667E+02  0.35646014060E+02  0.37523079519E+02  0.00000000000E+00 0.  1.
<mgrwt>
<rscale>  0 0.55075545E+02</rscale>
<asrwt>0</asrwt>
<pdfrwt beam="1">  1        2 0.33021405E-01 0.92252304E+02</pdfrwt>
<pdfrwt beam="2">  1       -2 0.71600978E-02 0.92252304E+02</pdfrwt>
<totfact> 0.15982602E+04</totfact>
</mgrwt>
</event>
<event>
 6    1  0.3062576E-002  0.1000506E+03  0.7546771E-02  0.1320704E+00
         -2   -1    0    0    0  501 -0.00000000000E+00  0.00000000000E+00  0.49704034673E+02  0.49704034673E+02  0.00000000000E+00 0.  1.
          2   -1    0    0  501    0  0.00000000000E+00 -0.00000000000E+00 -0.11083788591E+03  0.11083788591E+03  0.00000000000E+00 0. -1.
         23    2    1    2    0    0  0.23353467880E+02 -0.41274121903E+02 -0.49911963738E+02  0.11180929948E+03  0.88097546640E+02 0.  0.
         11    1    3    3    0    0  0.10422780279E+02 -0.64942350695E+02 -0.14597234437E+02  0.67373752425E+02  0.00000000000E+00 0. -1.
        -11    1    3    3    0    0  0.12930687601E+02  0.23668228793E+02 -0.35314729302E+02  0.44435547050E+02  0.00000000000E+00 0.  1.
         22    1    1    2    0    0 -0.23353467880E+02  0.41274121903E+02 -0.11221887496E+02  0.48732621106E+02  0.00000000000E+00 0.  1.
<mgrwt>
<rscale>  0 0.83016005E+02</rscale>
<asrwt>0</asrwt>
<pdfrwt beam="1">  1        2 0.17051982E-01 0.10005056E+03</pdfrwt>
<pdfrwt beam="2">  1       -2 0.76467746E-02 0.10005056E+03</pdfrwt>
<totfact> 0.30154552E+04</totfact>
</mgrwt>
</event>
<event>
 6    1  0.3062576E-002  0.8346484E+02  0.7546771E-02  0.1405607E+00
          2   -1    0    0  501    0  0.00000000000E+00  0.00000000000E+00  0.18313770499E+03  0.18313770499E+03  0.00000000000E+00 0. -1.
         -2   -1    0    0    0  501 -0.00000000000E+00 -0.00000000000E+00 -0.16272817008E+02  0.16272817008E+02  0.00000000000E+00 0.  1.
         23    2    1    2    0    0  0.19711863780E+02  0.21539030395E+00  0.15594184928E+03  0.17687351374E+03  0.81103486602E+02 0.  0.
         13    1    3    3    0    0 -0.29610221162E+02  0.40627971580E+01  0.87205114969E+02  0.92184616909E+02  0.00000000000E+00 0. -1.
        -13    1    3    3    0    0  0.49322084942E+02 -0.38474068540E+01  0.68736734315E+02  0.84688896833E+02  0.00000000000E+00 0.  1.
         22    1    1    2    0    0 -0.19711863780E+02 -0.21539030395E+00  0.10923038696E+02  0.22537008254E+02  0.00000000000E+00 0.  1.
<mgrwt>
<rscale>  0 0.58185675E+02</rscale>
<asrwt>0</asrwt>
<pdfrwt beam="1">  1        2 0.28175030E-01 0.83464840E+02</pdfrwt>
<pdfrwt beam="2">  1       -2 0.25035104E-02 0.83464840E+02</pdfrwt>
<totfact> 0.88040480E+04</totfact>
</mgrwt>
</event>
<event>
 6    1  0.3062576E-002  0.9597235E+02  0.7546771E-02  0.1361067E+00
         -2   -1    0    0    0  501 -0.00000000000E+00  0.00000000000E+00  0.86852358593E+02  0.86852358593E+02  0.00000000000E+00 0. -1.
          2   -1    0    0  501    0  0.00000000000E+00 -0.00000000000E+00 -0.44867256351E+02  0.44867256351E+02  0.00000000000E+00 0.  1.
         23    2    1    2    0    0 -0.24734134675E+02  0.10110571677E+02  0.22295624252E+02  0.98528100648E+02  0.92177495511E+02 0.  0.
         11    1    3    3    0    0  0.10919583617E+02 -0.35289707563E+02  0.16670897171E+02  0.40528009804E+02  0.00000000000E+00 0.  1.
        -11    1    3    3    0    0 -0.35653718291E+02  0.45400279240E+02  0.56247270812E+01  0.58000090843E+02  0.00000000000E+00 0. -1.
         22    1    1    2    0    0  0.24734134675E+02 -0.10110571677E+02  0.19689477991E+02  0.33191514296E+02  0.00000000000E+00 0. -1.
<mgrwt>
<rscale>  0 0.69714313E+02</rscale>
<asrwt>0</asrwt>
<pdfrwt beam="1">  1        2 0.69026548E-02 0.95972349E+02</pdfrwt>
<pdfrwt beam="2">  1       -2 0.13361901E-01 0.95972349E+02</pdfrwt>
<totfact> 0.37252609E+04</totfact>
</mgrwt>
</event>
<event>
 6    1  0.3062576E-002  0.9255113E+02  0.7546771E-02  0.1407793E+00
          2   -1    0    0  501    0  0.00000000000E+00  0.00000000000E+00  0.13194181118E+03  0.13194181118E+03  0.00000000000E+00 0. -1.
         -2   -1    0    0    0  501 -0.00000000000E+00 -0.00000000000E+00 -0.22004284837E+02  0.22004284837E+02  0.00000000000E+00 0.  1.
         23    2    1    2    0    0 -0.13919415126E+02  0.12014311848E+01  0.10256317389E+03  0.13814816487E+03  0.91490531013E+02 0.  0.
         11    1    3    3    0    0  0.19695555513E+02  0.60675030521E+01  0.10212115570E+03  0.10417994021E+03  0.00000000000E+00 0. -1.
        -11    1    3    3    0    0 -0.33614970639E+02 -0.48660718674E+01  0.44201818478E+00  0.33968224660E+02  0.00000000000E+00 0.  1.
         22    1    1    2    0    0  0.13919415126E+02 -0.12014311848E+01  0.73743524537E+01  0.15797931145E+02  0.00000000000E+00 0. -1.
<mgrwt>
<rscale>  0 0.57689193E+02</rscale>
<asrwt>0</asrwt>
<pdfrwt beam="1">  1        2 0.20298740E-01 0.92551125E+02</pdfrwt>
<pdfrwt beam="2">  1       -2 0.33852747E-02 0.92551125E+02</pdfrwt>
<totfact> 0.82610109E+04</totfact>
</mgrwt>
</event>
<event>
 6    1  0.3062576E-002  0.9927647E+02  0.7546771E-02  0.1330868E+00
          2   -1    0    0  501    0  0.00000000000E+00  0.00000000000E+00  0.62607330483E+03  0.62607330483E+03  0.00000000000E+00 0. -1.
         -2   -1    0    0    0  501 -0.00000000000E+00 -0.00000000000E+00 -0.15905727083E+03  0.15905727083E+03  0.00000000000E+00 0.  1.
         23    2    1    2    0    0  0.75219405874E+01  0.39841637297E+02  0.61947129446E+03  0.62737588606E+03  0.90619435492E+02 0.  0.
         13    1    3    3    0    0 -0.83397286558E+01 -0.11818421599E+02  0.16316032747E+02  0.21804565755E+02  0.00000000000E+00 0.  1.
        -13    1    3    3    0    0  0.15861669243E+02  0.51660058897E+02  0.60315526171E+03  0.60557132030E+03  0.00000000000E+00 0. -1.
         22    1    1    2    0    0 -0.75219405874E+01 -0.39841637297E+02 -0.15245526045E+03  0.15775468961E+03  0.00000000000E+00 0.  1.
<mgrwt>
<rscale>  0 0.79363416E+02</rscale>
<asrwt>0</asrwt>
<pdfrwt beam="1">  1        2 0.96318969E-01 0.99276471E+02</pdfrwt>
<pdfrwt beam="2">  1       -2 0.24470350E-01 0.99276471E+02</pdfrwt>
<totfact> 0.71163934E+02</totfact>
</mgrwt>
</event>
<event>
 6    1  0.3062576E-002  0.9365328E+02  0.7546771E-02  0.1393292E+00
         -3   -1    0    0    0  501 -0.00000000000E+00  0.00000000000E+00  0.13491721199E+03  0.13491721199E+03  0.00000000000E+00 0.  1.
          3   -1    0    0  501    0  0.00000000000E+00 -0.00000000000E+00 -0.23242815734E+02  0.23242815734E+02  0.00000000000E+00 0. -1.
         23    2    1    2    0    0  0.13101026128E+02  0.10772602726E+02  0.84572184915E+02  0.12618791934E+03  0.92104563787E+02 0.  0.
         11    1    3    3    0    0 -0.61598141376E+01  0.22804131506E+02 -0.12339984028E+02  0.26650458341E+02  0.00000000000E+00 0. -1.
        -11    1    3    3    0    0  0.19260840265E+02 -0.12031528780E+02  0.96912168943E+02  0.99537460997E+02  0.00000000000E+00 0.  1.
         22    1    1    2    0    0 -0.13101026128E+02 -0.10772602726E+02  0.27102211338E+02  0.31972108384E+02  0.00000000000E+00 0.  1.
<mgrwt>
<rscale>  0 0.61095194E+02</rscale>
<asrwt>0</asrwt>
<pdfrwt beam="1">  1        3 0.35758179E-02 0.93653278E+02</pdfrwt>
<pdfrwt beam="2">  1       -3 0.20756494E-01 0.93653278E+02</pdfrwt>
<totfact> 0.16785520E+04</totfact>
</mgrwt>
</event>
<event>
 6    1  0.3062576E-002  0.9249178E+02  0.7546771E-02  0.1405399E+00
         -1   -1    0    0    0  501 -0.00000000000E+00  0.00000000000E+00  0.11057169310E+03  0.11057169310E+03  0.00000000000E+00 0.  1.
          1   -1    0    0  501    0  0.00000000000E+00 -0.00000000000E+00 -0.25905654788E+02  0.25905654788E+02  0.00000000000E+00 0. -1.
         23    2    1    2    0    0 -0.14512179825E+02 -0.79132188965E+00  0.72370201634E+02  0.11744009091E+03  0.91342757321E+02 0.  0.
         11    1    3    3    0    0 -0.37582487354E+02 -0.29706878471E+02  0.63244567826E+02  0.79339884949E+02  0.00000000000E+00 0.  1.
        -11    1    3    3    0    0  0.23070307530E+02  0.28915556582E+02  0.91256338085E+01  0.38100205962E+02  0.00000000000E+00 0. -1.
         22    1    1    2    0    0  0.14512179825E+02  0.79132188965E+00  0.12295836677E+02  0.19037256976E+02  0.00000000000E+00 0.  1.
<mgrwt>
<rscale>  0 0.58233337E+02</rscale>
<asrwt>0</asrwt>
<pdfrwt beam="1">  1        1 0.39854854E-02 0.92491777E+02</pdfrwt>
<pdfrwt beam="2">  1       -1 0.17011029E-01 0.92491777E+02</pdfrwt>
<totfact> 0.51617215E+04</totfact>
</mgrwt>
</event>
<event>
 6    1  0.3062576E-002  0.9180781E+02  0.7546771E-02  0.1420218E+00
          2   -1    0    0  501    0  0.00000000000E+00  0.00000000000E+00  0.22363498358E+04  0.22363498358E+04  0.00000000000E+00 0. -1.
         -2   -1    0    0    0  501 -0.00000000000E+00 -0.00000000000E+00 -0.26646950683E+01  0.26646950683E+01  0.00000000000E+00 0.  1.
         23    2    1    2    0    0 -0.60959384268E+01  0.10107654594E+02  0.22150751615E+04  0.22169769159E+04  0.91045864084E+02 0.  0.
         13    1    3    3    0    0  0.55165401969E+01  0.44973301216E+02  0.70493165824E+03  0.70638634813E+03  0.00000000000E+00 0. -1.
        -13    1    3    3    0    0 -0.11612478624E+02 -0.34865646623E+02  0.15101435033E+04  0.15105905678E+04  0.00000000000E+00 0.  1.
         22    1    1    2    0    0  0.60959384268E+01 -0.10107654594E+02  0.18609979224E+02  0.22037614966E+02  0.00000000000E+00 0. -1.
<mgrwt>
<rscale>  0 0.54974770E+02</rscale>
<asrwt>0</asrwt>
<pdfrwt beam="1">  1        2 0.34405232E+00 0.91807813E+02</pdfrwt>
<pdfrwt beam="2">  1       -2 0.40995488E-03 0.91807813E+02</pdfrwt>
<totfact> 0.40381725E+04</totfact>
</mgrwt>
</event>
<event>
 6    1  0.3062576E-002  0.9442762E+02  0.7546771E-02  0.1383456E+00
          2   -1    0    0  501    0  0.00000000000E+00  0.00000000000E+00  0.98814712726E+02  0.98814712726E+02  0.00000000000E+00 0. -1.
         -2   -1    0    0    0  501 -0.00000000000E+00 -0.00000000000E+00 -0.34199809041E+02  0.34199809041E+02  0.00000000000E+00 0.  1.
         23    2    1    2    0    0  0.14772137893E+02  0.12558047559E+02  0.42346350741E+02  0.10348810873E+03  0.92415662157E+02 0.  0.
         11    1    3    3    0    0 -0.80910006572E+01  0.16247845714E+02  0.67146219476E+02  0.69556247541E+02  0.00000000000E+00 0. -1.
        -11    1    3    3    0    0  0.22863138550E+02 -0.36897981549E+01 -0.24799868735E+02  0.33931861194E+02  0.00000000000E+00 0.  1.
         22    1    1    2    0    0 -0.14772137893E+02 -0.12558047559E+02  0.22268552944E+02  0.29526413033E+02  0.00000000000E+00 0. -1.
<mgrwt>
<rscale>  0 0.63564011E+02</rscale>
<asrwt>0</asrwt>
<pdfrwt beam="1">  1        2 0.15202263E-01 0.94427619E+02</pdfrwt>
<pdfrwt beam="2">  1       -2 0.52615091E-02 0.94427619E+02</pdfrwt>
<totfact> 0.60024430E+04</totfact>
</mgrwt>
</event>
<event>
 6    1  0.3062576E-002  0.9336082E+02  0.7546771E-02  0.1409318E+00
          2   -1    0    0  501    0  0.00000000000E+00  0.00000000000E+00  0.14394017055E+03  0.14394017055E+03  0.00000000000E+00 0.  1.
         -2   -1    0    0    0  501 -0.00000000000E+00 -0.00000000000E+00 -0.20314263639E+02  0.20314263639E+02  0.00000000000E+00 0. -1.
         23    2    1    2    0    0 -0.12644761697E+02  0.40910786387E+01  0.11609998713E+03  0.14898137322E+03  0.92410040755E+02 0.  0.
         11    1    3    3    0    0  0.27682152273E+01  0.35831734858E+02  0.10651967990E+03  0.11241894166E+03  0.00000000000E+00 0.  1.
        -11    1    3    3    0    0 -0.15412976924E+02 -0.31740656220E+02  0.95803072328E+01  0.36562431560E+02  0.00000000000E+00 0. -1.
         22    1    1    2    0    0  0.12644761697E+02 -0.40910786387E+01  0.75259197815E+01  0.15273060969E+02  0.00000000000E+00 0. -1.
<mgrwt>
<rscale>  0 0.57346327E+02</rscale>
<asrwt>0</asrwt>
<pdfrwt beam="1">  1        2 0.22144641E-01 0.93360819E+02</pdfrwt>
<pdfrwt beam="2">  1       -2 0.31252714E-02 0.93360819E+02</pdfrwt>
<totfact> 0.84387380E+04</totfact>
</mgrwt>
</event>
<event>
 6    1  0.3062576E-002  0.9762348E+02  0.7546771E-02  0.1347995E+00
         -2   -1    0    0    0  501 -0.00000000000E+00  0.00000000000E+00  0.69822248298E+02  0.69822248298E+02  0.00000000000E+00 0.  1.
          2   -1    0    0  501    0  0.00000000000E+00 -0.00000000000E+00 -0.72992878255E+02  0.72992878255E+02  0.00000000000E+00 0. -1.
         23    2    1    2    0    0 -0.28431147610E+02  0.13982250061E+02 -0.29106322698E+02  0.10187011918E+03  0.92339101623E+02 0.  0.
         13    1    3    3    0    0 -0.59287963895E+02  0.13956819089E+02 -0.22294986434E+01  0.60949373468E+02  0.00000000000E+00 0.  1.
        -13    1    3    3    0    0  0.30856816285E+02  0.25430972077E-01 -0.26876824055E+02  0.40920745708E+02  0.00000000000E+00 0. -1.
         22    1    1    2    0    0  0.28431147610E+02 -0.13982250061E+02  0.25935692742E+02  0.40945007378E+02  0.00000000000E+00 0.  1.
<mgrwt>
<rscale>  0 0.73684037E+02</rscale>
<asrwt>0</asrwt>
<pdfrwt beam="1">  1        2 0.11229674E-01 0.97623476E+02</pdfrwt>
<pdfrwt beam="2">  1       -2 0.10741884E-01 0.97623476E+02</pdfrwt>
<totfact> 0.28984489E+04</totfact>
</mgrwt>
</event>
<event>
 6    1  0.3062576E-002  0.9238864E+02  0.7546771E-02  0.1426994E+00
         -2   -1    0    0    0  501 -0.00000000000E+00  0.00000000000E+00  0.21093865604E+02  0.21093865604E+02  0.00000000000E+00 0.  1.
          2   -1    0    0  501    0  0.00000000000E+00 -0.00000000000E+00 -0.19362466544E+03  0.19362466544E+03  0.00000000000E+00 0. -1.
         23    2    1    2    0    0 -0.39729789680E+01  0.96563801466E+01 -0.17969570351E+03  0.20205495792E+03  0.91796677070E+02 0.  0.
         11    1    3    3    0    0  0.25907831044E+01 -0.26410898289E+02 -0.15636493963E+03  0.15860088919E+03  0.00000000000E+00 0. -1.
        -11    1    3    3    0    0 -0.65637620724E+01  0.36067278436E+02 -0.23330763882E+02  0.43454068735E+02  0.00000000000E+00 0.  1.
         22    1    1    2    0    0  0.39729789680E+01 -0.96563801466E+01  0.71649036785E+01  0.12663573119E+02  0.00000000000E+00 0.  1.
<mgrwt>
<rscale>  0 0.53568229E+02</rscale>
<asrwt>0</asrwt>
<pdfrwt beam="1">  1        2 0.29788410E-01 0.92388637E+02</pdfrwt>
<pdfrwt beam="2">  1       -2 0.32452101E-02 0.92388637E+02</pdfrwt>
<totfact> 0.57783046E+04</totfact>
</mgrwt>
</event>
<event>
 6    1  0.3062576E-002  0.9322434E+02  0.7546771E-02  0.1412449E+00
          2   -1    0    0  501    0  0.00000000000E+00  0.00000000000E+00  0.35672744431E+03  0.35672744431E+03  0.00000000000E+00 0. -1.
         -2   -1    0    0    0  501 -0.00000000000E+00 -0.00000000000E+00 -0.79830058173E+01  0.79830058173E+01  0.00000000000E+00 0.  1.
         23    2    1    2    0    0 -0.12712593901E+02 -0.60608822797E-01  0.31948913558E+03  0.33281238647E+03  0.92353468325E+02 0.  0.
         11    1    3    3    0    0 -0.18082514057E+01  0.73590132227E+01  0.31953324974E+03  0.31962309450E+03  0.00000000000E+00 0. -1.
        -11    1    3    3    0    0 -0.10904342495E+02 -0.74196220455E+01 -0.44114153557E-01  0.13189291967E+02  0.00000000000E+00 0.  1.
         22    1    1    2    0    0  0.12712593901E+02  0.60608822797E-01  0.29255302913E+02  0.31898063666E+02  0.00000000000E+00 0. -1.
<mgrwt>
<rscale>  0 0.56650892E+02</rscale>
<asrwt>0</asrwt>
<pdfrwt beam="1">  1        2 0.54881133E-01 0.93224336E+02</pdfrwt>
<pdfrwt beam="2">  1       -2 0.12281550E-02 0.93224336E+02</pdfrwt>
<totfact> 0.12299224E+05</totfact>
</mgrwt>
</event>
<event>
 6    1  0.3062576E-002  0.9050489E+02  0.7546771E-02  0.1407916E+00
          2   -1    0    0  501    0  0.00000000000E+00  0.00000000000E+00  0.40075983511E+03  0.40075983511E+03  0.00000000000E+00 0. -1.
         -2   -1    0    0    0  501 -0.00000000000E+00 -0.00000000000E+00 -0.85941058962E+01  0.85941058962E+01  0.00000000000E+00 0.  1.
         23    2    1    2    0    0  0.32325051699E+01 -0.14557148662E+02  0.37835526947E+03  0.38902936314E+03  0.89267999795E+02 0.  0.
         13    1    3    3    0    0  0.18142324542E+02  0.17522922094E+02  0.31853371221E+03  0.31953078499E+03  0.00000000000E+00 0. -1.
        -13    1    3    3    0    0 -0.14909819372E+02 -0.32080070756E+02  0.59821557254E+02  0.69498578156E+02  0.00000000000E+00 0.  1.
         22    1    1    2    0    0 -0.32325051699E+01  0.14557148662E+02  0.13810459743E+02  0.20324577860E+02  0.00000000000E+00 0.  1.
<mgrwt>
<rscale>  0 0.57661514E+02</rscale>
<asrwt>0</asrwt>
<pdfrwt beam="1">  1        2 0.61655345E-01 0.90504892E+02</pdfrwt>
<pdfrwt beam="2">  1       -2 0.13221704E-02 0.90504892E+02</pdfrwt>
<totfact> 0.97570693E+04</totfact>
</mgrwt>
</event>
<event>
 6    1  0.3062576E-002  0.9510297E+02  0.7546771E-02  0.1411109E+00
          2   -1    0    0  501    0  0.00000000000E+00  0.00000000000E+00  0.54988475528E+02  0.54988475528E+02  0.00000000000E+00 0. -1.
         -2   -1    0    0    0  501 -0.00000000000E+00 -0.00000000000E+00 -0.72976832080E+02  0.72976832080E+02  0.00000000000E+00 0.  1.
         23    2    1    2    0    0  0.55315221285E+01 -0.10903809808E+02  0.11736184321E+02  0.95824381431E+02  0.94313748991E+02 0.  0.
         11    1    3    3    0    0 -0.17059892346E+02  0.23190944802E+02  0.37657427161E+02  0.47401916291E+02  0.00000000000E+00 0. -1.
        -11    1    3    3    0    0  0.22591414475E+02 -0.34094754610E+02 -0.25921242840E+02  0.48422465140E+02  0.00000000000E+00 0.  1.
         22    1    1    2    0    0 -0.55315221285E+01  0.10903809808E+02 -0.29724540873E+02  0.32140926177E+02  0.00000000000E+00 0.  1.
<mgrwt>
<rscale>  0 0.56947197E+02</rscale>
<asrwt>0</asrwt>
<pdfrwt beam="1">  1        2 0.84597655E-02 0.95102966E+02</pdfrwt>
<pdfrwt beam="2">  1       -2 0.11227205E-01 0.95102966E+02</pdfrwt>
<totfact> 0.38049562E+04</totfact>
</mgrwt>
</event>
<event>
 6    1  0.3062576E-002  0.9352067E+02  0.7546771E-02  0.1401886E+00
         -2   -1    0    0    0  501 -0.00000000000E+00  0.00000000000E+00  0.27008842794E+01  0.27008842794E+01  0.00000000000E+00 0.  1.
          2   -1    0    0  501    0  0.00000000000E+00 -0.00000000000E+00 -0.12878916499E+04  0.12878916499E+04  0.00000000000E+00 0. -1.
         23    2    1    2    0    0  0.10586430165E+02  0.10426924330E+02 -0.12261249286E+04  0.12296863247E+04  0.92332677166E+02 0.  0.
         13    1    3    3    0    0  0.91304387569E+01  0.36559617434E+02 -0.11103720892E+04  0.11110113173E+04  0.00000000000E+00 0. -1.
        -13    1    3    3    0    0  0.14559914080E+01 -0.26132693103E+02 -0.11575283938E+03  0.11867500741E+03  0.00000000000E+00 0.  1.
         22    1    1    2    0    0 -0.10586430165E+02 -0.10426924330E+02 -0.59065836975E+02  0.60906209472E+02  0.00000000000E+00 0.  1.
<mgrwt>
<rscale>  0 0.59044432E+02</rscale>
<asrwt>0</asrwt>
<pdfrwt beam="1">  1        2 0.19813722E+00 0.93520674E+02</pdfrwt>
<pdfrwt beam="2">  1       -2 0.41552058E-03 0.93520674E+02</pdfrwt>
<totfact> 0.12044890E+05</totfact>
</mgrwt>
</event>
<event>
 6    1  0.3062576E-002  0.1173305E+03  0.7546771E-02  0.1339540E+00
          2   -1    0    0  501    0  0.00000000000E+00  0.00000000000E+00  0.21689507419E+03  0.21689507419E+03  0.00000000000E+00 0.  1.
         -2   -1    0    0    0  501 -0.00000000000E+00 -0.00000000000E+00 -0.60218340922E+02  0.60218340922E+02  0.00000000000E+00 0. -1.
         23    2    1    2    0    0 -0.14333641019E+02  0.15499491685E+02  0.19831779737E+03  0.23042652479E+03  0.11541554084E+03 0.  0.
         13    1    3    3    0    0  0.26187946949E+02  0.52734695025E+02  0.74716923294E+02  0.95128204289E+02  0.00000000000E+00 0. -1.
        -13    1    3    3    0    0 -0.40521587968E+02 -0.37235203339E+02  0.12360087408E+03  0.13529832050E+03  0.00000000000E+00 0.  1.
         22    1    1    2    0    0  0.14333641019E+02 -0.15499491685E+02 -0.41641064105E+02  0.46686890314E+02  0.00000000000E+00 0. -1.
<mgrwt>
<rscale>  0 0.76416450E+02</rscale>
<asrwt>0</asrwt>
<pdfrwt beam="1">  1        2 0.33368473E-01 0.11733045E+03</pdfrwt>
<pdfrwt beam="2">  1       -2 0.92643603E-02 0.11733045E+03</pdfrwt>
<totfact> 0.10877129E+04</totfact>
</mgrwt>
</event>
<event>
 6    1  0.3062576E-002  0.9114493E+02  0.7546771E-02  0.1420066E+00
          1   -1    0    0  501    0  0.00000000000E+00  0.00000000000E+00  0.78250740395E+03  0.78250740395E+03  0.00000000000E+00 0. -1.
         -1   -1    0    0    0  501 -0.00000000000E+00 -0.00000000000E+00 -0.34400694528E+01  0.34400694528E+01  0.00000000000E+00 0.  1.
         23    2    1    2    0    0  0.11619064400E+01 -0.12035331650E+02  0.71048481784E+03  0.71630724921E+03  0.90339358288E+02 0.  0.
         13    1    3    3    0    0  0.36974554230E+01 -0.44125386490E+02  0.20161332758E+03  0.20641863958E+03  0.00000000000E+00 0.  1.
        -13    1    3    3    0    0 -0.25355489831E+01  0.32090054839E+02  0.50887149027E+03  0.50988860963E+03  0.00000000000E+00 0. -1.
         22    1    1    2    0    0 -0.11619064400E+01  0.12035331650E+02  0.68582516652E+02  0.69640224187E+02  0.00000000000E+00 0.  1.
<mgrwt>
<rscale>  0 0.55006946E+02</rscale>
<asrwt>0</asrwt>
<pdfrwt beam="1">  1        1 0.12038561E+00 0.91144933E+02</pdfrwt>
<pdfrwt beam="2">  1       -1 0.52924208E-03 0.91144933E+02</pdfrwt>
<totfact> 0.98592183E+04</totfact>
</mgrwt>
</event>
<event>
 6    1  0.3062576E-002  0.8351930E+02  0.7546771E-02  0.1430483E+00
         -4   -1    0    0    0  501 -0.00000000000E+00  0.00000000000E+00  0.61509268179E+01  0.61509268179E+01  0.00000000000E+00 0.  1.
          4   -1    0    0  501    0  0.00000000000E+00 -0.00000000000E+00 -0.49470134592E+03  0.49470134592E+03  0.00000000000E+00 0. -1.
         23    2    1    2    0    0  0.13401821590E+02 -0.27147658202E+00 -0.47302109165E+03  0.48033782581E+03  0.82436589223E+02 0.  0.
         13    1    3    3    0    0  0.45202951808E+02 -0.14834593063E+02 -0.23574211963E+03  0.24049473793E+03  0.00000000000E+00 0.  1.
        -13    1    3    3    0    0 -0.31801130218E+02  0.14563116481E+02 -0.23727897202E+03  0.23984308788E+03  0.00000000000E+00 0. -1.
         22    1    1    2    0    0 -0.13401821590E+02  0.27147658202E+00 -0.15529327460E+02  0.20514446929E+02  0.00000000000E+00 0.  1.
<mgrwt>
<rscale>  0 0.52863190E+02</rscale>
<asrwt>0</asrwt>
<pdfrwt beam="1">  1        4 0.76107896E-01 0.83519302E+02</pdfrwt>
<pdfrwt beam="2">  1       -4 0.94629648E-03 0.83519302E+02</pdfrwt>
<totfact> 0.72445816E+03</totfact>
</mgrwt>
</event>
<event>
 6    1  0.3062576E-002  0.9336169E+02  0.7546771E-02  0.1417309E+00
         -4   -1    0    0    0  501 -0.00000000000E+00  0.00000000000E+00  0.21917279481E+03  0.21917279481E+03  0.00000000000E+00 0.  1.
          4   -1    0    0  501    0  0.00000000000E+00 -0.00000000000E+00 -0.14257011490E+02  0.14257011490E+02  0.00000000000E+00 0. -1.
         23    2    1    2    0    0 -0.17942442084E+01  0.11600666172E+02  0.14558638047E+03  0.17295028240E+03  0.92620792688E+02 0.  0.
         13    1    3    3    0    0  0.22612145890E+02 -0.32204221590E+02  0.40261517113E+02  0.56297520285E+02  0.00000000000E+00 0. -1.
        -13    1    3    3    0    0 -0.24406390098E+02  0.43804887762E+02  0.10532486335E+03  0.11665276212E+03  0.00000000000E+00 0.  1.
         22    1    1    2    0    0  0.17942442084E+01 -0.11600666172E+02  0.59329402851E+02  0.60479523894E+02  0.00000000000E+00 0. -1.
<mgrwt>
<rscale>  0 0.55594347E+02</rscale>
<asrwt>0</asrwt>
<pdfrwt beam="1">  1        4 0.21933865E-02 0.93361695E+02</pdfrwt>
<pdfrwt beam="2">  1       -4 0.33718889E-01 0.93361695E+02</pdfrwt>
<totfact> 0.10963368E+04</totfact>
</mgrwt>
</event>
<event>
 6    1  0.3062576E-002  0.9905718E+02  0.7546771E-02  0.1332118E+00
         -2   -1    0    0    0  501 -0.00000000000E+00  0.00000000000E+00  0.74624035861E+01  0.74624035861E+01  0.00000000000E+00 0.  1.
          2   -1    0    0  501    0  0.00000000000E+00 -0.00000000000E+00 -0.97310610544E+03  0.97310610544E+03  0.00000000000E+00 0. -1.
         23    2    1    2    0    0  0.34104712258E+01  0.39783253532E+02 -0.88555580953E+03  0.89107879413E+03  0.90653113454E+02 0.  0.
         13    1    3    3    0    0  0.14823536152E+02  0.21076418123E+02 -0.60836337253E+02  0.66068241654E+02  0.00000000000E+00 0.  1.
        -13    1    3    3    0    0 -0.11413064926E+02  0.18706835409E+02 -0.82471947228E+03  0.82501055247E+03  0.00000000000E+00 0. -1.
         22    1    1    2    0    0 -0.34104712258E+01 -0.39783253532E+02 -0.80087892329E+02  0.89489714902E+02  0.00000000000E+00 0. -1.
<mgrwt>
<rscale>  0 0.78929082E+02</rscale>
<asrwt>0</asrwt>
<pdfrwt beam="1">  1        2 0.14970868E+00 0.99057183E+02</pdfrwt>
<pdfrwt beam="2">  1       -2 0.11480617E-02 0.99057183E+02</pdfrwt>
<totfact> 0.43390862E+04</totfact>
</mgrwt>
</event>
<event>
 6    1  0.3062576E-002  0.9405582E+02  0.7546771E-02  0.1374488E+00
         -2   -1    0    0    0  501 -0.00000000000E+00  0.00000000000E+00  0.98338556058E+01  0.98338556058E+01  0.00000000000E+00 0.  1.
          2   -1    0    0  501    0  0.00000000000E+00 -0.00000000000E+00 -0.36375416396E+03  0.36375416396E+03  0.00000000000E+00 0. -1.
         23    2    1    2    0    0 -0.75791220609E+01 -0.21413285452E+02 -0.31250586228E+03  0.32635319948E+03  0.91271709557E+02 0.  0.
         13    1    3    3    0    0 -0.13478489566E+01 -0.34366352890E+02 -0.30982906942E+03  0.31173212084E+03  0.00000000000E+00 0. -1.
        -13    1    3    3    0    0 -0.62312731043E+01  0.12953067438E+02 -0.26767928648E+01  0.14621078640E+02  0.00000000000E+00 0.  1.
         22    1    1    2    0    0  0.75791220609E+01  0.21413285452E+02 -0.41414446073E+02  0.47234820087E+02  0.00000000000E+00 0.  1.
<mgrwt>
<rscale>  0 0.65935227E+02</rscale>
<asrwt>0</asrwt>
<pdfrwt beam="1">  1        2 0.55962186E-01 0.94055818E+02</pdfrwt>
<pdfrwt beam="2">  1       -2 0.15129007E-02 0.94055818E+02</pdfrwt>
<totfact> 0.89643949E+04</totfact>
</mgrwt>
</event>
<event>
 6    1  0.3062576E-002  0.9248169E+02  0.7546771E-02  0.1420290E+00
          2   -1    0    0  501    0  0.00000000000E+00  0.00000000000E+00  0.80790632623E+02  0.80790632623E+02  0.00000000000E+00 0. -1.
         -2   -1    0    0    0  501 -0.00000000000E+00 -0.00000000000E+00 -0.40179606077E+02  0.40179606077E+02  0.00000000000E+00 0.  1.
         23    2    1    2    0    0 -0.14593065457E+00 -0.11533762125E+02  0.50856284550E+02  0.10554252740E+03  0.91759546895E+02 0.  0.
         13    1    3    3    0    0 -0.34062362759E+01 -0.30642482979E+02  0.71110600166E+02  0.77506655616E+02  0.00000000000E+00 0. -1.
        -13    1    3    3    0    0  0.32603056213E+01  0.19108720854E+02 -0.20254315616E+02  0.28035871781E+02  0.00000000000E+00 0.  1.
         22    1    1    2    0    0  0.14593065457E+00  0.11533762125E+02 -0.10245258003E+02  0.15427711304E+02  0.00000000000E+00 0. -1.
<mgrwt>
<rscale>  0 0.54959562E+02</rscale>
<asrwt>0</asrwt>
<pdfrwt beam="1">  1        2 0.12429328E-01 0.92481692E+02</pdfrwt>
<pdfrwt beam="2">  1       -2 0.61814779E-02 0.92481692E+02</pdfrwt>
<totfact> 0.59509053E+04</totfact>
</mgrwt>
</event>
<event>
 6    1  0.3062576E-002  0.9201580E+02  0.7546771E-02  0.1424368E+00
          3   -1    0    0  501    0  0.00000000000E+00  0.00000000000E+00  0.18349031894E+02  0.18349031894E+02  0.00000000000E+00 0. -1.
         -3   -1    0    0    0  501 -0.00000000000E+00 -0.00000000000E+00 -0.17328687251E+03  0.17328687251E+03  0.00000000000E+00 0.  1.
         23    2    1    2    0    0 -0.82807537293E+01  0.72425494220E+01 -0.15542861103E+03  0.18062380832E+03  0.91355796762E+02 0.  0.
         13    1    3    3    0    0 -0.40028428025E+02 -0.66010639065E+01 -0.13374218394E+03  0.13975986856E+03  0.00000000000E+00 0.  1.
        -13    1    3    3    0    0  0.31747674296E+02  0.13843613329E+02 -0.21686427093E+02  0.40863939767E+02  0.00000000000E+00 0. -1.
         22    1    1    2    0    0  0.82807537293E+01 -0.72425494220E+01  0.49077041531E+00  0.11012096079E+02  0.00000000000E+00 0. -1.
<mgrwt>
<rscale>  0 0.54107362E+02</rscale>
<asrwt>0</asrwt>
<pdfrwt beam="1">  1        3 0.28229279E-02 0.92015798E+02</pdfrwt>
<pdfrwt beam="2">  1       -3 0.26659520E-01 0.92015798E+02</pdfrwt>
<totfact> 0.15398339E+04</totfact>
</mgrwt>
</event>
<event>
 6    1  0.3062576E-002  0.9215255E+02  0.7546771E-02  0.1419640E+00
         -2   -1    0    0    0  501 -0.00000000000E+00  0.00000000000E+00  0.11113012013E+02  0.11113012013E+02  0.00000000000E+00 0.  1.
          2   -1    0    0  501    0  0.00000000000E+00 -0.00000000000E+00 -0.11903141480E+04  0.11903141480E+04  0.00000000000E+00 0. -1.
         23    2    1    2    0    0 -0.21127896244E+01  0.11584792296E+02 -0.11848067860E+04  0.11883851278E+04  0.91397048970E+02 0.  0.
         11    1    3    3    0    0 -0.13485833046E+02 -0.62478456676E+01 -0.11222711283E+04  0.11223695419E+04  0.00000000000E+00 0. -1.
        -11    1    3    3    0    0  0.11373043422E+02  0.17832637963E+02 -0.62535657688E+02  0.66015585856E+02  0.00000000000E+00 0.  1.
         22    1    1    2    0    0  0.21127896244E+01 -0.11584792296E+02  0.56056499955E+01  0.13042032219E+02  0.00000000000E+00 0.  1.
<mgrwt>
<rscale>  0 0.55097111E+02</rscale>
<asrwt>0</asrwt>
<pdfrwt beam="1">  1        2 0.18312534E+00 0.92152547E+02</pdfrwt>
<pdfrwt beam="2">  1       -2 0.17096933E-02 0.92152547E+02</pdfrwt>
<totfact> 0.18382687E+04</totfact>
</mgrwt>
</event>
<event>
 6    1  0.3062576E-002  0.1004691E+03  0.7546771E-02  0.1326959E+00
          2   -1    0    0  501    0  0.00000000000E+00  0.00000000000E+00  0.84355478086E+02  0.84355478086E+02  0.00000000000E+00 0. -1.
         -2   -1    0    0    0  501 -0.00000000000E+00 -0.00000000000E+00 -0.60897296118E+02  0.60897296118E+02  0.00000000000E+00 0.  1.
         23    2    1    2    0    0 -0.38318466923E+02  0.16969885017E+02  0.24182683501E+02  0.10333849493E+03  0.91311338001E+02 0.  0.
         13    1    3    3    0    0  0.55143035766E+01  0.44591630841E+02 -0.26172677422E+01  0.45007456887E+02  0.00000000000E+00 0.  1.
        -13    1    3    3    0    0 -0.43832770500E+02 -0.27621745824E+02  0.26799951243E+02  0.58331038039E+02  0.00000000000E+00 0. -1.
         22    1    1    2    0    0  0.38318466923E+02 -0.16969885017E+02 -0.72450153320E+00  0.41914279277E+02  0.00000000000E+00 0.  1.
<mgrwt>
<rscale>  0 0.80741851E+02</rscale>
<asrwt>0</asrwt>
<pdfrwt beam="1">  1        2 0.12977766E-01 0.10046911E+03</pdfrwt>
<pdfrwt beam="2">  1       -2 0.93688148E-02 0.10046911E+03</pdfrwt>
<totfact> 0.30305342E+04</totfact>
</mgrwt>
</event>
<event>
 6    1  0.3062576E-002  0.9466551E+02  0.7546771E-02  0.1406740E+00
          2   -1    0    0  501    0  0.00000000000E+00  0.00000000000E+00  0.87596045721E+02  0.87596045721E+02  0.00000000000E+00 0.  1.
         -2   -1    0    0    0  501 -0.00000000000E+00 -0.00000000000E+00 -0.40047541953E+02  0.40047541953E+02  0.00000000000E+00 0. -1.
         23    2    1    2    0    0 -0.10661078709E+02 -0.79066243123E+01  0.57761477542E+02  0.11089610605E+03  0.93730383244E+02 0.  0.
         13    1    3    3    0    0 -0.84721881141E+01 -0.77408238165E+01 -0.25312849793E+02  0.27792781247E+02  0.00000000000E+00 0. -1.
        -13    1    3    3    0    0 -0.21888905949E+01 -0.16580049582E+00  0.83074327335E+02  0.83103324807E+02  0.00000000000E+00 0.  1.
         22    1    1    2    0    0  0.10661078709E+02  0.79066243123E+01 -0.10212973775E+02  0.16747481619E+02  0.00000000000E+00 0. -1.
<mgrwt>
<rscale>  0 0.57927707E+02</rscale>
<asrwt>0</asrwt>
<pdfrwt beam="1">  1        2 0.13476315E-01 0.94665506E+02</pdfrwt>
<pdfrwt beam="2">  1       -2 0.61611603E-02 0.94665506E+02</pdfrwt>
<totfact> 0.54545813E+04</totfact>
</mgrwt>
</event>
<event>
 6    1  0.3062576E-002  0.8867111E+02  0.7546771E-02  0.1386665E+00
          4   -1    0    0  501    0  0.00000000000E+00  0.00000000000E+00  0.24199911576E+03  0.24199911576E+03  0.00000000000E+00 0. -1.
         -4   -1    0    0    0  501 -0.00000000000E+00 -0.00000000000E+00 -0.26805955685E+02  0.26805955685E+02  0.00000000000E+00 0.  1.
         23    2    1    2    0    0 -0.21476796560E+02 -0.57376961107E+01  0.22695020521E+03  0.24365746604E+03  0.85839333446E+02 0.  0.
         13    1    3    3    0    0 -0.53610675829E+02 -0.11241150565E+02  0.16150835531E+03  0.17054447181E+03  0.00000000000E+00 0. -1.
        -13    1    3    3    0    0  0.32133879269E+02  0.55034544547E+01  0.65441849893E+02  0.73112994230E+02  0.00000000000E+00 0.  1.
         22    1    1    2    0    0  0.21476796560E+02  0.57376961107E+01 -0.11757045136E+02  0.25147605402E+02  0.00000000000E+00 0. -1.
<mgrwt>
<rscale>  0 0.62743910E+02</rscale>
<asrwt>0</asrwt>
<pdfrwt beam="1">  1        4 0.37230632E-01 0.88671106E+02</pdfrwt>
<pdfrwt beam="2">  1       -4 0.41239934E-02 0.88671106E+02</pdfrwt>
<totfact> 0.33497982E+03</totfact>
</mgrwt>
</event>
<event>
 6    1  0.3062576E-002  0.1157816E+03  0.7546771E-02  0.1330920E+00
          4   -1    0    0  501    0  0.00000000000E+00  0.00000000000E+00  0.57802473231E+02  0.57802473231E+02  0.00000000000E+00 0.  1.
         -4   -1    0    0    0  501 -0.00000000000E+00 -0.00000000000E+00 -0.98027742053E+02  0.98027742053E+02  0.00000000000E+00 0. -1.
         23    2    1    2    0    0 -0.49795174473E+01  0.25046485912E+02 -0.99280497645E+01  0.11620644044E+03  0.11293028193E+03 0.  0.
         13    1    3    3    0    0 -0.20047285298E+02  0.67520554188E+02 -0.21070685703E+01  0.70465300848E+02  0.00000000000E+00 0.  1.
        -13    1    3    3    0    0  0.15067767851E+02 -0.42474068276E+02 -0.78209811943E+01  0.45741139587E+02  0.00000000000E+00 0. -1.
         22    1    1    2    0    0  0.49795174473E+01 -0.25046485912E+02 -0.30297219057E+02  0.39623774848E+02  0.00000000000E+00 0. -1.
<mgrwt>
<rscale>  0 0.79345202E+02</rscale>
<asrwt>0</asrwt>
<pdfrwt beam="1">  1        4 0.88926884E-02 0.11578156E+03</pdfrwt>
<pdfrwt beam="2">  1       -4 0.15081191E-01 0.11578156E+03</pdfrwt>
<totfact> 0.54126431E+03</totfact>
</mgrwt>
</event>
<event>
 6    1  0.3062576E-002  0.9717061E+02  0.7546771E-02  0.1332062E+00
         -2   -1    0    0    0  501 -0.00000000000E+00  0.00000000000E+00  0.30092057991E+02  0.30092057991E+02  0.00000000000E+00 0.  1.
          2   -1    0    0  501    0  0.00000000000E+00 -0.00000000000E+00 -0.27259036897E+03  0.27259036897E+03  0.00000000000E+00 0. -1.
         23    2    1    2    0    0 -0.39631048436E+02 -0.14907294281E+02 -0.24151405738E+03  0.26032895982E+03  0.87460162292E+02 0.  0.
         13    1    3    3    0    0 -0.56226161712E+02 -0.93958251238E+01 -0.23476229685E+03  0.24158435134E+03  0.00000000000E+00 0. -1.
        -13    1    3    3    0    0  0.16595113276E+02 -0.55114691576E+01 -0.67517605292E+01  0.18744608482E+02  0.00000000000E+00 0.  1.
         22    1    1    2    0    0  0.39631048436E+02  0.14907294281E+02 -0.98425359423E+00  0.42353467131E+02  0.00000000000E+00 0.  1.
<mgrwt>
<rscale>  0 0.78948542E+02</rscale>
<asrwt>0</asrwt>
<pdfrwt beam="1">  1        2 0.41936982E-01 0.97170610E+02</pdfrwt>
<pdfrwt beam="2">  1       -2 0.46295472E-02 0.97170610E+02</pdfrwt>
<totfact> 0.24008933E+04</totfact>
</mgrwt>
</event>
<event>
 6    1  0.3062576E-002  0.8976646E+02  0.7546771E-02  0.1404767E+00
          4   -1    0    0  501    0  0.00000000000E+00  0.00000000000E+00  0.59617934549E+02  0.59617934549E+02  0.00000000000E+00 0. -1.
         -4   -1    0    0    0  501 -0.00000000000E+00 -0.00000000000E+00 -0.47580417778E+02  0.47580417778E+02  0.00000000000E+00 0.  1.
         23    2    1    2    0    0 -0.16026153130E+02 -0.99223570393E+00  0.14575777894E+02  0.90942126277E+02  0.88318712144E+02 0.  0.
         13    1    3    3    0    0 -0.15799700362E+02 -0.22924239192E+02  0.45312359637E+02  0.53182339267E+02  0.00000000000E+00 0. -1.
        -13    1    3    3    0    0 -0.22645276755E+00  0.21932003488E+02 -0.30736581743E+02  0.37759787011E+02  0.00000000000E+00 0.  1.
         22    1    1    2    0    0  0.16026153130E+02  0.99223570393E+00 -0.25382611228E+01  0.16256226049E+02  0.00000000000E+00 0. -1.
<mgrwt>
<rscale>  0 0.58378185E+02</rscale>
<asrwt>0</asrwt>
<pdfrwt beam="1">  1        4 0.91719900E-02 0.89766458E+02</pdfrwt>
<pdfrwt beam="2">  1       -4 0.73200642E-02 0.89766458E+02</pdfrwt>
<totfact> 0.16136467E+04</totfact>
</mgrwt>
</event>
<event>
 6    1  0.3062576E-002  0.9217949E+02  0.7546771E-02  0.1369521E+00
          2   -1    0    0  501    0  0.00000000000E+00  0.00000000000E+00  0.11753455711E+03  0.11753455711E+03  0.00000000000E+00 0. -1.
         -2   -1    0    0    0  501 -0.00000000000E+00 -0.00000000000E+00 -0.39929138581E+02  0.39929138581E+02  0.00000000000E+00 0.  1.
         23    2    1    2    0    0 -0.13789569336E+02  0.22268285394E+02  0.89694432832E+02  0.12861628638E+03  0.88380026507E+02 0.  0.
         13    1    3    3    0    0 -0.33942556819E+02 -0.36388068799E+01  0.11193831991E+01  0.34155396318E+02  0.00000000000E+00 0.  1.
        -13    1    3    3    0    0  0.20152987483E+02  0.25907092274E+02  0.88575049633E+02  0.94460890066E+02  0.00000000000E+00 0. -1.
         22    1    1    2    0    0  0.13789569336E+02 -0.22268285394E+02 -0.12089014303E+02  0.28847409306E+02  0.00000000000E+00 0.  1.
<mgrwt>
<rscale>  0 0.67300533E+02</rscale>
<asrwt>0</asrwt>
<pdfrwt beam="1">  1        2 0.18082239E-01 0.92179487E+02</pdfrwt>
<pdfrwt beam="2">  1       -2 0.61429444E-02 0.92179487E+02</pdfrwt>
<totfact> 0.38912733E+04</totfact>
</mgrwt>
</event>
<event>
 6    1  0.3062576E-002  0.1009262E+03  0.7546771E-02  0.1338049E+00
         -2   -1    0    0    0  501 -0.00000000000E+00  0.00000000000E+00  0.35573808584E+02  0.35573808584E+02  0.00000000000E+00 0.  1.
          2   -1    0    0  501    0  0.00000000000E+00 -0.00000000000E+00 -0.32690503973E+03  0.32690503973E+03  0.00000000000E+00 0. -1.
         23    2    1    2    0    0  0.17896050479E+02 -0.28955057247E+02 -0.30833235923E+03  0.32443016477E+03  0.95012757578E+02 0.  0.
         11    1    3    3    0    0  0.10704237138E+02 -0.62921697734E+02 -0.23111497272E+03  0.23976624315E+03  0.00000000000E+00 0. -1.
        -11    1    3    3    0    0  0.71918133414E+01  0.33966640487E+02 -0.77217386510E+02  0.84663921623E+02  0.00000000000E+00 0.  1.
         22    1    1    2    0    0 -0.17896050479E+02  0.28955057247E+02  0.17001128087E+02  0.38048683540E+02  0.00000000000E+00 0.  1.
<mgrwt>
<rscale>  0 0.76912596E+02</rscale>
<asrwt>0</asrwt>
<pdfrwt beam="1">  1        2 0.50293086E-01 0.10092615E+03</pdfrwt>
<pdfrwt beam="2">  1       -2 0.54728933E-02 0.10092615E+03</pdfrwt>
<totfact> 0.15525562E+04</totfact>
</mgrwt>
</event>
<event>
 6    1  0.3062576E-002  0.9661017E+02  0.7546771E-02  0.1380755E+00
         -2   -1    0    0    0  501 -0.00000000000E+00  0.00000000000E+00  0.21749121754E+02  0.21749121754E+02  0.00000000000E+00 0.  1.
          2   -1    0    0  501    0  0.00000000000E+00 -0.00000000000E+00 -0.29743281232E+03  0.29743281232E+03  0.00000000000E+00 0. -1.
         23    2    1    2    0    0  0.13796029057E+02  0.12942964238E+02 -0.28289535735E+03  0.29893696238E+03  0.94740031269E+02 0.  0.
         11    1    3    3    0    0  0.38120517068E+02  0.23603746013E+02 -0.26010391864E+03  0.26394006732E+03  0.00000000000E+00 0. -1.
        -11    1    3    3    0    0 -0.24324488012E+02 -0.10660781774E+02 -0.22791438715E+02  0.34996895059E+02  0.00000000000E+00 0.  1.
         22    1    1    2    0    0 -0.13796029057E+02 -0.12942964238E+02  0.72116667863E+01  0.20244971693E+02  0.00000000000E+00 0. -1.
<mgrwt>
<rscale>  0 0.64265792E+02</rscale>
<asrwt>0</asrwt>
<pdfrwt beam="1">  1        2 0.45758896E-01 0.96610166E+02</pdfrwt>
<pdfrwt beam="2">  1       -2 0.33460186E-02 0.96610166E+02</pdfrwt>
<totfact> 0.35316686E+04</totfact>
</mgrwt>
</event>
<event>
 6    1  0.3062576E-002  0.9463389E+02  0.7546771E-02  0.1421441E+00
          2   -1    0    0  501    0  0.00000000000E+00  0.00000000000E+00  0.10572409438E+04  0.10572409438E+04  0.00000000000E+00 0. -1.
         -2   -1    0    0    0  501 -0.00000000000E+00 -0.00000000000E+00 -0.30224372433E+01  0.30224372433E+01  0.00000000000E+00 0.  1.
         23    2    1    2    0    0  0.63460498456E+01  0.84615528856E+01  0.10215808779E+04  0.10259547082E+04  0.94040964585E+02 0.  0.
         13    1    3    3    0    0 -0.30393374781E+02  0.81335061260E+01  0.13519816428E+03  0.13881085972E+03  0.00000000000E+00 0.  1.
        -13    1    3    3    0    0  0.36739424626E+02  0.32804675959E+00  0.88638271362E+03  0.88714384851E+03  0.00000000000E+00 0. -1.
         22    1    1    2    0    0 -0.63460498456E+01 -0.84615528856E+01  0.32637628633E+02  0.34308672791E+02  0.00000000000E+00 0.  1.
<mgrwt>
<rscale>  0 0.54717259E+02</rscale>
<asrwt>0</asrwt>
<pdfrwt beam="1">  1        2 0.16265216E+00 0.94633891E+02</pdfrwt>
<pdfrwt beam="2">  1       -2 0.46499119E-03 0.94633891E+02</pdfrwt>
<totfact> 0.13798659E+05</totfact>
</mgrwt>
</event>
<event>
 6    1  0.3062576E-002  0.8930934E+02  0.7546771E-02  0.1395146E+00
         -2   -1    0    0    0  501 -0.00000000000E+00  0.00000000000E+00  0.16606269317E+02  0.16606269317E+02  0.00000000000E+00 0.  1.
          2   -1    0    0  501    0  0.00000000000E+00 -0.00000000000E+00 -0.16301130310E+04  0.16301130310E+04  0.00000000000E+00 0. -1.
         23    2    1    2    0    0 -0.11910465429E+02  0.14787957996E+02 -0.16230242521E+04  0.16254795848E+04  0.87267488828E+02 0.  0.
         11    1    3    3    0    0 -0.11184980976E+02 -0.86479731236E+01 -0.15091613960E+04  0.15092276205E+04  0.00000000000E+00 0. -1.
        -11    1    3    3    0    0 -0.72548445329E+00  0.23435931120E+02 -0.11386285615E+03  0.11625196431E+03  0.00000000000E+00 0.  1.
         22    1    1    2    0    0  0.11910465429E+02 -0.14787957996E+02  0.95174905083E+01  0.21239715488E+02  0.00000000000E+00 0.  1.
<mgrwt>
<rscale>  0 0.60644618E+02</rscale>
<asrwt>0</asrwt>
<pdfrwt beam="1">  1        2 0.25078662E+00 0.89309336E+02</pdfrwt>
<pdfrwt beam="2">  1       -2 0.25548107E-02 0.89309336E+02</pdfrwt>
<totfact> 0.60830890E+03</totfact>
</mgrwt>
</event>
<event>
 6    1  0.3062576E-002  0.8816148E+02  0.7546771E-02  0.1430522E+00
         -3   -1    0    0    0  501 -0.00000000000E+00  0.00000000000E+00  0.14972861431E+02  0.14972861431E+02  0.00000000000E+00 0.  1.
          3   -1    0    0  501    0  0.00000000000E+00 -0.00000000000E+00 -0.31842185675E+03  0.31842185675E+03  0.00000000000E+00 0. -1.
         23    2    1    2    0    0 -0.82672523761E+00  0.11359842073E+02 -0.30856219002E+03  0.32090975737E+03  0.87422638803E+02 0.  0.
         13    1    3    3    0    0  0.22582130546E+02 -0.22881978210E+02 -0.22840575920E+03  0.23065716634E+03  0.00000000000E+00 0. -1.
        -13    1    3    3    0    0 -0.23408855784E+02  0.34241820284E+02 -0.80156430821E+02  0.90252591029E+02  0.00000000000E+00 0.  1.
         22    1    1    2    0    0  0.82672523761E+00 -0.11359842073E+02  0.51131947002E+01  0.12484960817E+02  0.00000000000E+00 0.  1.
<mgrwt>
<rscale>  0 0.52855356E+02</rscale>
<asrwt>0</asrwt>
<pdfrwt beam="1">  1        3 0.48987975E-01 0.88161484E+02</pdfrwt>
<pdfrwt beam="2">  1       -3 0.23035173E-02 0.88161484E+02</pdfrwt>
<totfact> 0.66088330E+03</totfact>
</mgrwt>
</event>
<event>
 6    1  0.3062576E-002  0.1062428E+03  0.7546771E-02  0.1314396E+00
         -2   -1    0    0    0  501 -0.00000000000E+00  0.00000000000E+00  0.21774725691E+02  0.21774725691E+02  0.00000000000E+00 0.  1.
          2   -1    0    0  501    0  0.00000000000E+00 -0.00000000000E+00 -0.10574947579E+04  0.10574947579E+04  0.00000000000E+00 0. -1.
         23    2    1    2    0    0 -0.25682579943E+02 -0.36155944657E+02 -0.10289335746E+04  0.10344040932E+04  0.96543668166E+02 0.  0.
         13    1    3    3    0    0 -0.59789007490E+02 -0.38331859548E+02 -0.62324481827E+03  0.62727837550E+03  0.00000000000E+00 0. -1.
        -13    1    3    3    0    0  0.34106427547E+02  0.21759148912E+01 -0.40568875633E+03  0.40712571770E+03  0.00000000000E+00 0.  1.
         22    1    1    2    0    0  0.25682579943E+02  0.36155944657E+02 -0.67864576018E+01  0.44865390373E+02  0.00000000000E+00 0.  1.
<mgrwt>
<rscale>  0 0.85397642E+02</rscale>
<asrwt>0</asrwt>
<pdfrwt beam="1">  1        2 0.16269152E+00 0.10624277E+03</pdfrwt>
<pdfrwt beam="2">  1       -2 0.33499574E-02 0.10624277E+03</pdfrwt>
<totfact> 0.83160820E+03</totfact>
</mgrwt>
</event>
<event>
 6    1  0.3062576E-002  0.9167394E+02  0.7546771E-02  0.1419734E+00
         -2   -1    0    0    0  501 -0.00000000000E+00  0.00000000000E+00  0.14220238103E+02  0.14220238103E+02  0.00000000000E+00 0.  1.
          2   -1    0    0  501    0  0.00000000000E+00 -0.00000000000E+00 -0.22051979761E+03  0.22051979761E+03  0.00000000000E+00 0. -1.
         23    2    1    2    0    0 -0.45633155460E+01  0.11037842907E+02 -0.20237048258E+03  0.22216643360E+03  0.90892541885E+02 0.  0.
         11    1    3    3    0    0 -0.30816565419E+02  0.20485821273E+02 -0.18635844224E+03  0.18999683832E+03  0.00000000000E+00 0. -1.
        -11    1    3    3    0    0  0.26253249873E+02 -0.94479783660E+01 -0.16012040341E+02  0.32169595272E+02  0.00000000000E+00 0.  1.
         22    1    1    2    0    0  0.45633155460E+01 -0.11037842907E+02 -0.39290769272E+01  0.12573602121E+02  0.00000000000E+00 0.  1.
<mgrwt>
<rscale>  0 0.55077141E+02</rscale>
<asrwt>0</asrwt>
<pdfrwt beam="1">  1        2 0.33926121E-01 0.91673944E+02</pdfrwt>
<pdfrwt beam="2">  1       -2 0.21877291E-02 0.91673944E+02</pdfrwt>
<totfact> 0.88986614E+04</totfact>
</mgrwt>
</event>
<event>
 6    1  0.3062576E-002  0.9224634E+02  0.7546771E-02  0.1411079E+00
         -2   -1    0    0    0  501 -0.00000000000E+00  0.00000000000E+00  0.13079767137E+03  0.13079767137E+03  0.00000000000E+00 0.  1.
          2   -1    0    0  501    0  0.00000000000E+00 -0.00000000000E+00 -0.24035194274E+02  0.24035194274E+02  0.00000000000E+00 0. -1.
         23    2    1    2    0    0 -0.93367759037E+01  0.96175205589E+01  0.70287559065E+02  0.11597296689E+03  0.91267277835E+02 0.  0.
         13    1    3    3    0    0 -0.39689029217E+02 -0.13463804888E+02  0.65193439195E+02  0.77502758637E+02  0.00000000000E+00 0.  1.
        -13    1    3    3    0    0  0.30352253313E+02  0.23081325447E+02  0.50941198693E+01  0.38470208250E+02  0.00000000000E+00 0. -1.
         22    1    1    2    0    0  0.93367759037E+01 -0.96175205589E+01  0.36474918033E+02  0.38859898758E+02  0.00000000000E+00 0.  1.
<mgrwt>
<rscale>  0 0.56953701E+02</rscale>
<asrwt>0</asrwt>
<pdfrwt beam="1">  1        2 0.36977223E-02 0.92246345E+02</pdfrwt>
<pdfrwt beam="2">  1       -2 0.20122718E-01 0.92246345E+02</pdfrwt>
<totfact> 0.42382749E+04</totfact>
</mgrwt>
</event>
<event>
 6    1  0.3062576E-002  0.9669339E+02  0.7546771E-02  0.1358612E+00
          2   -1    0    0  501    0  0.00000000000E+00  0.00000000000E+00  0.86541063077E+02  0.86541063077E+02  0.00000000000E+00 0. -1.
         -2   -1    0    0    0  501 -0.00000000000E+00 -0.00000000000E+00 -0.44377813383E+02  0.44377813383E+02  0.00000000000E+00 0.  1.
         23    2    1    2    0    0 -0.24975595366E+02  0.10844867910E+02  0.31880782953E+02  0.10181353939E+03  0.92780498796E+02 0.  0.
         13    1    3    3    0    0  0.27545820665E+02  0.17530561238E+02  0.36130399072E+02  0.48698034360E+02  0.00000000000E+00 0. -1.
        -13    1    3    3    0    0 -0.52521416031E+02 -0.66856933275E+01 -0.42496161186E+01  0.53115505027E+02  0.00000000000E+00 0.  1.
         22    1    1    2    0    0  0.24975595366E+02 -0.10844867910E+02  0.10282466742E+02  0.29105337073E+02  0.00000000000E+00 0.  1.
<mgrwt>
<rscale>  0 0.70437439E+02</rscale>
<asrwt>0</asrwt>
<pdfrwt beam="1">  1        2 0.13314010E-01 0.96693394E+02</pdfrwt>
<pdfrwt beam="2">  1       -2 0.68273559E-02 0.96693394E+02</pdfrwt>
<totfact> 0.47519505E+04</totfact>
</mgrwt>
</event>
<event>
 6    1  0.3062576E-002  0.1030835E+03  0.7546771E-02  0.1319991E+00
          2   -1    0    0  501    0  0.00000000000E+00  0.00000000000E+00  0.62918288378E+03  0.62918288378E+03  0.00000000000E+00 0. -1.
         -2   -1    0    0    0  501 -0.00000000000E+00 -0.00000000000E+00 -0.87784923550E+01  0.87784923550E+01  0.00000000000E+00 0.  1.
         23    2    1    2    0    0  0.43909352128E+02  0.70714663343E+00  0.47565841429E+03  0.48670024710E+03  0.93261311271E+02 0.  0.
         13    1    3    3    0    0  0.43203391373E+02  0.35854460214E+01  0.79673290070E+02  0.90704032986E+02  0.00000000000E+00 0.  1.
        -13    1    3    3    0    0  0.70596075478E+00 -0.28782993880E+01  0.39598512422E+03  0.39599621411E+03  0.00000000000E+00 0. -1.
         22    1    1    2    0    0 -0.43909352128E+02 -0.70714663343E+00  0.14474597713E+03  0.15126112904E+03  0.00000000000E+00 0.  1.
<mgrwt>
<rscale>  0 0.83280847E+02</rscale>
<asrwt>0</asrwt>
<pdfrwt beam="1">  1        2 0.96797331E-01 0.10308348E+03</pdfrwt>
<pdfrwt beam="2">  1       -2 0.13505378E-02 0.10308348E+03</pdfrwt>
<totfact> 0.58969948E+04</totfact>
</mgrwt>
</event>
<event>
 6    1  0.3062576E-002  0.9145402E+02  0.7546771E-02  0.1419814E+00
         -2   -1    0    0    0  501 -0.00000000000E+00  0.00000000000E+00  0.35369572954E+01  0.35369572954E+01  0.00000000000E+00 0.  1.
          2   -1    0    0  501    0  0.00000000000E+00 -0.00000000000E+00 -0.79765993820E+03  0.79765993820E+03  0.00000000000E+00 0. -1.
         23    2    1    2    0    0  0.51921937779E+01 -0.10835771397E+02 -0.74651475204E+03  0.75209581329E+03  0.90661262616E+02 0.  0.
         13    1    3    3    0    0 -0.15509597075E+02 -0.19284959238E+02 -0.56064967302E+02  0.61284074708E+02  0.00000000000E+00 0.  1.
        -13    1    3    3    0    0  0.20701790853E+02  0.84491878412E+01 -0.69044978474E+03  0.69081173858E+03  0.00000000000E+00 0. -1.
         22    1    1    2    0    0 -0.51921937779E+01  0.10835771397E+02 -0.47608228871E+02  0.49101082210E+02  0.00000000000E+00 0.  1.
<mgrwt>
<rscale>  0 0.55060198E+02</rscale>
<asrwt>0</asrwt>
<pdfrwt beam="1">  1        2 0.12271712E+00 0.91454018E+02</pdfrwt>
<pdfrwt beam="2">  1       -2 0.54414638E-03 0.91454018E+02</pdfrwt>
<totfact> 0.15886982E+05</totfact>
</mgrwt>
</event>
<event>
 6    1  0.3062576E-002  0.9523315E+02  0.7546771E-02  0.1388713E+00
          2   -1    0    0  501    0  0.00000000000E+00  0.00000000000E+00  0.12984874779E+03  0.12984874779E+03  0.00000000000E+00 0.  1.
         -2   -1    0    0    0  501 -0.00000000000E+00 -0.00000000000E+00 -0.42898628667E+02  0.42898628667E+02  0.00000000000E+00 0. -1.
         23    2    1    2    0    0 -0.92780205883E+00  0.17336276941E+02  0.10896146605E+03  0.14471334876E+03  0.93637305125E+02 0.  0.
         13    1    3    3    0    0  0.11206099580E+02  0.99103221076E+01  0.12348235784E+03  0.12438522360E+03  0.00000000000E+00 0.  1.
        -13    1    3    3    0    0 -0.12133901638E+02  0.74259548332E+01 -0.14520891791E+02  0.20328125161E+02  0.00000000000E+00 0. -1.
         22    1    1    2    0    0  0.92780205883E+00 -0.17336276941E+02 -0.22011346932E+02  0.28034027692E+02  0.00000000000E+00 0.  1.
<mgrwt>
<rscale>  0 0.62227926E+02</rscale>
<asrwt>0</asrwt>
<pdfrwt beam="1">  1        2 0.19976730E-01 0.95233147E+02</pdfrwt>
<pdfrwt beam="2">  1       -2 0.65997891E-02 0.95233147E+02</pdfrwt>
<totfact> 0.31348760E+04</totfact>
</mgrwt>
</event>
<event>
 6    1  0.3062576E-002  0.9664217E+02  0.7546771E-02  0.1401723E+00
         -1   -1    0    0    0  501 -0.00000000000E+00  0.00000000000E+00  0.41450058467E+01  0.41450058467E+01  0.00000000000E+00 0.  1.
          1   -1    0    0  501    0  0.00000000000E+00 -0.00000000000E+00 -0.73287697507E+03  0.73287697507E+03  0.00000000000E+00 0. -1.
         23    2    1    2    0    0  0.82199619185E+01 -0.10708901449E+02 -0.64873897466E+03  0.65589783208E+03  0.95694621316E+02 0.  0.
         11    1    3    3    0    0  0.40974069289E+02  0.37647612387E+01 -0.53670845395E+03  0.53828339407E+03  0.00000000000E+00 0. -1.
        -11    1    3    3    0    0 -0.32754107371E+02 -0.14473662687E+02 -0.11203052070E+03  0.11761443802E+03  0.00000000000E+00 0.  1.
         22    1    1    2    0    0 -0.82199619185E+01  0.10708901449E+02 -0.79992994563E+02  0.81124148830E+02  0.00000000000E+00 0.  1.
<mgrwt>
<rscale>  0 0.59082376E+02</rscale>
<asrwt>0</asrwt>
<pdfrwt beam="1">  1        1 0.11275022E+00 0.96642169E+02</pdfrwt>
<pdfrwt beam="2">  1       -1 0.63769371E-03 0.96642169E+02</pdfrwt>
<totfact> 0.84143322E+04</totfact>
</mgrwt>
</event>
<event>
 6    1  0.3062576E-002  0.9343247E+02  0.7546771E-02  0.1386642E+00
         -2   -1    0    0    0  501 -0.00000000000E+00  0.00000000000E+00  0.34717959241E+02  0.34717959241E+02  0.00000000000E+00 0.  1.
          2   -1    0    0  501    0  0.00000000000E+00 -0.00000000000E+00 -0.12007433358E+03  0.12007433358E+03  0.00000000000E+00 0. -1.
         23    2    1    2    0    0  0.17580449051E+02  0.72286761174E+01 -0.95197439760E+02  0.13338732807E+03  0.91478417162E+02 0.  0.
         11    1    3    3    0    0 -0.19408926982E+02 -0.10113573242E+02 -0.89502253383E+02  0.92139265088E+02  0.00000000000E+00 0. -1.
        -11    1    3    3    0    0  0.36989376033E+02  0.17342249360E+02 -0.56951863767E+01  0.41248062985E+02  0.00000000000E+00 0.  1.
         22    1    1    2    0    0 -0.17580449051E+02 -0.72286761174E+01  0.98410654214E+01  0.21404964748E+02  0.00000000000E+00 0.  1.
<mgrwt>
<rscale>  0 0.62749573E+02</rscale>
<asrwt>0</asrwt>
<pdfrwt beam="1">  1        2 0.18472974E-01 0.93432472E+02</pdfrwt>
<pdfrwt beam="2">  1       -2 0.53412245E-02 0.93432472E+02</pdfrwt>
<totfact> 0.46912453E+04</totfact>
</mgrwt>
</event>
<event>
 6    1  0.3062576E-002  0.9004701E+02  0.7546771E-02  0.1415254E+00
         -2   -1    0    0    0  501 -0.00000000000E+00  0.00000000000E+00  0.25965047659E+01  0.25965047659E+01  0.00000000000E+00 0.  1.
          2   -1    0    0  501    0  0.00000000000E+00 -0.00000000000E+00 -0.16084252714E+04  0.16084252714E+04  0.00000000000E+00 0. -1.
         23    2    1    2    0    0  0.84453461599E+01  0.10539415774E+02 -0.15722814397E+04  0.15748578950E+04  0.89028426145E+02 0.  0.
         13    1    3    3    0    0 -0.22763672873E+02 -0.21663014841E+02 -0.27296767263E+03  0.27477048843E+03  0.00000000000E+00 0.  1.
        -13    1    3    3    0    0  0.31209019033E+02  0.32202430615E+02 -0.12993137671E+04  0.13000874066E+04  0.00000000000E+00 0. -1.
         22    1    1    2    0    0 -0.84453461599E+01 -0.10539415774E+02 -0.33547326945E+02  0.36163881177E+02  0.00000000000E+00 0.  1.
<mgrwt>
<rscale>  0 0.56037792E+02</rscale>
<asrwt>0</asrwt>
<pdfrwt beam="1">  1        2 0.24744972E+00 0.90047009E+02</pdfrwt>
<pdfrwt beam="2">  1       -2 0.39946279E-03 0.90047009E+02</pdfrwt>
<totfact> 0.86579933E+04</totfact>
</mgrwt>
</event>
<event>
 6    1  0.3062576E-002  0.9221662E+02  0.7546771E-02  0.1427030E+00
         -2   -1    0    0    0  501 -0.00000000000E+00  0.00000000000E+00  0.21310139581E+01  0.21310139581E+01  0.00000000000E+00 0.  1.
          2   -1    0    0  501    0  0.00000000000E+00 -0.00000000000E+00 -0.16140309444E+04  0.16140309444E+04  0.00000000000E+00 0. -1.
         23    2    1    2    0    0 -0.10120456984E+02  0.27769757793E+01 -0.15775895589E+04  0.15802824818E+04  0.91617523618E+02 0.  0.
         13    1    3    3    0    0 -0.75692540392E+01 -0.37238619298E+02 -0.35353744184E+03  0.35557380550E+03  0.00000000000E+00 0.  1.
        -13    1    3    3    0    0 -0.25512029445E+01  0.40015595077E+02 -0.12240521171E+04  0.12247086763E+04  0.00000000000E+00 0. -1.
         22    1    1    2    0    0  0.10120456984E+02 -0.27769757793E+01 -0.34310371554E+02  0.35879476588E+02  0.00000000000E+00 0. -1.
<mgrwt>
<rscale>  0 0.53560880E+02</rscale>
<asrwt>0</asrwt>
<pdfrwt beam="1">  1        2 0.24831249E+00 0.92216625E+02</pdfrwt>
<pdfrwt beam="2">  1       -2 0.32784825E-03 0.92216625E+02</pdfrwt>
<totfact> 0.11363375E+05</totfact>
</mgrwt>
</event>
<event>
 6    1  0.3062576E-002  0.9438825E+02  0.7546771E-02  0.1385590E+00
          2   -1    0    0  501    0  0.00000000000E+00  0.00000000000E+00  0.78624735433E+03  0.78624735433E+03  0.00000000000E+00 0. -1.
         -2   -1    0    0    0  501 -0.00000000000E+00 -0.00000000000E+00 -0.41095065730E+01  0.41095065730E+01  0.00000000000E+00 0.  1.
         23    2    1    2    0    0 -0.18736051743E+02  0.80546801948E+00  0.67882326308E+03  0.68535404275E+03  0.92506502464E+02 0.  0.
         11    1    3    3    0    0 -0.22855621224E+02  0.42673353881E+02  0.45864249498E+03  0.46119012647E+03  0.00000000000E+00 0. -1.
        -11    1    3    3    0    0  0.41195694812E+01 -0.41867885862E+02  0.22018076810E+03  0.22416391628E+03  0.00000000000E+00 0.  1.
         22    1    1    2    0    0  0.18736051743E+02 -0.80546801948E+00  0.10331458468E+03  0.10500281816E+03  0.00000000000E+00 0.  1.
<mgrwt>
<rscale>  0 0.63017069E+02</rscale>
<asrwt>0</asrwt>
<pdfrwt beam="1">  1        2 0.12096101E+00 0.94388248E+02</pdfrwt>
<pdfrwt beam="2">  1       -2 0.63223240E-03 0.94388248E+02</pdfrwt>
<totfact> 0.13155049E+05</totfact>
</mgrwt>
</event>
<event>
 6    1  0.3062576E-002  0.9364684E+02  0.7546771E-02  0.1427007E+00
         -2   -1    0    0    0  501 -0.00000000000E+00  0.00000000000E+00  0.74486100426E+01  0.74486100426E+01  0.00000000000E+00 0.  1.
          2   -1    0    0  501    0  0.00000000000E+00 -0.00000000000E+00 -0.13020272882E+04  0.13020272882E+04  0.00000000000E+00 0. -1.
         23    2    1    2    0    0  0.43796658801E+01  0.90170844489E+01 -0.12959755626E+04  0.12993546053E+04  0.93108764236E+02 0.  0.
         13    1    3    3    0    0 -0.10703737232E+02 -0.35079840127E+02 -0.88230740494E+03  0.88306937553E+03  0.00000000000E+00 0. -1.
        -13    1    3    3    0    0  0.15083403112E+02  0.44096924576E+02 -0.41366815769E+03  0.41628522973E+03  0.00000000000E+00 0.  1.
         22    1    1    2    0    0 -0.43796658801E+01 -0.90170844489E+01  0.13968844871E+01  0.10121292973E+02  0.00000000000E+00 0.  1.
<mgrwt>
<rscale>  0 0.53565458E+02</rscale>
<asrwt>0</asrwt>
<pdfrwt beam="1">  1        2 0.20031159E+00 0.93646843E+02</pdfrwt>
<pdfrwt beam="2">  1       -2 0.11459417E-02 0.93646843E+02</pdfrwt>
<totfact> 0.28358496E+04</totfact>
</mgrwt>
</event>
<event>
 6    1  0.3062576E-002  0.9378176E+02  0.7546771E-02  0.1379253E+00
          1   -1    0    0  501    0  0.00000000000E+00  0.00000000000E+00  0.46023432781E+03  0.46023432781E+03  0.00000000000E+00 0. -1.
         -1   -1    0    0    0  501 -0.00000000000E+00 -0.00000000000E+00 -0.10838716132E+02  0.10838716132E+02  0.00000000000E+00 0.  1.
         23    2    1    2    0    0 -0.56365151753E+01 -0.20430302260E+02  0.43606517200E+03  0.44603570831E+03  0.91355630914E+02 0.  0.
         13    1    3    3    0    0  0.26477888885E+02  0.22562852983E+02  0.24924726889E+03  0.25166319156E+03  0.00000000000E+00 0. -1.
        -13    1    3    3    0    0 -0.32114404061E+02 -0.42993155243E+02  0.18681790311E+03  0.19437251675E+03  0.00000000000E+00 0.  1.
         22    1    1    2    0    0  0.56365151753E+01  0.20430302260E+02  0.13330439679E+02  0.25037335637E+02  0.00000000000E+00 0. -1.
<mgrwt>
<rscale>  0 0.64660616E+02</rscale>
<asrwt>0</asrwt>
<pdfrwt beam="1">  1        1 0.70805266E-01 0.93781762E+02</pdfrwt>
<pdfrwt beam="2">  1       -1 0.16674952E-02 0.93781762E+02</pdfrwt>
<totfact> 0.40144411E+04</totfact>
</mgrwt>
</event>
<event>
 6    1  0.3062576E-002  0.1013876E+03  0.7546771E-02  0.1339998E+00
          3   -1    0    0  501    0  0.00000000000E+00  0.00000000000E+00  0.56965302736E+02  0.56965302736E+02  0.00000000000E+00 0. -1.
         -3   -1    0    0    0  501 -0.00000000000E+00 -0.00000000000E+00 -0.12066963636E+03  0.12066963636E+03  0.00000000000E+00 0.  1.
         23    2    1    2    0    0 -0.28406331715E+02  0.15706922219E+02 -0.90223777786E+02  0.13571945264E+03  0.96051094001E+02 0.  0.
         13    1    3    3    0    0 -0.58109118750E+02  0.31709917356E+02 -0.70181442081E+02  0.96476024758E+02  0.00000000000E+00 0. -1.
        -13    1    3    3    0    0  0.29702787036E+02 -0.16002995137E+02 -0.20042335705E+02  0.39243427877E+02  0.00000000000E+00 0.  1.
         22    1    1    2    0    0  0.28406331715E+02 -0.15706922219E+02  0.26519444158E+02  0.41915486464E+02  0.00000000000E+00 0. -1.
<mgrwt>
<rscale>  0 0.76264848E+02</rscale>
<asrwt>0</asrwt>
<pdfrwt beam="1">  1        3 0.87638928E-02 0.10138757E+03</pdfrwt>
<pdfrwt beam="2">  1       -3 0.18564559E-01 0.10138757E+03</pdfrwt>
<totfact> 0.50337128E+03</totfact>
</mgrwt>
</event>
<event>
 6    1  0.3062576E-002  0.9077558E+02  0.7546771E-02  0.1418547E+00
          2   -1    0    0  501    0  0.00000000000E+00  0.00000000000E+00  0.23341564930E+02  0.23341564930E+02  0.00000000000E+00 0. -1.
         -2   -1    0    0    0  501 -0.00000000000E+00 -0.00000000000E+00 -0.16576411595E+03  0.16576411595E+03  0.00000000000E+00 0.  1.
         23    2    1    2    0    0 -0.53500336777E+01 -0.11329492173E+02 -0.67445312113E+02  0.11308879718E+03  0.89906760971E+02 0.  0.
         11    1    3    3    0    0  0.11600520046E+02 -0.42836575889E+02 -0.10125920719E+02  0.45520089736E+02  0.00000000000E+00 0. -1.
        -11    1    3    3    0    0 -0.16950553724E+02  0.31507083715E+02 -0.57319391394E+02  0.67568707443E+02  0.00000000000E+00 0.  1.
         22    1    1    2    0    0  0.53500336777E+01  0.11329492173E+02 -0.74977238911E+02  0.76016883703E+02  0.00000000000E+00 0.  1.
<mgrwt>
<rscale>  0 0.55329584E+02</rscale>
<asrwt>0</asrwt>
<pdfrwt beam="1">  1        2 0.35910101E-02 0.90775580E+02</pdfrwt>
<pdfrwt beam="2">  1       -2 0.25502171E-01 0.90775580E+02</pdfrwt>
<totfact> 0.29338609E+04</totfact>
</mgrwt>
</event>
<event>
 6    1  0.3062576E-002  0.9443692E+02  0.7546771E-02  0.1380292E+00
         -2   -1    0    0    0  501 -0.00000000000E+00  0.00000000000E+00  0.90272540901E+02  0.90272540901E+02  0.00000000000E+00 0.  1.
          2   -1    0    0  501    0  0.00000000000E+00 -0.00000000000E+00 -0.39720422431E+02  0.39720422431E+02  0.00000000000E+00 0. -1.
         23    2    1    2    0    0  0.93393765964E+01  0.18144048459E+02  0.25769217781E+02  0.97889651723E+02  0.92205752964E+02 0.  0.
         11    1    3    3    0    0  0.21947875987E+02  0.19127609949E+02 -0.29348903457E+02  0.41339241125E+02  0.00000000000E+00 0. -1.
        -11    1    3    3    0    0 -0.12608499390E+02 -0.98356148965E+00  0.55118121237E+02  0.56550410598E+02  0.00000000000E+00 0.  1.
         22    1    1    2    0    0 -0.93393765964E+01 -0.18144048459E+02  0.24782900689E+02  0.32103311609E+02  0.00000000000E+00 0. -1.
<mgrwt>
<rscale>  0 0.64387144E+02</rscale>
<asrwt>0</asrwt>
<pdfrwt beam="1">  1        2 0.61108342E-02 0.94436917E+02</pdfrwt>
<pdfrwt beam="2">  1       -2 0.13888083E-01 0.94436917E+02</pdfrwt>
<totfact> 0.40766235E+04</totfact>
</mgrwt>
</event>
<event>
 6    1  0.3062576E-002  0.9568692E+02  0.7546771E-02  0.1354787E+00
         -2   -1    0    0    0  501 -0.00000000000E+00  0.00000000000E+00  0.54693649691E+01  0.54693649691E+01  0.00000000000E+00 0.  1.
          2   -1    0    0  501    0  0.00000000000E+00 -0.00000000000E+00 -0.74578492961E+03  0.74578492961E+03  0.00000000000E+00 0. -1.
         23    2    1    2    0    0  0.16871957591E+02 -0.24771942888E+02 -0.61531965885E+03  0.62271523992E+03  0.90871752254E+02 0.  0.
         13    1    3    3    0    0 -0.11997670018E+02 -0.76323566161E+01 -0.54073868849E+03  0.54092561983E+03  0.00000000000E+00 0. -1.
        -13    1    3    3    0    0  0.28869627609E+02 -0.17139586272E+02 -0.74580970357E+02  0.81789620094E+02  0.00000000000E+00 0.  1.
         22    1    1    2    0    0 -0.16871957591E+02  0.24771942888E+02 -0.12499590579E+03  0.12853905465E+03  0.00000000000E+00 0.  1.
<mgrwt>
<rscale>  0 0.71584312E+02</rscale>
<asrwt>0</asrwt>
<pdfrwt beam="1">  1        2 0.11473606E+00 0.95686924E+02</pdfrwt>
<pdfrwt beam="2">  1       -2 0.84144134E-03 0.95686924E+02</pdfrwt>
<totfact> 0.93857174E+04</totfact>
</mgrwt>
</event>
<event>
 6    1  0.3062576E-002  0.9317713E+02  0.7546771E-02  0.1402679E+00
         -2   -1    0    0    0  501 -0.00000000000E+00  0.00000000000E+00  0.73956200573E+01  0.73956200573E+01  0.00000000000E+00 0.  1.
          2   -1    0    0  501    0  0.00000000000E+00 -0.00000000000E+00 -0.39703339083E+03  0.39703339083E+03  0.00000000000E+00 0. -1.
         23    2    1    2    0    0  0.92815302135E+01  0.11575666966E+02 -0.34657256199E+03  0.35887953146E+03  0.91988230258E+02 0.  0.
         11    1    3    3    0    0  0.23681677099E+02  0.40601414302E+02 -0.10369933481E+03  0.11385450678E+03  0.00000000000E+00 0.  1.
        -11    1    3    3    0    0 -0.14400146886E+02 -0.29025747336E+02 -0.24287322718E+03  0.24502502468E+03  0.00000000000E+00 0. -1.
         22    1    1    2    0    0 -0.92815302135E+01 -0.11575666966E+02 -0.43065208777E+02  0.45549479424E+02  0.00000000000E+00 0.  1.
<mgrwt>
<rscale>  0 0.58859975E+02</rscale>
<asrwt>0</asrwt>
<pdfrwt beam="1">  1        2 0.61082065E-01 0.93177129E+02</pdfrwt>
<pdfrwt beam="2">  1       -2 0.11377876E-02 0.93177129E+02</pdfrwt>
<totfact> 0.12250589E+05</totfact>
</mgrwt>
</event>
<event>
 6    1  0.3062576E-002  0.1035188E+03  0.7546771E-02  0.1309519E+00
          2   -1    0    0  501    0  0.00000000000E+00  0.00000000000E+00  0.26281952704E+04  0.26281952704E+04  0.00000000000E+00 0.  1.
         -2   -1    0    0    0  501 -0.00000000000E+00 -0.00000000000E+00 -0.25177363835E+02  0.25177363835E+02  0.00000000000E+00 0. -1.
         23    2    1    2    0    0 -0.38954905966E+02  0.34996029534E+02  0.25987739010E+04  0.26008348538E+04  0.89296931040E+02 0.  0.
         11    1    3    3    0    0  0.53402867166E+01  0.35191621079E+02  0.20391494161E+04  0.20394600535E+04  0.00000000000E+00 0.  1.
        -11    1    3    3    0    0 -0.44295192682E+02 -0.19559154556E+00  0.55962448488E+03  0.56137480032E+03  0.00000000000E+00 0. -1.
         22    1    1    2    0    0  0.38954905966E+02 -0.34996029534E+02  0.42440055789E+01  0.52537780361E+02  0.00000000000E+00 0. -1.
<mgrwt>
<rscale>  0 0.87302574E+02</rscale>
<asrwt>0</asrwt>
<pdfrwt beam="1">  1        2 0.40433752E+00 0.10351883E+03</pdfrwt>
<pdfrwt beam="2">  1       -2 0.38734427E-02 0.10351883E+03</pdfrwt>
<totfact> 0.10222099E+03</totfact>
</mgrwt>
</event>
<event>
 6    1  0.3062576E-002  0.9281295E+02  0.7546771E-02  0.1418808E+00
          2   -1    0    0  501    0  0.00000000000E+00  0.00000000000E+00  0.11837864372E+04  0.11837864372E+04  0.00000000000E+00 0. -1.
         -2   -1    0    0    0  501 -0.00000000000E+00 -0.00000000000E+00 -0.87139561352E+01  0.87139561352E+01  0.00000000000E+00 0.  1.
         23    2    1    2    0    0 -0.44598892156E+01 -0.10789560279E+02  0.11770117466E+04  0.11806654462E+04  0.92075724472E+02 0.  0.
         11    1    3    3    0    0 -0.12768907634E+02 -0.42791022742E+02  0.97023583515E+03  0.97126293682E+03  0.00000000000E+00 0. -1.
        -11    1    3    3    0    0  0.83090184179E+01  0.32001462463E+02  0.20677591148E+03  0.20940250943E+03  0.00000000000E+00 0.  1.
         22    1    1    2    0    0  0.44598892156E+01  0.10789560279E+02 -0.19392655209E+01  0.11834947131E+02  0.00000000000E+00 0.  1.
<mgrwt>
<rscale>  0 0.55273951E+02</rscale>
<asrwt>0</asrwt>
<pdfrwt beam="1">  1        2 0.18212086E+00 0.92812953E+02</pdfrwt>
<pdfrwt beam="2">  1       -2 0.13406096E-02 0.92812953E+02</pdfrwt>
<totfact> 0.26242028E+04</totfact>
</mgrwt>
</event>
<event>
 6    1  0.3062576E-002  0.9384014E+02  0.7546771E-02  0.1386983E+00
         -2   -1    0    0    0  501 -0.00000000000E+00  0.00000000000E+00  0.12732182456E+03  0.12732182456E+03  0.00000000000E+00 0.  1.
          2   -1    0    0  501    0  0.00000000000E+00 -0.00000000000E+00 -0.28365395061E+02  0.28365395061E+02  0.00000000000E+00 0. -1.
         23    2    1    2    0    0 -0.10070633649E+02  0.15707845460E+02  0.57066670186E+02  0.10982976650E+03  0.91966399804E+02 0.  0.
         11    1    3    3    0    0  0.23708163512E+02  0.40636197329E+02  0.12659950242E+02  0.48720138450E+02  0.00000000000E+00 0. -1.
        -11    1    3    3    0    0 -0.33778797161E+02 -0.24928351869E+02  0.44406719944E+02  0.61109628053E+02  0.00000000000E+00 0.  1.
         22    1    1    2    0    0  0.10070633649E+02 -0.15707845460E+02  0.41889759317E+02  0.45857453121E+02  0.00000000000E+00 0. -1.
<mgrwt>
<rscale>  0 0.62663253E+02</rscale>
<asrwt>0</asrwt>
<pdfrwt beam="1">  1        2 0.43639070E-02 0.93840145E+02</pdfrwt>
<pdfrwt beam="2">  1       -2 0.19587973E-01 0.93840145E+02</pdfrwt>
<totfact> 0.35781105E+04</totfact>
</mgrwt>
</event>
<event>
 6    1  0.3062576E-002  0.8236409E+02  0.7546771E-02  0.1365490E+00
         -2   -1    0    0    0  501 -0.00000000000E+00  0.00000000000E+00  0.70579980471E+01  0.70579980471E+01  0.00000000000E+00 0.  1.
          2   -1    0    0  501    0  0.00000000000E+00 -0.00000000000E+00 -0.83771335148E+03  0.83771335148E+03  0.00000000000E+00 0. -1.
         23    2    1    2    0    0 -0.29034543239E+02 -0.26426778417E+02 -0.75552631016E+03  0.76000253178E+03  0.72404859326E+02 0.  0.
         11    1    3    3    0    0 -0.20416587815E+02 -0.46946596922E+02 -0.33513963119E+03  0.33902712637E+03  0.00000000000E+00 0. -1.
        -11    1    3    3    0    0 -0.86179554246E+01  0.20519818506E+02 -0.42038667897E+03  0.42097540541E+03  0.00000000000E+00 0.  1.
         22    1    1    2    0    0  0.29034543239E+02  0.26426778417E+02 -0.75129043273E+02  0.84768817744E+02  0.00000000000E+00 0.  1.
<mgrwt>
<rscale>  0 0.68437181E+02</rscale>
<asrwt>0</asrwt>
<pdfrwt beam="1">  1        2 0.12887902E+00 0.82364088E+02</pdfrwt>
<pdfrwt beam="2">  1       -2 0.10858455E-02 0.82364088E+02</pdfrwt>
<totfact> 0.55754084E+04</totfact>
</mgrwt>
</event>
<event>
 6    1  0.3062576E-002  0.9209512E+02  0.7546771E-02  0.1411347E+00
         -1   -1    0    0    0  501 -0.00000000000E+00  0.00000000000E+00  0.53370456075E+02  0.53370456075E+02  0.00000000000E+00 0.  1.
          1   -1    0    0  501    0  0.00000000000E+00 -0.00000000000E+00 -0.58161138727E+02  0.58161138727E+02  0.00000000000E+00 0. -1.
         23    2    1    2    0    0  0.12965813979E+02  0.34395769394E+01 -0.16695835588E+02  0.93596275232E+02  0.91112945236E+02 0.  0.
         11    1    3    3    0    0  0.32351850790E+02  0.22058681497E+02  0.23182899616E+02  0.45504664745E+02  0.00000000000E+00 0.  1.
        -11    1    3    3    0    0 -0.19386036811E+02 -0.18619104558E+02 -0.39878735203E+02  0.48091610487E+02  0.00000000000E+00 0. -1.
         22    1    1    2    0    0 -0.12965813979E+02 -0.34395769394E+01  0.11905152936E+02  0.17935319570E+02  0.00000000000E+00 0. -1.
<mgrwt>
<rscale>  0 0.56894378E+02</rscale>
<asrwt>0</asrwt>
<pdfrwt beam="1">  1        1 0.89478675E-02 0.92095124E+02</pdfrwt>
<pdfrwt beam="2">  1       -1 0.82108394E-02 0.92095124E+02</pdfrwt>
<totfact> 0.53028445E+04</totfact>
</mgrwt>
</event>
<event>
 6    1  0.3062576E-002  0.1058329E+03  0.7546771E-02  0.1302945E+00
          2   -1    0    0  501    0  0.00000000000E+00  0.00000000000E+00  0.14146967842E+04  0.14146967842E+04  0.00000000000E+00 0. -1.
         -2   -1    0    0    0  501 -0.00000000000E+00 -0.00000000000E+00 -0.33355372627E+02  0.33355372627E+02  0.00000000000E+00 0.  1.
         23    2    1    2    0    0 -0.26512740945E+02 -0.48477811462E+02  0.13883298011E+04  0.13923578014E+04  0.90263984359E+02 0.  0.
         11    1    3    3    0    0  0.30872501506E+02 -0.31069631918E+02  0.45492841791E+03  0.45703205445E+03  0.00000000000E+00 0. -1.
        -11    1    3    3    0    0 -0.57385242451E+02 -0.17408179545E+02  0.93340138320E+03  0.93532574696E+03  0.00000000000E+00 0.  1.
         22    1    1    2    0    0  0.26512740945E+02  0.48477811462E+02 -0.69883895372E+01  0.55694355413E+02  0.00000000000E+00 0.  1.
<mgrwt>
<rscale>  0 0.89961545E+02</rscale>
<asrwt>0</asrwt>
<pdfrwt beam="1">  1        2 0.21764561E+00 0.10583294E+03</pdfrwt>
<pdfrwt beam="2">  1       -2 0.51315969E-02 0.10583294E+03</pdfrwt>
<totfact> 0.28292396E+03</totfact>
</mgrwt>
</event>
<event>
 6    1  0.3062576E-002  0.9061575E+02  0.7546771E-02  0.1418134E+00
         -2   -1    0    0    0  501 -0.00000000000E+00  0.00000000000E+00  0.35182440315E+01  0.35182440315E+01  0.00000000000E+00 0.  1.
          2   -1    0    0  501    0  0.00000000000E+00 -0.00000000000E+00 -0.77973452364E+03  0.77973452364E+03  0.00000000000E+00 0. -1.
         23    2    1    2    0    0 -0.14830122612E+01  0.12588889077E+02 -0.71639886402E+03  0.72210701834E+03  0.89724768676E+02 0.  0.
         13    1    3    3    0    0  0.20078807606E+02  0.45269893718E+02 -0.47213136280E+03  0.47472154525E+03  0.00000000000E+00 0. -1.
        -13    1    3    3    0    0 -0.21561819867E+02 -0.32681004641E+02 -0.24426750122E+03  0.24738547309E+03  0.00000000000E+00 0.  1.
         22    1    1    2    0    0  0.14830122612E+01 -0.12588889077E+02 -0.59817415586E+02  0.61145749328E+02  0.00000000000E+00 0.  1.
<mgrwt>
<rscale>  0 0.55417611E+02</rscale>
<asrwt>0</asrwt>
<pdfrwt beam="1">  1        2 0.11995925E+00 0.90615747E+02</pdfrwt>
<pdfrwt beam="2">  1       -2 0.54126791E-03 0.90615747E+02</pdfrwt>
<totfact> 0.16431339E+05</totfact>
</mgrwt>
</event>
<event>
 6    1  0.3062576E-002  0.6453004E+02  0.7546771E-02  0.1462139E+00
         -2   -1    0    0    0  501 -0.00000000000E+00  0.00000000000E+00  0.17318093925E+02  0.17318093925E+02  0.00000000000E+00 0.  1.
          2   -1    0    0  501    0  0.00000000000E+00 -0.00000000000E+00 -0.98776007414E+02  0.98776007414E+02  0.00000000000E+00 0. -1.
         23    2    1    2    0    0 -0.10009699397E+02 -0.15180222091E+02 -0.64113279184E+02  0.90965043181E+02  0.61915210477E+02 0.  0.
         11    1    3    3    0    0 -0.20232039219E+01 -0.33467019144E+01 -0.73677374664E+02  0.73781090432E+02  0.00000000000E+00 0. -1.
        -11    1    3    3    0    0 -0.79864954749E+01 -0.11833520176E+02  0.95640954801E+01  0.17183952749E+02  0.00000000000E+00 0.  1.
         22    1    1    2    0    0  0.10009699397E+02  0.15180222091E+02 -0.17344634305E+02  0.25129058158E+02  0.00000000000E+00 0.  1.
<mgrwt>
<rscale>  0 0.47015362E+02</rscale>
<asrwt>0</asrwt>
<pdfrwt beam="1">  1        2 0.15196309E-01 0.64530043E+02</pdfrwt>
<pdfrwt beam="2">  1       -2 0.26643222E-02 0.64530043E+02</pdfrwt>
<totfact> 0.15249163E+05</totfact>
</mgrwt>
</event>
<event>
 6    1  0.3062576E-002  0.9411461E+02  0.7546771E-02  0.1368978E+00
          2   -1    0    0  501    0  0.00000000000E+00  0.00000000000E+00  0.28470708226E+03  0.28470708226E+03  0.00000000000E+00 0. -1.
         -2   -1    0    0    0  501 -0.00000000000E+00 -0.00000000000E+00 -0.23291242110E+02  0.23291242110E+02  0.00000000000E+00 0.  1.
         23    2    1    2    0    0 -0.11994050246E+02 -0.21743154296E+02  0.26651849390E+03  0.28264760297E+03  0.90779611545E+02 0.  0.
         11    1    3    3    0    0 -0.78052324311E+01 -0.45080867856E+02  0.24899714561E+03  0.25316552850E+03  0.00000000000E+00 0. -1.
        -11    1    3    3    0    0 -0.41888178153E+01  0.23337713560E+02  0.17521348292E+02  0.29482074466E+02  0.00000000000E+00 0.  1.
         22    1    1    2    0    0  0.11994050246E+02  0.21743154296E+02 -0.51026537549E+01  0.25350721398E+02  0.00000000000E+00 0.  1.
<mgrwt>
<rscale>  0 0.67452052E+02</rscale>
<asrwt>0</asrwt>
<pdfrwt beam="1">  1        2 0.43801087E-01 0.94114610E+02</pdfrwt>
<pdfrwt beam="2">  1       -2 0.35832682E-02 0.94114610E+02</pdfrwt>
<totfact> 0.33340983E+04</totfact>
</mgrwt>
</event>
<event>
 6    1  0.3062576E-002  0.9433189E+02  0.7546771E-02  0.1374627E+00
          2   -1    0    0  501    0  0.00000000000E+00  0.00000000000E+00  0.23141809364E+04  0.23141809364E+04  0.00000000000E+00 0. -1.
         -2   -1    0    0    0  501 -0.00000000000E+00 -0.00000000000E+00 -0.37862500830E+01  0.37862500830E+01  0.00000000000E+00 0.  1.
         23    2    1    2    0    0  0.10674096090E+02  0.19766868441E+02  0.22682359226E+04  0.22701966226E+04  0.91617898385E+02 0.  0.
         11    1    3    3    0    0 -0.16850301354E+02  0.38452490397E+02  0.53612557886E+03  0.53776682956E+03  0.00000000000E+00 0.  1.
        -11    1    3    3    0    0  0.27524397444E+02 -0.18685621956E+02  0.17321103437E+04  0.17324297930E+04  0.00000000000E+00 0. -1.
         22    1    1    2    0    0 -0.10674096090E+02 -0.19766868441E+02  0.42158763749E+02  0.47770563909E+02  0.00000000000E+00 0.  1.
<mgrwt>
<rscale>  0 0.65897560E+02</rscale>
<asrwt>0</asrwt>
<pdfrwt beam="1">  1        2 0.35602671E+00 0.94331886E+02</pdfrwt>
<pdfrwt beam="2">  1       -2 0.58250186E-03 0.94331886E+02</pdfrwt>
<totfact> 0.22553181E+04</totfact>
</mgrwt>
</event>
<event>
 6    1  0.3062576E-002  0.9270289E+02  0.7546771E-02  0.1398496E+00
         -2   -1    0    0    0  501 -0.00000000000E+00  0.00000000000E+00  0.14215367396E+02  0.14215367396E+02  0.00000000000E+00 0.  1.
          2   -1    0    0  501    0  0.00000000000E+00 -0.00000000000E+00 -0.21038300733E+03  0.21038300733E+03  0.00000000000E+00 0. -1.
         23    2    1    2    0    0  0.15877759544E+02  0.26469299939E+01 -0.17462445731E+03  0.19770565816E+03  0.91294669576E+02 0.  0.
         11    1    3    3    0    0 -0.37723280969E+02 -0.32773453043E+01 -0.85941146048E+02  0.93913084836E+02  0.00000000000E+00 0. -1.
        -11    1    3    3    0    0  0.53601040513E+02  0.59242752982E+01 -0.88683311259E+02  0.10379257333E+03  0.00000000000E+00 0.  1.
         22    1    1    2    0    0 -0.15877759544E+02 -0.26469299939E+01 -0.21543182625E+02  0.26892716563E+02  0.00000000000E+00 0. -1.
<mgrwt>
<rscale>  0 0.59841900E+02</rscale>
<asrwt>0</asrwt>
<pdfrwt beam="1">  1        2 0.32366615E-01 0.92702892E+02</pdfrwt>
<pdfrwt beam="2">  1       -2 0.21869797E-02 0.92702892E+02</pdfrwt>
<totfact> 0.93744731E+04</totfact>
</mgrwt>
</event>
<event>
 6    1  0.3062576E-002  0.9327422E+02  0.7546771E-02  0.1391725E+00
         -4   -1    0    0    0  501 -0.00000000000E+00  0.00000000000E+00  0.66917907299E+02  0.66917907299E+02  0.00000000000E+00 0.  1.
          4   -1    0    0  501    0  0.00000000000E+00 -0.00000000000E+00 -0.53067551283E+02  0.53067551283E+02  0.00000000000E+00 0. -1.
         23    2    1    2    0    0  0.21236681166E+01 -0.17476646485E+02 -0.59825657409E+01  0.93465882340E+02  0.91597690638E+02 0.  0.
         11    1    3    3    0    0 -0.11237468309E+02 -0.36793463185E+02  0.31168611607E+02  0.49512846582E+02  0.00000000000E+00 0.  1.
        -11    1    3    3    0    0  0.13361136425E+02  0.19316816700E+02 -0.37151177348E+02  0.43953035758E+02  0.00000000000E+00 0. -1.
         22    1    1    2    0    0 -0.21236681166E+01  0.17476646485E+02  0.19832921757E+02  0.26519576242E+02  0.00000000000E+00 0.  1.
<mgrwt>
<rscale>  0 0.61479662E+02</rscale>
<asrwt>0</asrwt>
<pdfrwt beam="1">  1        4 0.81642386E-02 0.93274220E+02</pdfrwt>
<pdfrwt beam="2">  1       -4 0.10295063E-01 0.93274220E+02</pdfrwt>
<totfact> 0.11262039E+04</totfact>
</mgrwt>
</event>
<event>
 6    1  0.3062576E-002  0.1058502E+03  0.7546771E-02  0.1322428E+00
         -2   -1    0    0    0  501 -0.00000000000E+00  0.00000000000E+00  0.67685453522E+01  0.67685453522E+01  0.00000000000E+00 0. -1.
          2   -1    0    0  501    0  0.00000000000E+00 -0.00000000000E+00 -0.11194027064E+04  0.11194027064E+04  0.00000000000E+00 0.  1.
         23    2    1    2    0    0  0.37426110718E+02 -0.10365814193E+02 -0.10233128487E+04  0.10287727882E+04  0.98468774282E+02 0.  0.
         11    1    3    3    0    0  0.40972721446E+02 -0.33347813881E+02 -0.27102827775E+03  0.27612889731E+03  0.00000000000E+00 0. -1.
        -11    1    3    3    0    0 -0.35466107276E+01  0.22981999688E+02 -0.75228457094E+03  0.75264389085E+03  0.00000000000E+00 0.  1.
         22    1    1    2    0    0 -0.37426110718E+02  0.10365814193E+02 -0.89321312338E+02  0.97398463566E+02  0.00000000000E+00 0.  1.
<mgrwt>
<rscale>  0 0.82380573E+02</rscale>
<asrwt>0</asrwt>
<pdfrwt beam="1">  1        2 0.17221571E+00 0.10585019E+03</pdfrwt>
<pdfrwt beam="2">  1       -2 0.10413152E-02 0.10585019E+03</pdfrwt>
<totfact> 0.41306821E+04</totfact>
</mgrwt>
</event>
<event>
 6    1  0.3062576E-002  0.1017259E+03  0.7546771E-02  0.1316820E+00
          2   -1    0    0  501    0  0.00000000000E+00  0.00000000000E+00  0.29243378448E+03  0.29243378448E+03  0.00000000000E+00 0. -1.
         -2   -1    0    0    0  501 -0.00000000000E+00 -0.00000000000E+00 -0.24610797560E+02  0.24610797560E+02  0.00000000000E+00 0.  1.
         23    2    1    2    0    0 -0.24884067965E+01 -0.48302725832E+02  0.24133808170E+03  0.26190117178E+03  0.89491947166E+02 0.  0.
         11    1    3    3    0    0  0.29310502702E+02 -0.55736914069E+01  0.24466432707E+02  0.38584685226E+02  0.00000000000E+00 0.  1.
        -11    1    3    3    0    0 -0.31798909498E+02 -0.42729034426E+02  0.21687164899E+03  0.22331648655E+03  0.00000000000E+00 0. -1.
         22    1    1    2    0    0  0.24884067965E+01  0.48302725832E+02  0.26484905221E+02  0.55143410266E+02  0.00000000000E+00 0.  1.
<mgrwt>
<rscale>  0 0.84471534E+02</rscale>
<asrwt>0</asrwt>
<pdfrwt beam="1">  1        2 0.44989811E-01 0.10172588E+03</pdfrwt>
<pdfrwt beam="2">  1       -2 0.37862768E-02 0.10172588E+03</pdfrwt>
<totfact> 0.30167350E+04</totfact>
</mgrwt>
</event>
<event>
 6    1  0.3062576E-002  0.1313897E+03  0.7546771E-02  0.1241464E+00
          2   -1    0    0  501    0  0.00000000000E+00  0.00000000000E+00  0.28647053752E+03  0.28647053752E+03  0.00000000000E+00 0. -1.
         -2   -1    0    0    0  501 -0.00000000000E+00 -0.00000000000E+00 -0.44658671487E+02  0.44658671487E+02  0.00000000000E+00 0.  1.
         23    2    1    2    0    0  0.42884491754E+02 -0.84200008145E+02  0.14947289214E+03  0.19901105316E+03  0.91293662382E+02 0.  0.
         11    1    3    3    0    0  0.52336917527E+02 -0.58788689730E+02  0.44134010127E+02  0.90238981744E+02  0.00000000000E+00 0. -1.
        -11    1    3    3    0    0 -0.94524257724E+01 -0.25411318415E+02  0.10533888202E+03  0.10877207142E+03  0.00000000000E+00 0.  1.
         22    1    1    2    0    0 -0.42884491754E+02  0.84200008145E+02  0.92338973896E+02  0.13211815585E+03  0.00000000000E+00 0.  1.
<mgrwt>
<rscale>  0 0.12099562E+03</rscale>
<asrwt>0</asrwt>
<pdfrwt beam="1">  1        2 0.44072389E-01 0.13138970E+03</pdfrwt>
<pdfrwt beam="2">  1       -2 0.68705650E-02 0.13138970E+03</pdfrwt>
<totfact> 0.12949008E+04</totfact>
</mgrwt>
</event>
<event>
 6    1  0.3062576E-002  0.9603021E+02  0.7546771E-02  0.1356272E+00
         -2   -1    0    0    0  501 -0.00000000000E+00  0.00000000000E+00  0.90030636308E+01  0.90030636308E+01  0.00000000000E+00 0.  1.
          2   -1    0    0  501    0  0.00000000000E+00 -0.00000000000E+00 -0.44059308776E+03  0.44059308776E+03  0.00000000000E+00 0. -1.
         23    2    1    2    0    0 -0.28707882589E+02 -0.34604877758E+01 -0.35397315350E+03  0.36676803959E+03  0.91573380231E+02 0.  0.
         11    1    3    3    0    0 -0.36563492246E+02  0.82590215881E+00 -0.46474728334E+02  0.59139423850E+02  0.00000000000E+00 0.  1.
        -11    1    3    3    0    0  0.78556096570E+01 -0.42863899346E+01 -0.30749842517E+03  0.30762861574E+03  0.00000000000E+00 0. -1.
         22    1    1    2    0    0  0.28707882589E+02  0.34604877758E+01 -0.77616870630E+02  0.82828111803E+02  0.00000000000E+00 0. -1.
<mgrwt>
<rscale>  0 0.71135981E+02</rscale>
<asrwt>0</asrwt>
<pdfrwt beam="1">  1        2 0.67783537E-01 0.96030211E+02</pdfrwt>
<pdfrwt beam="2">  1       -2 0.13850870E-02 0.96030211E+02</pdfrwt>
<totfact> 0.83299467E+04</totfact>
</mgrwt>
</event>
<event>
 6    1  0.3062576E-002  0.9366025E+02  0.7546771E-02  0.1382553E+00
          1   -1    0    0  501    0  0.00000000000E+00  0.00000000000E+00  0.10365685187E+04  0.10365685187E+04  0.00000000000E+00 0. -1.
         -1   -1    0    0    0  501 -0.00000000000E+00 -0.00000000000E+00 -0.45412234340E+01  0.45412234340E+01  0.00000000000E+00 0.  1.
         23    2    1    2    0    0 -0.19356368892E+02  0.56443292300E+01  0.99079172381E+03  0.99520876369E+03  0.91464287419E+02 0.  0.
         11    1    3    3    0    0 -0.21211177872E+02  0.41888921464E+02  0.31894644149E+03  0.32238397656E+03  0.00000000000E+00 0.  1.
        -11    1    3    3    0    0  0.18548089796E+01 -0.36244592234E+02  0.67184528233E+03  0.67282478712E+03  0.00000000000E+00 0. -1.
         22    1    1    2    0    0  0.19356368892E+02 -0.56443292300E+01  0.41235571428E+02  0.45900978422E+02  0.00000000000E+00 0.  1.
<mgrwt>
<rscale>  0 0.63797365E+02</rscale>
<asrwt>0</asrwt>
<pdfrwt beam="1">  1        1 0.15947189E+00 0.93660255E+02</pdfrwt>
<pdfrwt beam="2">  1       -1 0.69865059E-03 0.93660255E+02</pdfrwt>
<totfact> 0.43061923E+04</totfact>
</mgrwt>
</event>
<event>
 6    1  0.3062576E-002  0.8829966E+02  0.7546771E-02  0.1425245E+00
          2   -1    0    0  501    0  0.00000000000E+00  0.00000000000E+00  0.24069673805E+02  0.24069673805E+02  0.00000000000E+00 0. -1.
         -2   -1    0    0    0  501 -0.00000000000E+00 -0.00000000000E+00 -0.11935217325E+03  0.11935217325E+03  0.00000000000E+00 0.  1.
         23    2    1    2    0    0 -0.90167118514E+01 -0.83419526371E+01 -0.61856619118E+02  0.10781034972E+03  0.87441071086E+02 0.  0.
         11    1    3    3    0    0 -0.49810721870E+01 -0.26857848415E+02  0.13242921207E+02  0.30356713651E+02  0.00000000000E+00 0. -1.
        -11    1    3    3    0    0 -0.40356396644E+01  0.18515895778E+02 -0.75099540325E+02  0.77453636073E+02  0.00000000000E+00 0.  1.
         22    1    1    2    0    0  0.90167118514E+01  0.83419526371E+01 -0.33425880328E+02  0.35611497331E+02  0.00000000000E+00 0. -1.
<mgrwt>
<rscale>  0 0.53926418E+02</rscale>
<asrwt>0</asrwt>
<pdfrwt beam="1">  1        2 0.37030267E-02 0.88299661E+02</pdfrwt>
<pdfrwt beam="2">  1       -2 0.18361873E-01 0.88299661E+02</pdfrwt>
<totfact> 0.48966602E+04</totfact>
</mgrwt>
</event>
<event>
 6    1  0.3062576E-002  0.1106944E+03  0.7546771E-02  0.1295109E+00
          2   -1    0    0  501    0  0.00000000000E+00  0.00000000000E+00  0.26466946062E+03  0.26466946062E+03  0.00000000000E+00 0. -1.
         -2   -1    0    0    0  501 -0.00000000000E+00 -0.00000000000E+00 -0.26336045553E+02  0.26336045553E+02  0.00000000000E+00 0.  1.
         23    2    1    2    0    0  0.63943247238E+01 -0.55439303639E+02  0.16859515092E+03  0.20168681125E+03  0.95597286268E+02 0.  0.
         13    1    3    3    0    0  0.79993399867E+01 -0.48320313183E+02  0.18088226337E+03  0.18739593194E+03  0.00000000000E+00 0. -1.
        -13    1    3    3    0    0 -0.16050152629E+01 -0.71189904552E+01 -0.12287112449E+02  0.14290879309E+02  0.00000000000E+00 0.  1.
         22    1    1    2    0    0 -0.63943247238E+01  0.55439303639E+02  0.69738264144E+02  0.89318694921E+02  0.00000000000E+00 0. -1.
<mgrwt>
<rscale>  0 0.93275166E+02</rscale>
<asrwt>0</asrwt>
<pdfrwt beam="1">  1        2 0.40718377E-01 0.11069438E+03</pdfrwt>
<pdfrwt beam="2">  1       -2 0.40516995E-02 0.11069438E+03</pdfrwt>
<totfact> 0.30606819E+04</totfact>
</mgrwt>
</event>
<event>
 6    1  0.3062576E-002  0.9215146E+02  0.7546771E-02  0.1419040E+00
         -2   -1    0    0    0  501 -0.00000000000E+00  0.00000000000E+00  0.38891995619E+02  0.38891995619E+02  0.00000000000E+00 0. -1.
          2   -1    0    0  501    0  0.00000000000E+00 -0.00000000000E+00 -0.69658034186E+02  0.69658034186E+02  0.00000000000E+00 0.  1.
         23    2    1    2    0    0 -0.63194045820E+01 -0.10066489711E+02 -0.28426578683E+02  0.96436311882E+02  0.91381742074E+02 0.  0.
         13    1    3    3    0    0  0.38968464534E+02 -0.21416090316E+02 -0.20947453433E+02  0.49152680068E+02  0.00000000000E+00 0. -1.
        -13    1    3    3    0    0 -0.45287869116E+02  0.11349600604E+02 -0.74791252506E+01  0.47283631814E+02  0.00000000000E+00 0.  1.
         22    1    1    2    0    0  0.63194045820E+01  0.10066489711E+02 -0.23394598834E+01  0.12113717923E+02  0.00000000000E+00 0.  1.
<mgrwt>
<rscale>  0 0.55224598E+02</rscale>
<asrwt>0</asrwt>
<pdfrwt beam="1">  1        2 0.10716620E-01 0.92151462E+02</pdfrwt>
<pdfrwt beam="2">  1       -2 0.59833840E-02 0.92151462E+02</pdfrwt>
<totfact> 0.74550416E+04</totfact>
</mgrwt>
</event>
<event>
 6    1  0.3062576E-002  0.9542412E+02  0.7546771E-02  0.1363415E+00
         -1   -1    0    0    0  501 -0.00000000000E+00  0.00000000000E+00  0.97317093995E+01  0.97317093995E+01  0.00000000000E+00 0.  1.
          1   -1    0    0  501    0  0.00000000000E+00 -0.00000000000E+00 -0.59177933359E+03  0.59177933359E+03  0.00000000000E+00 0. -1.
         23    2    1    2    0    0 -0.25634542994E+01  0.26009821196E+02 -0.55765611713E+03  0.56576152952E+03  0.91775166672E+02 0.  0.
         13    1    3    3    0    0  0.54804050282E+00 -0.18528949631E+02 -0.43220523252E+03  0.43260257204E+03  0.00000000000E+00 0. -1.
        -13    1    3    3    0    0 -0.31114948022E+01  0.44538770828E+02 -0.12545088461E+03  0.13315895748E+03  0.00000000000E+00 0.  1.
         22    1    1    2    0    0  0.25634542994E+01 -0.26009821196E+02 -0.24391507065E+02  0.35749513472E+02  0.00000000000E+00 0.  1.
<mgrwt>
<rscale>  0 0.69032364E+02</rscale>
<asrwt>0</asrwt>
<pdfrwt beam="1">  1        1 0.91042984E-01 0.95424123E+02</pdfrwt>
<pdfrwt beam="2">  1       -1 0.14971859E-02 0.95424123E+02</pdfrwt>
<totfact> 0.33820119E+04</totfact>
</mgrwt>
</event>
<event>
 6    1  0.3062576E-002  0.9207903E+02  0.7546771E-02  0.1426524E+00
         -2   -1    0    0    0  501 -0.00000000000E+00  0.00000000000E+00  0.70379528104E+02  0.70379528104E+02  0.00000000000E+00 0.  1.
          2   -1    0    0  501    0  0.00000000000E+00 -0.00000000000E+00 -0.42974875372E+02  0.42974875372E+02  0.00000000000E+00 0. -1.
         23    2    1    2    0    0  0.94693333366E+01  0.48149934263E+01  0.95427444662E+01  0.92572194680E+02  0.91464172332E+02 0.  0.
         11    1    3    3    0    0  0.13080982395E+02 -0.42510787157E+02  0.71467608188E+01  0.45048366400E+02  0.00000000000E+00 0.  1.
        -11    1    3    3    0    0 -0.36116490581E+01  0.47325780583E+02  0.23959836474E+01  0.47523828280E+02  0.00000000000E+00 0. -1.
         22    1    1    2    0    0 -0.94693333366E+01 -0.48149934263E+01  0.17861908266E+02  0.20782208796E+02  0.00000000000E+00 0.  1.
<mgrwt>
<rscale>  0 0.53664169E+02</rscale>
<asrwt>0</asrwt>
<pdfrwt beam="1">  1        2 0.66115193E-02 0.92079027E+02</pdfrwt>
<pdfrwt beam="2">  1       -2 0.10827620E-01 0.92079027E+02</pdfrwt>
<totfact> 0.54557193E+04</totfact>
</mgrwt>
</event>
<event>
 6    1  0.3062576E-002  0.9066052E+02  0.7546771E-02  0.1414238E+00
         -2   -1    0    0    0  501 -0.00000000000E+00  0.00000000000E+00  0.37526468670E+02  0.37526468670E+02  0.00000000000E+00 0.  1.
          2   -1    0    0  501    0  0.00000000000E+00 -0.00000000000E+00 -0.77840206565E+02  0.77840206565E+02  0.00000000000E+00 0. -1.
         23    2    1    2    0    0  0.11723706242E+02  0.65786845970E+01 -0.44890416126E+02  0.10116560616E+03  0.89658273637E+02 0.  0.
         11    1    3    3    0    0 -0.24174759475E+02 -0.28266572455E+02 -0.57308814292E+01  0.37633244824E+02  0.00000000000E+00 0. -1.
        -11    1    3    3    0    0  0.35898465717E+02  0.34845257052E+02 -0.39159534697E+02  0.63532361341E+02  0.00000000000E+00 0.  1.
         22    1    1    2    0    0 -0.11723706242E+02 -0.65786845970E+01  0.45766782313E+01  0.14201069070E+02  0.00000000000E+00 0. -1.
<mgrwt>
<rscale>  0 0.56258838E+02</rscale>
<asrwt>0</asrwt>
<pdfrwt beam="1">  1        2 0.11975416E-01 0.90660523E+02</pdfrwt>
<pdfrwt beam="2">  1       -2 0.57733030E-02 0.90660523E+02</pdfrwt>
<totfact> 0.68707686E+04</totfact>
</mgrwt>
</event>
<event>
 6    1  0.3062576E-002  0.1049491E+03  0.7546771E-02  0.1386060E+00
          1   -1    0    0  501    0  0.00000000000E+00  0.00000000000E+00  0.32299279069E+03  0.32299279069E+03  0.00000000000E+00 0. -1.
         -1   -1    0    0    0  501 -0.00000000000E+00 -0.00000000000E+00 -0.12268681407E+02  0.12268681407E+02  0.00000000000E+00 0.  1.
         23    2    1    2    0    0 -0.13307986757E+02 -0.24914581709E+01  0.30048845248E+03  0.31828859534E+03  0.10407213831E+03 0.  0.
         13    1    3    3    0    0  0.19755735102E+01  0.38080816401E+02  0.24460363793E+03  0.24755805614E+03  0.00000000000E+00 0. -1.
        -13    1    3    3    0    0 -0.15283560267E+02 -0.40572274572E+02  0.55884814549E+02  0.70730539200E+02  0.00000000000E+00 0.  1.
         22    1    1    2    0    0  0.13307986757E+02  0.24914581709E+01  0.10235656801E+02  0.16972876759E+02  0.00000000000E+00 0.  1.
<mgrwt>
<rscale>  0 0.62897352E+02</rscale>
<asrwt>0</asrwt>
<pdfrwt beam="1">  1        1 0.49691192E-01 0.10494913E+03</pdfrwt>
<pdfrwt beam="2">  1       -1 0.18874897E-02 0.10494913E+03</pdfrwt>
<totfact> 0.53007214E+04</totfact>
</mgrwt>
</event>
<event>
 6    1  0.3062576E-002  0.9420050E+02  0.7546771E-02  0.1392630E+00
         -1   -1    0    0    0  501 -0.00000000000E+00  0.00000000000E+00  0.29914187444E+02  0.29914187444E+02  0.00000000000E+00 0.  1.
          1   -1    0    0  501    0  0.00000000000E+00 -0.00000000000E+00 -0.21988049870E+03  0.21988049870E+03  0.00000000000E+00 0. -1.
         23    2    1    2    0    0  0.14598199557E+02 -0.84052377192E+01 -0.20601395575E+03  0.22652921075E+03  0.92682133703E+02 0.  0.
         13    1    3    3    0    0 -0.18215067582E+02  0.14521830255E+02 -0.17322643033E+03  0.17478577861E+03  0.00000000000E+00 0. -1.
        -13    1    3    3    0    0  0.32813267139E+02 -0.22927067974E+02 -0.32787525427E+02  0.51743432142E+02  0.00000000000E+00 0.  1.
         22    1    1    2    0    0 -0.14598199557E+02  0.84052377192E+01  0.16047644495E+02  0.23265475393E+02  0.00000000000E+00 0.  1.
<mgrwt>
<rscale>  0 0.61257309E+02</rscale>
<asrwt>0</asrwt>
<pdfrwt beam="1">  1        1 0.33827767E-01 0.94200496E+02</pdfrwt>
<pdfrwt beam="2">  1       -1 0.46021829E-02 0.94200496E+02</pdfrwt>
<totfact> 0.23134527E+04</totfact>
</mgrwt>
</event>
<event>
 6    1  0.3062576E-002  0.9281802E+02  0.7546771E-02  0.1382193E+00
         -2   -1    0    0    0  501 -0.00000000000E+00  0.00000000000E+00  0.30944097046E+02  0.30944097046E+02  0.00000000000E+00 0.  1.
          2   -1    0    0  501    0  0.00000000000E+00 -0.00000000000E+00 -0.21542611362E+03  0.21542611362E+03  0.00000000000E+00 0. -1.
         23    2    1    2    0    0  0.81547358862E+01  0.19176324915E+02 -0.19993360981E+03  0.22042829693E+03  0.90448629630E+02 0.  0.
         13    1    3    3    0    0 -0.37592881584E+02  0.14381884703E+02 -0.13486362792E+03  0.14074182566E+03  0.00000000000E+00 0. -1.
        -13    1    3    3    0    0  0.45747617470E+02  0.47944402119E+01 -0.65069981893E+02  0.79686471278E+02  0.00000000000E+00 0.  1.
         22    1    1    2    0    0 -0.81547358862E+01 -0.19176324915E+02  0.15451593237E+02  0.25941913734E+02  0.00000000000E+00 0.  1.
<mgrwt>
<rscale>  0 0.63890953E+02</rscale>
<asrwt>0</asrwt>
<pdfrwt beam="1">  1        2 0.33142480E-01 0.92818025E+02</pdfrwt>
<pdfrwt beam="2">  1       -2 0.47606302E-02 0.92818025E+02</pdfrwt>
<totfact> 0.29375324E+04</totfact>
</mgrwt>
</event>
<event>
 6    1  0.3062576E-002  0.9276312E+02  0.7546771E-02  0.1407000E+00
          2   -1    0    0  501    0  0.00000000000E+00  0.00000000000E+00  0.53981137287E+03  0.53981137287E+03  0.00000000000E+00 0. -1.
         -2   -1    0    0    0  501 -0.00000000000E+00 -0.00000000000E+00 -0.54517843091E+01  0.54517843091E+01  0.00000000000E+00 0.  1.
         23    2    1    2    0    0  0.13878419696E+02 -0.21830651934E+01  0.49094955257E+03  0.49963632810E+03  0.91693079803E+02 0.  0.
         11    1    3    3    0    0  0.10996336691E+02 -0.36942209020E+02  0.40571276838E+03  0.40753956453E+03  0.00000000000E+00 0. -1.
        -11    1    3    3    0    0  0.28820830053E+01  0.34759143827E+02  0.85236784189E+02  0.92096763574E+02  0.00000000000E+00 0.  1.
         22    1    1    2    0    0 -0.13878419696E+02  0.21830651934E+01  0.43410035994E+02  0.45626829080E+02  0.00000000000E+00 0. -1.
<mgrwt>
<rscale>  0 0.57868657E+02</rscale>
<asrwt>0</asrwt>
<pdfrwt beam="1">  1        2 0.83047861E-01 0.92763124E+02</pdfrwt>
<pdfrwt beam="2">  1       -2 0.83873647E-03 0.92763124E+02</pdfrwt>
<totfact> 0.13565128E+05</totfact>
</mgrwt>
</event>
<event>
 6    1  0.3062576E-002  0.9942873E+02  0.7546771E-02  0.1309195E+00
         -2   -1    0    0    0  501 -0.00000000000E+00  0.00000000000E+00  0.29439424705E+03  0.29439424705E+03  0.00000000000E+00 0.  1.
          2   -1    0    0  501    0  0.00000000000E+00 -0.00000000000E+00 -0.16168194905E+03  0.16168194905E+03  0.00000000000E+00 0. -1.
         23    2    1    2    0    0  0.51411786767E+02  0.29844246170E+02 -0.14292129444E+03  0.17410504842E+03  0.79700819518E+02 0.  0.
         11    1    3    3    0    0  0.12540037061E+01 -0.23332918796E+02 -0.18519114706E+02  0.29815352326E+02  0.00000000000E+00 0.  1.
        -11    1    3    3    0    0  0.50157783061E+02  0.53177164966E+02 -0.12440217973E+03  0.14428969609E+03  0.00000000000E+00 0. -1.
         22    1    1    2    0    0 -0.51411786767E+02 -0.29844246170E+02  0.27563359244E+03  0.28197114769E+03  0.00000000000E+00 0.  1.
<mgrwt>
<rscale>  0 0.87430897E+02</rscale>
<asrwt>0</asrwt>
<pdfrwt beam="1">  1        2 0.24874146E-01 0.99428726E+02</pdfrwt>
<pdfrwt beam="2">  1       -2 0.45291423E-01 0.99428726E+02</pdfrwt>
<totfact> 0.98694408E+02</totfact>
</mgrwt>
</event>
<event>
 6    1  0.3062576E-002  0.9139490E+02  0.7546771E-02  0.1407892E+00
         -2   -1    0    0    0  501 -0.00000000000E+00  0.00000000000E+00  0.18107927188E+03  0.18107927188E+03  0.00000000000E+00 0.  1.
          2   -1    0    0  501    0  0.00000000000E+00 -0.00000000000E+00 -0.16970853770E+02  0.16970853770E+02  0.00000000000E+00 0. -1.
         23    2    1    2    0    0 -0.42011655833E-01  0.14485634456E+02  0.11525493323E+03  0.14709427854E+03  0.90239635263E+02 0.  0.
         11    1    3    3    0    0  0.16609552095E+02  0.44633277401E+02  0.33055471433E+02  0.57971293448E+02  0.00000000000E+00 0. -1.
        -11    1    3    3    0    0 -0.16651563751E+02 -0.30147642945E+02  0.82199461801E+02  0.89122985087E+02  0.00000000000E+00 0.  1.
         22    1    1    2    0    0  0.42011655833E-01 -0.14485634456E+02  0.48853484880E+02  0.50955847118E+02  0.00000000000E+00 0. -1.
<mgrwt>
<rscale>  0 0.57666859E+02</rscale>
<asrwt>0</asrwt>
<pdfrwt beam="1">  1        2 0.26109007E-02 0.91394897E+02</pdfrwt>
<pdfrwt beam="2">  1       -2 0.27858348E-01 0.91394897E+02</pdfrwt>
<totfact> 0.38405574E+04</totfact>
</mgrwt>
</event>
<event>
 6    1  0.3062576E-002  0.9229647E+02  0.7546771E-02  0.1396142E+00
         -1   -1    0    0    0  501 -0.00000000000E+00  0.00000000000E+00  0.89981229024E+02  0.89981229024E+02  0.00000000000E+00 0.  1.
          1   -1    0    0  501    0  0.00000000000E+00 -0.00000000000E+00 -0.23800072113E+03  0.23800072113E+03  0.00000000000E+00 0. -1.
         23    2    1    2    0    0 -0.10605286363E+02 -0.13199802566E+02 -0.22813430478E+03  0.24609733564E+03  0.90729987909E+02 0.  0.
         11    1    3    3    0    0  0.22169428386E+02 -0.27912180975E+02 -0.19149344083E+03  0.19478272840E+03  0.00000000000E+00 0. -1.
        -11    1    3    3    0    0 -0.32774714748E+02  0.14712378409E+02 -0.36640863942E+02  0.51314607235E+02  0.00000000000E+00 0.  1.
         22    1    1    2    0    0  0.10605286363E+02  0.13199802566E+02  0.80114812665E+02  0.81884614520E+02  0.00000000000E+00 0.  1.
<mgrwt>
<rscale>  0 0.60404399E+02</rscale>
<asrwt>0</asrwt>
<pdfrwt beam="1">  1        1 0.36615495E-01 0.92296466E+02</pdfrwt>
<pdfrwt beam="2">  1       -1 0.13843266E-01 0.92296466E+02</pdfrwt>
<totfact> 0.40364390E+03</totfact>
</mgrwt>
</event>
<event>
 6    1  0.3062576E-002  0.9312327E+02  0.7546771E-02  0.1423181E+00
         -1   -1    0    0    0  501 -0.00000000000E+00  0.00000000000E+00  0.41315755023E+02  0.41315755023E+02  0.00000000000E+00 0.  1.
          1   -1    0    0  501    0  0.00000000000E+00 -0.00000000000E+00 -0.66609947287E+02  0.66609947287E+02  0.00000000000E+00 0. -1.
         23    2    1    2    0    0 -0.58939061817E+01  0.90592736872E+01 -0.27058667281E+02  0.96974814588E+02  0.92493970720E+02 0.  0.
         13    1    3    3    0    0  0.38953599198E+02  0.11963884959E+02 -0.31931357952E+02  0.51769962859E+02  0.00000000000E+00 0. -1.
        -13    1    3    3    0    0 -0.44847505380E+02 -0.29046112721E+01  0.48726906706E+01  0.45204851728E+02  0.00000000000E+00 0.  1.
         22    1    1    2    0    0  0.58939061817E+01 -0.90592736872E+01  0.17644750177E+01  0.10950887722E+02  0.00000000000E+00 0.  1.
<mgrwt>
<rscale>  0 0.54353560E+02</rscale>
<asrwt>0</asrwt>
<pdfrwt beam="1">  1        1 0.10247684E-01 0.93123269E+02</pdfrwt>
<pdfrwt beam="2">  1       -1 0.63562701E-02 0.93123269E+02</pdfrwt>
<totfact> 0.65021555E+04</totfact>
</mgrwt>
</event>
<event>
 6    1  0.3062576E-002  0.9198206E+02  0.7546771E-02  0.1422610E+00
          2   -1    0    0  501    0  0.00000000000E+00  0.00000000000E+00  0.56687127738E+03  0.56687127738E+03  0.00000000000E+00 0. -1.
         -2   -1    0    0    0  501 -0.00000000000E+00 -0.00000000000E+00 -0.48878634987E+01  0.48878634987E+01  0.00000000000E+00 0.  1.
         23    2    1    2    0    0  0.89656311357E+01  0.69004473141E+01  0.52771655197E+03  0.53567290333E+03  0.91283631773E+02 0.  0.
         13    1    3    3    0    0  0.44576860951E+02 -0.31784403109E+01  0.40604692075E+03  0.40849883827E+03  0.00000000000E+00 0. -1.
        -13    1    3    3    0    0 -0.35611229815E+02  0.10078887625E+02  0.12166963121E+03  0.12717406506E+03  0.00000000000E+00 0.  1.
         22    1    1    2    0    0 -0.89656311357E+01 -0.69004473141E+01  0.34266861913E+02  0.36086237545E+02  0.00000000000E+00 0.  1.
<mgrwt>
<rscale>  0 0.54472595E+02</rscale>
<asrwt>0</asrwt>
<pdfrwt beam="1">  1        2 0.87210914E-01 0.91982064E+02</pdfrwt>
<pdfrwt beam="2">  1       -2 0.75197945E-03 0.91982064E+02</pdfrwt>
<totfact> 0.14976330E+05</totfact>
</mgrwt>
</event>
<event>
 6    1  0.3062576E-002  0.9762459E+02  0.7546771E-02  0.1343000E+00
          2   -1    0    0  501    0  0.00000000000E+00  0.00000000000E+00  0.15153646051E+03  0.15153646051E+03  0.00000000000E+00 0.  1.
         -2   -1    0    0    0  501 -0.00000000000E+00 -0.00000000000E+00 -0.28859787847E+02  0.28859787847E+02  0.00000000000E+00 0. -1.
         23    2    1    2    0    0 -0.20039986943E+02 -0.28108933498E+02  0.87255246117E+02  0.13093524677E+03  0.91317291098E+02 0.  0.
         13    1    3    3    0    0 -0.10461051697E+02 -0.60757689322E+02  0.43246461828E+02  0.75307283015E+02  0.00000000000E+00 0.  1.
        -13    1    3    3    0    0 -0.95789352462E+01  0.32648755824E+02  0.44008784288E+02  0.55627963758E+02  0.00000000000E+00 0. -1.
         22    1    1    2    0    0  0.20039986943E+02  0.28108933498E+02  0.35421426544E+02  0.49461001582E+02  0.00000000000E+00 0. -1.
<mgrwt>
<rscale>  0 0.75281956E+02</rscale>
<asrwt>0</asrwt>
<pdfrwt beam="1">  1        2 0.23313301E-01 0.97624592E+02</pdfrwt>
<pdfrwt beam="2">  1       -2 0.44399675E-02 0.97624592E+02</pdfrwt>
<totfact> 0.47914473E+04</totfact>
</mgrwt>
</event>
<event>
 6    1  0.3062576E-002  0.9251806E+02  0.7546771E-02  0.1368507E+00
          1   -1    0    0  501    0  0.00000000000E+00  0.00000000000E+00  0.21422228233E+03  0.21422228233E+03  0.00000000000E+00 0. -1.
         -1   -1    0    0    0  501 -0.00000000000E+00 -0.00000000000E+00 -0.17667788952E+02  0.17667788952E+02  0.00000000000E+00 0.  1.
         23    2    1    2    0    0 -0.21366983764E+01  0.26257884265E+02  0.17459654645E+03  0.19759439518E+03  0.88687930457E+02 0.  0.
         11    1    3    3    0    0 -0.43013435522E+02  0.77772507756E+01  0.11480703600E+03  0.12284663927E+03  0.00000000000E+00 0. -1.
        -11    1    3    3    0    0  0.40876737145E+02  0.18480633489E+02  0.59789510451E+02  0.74747755911E+02  0.00000000000E+00 0.  1.
         22    1    1    2    0    0  0.21366983764E+01 -0.26257884265E+02  0.21957946934E+02  0.34295676106E+02  0.00000000000E+00 0.  1.
<mgrwt>
<rscale>  0 0.67583876E+02</rscale>
<asrwt>0</asrwt>
<pdfrwt beam="1">  1        1 0.32957272E-01 0.92518058E+02</pdfrwt>
<pdfrwt beam="2">  1       -1 0.27181215E-02 0.92518058E+02</pdfrwt>
<totfact> 0.51097771E+04</totfact>
</mgrwt>
</event>
<event>
 6    1  0.3062576E-002  0.1079870E+03  0.7546771E-02  0.1369498E+00
         -2   -1    0    0    0  501 -0.00000000000E+00  0.00000000000E+00  0.19431601513E+02  0.19431601513E+02  0.00000000000E+00 0.  1.
          2   -1    0    0  501    0  0.00000000000E+00 -0.00000000000E+00 -0.34620847178E+03  0.34620847178E+03  0.00000000000E+00 0. -1.
         23    2    1    2    0    0 -0.58772812030E+01  0.15201023756E+02 -0.33152167919E+03  0.34866577599E+03  0.10675011014E+03 0.  0.
         11    1    3    3    0    0  0.21267182690E+02  0.54787331739E+02 -0.20808625427E+03  0.21622634898E+03  0.00000000000E+00 0. -1.
        -11    1    3    3    0    0 -0.27144463893E+02 -0.39586307984E+02 -0.12343542492E+03  0.13243942700E+03  0.00000000000E+00 0.  1.
         22    1    1    2    0    0  0.58772812030E+01 -0.15201023756E+02  0.47448089169E+01  0.16974297311E+02  0.00000000000E+00 0.  1.
<mgrwt>
<rscale>  0 0.67306962E+02</rscale>
<asrwt>0</asrwt>
<pdfrwt beam="1">  1        2 0.53262835E-01 0.10798703E+03</pdfrwt>
<pdfrwt beam="2">  1       -2 0.29894775E-02 0.10798703E+03</pdfrwt>
<totfact> 0.35966974E+04</totfact>
</mgrwt>
</event>
<event>
 6    1  0.3062576E-002  0.9479088E+02  0.7546771E-02  0.1377272E+00
         -2   -1    0    0    0  501 -0.00000000000E+00  0.00000000000E+00  0.13151653146E+02  0.13151653146E+02  0.00000000000E+00 0. -1.
          2   -1    0    0  501    0  0.00000000000E+00 -0.00000000000E+00 -0.53002235976E+03  0.53002235976E+03  0.00000000000E+00 0.  1.
         23    2    1    2    0    0  0.20966006184E+02  0.31377384852E+01 -0.51292510788E+03  0.52161046572E+03  0.92389895735E+02 0.  0.
         13    1    3    3    0    0 -0.22489248609E+00  0.32287476955E+02 -0.42977917821E+03  0.43099034069E+03  0.00000000000E+00 0.  1.
        -13    1    3    3    0    0  0.21190898670E+02 -0.29149738470E+02 -0.83145929665E+02  0.90620125023E+02  0.00000000000E+00 0. -1.
         22    1    1    2    0    0 -0.20966006184E+02 -0.31377384852E+01 -0.39455987372E+01  0.21563547192E+02  0.00000000000E+00 0. -1.
<mgrwt>
<rscale>  0 0.65186301E+02</rscale>
<asrwt>0</asrwt>
<pdfrwt beam="1">  1        2 0.81541914E-01 0.94790884E+02</pdfrwt>
<pdfrwt beam="2">  1       -2 0.20233309E-02 0.94790884E+02</pdfrwt>
<totfact> 0.39601174E+04</totfact>
</mgrwt>
</event>
<event>
 6    1  0.3062576E-002  0.9319936E+02  0.7546771E-02  0.1384075E+00
          2   -1    0    0  501    0  0.00000000000E+00  0.00000000000E+00  0.93929906145E+03  0.93929906145E+03  0.00000000000E+00 0. -1.
         -2   -1    0    0    0  501 -0.00000000000E+00 -0.00000000000E+00 -0.73729445645E+01  0.73729445645E+01  0.00000000000E+00 0.  1.
         23    2    1    2    0    0  0.85225163527E+01  0.18053368448E+02  0.91705341208E+03  0.92177713214E+03  0.91036055051E+02 0.  0.
         13    1    3    3    0    0  0.27843980299E+02  0.39746879579E+02  0.78806659859E+03  0.78955941226E+03  0.00000000000E+00 0. -1.
        -13    1    3    3    0    0 -0.19321463946E+02 -0.21693511131E+02  0.12898681349E+03  0.13221771987E+03  0.00000000000E+00 0.  1.
         22    1    1    2    0    0 -0.85225163527E+01 -0.18053368448E+02  0.14872704805E+02  0.24894873880E+02  0.00000000000E+00 0.  1.
<mgrwt>
<rscale>  0 0.63404642E+02</rscale>
<asrwt>0</asrwt>
<pdfrwt beam="1">  1        2 0.14450745E+00 0.93199360E+02</pdfrwt>
<pdfrwt beam="2">  1       -2 0.11342999E-02 0.93199360E+02</pdfrwt>
<totfact> 0.45957086E+04</totfact>
</mgrwt>
</event>
<event>
 6    1  0.3062576E-002  0.9959952E+02  0.7546771E-02  0.1322007E+00
          1   -1    0    0  501    0  0.00000000000E+00  0.00000000000E+00  0.61005776843E+03  0.61005776843E+03  0.00000000000E+00 0. -1.
         -1   -1    0    0    0  501 -0.00000000000E+00 -0.00000000000E+00 -0.97758511339E+01  0.97758511339E+01  0.00000000000E+00 0.  1.
         23    2    1    2    0    0 -0.40479519664E+01 -0.46791170265E+02  0.48911288994E+03  0.49915076174E+03  0.87830884700E+02 0.  0.
         11    1    3    3    0    0  0.23410882733E+01 -0.36193628608E+02  0.61786023768E+02  0.71644763795E+02  0.00000000000E+00 0. -1.
        -11    1    3    3    0    0 -0.63890402397E+01 -0.10597541657E+02  0.42732686617E+03  0.42750599794E+03  0.00000000000E+00 0.  1.
         22    1    1    2    0    0  0.40479519664E+01  0.46791170265E+02  0.11116902735E+03  0.12068285782E+03  0.00000000000E+00 0.  1.
<mgrwt>
<rscale>  0 0.82535100E+02</rscale>
<asrwt>0</asrwt>
<pdfrwt beam="1">  1        1 0.93855012E-01 0.99599517E+02</pdfrwt>
<pdfrwt beam="2">  1       -1 0.15039776E-02 0.99599517E+02</pdfrwt>
<totfact> 0.32408579E+04</totfact>
</mgrwt>
</event>
<event>
 6    1  0.3062576E-002  0.9799385E+02  0.7546771E-02  0.1399131E+00
          2   -1    0    0  501    0  0.00000000000E+00  0.00000000000E+00  0.42040966478E+03  0.42040966478E+03  0.00000000000E+00 0. -1.
         -2   -1    0    0    0  501 -0.00000000000E+00 -0.00000000000E+00 -0.93860018306E+01  0.93860018306E+01  0.00000000000E+00 0.  1.
         23    2    1    2    0    0  0.67084532017E+01  0.11705119615E+02  0.40148976885E+03  0.41327572998E+03  0.97060709502E+02 0.  0.
         11    1    3    3    0    0  0.18172322627E+02  0.37796910855E+02  0.36283555578E+03  0.36525125643E+03  0.00000000000E+00 0. -1.
        -11    1    3    3    0    0 -0.11463869425E+02 -0.26091791240E+02  0.38654213066E+02  0.48024473554E+02  0.00000000000E+00 0.  1.
         22    1    1    2    0    0 -0.67084532017E+01 -0.11705119615E+02  0.95338940955E+01  0.16519936627E+02  0.00000000000E+00 0.  1.
<mgrwt>
<rscale>  0 0.59691427E+02</rscale>
<asrwt>0</asrwt>
<pdfrwt beam="1">  1        2 0.64678395E-01 0.97993849E+02</pdfrwt>
<pdfrwt beam="2">  1       -2 0.14440006E-02 0.97993849E+02</pdfrwt>
<totfact> 0.82731438E+04</totfact>
</mgrwt>
</event>
<event>
 6    1  0.3062576E-002  0.9603175E+02  0.7546771E-02  0.1405460E+00
         -2   -1    0    0    0  501 -0.00000000000E+00  0.00000000000E+00  0.44788277516E+01  0.44788277516E+01  0.00000000000E+00 0.  1.
          2   -1    0    0  501    0  0.00000000000E+00 -0.00000000000E+00 -0.66463253725E+03  0.66463253725E+03  0.00000000000E+00 0. -1.
         23    2    1    2    0    0  0.11598330619E+02  0.58107118153E+01 -0.59103400359E+03  0.59878484518E+03  0.95151520094E+02 0.  0.
         13    1    3    3    0    0  0.23093960753E+02 -0.89607165635E+01 -0.57035549460E+03  0.57089317362E+03  0.00000000000E+00 0. -1.
        -13    1    3    3    0    0 -0.11495630134E+02  0.14771428379E+02 -0.20678508987E+02  0.27891671561E+02  0.00000000000E+00 0.  1.
         22    1    1    2    0    0 -0.11598330619E+02 -0.58107118153E+01 -0.69119705914E+02  0.70326519825E+02  0.00000000000E+00 0. -1.
<mgrwt>
<rscale>  0 0.58219306E+02</rscale>
<asrwt>0</asrwt>
<pdfrwt beam="1">  1        2 0.10225116E+00 0.96031752E+02</pdfrwt>
<pdfrwt beam="2">  1       -2 0.68905040E-03 0.96031752E+02</pdfrwt>
<totfact> 0.14249292E+05</totfact>
</mgrwt>
</event>
<event>
 6    1  0.3062576E-002  0.9733500E+02  0.7546771E-02  0.1342196E+00
          2   -1    0    0  501    0  0.00000000000E+00  0.00000000000E+00  0.20001255960E+03  0.20001255960E+03  0.00000000000E+00 0. -1.
         -2   -1    0    0    0  501 -0.00000000000E+00 -0.00000000000E+00 -0.82212882959E+02  0.82212882959E+02  0.00000000000E+00 0.  1.
         23    2    1    2    0    0 -0.35261796903E+02  0.19732748679E+01  0.18345319022E+03  0.20767564725E+03  0.90701782362E+02 0.  0.
         13    1    3    3    0    0 -0.49551121448E+02  0.42141087856E+01  0.18639553876E+03  0.19291544578E+03  0.00000000000E+00 0. -1.
        -13    1    3    3    0    0  0.14289324546E+02 -0.22408339178E+01 -0.29423485375E+01  0.14760201474E+02  0.00000000000E+00 0.  1.
         22    1    1    2    0    0  0.35261796903E+02 -0.19732748679E+01 -0.65653513583E+02  0.74549795307E+02  0.00000000000E+00 0.  1.
<mgrwt>
<rscale>  0 0.75543588E+02</rscale>
<asrwt>0</asrwt>
<pdfrwt beam="1">  1        2 0.30771163E-01 0.97334996E+02</pdfrwt>
<pdfrwt beam="2">  1       -2 0.12648136E-01 0.97334996E+02</pdfrwt>
<totfact> 0.71599840E+03</totfact>
</mgrwt>
</event>
<event>
 6    1  0.3062576E-002  0.9306175E+02  0.7546771E-02  0.1377051E+00
         -4   -1    0    0    0  501 -0.00000000000E+00  0.00000000000E+00  0.11366721457E+02  0.11366721457E+02  0.00000000000E+00 0.  1.
          4   -1    0    0  501    0  0.00000000000E+00 -0.00000000000E+00 -0.32024413125E+03  0.32024413125E+03  0.00000000000E+00 0. -1.
         23    2    1    2    0    0  0.25795264447E+01 -0.22335995734E+02 -0.27969768316E+03  0.29477327531E+03  0.90304702031E+02 0.  0.
         13    1    3    3    0    0  0.18318080359E+02 -0.42918323488E+02 -0.74235184270E+02  0.87683505534E+02  0.00000000000E+00 0.  1.
        -13    1    3    3    0    0 -0.15738553915E+02  0.20582327755E+02 -0.20546249889E+03  0.20708976978E+03  0.00000000000E+00 0. -1.
         22    1    1    2    0    0 -0.25795264447E+01  0.22335995734E+02 -0.29179726626E+02  0.36837577392E+02  0.00000000000E+00 0. -1.
<mgrwt>
<rscale>  0 0.65245266E+02</rscale>
<asrwt>0</asrwt>
<pdfrwt beam="1">  1        4 0.49268323E-01 0.93061753E+02</pdfrwt>
<pdfrwt beam="2">  1       -4 0.17487266E-02 0.93061753E+02</pdfrwt>
<totfact> 0.73673082E+03</totfact>
</mgrwt>
</event>
<event>
 6    1  0.3062576E-002  0.9310235E+02  0.7546771E-02  0.1424563E+00
          2   -1    0    0  501    0  0.00000000000E+00  0.00000000000E+00  0.15056251519E+04  0.15056251519E+04  0.00000000000E+00 0. -1.
         -2   -1    0    0    0  501 -0.00000000000E+00 -0.00000000000E+00 -0.30693594856E+01  0.30693594856E+01  0.00000000000E+00 0.  1.
         23    2    1    2    0    0 -0.10262290196E+02  0.26093750671E+01  0.14867939849E+04  0.14897061462E+04  0.92498242696E+02 0.  0.
         11    1    3    3    0    0 -0.32749866377E+02 -0.27307398642E+02  0.39969427046E+03  0.40196238333E+03  0.00000000000E+00 0.  1.
        -11    1    3    3    0    0  0.22487576181E+02  0.29916773709E+02  0.10870997145E+04  0.10877437628E+04  0.00000000000E+00 0. -1.
         22    1    1    2    0    0  0.10262290196E+02 -0.26093750671E+01  0.15761807527E+02  0.18988365249E+02  0.00000000000E+00 0. -1.
<mgrwt>
<rscale>  0 0.54067034E+02</rscale>
<asrwt>0</asrwt>
<pdfrwt beam="1">  1        2 0.23163405E+00 0.93102354E+02</pdfrwt>
<pdfrwt beam="2">  1       -2 0.47221035E-03 0.93102354E+02</pdfrwt>
<totfact> 0.77549319E+04</totfact>
</mgrwt>
</event>
<event>
 6    1  0.3062576E-002  0.9303409E+02  0.7546771E-02  0.1420951E+00
          4   -1    0    0  501    0  0.00000000000E+00  0.00000000000E+00  0.79360990503E+02  0.79360990503E+02  0.00000000000E+00 0. -1.
         -4   -1    0    0    0  501 -0.00000000000E+00 -0.00000000000E+00 -0.35437745206E+02  0.35437745206E+02  0.00000000000E+00 0.  1.
         23    2    1    2    0    0  0.10736933377E+02  0.32427398491E+01  0.45339003812E+02  0.10349380439E+03  0.92355536810E+02 0.  0.
         13    1    3    3    0    0 -0.37044459124E+02 -0.52924896625E+01  0.39819350444E+02  0.54643234425E+02  0.00000000000E+00 0. -1.
        -13    1    3    3    0    0  0.47781392501E+02  0.85352295116E+01  0.55196533682E+01  0.48850569961E+02  0.00000000000E+00 0.  1.
         22    1    1    2    0    0 -0.10736933377E+02 -0.32427398491E+01 -0.14157585150E+01  0.11304931324E+02  0.00000000000E+00 0. -1.
<mgrwt>
<rscale>  0 0.54820175E+02</rscale>
<asrwt>0</asrwt>
<pdfrwt beam="1">  1        4 0.12209383E-01 0.93034092E+02</pdfrwt>
<pdfrwt beam="2">  1       -4 0.54519608E-02 0.93034092E+02</pdfrwt>
<totfact> 0.16255658E+04</totfact>
</mgrwt>
</event>
<event>
 6    1  0.3062576E-002  0.9439903E+02  0.7546771E-02  0.1401929E+00
         -2   -1    0    0    0  501 -0.00000000000E+00  0.00000000000E+00  0.18912455776E+02  0.18912455776E+02  0.00000000000E+00 0.  1.
          2   -1    0    0  501    0  0.00000000000E+00 -0.00000000000E+00 -0.20498029061E+03  0.20498029061E+03  0.00000000000E+00 0. -1.
         23    2    1    2    0    0  0.19659970439E+01  0.14303902624E+02 -0.18694593184E+03  0.20942769094E+03  0.93288313985E+02 0.  0.
         13    1    3    3    0    0 -0.48878284888E+01 -0.26044125020E+02 -0.10842478412E+02  0.28631218163E+02  0.00000000000E+00 0.  1.
        -13    1    3    3    0    0  0.68538255326E+01  0.40348027644E+02 -0.17610345343E+03  0.18079647278E+03  0.00000000000E+00 0. -1.
         22    1    1    2    0    0 -0.19659970439E+01 -0.14303902624E+02  0.87809700753E+00  0.14465055445E+02  0.00000000000E+00 0.  1.
<mgrwt>
<rscale>  0 0.59034412E+02</rscale>
<asrwt>0</asrwt>
<pdfrwt beam="1">  1        2 0.31535432E-01 0.94399027E+02</pdfrwt>
<pdfrwt beam="2">  1       -2 0.29096084E-02 0.94399027E+02</pdfrwt>
<totfact> 0.63926360E+04</totfact>
</mgrwt>
</event>
<event>
 6    1  0.3062576E-002  0.9371135E+02  0.7546771E-02  0.1363385E+00
          2   -1    0    0  501    0  0.00000000000E+00  0.00000000000E+00  0.51786722837E+03  0.51786722837E+03  0.00000000000E+00 0. -1.
         -2   -1    0    0    0  501 -0.00000000000E+00 -0.00000000000E+00 -0.73736746517E+01  0.73736746517E+01  0.00000000000E+00 0.  1.
         23    2    1    2    0    0  0.22216381830E+02 -0.16392068197E+02  0.43158361317E+03  0.44164038725E+03  0.89551934453E+02 0.  0.
         11    1    3    3    0    0  0.23983665011E+02  0.21194709169E+02  0.35367995936E+03  0.35512525331E+03  0.00000000000E+00 0. -1.
        -11    1    3    3    0    0 -0.17672831814E+01 -0.37586777366E+02  0.77903653814E+02  0.86515133937E+02  0.00000000000E+00 0.  1.
         22    1    1    2    0    0 -0.22216381830E+02  0.16392068197E+02  0.78909940542E+02  0.83600515774E+02  0.00000000000E+00 0. -1.
<mgrwt>
<rscale>  0 0.69041078E+02</rscale>
<asrwt>0</asrwt>
<pdfrwt beam="1">  1        2 0.79671852E-01 0.93711347E+02</pdfrwt>
<pdfrwt beam="2">  1       -2 0.11344119E-02 0.93711347E+02</pdfrwt>
<totfact> 0.92694625E+04</totfact>
</mgrwt>
</event>
<event>
 6    1  0.3062576E-002  0.9118648E+02  0.7546771E-02  0.1423715E+00
          1   -1    0    0  501    0  0.00000000000E+00  0.00000000000E+00  0.30933817558E+02  0.30933817558E+02  0.00000000000E+00 0. -1.
         -1   -1    0    0    0  501 -0.00000000000E+00 -0.00000000000E+00 -0.85308915713E+02  0.85308915713E+02  0.00000000000E+00 0.  1.
         23    2    1    2    0    0  0.44332334084E+01  0.10521699260E+02 -0.46376725490E+02  0.10230237176E+03  0.90468861421E+02 0.  0.
         13    1    3    3    0    0  0.20770061484E+02 -0.32927249792E+02 -0.34600666294E+01  0.39084156560E+02  0.00000000000E+00 0. -1.
        -13    1    3    3    0    0 -0.16336828076E+02  0.43448949052E+02 -0.42916658861E+02  0.63218215200E+02  0.00000000000E+00 0.  1.
         22    1    1    2    0    0 -0.44332334084E+01 -0.10521699260E+02 -0.79983726648E+01  0.13940361511E+02  0.00000000000E+00 0.  1.
<mgrwt>
<rscale>  0 0.54242634E+02</rscale>
<asrwt>0</asrwt>
<pdfrwt beam="1">  1        1 0.47590489E-02 0.91186483E+02</pdfrwt>
<pdfrwt beam="2">  1       -1 0.13124449E-01 0.91186483E+02</pdfrwt>
<totfact> 0.60539684E+04</totfact>
</mgrwt>
</event>
<event>
 6    1  0.3062576E-002  0.9167151E+02  0.7546771E-02  0.1412788E+00
         -2   -1    0    0    0  501 -0.00000000000E+00  0.00000000000E+00  0.49343576303E+02  0.49343576303E+02  0.00000000000E+00 0.  1.
          2   -1    0    0  501    0  0.00000000000E+00 -0.00000000000E+00 -0.55955500263E+02  0.55955500263E+02  0.00000000000E+00 0. -1.
         23    2    1    2    0    0  0.13010553715E+02 -0.27577022872E+01 -0.40916139353E+01  0.91762777497E+02  0.90701635043E+02 0.  0.
         11    1    3    3    0    0  0.68069695873E+01  0.27786935350E+02 -0.36780138868E+02  0.46596429330E+02  0.00000000000E+00 0. -1.
        -11    1    3    3    0    0  0.62035841274E+01 -0.30544637638E+02  0.32688524933E+02  0.45166348167E+02  0.00000000000E+00 0.  1.
         22    1    1    2    0    0 -0.13010553715E+02  0.27577022872E+01 -0.25203100250E+01  0.13536299069E+02  0.00000000000E+00 0. -1.
<mgrwt>
<rscale>  0 0.56576420E+02</rscale>
<asrwt>0</asrwt>
<pdfrwt beam="1">  1        2 0.86085385E-02 0.91671512E+02</pdfrwt>
<pdfrwt beam="2">  1       -2 0.75913194E-02 0.91671512E+02</pdfrwt>
<totfact> 0.67870599E+04</totfact>
</mgrwt>
</event>
<event>
 6    1  0.3062576E-002  0.1115217E+03  0.7546771E-02  0.1285144E+00
         -2   -1    0    0    0  501 -0.00000000000E+00  0.00000000000E+00  0.17423819793E+02  0.17423819793E+02  0.00000000000E+00 0.  1.
          2   -1    0    0  501    0  0.00000000000E+00 -0.00000000000E+00 -0.45142615003E+03  0.45142615003E+03  0.00000000000E+00 0. -1.
         23    2    1    2    0    0 -0.31433646497E+02 -0.57772135861E+02 -0.26596395658E+03  0.28839889935E+03  0.90063339553E+02 0.  0.
         11    1    3    3    0    0 -0.11979606794E+02  0.18021488454E+02 -0.12776180719E+03  0.12958149714E+03  0.00000000000E+00 0. -1.
        -11    1    3    3    0    0 -0.19454039703E+02 -0.75793624316E+02 -0.13820214939E+03  0.15881740221E+03  0.00000000000E+00 0.  1.
         22    1    1    2    0    0  0.31433646497E+02  0.57772135861E+02 -0.16803837365E+03  0.18045107047E+03  0.00000000000E+00 0.  1.
<mgrwt>
<rscale>  0 0.97729715E+02</rscale>
<asrwt>0</asrwt>
<pdfrwt beam="1">  1        2 0.69450166E-01 0.11152174E+03</pdfrwt>
<pdfrwt beam="2">  1       -2 0.26805881E-02 0.11152174E+03</pdfrwt>
<totfact> 0.31932371E+04</totfact>
</mgrwt>
</event>
<event>
 6    1  0.3062576E-002  0.5852251E+02  0.7546771E-02  0.1511029E+00
          2   -1    0    0  501    0  0.00000000000E+00  0.00000000000E+00  0.50523365416E+03  0.50523365416E+03  0.00000000000E+00 0. -1.
         -2   -1    0    0    0  501 -0.00000000000E+00 -0.00000000000E+00 -0.26750947189E+01  0.26750947189E+01  0.00000000000E+00 0.  1.
         23    2    1    2    0    0 -0.11686755399E+02  0.38145708614E+01  0.45657053043E+03  0.46030591268E+03  0.57216717671E+02 0.  0.
         13    1    3    3    0    0 -0.19113833747E+02 -0.11119694227E+02  0.41391685432E+03  0.41450711518E+03  0.00000000000E+00 0. -1.
        -13    1    3    3    0    0  0.74270783476E+01  0.14934265089E+02  0.42653676113E+02  0.45798797500E+02  0.00000000000E+00 0.  1.
         22    1    1    2    0    0  0.11686755399E+02 -0.38145708614E+01  0.45988029008E+02  0.47602836204E+02  0.00000000000E+00 0.  1.
<mgrwt>
<rscale>  0 0.39619726E+02</rscale>
<asrwt>0</asrwt>
<pdfrwt beam="1">  1        2 0.77728178E-01 0.58522508E+02</pdfrwt>
<pdfrwt beam="2">  1       -2 0.41155344E-03 0.58522508E+02</pdfrwt>
<totfact> 0.36278641E+05</totfact>
</mgrwt>
</event>
<event>
 6    1  0.3062576E-002  0.9426796E+02  0.7546771E-02  0.1397708E+00
          2   -1    0    0  501    0  0.00000000000E+00  0.00000000000E+00  0.20508448285E+03  0.20508448285E+03  0.00000000000E+00 0. -1.
         -2   -1    0    0    0  501 -0.00000000000E+00 -0.00000000000E+00 -0.19115645452E+02  0.19115645452E+02  0.00000000000E+00 0.  1.
         23    2    1    2    0    0  0.94727014789E+01  0.12270010203E+02  0.18619382366E+03  0.20869735943E+03  0.92984744139E+02 0.  0.
         11    1    3    3    0    0  0.24067687536E+02  0.86454128929E+01  0.19115787639E+03  0.19286090960E+03  0.00000000000E+00 0. -1.
        -11    1    3    3    0    0 -0.14594986057E+02  0.36245973096E+01 -0.49640527326E+01  0.15836449829E+02  0.00000000000E+00 0.  1.
         22    1    1    2    0    0 -0.94727014789E+01 -0.12270010203E+02 -0.22498626304E+00  0.15502768866E+02  0.00000000000E+00 0. -1.
<mgrwt>
<rscale>  0 0.60029394E+02</rscale>
<asrwt>0</asrwt>
<pdfrwt beam="1">  1        2 0.31551457E-01 0.94267958E+02</pdfrwt>
<pdfrwt beam="2">  1       -2 0.29408687E-02 0.94267958E+02</pdfrwt>
<totfact> 0.62894456E+04</totfact>
</mgrwt>
</event>
<event>
 6    1  0.3062576E-002  0.9335798E+02  0.7546771E-02  0.1403726E+00
         -2   -1    0    0    0  501 -0.00000000000E+00  0.00000000000E+00  0.78006260588E+01  0.78006260588E+01  0.00000000000E+00 0.  1.
          2   -1    0    0  501    0  0.00000000000E+00 -0.00000000000E+00 -0.39719664985E+03  0.39719664985E+03  0.00000000000E+00 0. -1.
         23    2    1    2    0    0 -0.29745239053E+01 -0.14201487039E+02 -0.36366731491E+03  0.37545922440E+03  0.92223550260E+02 0.  0.
         11    1    3    3    0    0 -0.47578259257E+02 -0.58406795139E+01 -0.18117946521E+03  0.18741345444E+03  0.00000000000E+00 0. -1.
        -11    1    3    3    0    0  0.44603735352E+02 -0.83608075247E+01 -0.18248784971E+03  0.18804576996E+03  0.00000000000E+00 0.  1.
         22    1    1    2    0    0  0.29745239053E+01  0.14201487039E+02 -0.25728708881E+02  0.29538051514E+02  0.00000000000E+00 0.  1.
<mgrwt>
<rscale>  0 0.58617576E+02</rscale>
<asrwt>0</asrwt>
<pdfrwt beam="1">  1        2 0.61107165E-01 0.93357984E+02</pdfrwt>
<pdfrwt beam="2">  1       -2 0.12000965E-02 0.93357984E+02</pdfrwt>
<totfact> 0.11355479E+05</totfact>
</mgrwt>
</event>
<event>
 6    1  0.3062576E-002  0.9015660E+02  0.7546771E-02  0.1432885E+00
         -2   -1    0    0    0  501 -0.00000000000E+00  0.00000000000E+00  0.19010884247E+01  0.19010884247E+01  0.00000000000E+00 0. -1.
          2   -1    0    0  501    0  0.00000000000E+00 -0.00000000000E+00 -0.15084984643E+04  0.15084984643E+04  0.00000000000E+00 0.  1.
         23    2    1    2    0    0  0.34931329656E+01 -0.96645921473E+01 -0.14548980832E+04  0.14576888025E+04  0.89569003055E+02 0.  0.
         13    1    3    3    0    0  0.22699590235E+02  0.34883808753E+02 -0.68900108684E+03  0.69025694432E+03  0.00000000000E+00 0. -1.
        -13    1    3    3    0    0 -0.19206457270E+02 -0.44548400901E+02 -0.76589699632E+03  0.76743185821E+03  0.00000000000E+00 0.  1.
         22    1    1    2    0    0 -0.34931329656E+01  0.96645921473E+01 -0.51699292748E+02  0.52710750232E+02  0.00000000000E+00 0.  1.
<mgrwt>
<rscale>  0 0.52385294E+02</rscale>
<asrwt>0</asrwt>
<pdfrwt beam="1">  1        2 0.23207679E+00 0.90156601E+02</pdfrwt>
<pdfrwt beam="2">  1       -2 0.29247501E-03 0.90156601E+02</pdfrwt>
<totfact> 0.15030814E+05</totfact>
</mgrwt>
</event>
<event>
 6    1  0.3062576E-002  0.9238559E+02  0.7546771E-02  0.1419014E+00
         -2   -1    0    0    0  501 -0.00000000000E+00  0.00000000000E+00  0.21935860766E+02  0.21935860766E+02  0.00000000000E+00 0.  1.
          2   -1    0    0  501    0  0.00000000000E+00 -0.00000000000E+00 -0.13069086542E+03  0.13069086542E+03  0.00000000000E+00 0. -1.
         23    2    1    2    0    0  0.87700327353E+01 -0.78948981696E+01 -0.10580628060E+03  0.14046375513E+03  0.91628896095E+02 0.  0.
         13    1    3    3    0    0  0.25138279798E+02 -0.45104013033E+02 -0.62416888629E+02  0.81007240966E+02  0.00000000000E+00 0.  1.
        -13    1    3    3    0    0 -0.16368247063E+02  0.37209114864E+02 -0.43389391975E+02  0.59456514166E+02  0.00000000000E+00 0. -1.
         22    1    1    2    0    0 -0.87700327353E+01  0.78948981696E+01 -0.29487240479E+01  0.12162971051E+02  0.00000000000E+00 0. -1.
<mgrwt>
<rscale>  0 0.55229971E+02</rscale>
<asrwt>0</asrwt>
<pdfrwt beam="1">  1        2 0.20106287E-01 0.92385591E+02</pdfrwt>
<pdfrwt beam="2">  1       -2 0.33747477E-02 0.92385591E+02</pdfrwt>
<totfact> 0.83851674E+04</totfact>
</mgrwt>
</event>
<event>
 6    1  0.3062576E-002  0.9454702E+02  0.7546771E-02  0.1342593E+00
          1   -1    0    0  501    0  0.00000000000E+00  0.00000000000E+00  0.93690997939E+02  0.93690997939E+02  0.00000000000E+00 0. -1.
         -1   -1    0    0    0  501 -0.00000000000E+00 -0.00000000000E+00 -0.52822010213E+02  0.52822010213E+02  0.00000000000E+00 0.  1.
         23    2    1    2    0    0  0.18073598750E+02  0.33734361710E+02  0.50303818723E+02  0.10709628368E+03  0.86455061559E+02 0.  0.
         13    1    3    3    0    0  0.49662716848E+01 -0.20449024020E+02  0.46713535141E+02  0.51234566488E+02  0.00000000000E+00 0. -1.
        -13    1    3    3    0    0  0.13107327066E+02  0.54183385730E+02  0.35902835825E+01  0.55861717197E+02  0.00000000000E+00 0.  1.
         22    1    1    2    0    0 -0.18073598750E+02 -0.33734361710E+02 -0.94348309972E+01  0.39416724467E+02  0.00000000000E+00 0. -1.
<mgrwt>
<rscale>  0 0.75414192E+02</rscale>
<asrwt>0</asrwt>
<pdfrwt beam="1">  1        1 0.14414000E-01 0.94547024E+02</pdfrwt>
<pdfrwt beam="2">  1       -1 0.81264631E-02 0.94547024E+02</pdfrwt>
<totfact> 0.29057970E+04</totfact>
</mgrwt>
</event>
<event>
 6    1  0.3062576E-002  0.9584097E+02  0.7546771E-02  0.1373546E+00
          1   -1    0    0  501    0  0.00000000000E+00  0.00000000000E+00  0.93456986104E+02  0.93456986104E+02  0.00000000000E+00 0. -1.
         -1   -1    0    0    0  501 -0.00000000000E+00 -0.00000000000E+00 -0.69953872610E+02  0.69953872610E+02  0.00000000000E+00 0.  1.
         23    2    1    2    0    0 -0.21150662795E+02 -0.53000660601E+01  0.65504015294E+02  0.11608732346E+03  0.93327645483E+02 0.  0.
         13    1    3    3    0    0 -0.66347808858E+01  0.40126459687E+02  0.52961175801E+02  0.66776037818E+02  0.00000000000E+00 0.  1.
        -13    1    3    3    0    0 -0.14515881909E+02 -0.45426525747E+02  0.12542839493E+02  0.49311285641E+02  0.00000000000E+00 0. -1.
         22    1    1    2    0    0  0.21150662795E+02  0.53000660601E+01 -0.42000901801E+02  0.47323535255E+02  0.00000000000E+00 0.  1.
<mgrwt>
<rscale>  0 0.66191236E+02</rscale>
<asrwt>0</asrwt>
<pdfrwt beam="1">  1        1 0.14377998E-01 0.95840965E+02</pdfrwt>
<pdfrwt beam="2">  1       -1 0.10762134E-01 0.95840965E+02</pdfrwt>
<totfact> 0.19123344E+04</totfact>
</mgrwt>
</event>
<event>
 6    1  0.3062576E-002  0.9619109E+02  0.7546771E-02  0.1348825E+00
          2   -1    0    0  501    0  0.00000000000E+00  0.00000000000E+00  0.51360660250E+03  0.51360660250E+03  0.00000000000E+00 0. -1.
         -2   -1    0    0    0  501 -0.00000000000E+00 -0.00000000000E+00 -0.89356899847E+01  0.89356899847E+01  0.00000000000E+00 0.  1.
         23    2    1    2    0    0 -0.24404833920E+02  0.21693959275E+02  0.43625107583E+03  0.44673003859E+03  0.90479292844E+02 0.  0.
         13    1    3    3    0    0  0.40649038915E+01  0.21412461663E+02  0.40019607926E+03  0.40078912013E+03  0.00000000000E+00 0. -1.
        -13    1    3    3    0    0 -0.28469737812E+02  0.28149761156E+00  0.36054996569E+02  0.45940918467E+02  0.00000000000E+00 0.  1.
         22    1    1    2    0    0  0.24404833920E+02 -0.21693959275E+02  0.68419836689E+02  0.75812253893E+02  0.00000000000E+00 0.  1.
<mgrwt>
<rscale>  0 0.73423011E+02</rscale>
<asrwt>0</asrwt>
<pdfrwt beam="1">  1        2 0.79016377E-01 0.96191092E+02</pdfrwt>
<pdfrwt beam="2">  1       -2 0.13747219E-02 0.96191092E+02</pdfrwt>
<totfact> 0.71410405E+04</totfact>
</mgrwt>
</event>
<event>
 6    1  0.3062576E-002  0.9616798E+02  0.7546771E-02  0.1365252E+00
         -2   -1    0    0    0  501 -0.00000000000E+00  0.00000000000E+00  0.51275841538E+01  0.51275841538E+01  0.00000000000E+00 0.  1.
          2   -1    0    0  501    0  0.00000000000E+00 -0.00000000000E+00 -0.10052411283E+04  0.10052411283E+04  0.00000000000E+00 0. -1.
         23    2    1    2    0    0 -0.12835059486E+02 -0.21176802667E+02 -0.94579963479E+03  0.95067619640E+03  0.92925160794E+02 0.  0.
         13    1    3    3    0    0 -0.39202986810E+02 -0.23102301077E+02 -0.85221006157E+03  0.85342403266E+03  0.00000000000E+00 0. -1.
        -13    1    3    3    0    0  0.26367927324E+02  0.19254984095E+01 -0.93589573221E+02  0.97252163735E+02  0.00000000000E+00 0.  1.
         22    1    1    2    0    0  0.12835059486E+02  0.21176802667E+02 -0.54313909345E+02  0.59692516043E+02  0.00000000000E+00 0.  1.
<mgrwt>
<rscale>  0 0.68505080E+02</rscale>
<asrwt>0</asrwt>
<pdfrwt beam="1">  1        2 0.15465250E+00 0.96167984E+02</pdfrwt>
<pdfrwt beam="2">  1       -2 0.78885900E-03 0.96167984E+02</pdfrwt>
<totfact> 0.70455663E+04</totfact>
</mgrwt>
</event>
<event>
 6    1  0.3062576E-002  0.9754631E+02  0.7546771E-02  0.1388449E+00
          1   -1    0    0  501    0  0.00000000000E+00  0.00000000000E+00  0.21457791698E+03  0.21457791698E+03  0.00000000000E+00 0. -1.
         -1   -1    0    0    0  501 -0.00000000000E+00 -0.00000000000E+00 -0.17105712263E+02  0.17105712263E+02  0.00000000000E+00 0.  1.
         23    2    1    2    0    0  0.61955347516E+01  0.14994221793E+02  0.19050575015E+03  0.21402738878E+03  0.96187686160E+02 0.  0.
         11    1    3    3    0    0 -0.36519993126E+02  0.24191703853E+02  0.48049904356E+02  0.65021086901E+02  0.00000000000E+00 0.  1.
        -11    1    3    3    0    0  0.42715527877E+02 -0.91974820598E+01  0.14245584579E+03  0.14900630188E+03  0.00000000000E+00 0. -1.
         22    1    1    2    0    0 -0.61955347516E+01 -0.14994221793E+02  0.69664545634E+01  0.17656240461E+02  0.00000000000E+00 0. -1.
<mgrwt>
<rscale>  0 0.62293998E+02</rscale>
<asrwt>0</asrwt>
<pdfrwt beam="1">  1        1 0.33011985E-01 0.97546309E+02</pdfrwt>
<pdfrwt beam="2">  1       -1 0.26316482E-02 0.97546309E+02</pdfrwt>
<totfact> 0.53799194E+04</totfact>
</mgrwt>
</event>
<event>
 6    1  0.3062576E-002  0.9028186E+02  0.7546771E-02  0.1403469E+00
         -1   -1    0    0    0  501 -0.00000000000E+00  0.00000000000E+00  0.15691455103E+03  0.15691455103E+03  0.00000000000E+00 0.  1.
          1   -1    0    0  501    0  0.00000000000E+00 -0.00000000000E+00 -0.18051821638E+02  0.18051821638E+02  0.00000000000E+00 0. -1.
         23    2    1    2    0    0  0.11795629604E+02  0.10970961516E+02  0.11977587931E+03  0.14999024966E+03  0.88833072977E+02 0.  0.
         13    1    3    3    0    0  0.34245139116E+01 -0.31068695107E+02  0.11105145851E+02  0.33171002028E+02  0.00000000000E+00 0. -1.
        -13    1    3    3    0    0  0.83711156924E+01  0.42039656622E+02  0.10867073346E+03  0.11681924764E+03  0.00000000000E+00 0.  1.
         22    1    1    2    0    0 -0.11795629604E+02 -0.10970961516E+02  0.19086850074E+02  0.24976123000E+02  0.00000000000E+00 0. -1.
<mgrwt>
<rscale>  0 0.58676918E+02</rscale>
<asrwt>0</asrwt>
<pdfrwt beam="1">  1        1 0.27772034E-02 0.90281857E+02</pdfrwt>
<pdfrwt beam="2">  1       -1 0.24140699E-01 0.90281857E+02</pdfrwt>
<totfact> 0.48268912E+04</totfact>
</mgrwt>
</event>
<event>
 6    1  0.3062576E-002  0.9304511E+02  0.7546771E-02  0.1387385E+00
          1   -1    0    0  501    0  0.00000000000E+00  0.00000000000E+00  0.28327312197E+02  0.28327312197E+02  0.00000000000E+00 0. -1.
         -1   -1    0    0    0  501 -0.00000000000E+00 -0.00000000000E+00 -0.11597995528E+03  0.11597995528E+03  0.00000000000E+00 0.  1.
         23    2    1    2    0    0  0.10390210997E+02 -0.15928298389E+02 -0.59882552809E+02  0.11064950332E+03  0.91080872197E+02 0.  0.
         13    1    3    3    0    0  0.10594763764E+02 -0.52338127080E+02 -0.49436735817E+02  0.72770319594E+02  0.00000000000E+00 0.  1.
        -13    1    3    3    0    0 -0.20455276702E+00  0.36409828692E+02 -0.10445816992E+02  0.37879183727E+02  0.00000000000E+00 0. -1.
         22    1    1    2    0    0 -0.10390210997E+02  0.15928298389E+02 -0.27770090271E+02  0.33657764153E+02  0.00000000000E+00 0.  1.
<mgrwt>
<rscale>  0 0.62561737E+02</rscale>
<asrwt>0</asrwt>
<pdfrwt beam="1">  1        1 0.43580480E-02 0.93045110E+02</pdfrwt>
<pdfrwt beam="2">  1       -1 0.17843070E-01 0.93045110E+02</pdfrwt>
<totfact> 0.42448197E+04</totfact>
</mgrwt>
</event>
<event>
 6    1  0.3062576E-002  0.9294704E+02  0.7546771E-02  0.1411360E+00
          2   -1    0    0  501    0  0.00000000000E+00  0.00000000000E+00  0.60748682035E+03  0.60748682035E+03  0.00000000000E+00 0. -1.
         -2   -1    0    0    0  501 -0.00000000000E+00 -0.00000000000E+00 -0.47638174847E+01  0.47638174847E+01  0.00000000000E+00 0.  1.
         23    2    1    2    0    0 -0.11089400002E+02 -0.68722986812E+01  0.55703955133E+03  0.56474083858E+03  0.92026896754E+02 0.  0.
         11    1    3    3    0    0 -0.15602658720E+02  0.19316993495E+02  0.51083976032E+03  0.51144290974E+03  0.00000000000E+00 0. -1.
        -11    1    3    3    0    0  0.45132587179E+01 -0.26189292176E+02  0.46199791012E+02  0.53297928839E+02  0.00000000000E+00 0.  1.
         22    1    1    2    0    0  0.11089400002E+02  0.68722986812E+01  0.45683451530E+02  0.47509799255E+02  0.00000000000E+00 0.  1.
<mgrwt>
<rscale>  0 0.56891538E+02</rscale>
<asrwt>0</asrwt>
<pdfrwt beam="1">  1        2 0.93459450E-01 0.92947044E+02</pdfrwt>
<pdfrwt beam="2">  1       -2 0.73289548E-03 0.92947044E+02</pdfrwt>
<totfact> 0.14399261E+05</totfact>
</mgrwt>
</event>
<event>
 6    1  0.3062576E-002  0.8957847E+02  0.7546771E-02  0.1420405E+00
          2   -1    0    0  501    0  0.00000000000E+00  0.00000000000E+00  0.56293279390E+02  0.56293279390E+02  0.00000000000E+00 0. -1.
         -2   -1    0    0    0  501 -0.00000000000E+00 -0.00000000000E+00 -0.46444342577E+02  0.46444342577E+02  0.00000000000E+00 0.  1.
         23    2    1    2    0    0  0.10668328682E+02 -0.68358881746E+01  0.92157216777E+01  0.90051268456E+02  0.88677837256E+02 0.  0.
         11    1    3    3    0    0  0.48322955907E+01 -0.39777871415E+02 -0.20762483973E+02  0.45129933256E+02  0.00000000000E+00 0.  1.
        -11    1    3    3    0    0  0.58360330917E+01  0.32941983241E+02  0.29978205650E+02  0.44921335199E+02  0.00000000000E+00 0. -1.
         22    1    1    2    0    0 -0.10668328682E+02  0.68358881746E+01  0.63321513473E+00  0.12686353511E+02  0.00000000000E+00 0. -1.
<mgrwt>
<rscale>  0 0.54935300E+02</rscale>
<asrwt>0</asrwt>
<pdfrwt beam="1">  1        2 0.86605045E-02 0.89578465E+02</pdfrwt>
<pdfrwt beam="2">  1       -2 0.71452835E-02 0.89578465E+02</pdfrwt>
<totfact> 0.73605453E+04</totfact>
</mgrwt>
</event>
<event>
 6    1  0.3062576E-002  0.9493938E+02  0.7546771E-02  0.1398634E+00
          4   -1    0    0  501    0  0.00000000000E+00  0.00000000000E+00  0.13219877490E+02  0.13219877490E+02  0.00000000000E+00 0. -1.
         -4   -1    0    0    0  501 -0.00000000000E+00 -0.00000000000E+00 -0.22839207750E+03  0.22839207750E+03  0.00000000000E+00 0.  1.
         23    2    1    2    0    0  0.15188573407E+01  0.14875944599E+02 -0.18518717587E+03  0.20810520451E+03  0.93754388591E+02 0.  0.
         13    1    3    3    0    0 -0.10996149312E+02 -0.15321522744E+01  0.80851257814E+01  0.13734338323E+02  0.00000000000E+00 0. -1.
        -13    1    3    3    0    0  0.12515006652E+02  0.16408096873E+02 -0.19327230166E+03  0.19437086619E+03  0.00000000000E+00 0.  1.
         22    1    1    2    0    0 -0.15188573407E+01 -0.14875944599E+02 -0.29985024131E+02  0.33506750476E+02  0.00000000000E+00 0.  1.
<mgrwt>
<rscale>  0 0.59809329E+02</rscale>
<asrwt>0</asrwt>
<pdfrwt beam="1">  1        4 0.20338275E-02 0.94939381E+02</pdfrwt>
<pdfrwt beam="2">  1       -4 0.35137240E-01 0.94939381E+02</pdfrwt>
<totfact> 0.11432701E+04</totfact>
</mgrwt>
</event>
<event>
 6    1  0.3062576E-002  0.9519150E+02  0.7546771E-02  0.1399722E+00
          2   -1    0    0  501    0  0.00000000000E+00  0.00000000000E+00  0.66825547509E+02  0.66825547509E+02  0.00000000000E+00 0. -1.
         -2   -1    0    0    0  501 -0.00000000000E+00 -0.00000000000E+00 -0.46341755224E+02  0.46341755224E+02  0.00000000000E+00 0.  1.
         23    2    1    2    0    0  0.12231136881E+02  0.79374217208E+01  0.23995884293E+02  0.98169364100E+02  0.94068157268E+02 0.  0.
         13    1    3    3    0    0 -0.15045242114E+02  0.18006725089E+02  0.52467203269E+02  0.57475289278E+02  0.00000000000E+00 0. -1.
        -13    1    3    3    0    0  0.27276378995E+02 -0.10069303368E+02 -0.28471318976E+02  0.40694074822E+02  0.00000000000E+00 0.  1.
         22    1    1    2    0    0 -0.12231136881E+02 -0.79374217208E+01 -0.35120920075E+01  0.14997938633E+02  0.00000000000E+00 0.  1.
<mgrwt>
<rscale>  0 0.59551800E+02</rscale>
<asrwt>0</asrwt>
<pdfrwt beam="1">  1        2 0.10280853E-01 0.95191500E+02</pdfrwt>
<pdfrwt beam="2">  1       -2 0.71295008E-02 0.95191500E+02</pdfrwt>
<totfact> 0.60444690E+04</totfact>
</mgrwt>
</event>
<event>
 6    1  0.3062576E-002  0.8705881E+02  0.7546771E-02  0.1440137E+00
         -2   -1    0    0    0  501 -0.00000000000E+00  0.00000000000E+00  0.16538769218E+02  0.16538769218E+02  0.00000000000E+00 0.  1.
          2   -1    0    0  501    0  0.00000000000E+00 -0.00000000000E+00 -0.14434307445E+03  0.14434307445E+03  0.00000000000E+00 0. -1.
         23    2    1    2    0    0  0.29104696139E+01  0.98125383592E+01 -0.11855421036E+03  0.14708615602E+03  0.86455073635E+02 0.  0.
         13    1    3    3    0    0  0.39035200722E+02  0.22713803286E+02 -0.84406941738E+02  0.95729805017E+02  0.00000000000E+00 0. -1.
        -13    1    3    3    0    0 -0.36124731108E+02 -0.12901264926E+02 -0.34147268624E+02  0.51356351007E+02  0.00000000000E+00 0.  1.
         22    1    1    2    0    0 -0.29104696139E+01 -0.98125383592E+01 -0.92500948670E+01  0.13795687640E+02  0.00000000000E+00 0.  1.
<mgrwt>
<rscale>  0 0.50977942E+02</rscale>
<asrwt>0</asrwt>
<pdfrwt beam="1">  1        2 0.22206625E-01 0.87058811E+02</pdfrwt>
<pdfrwt beam="2">  1       -2 0.25444262E-02 0.87058811E+02</pdfrwt>
<totfact> 0.11214591E+05</totfact>
</mgrwt>
</event>
<event>
 6    1  0.3062576E-002  0.1087990E+03  0.7546771E-02  0.1298682E+00
         -4   -1    0    0    0  501 -0.00000000000E+00  0.00000000000E+00  0.61029329169E+02  0.61029329169E+02  0.00000000000E+00 0.  1.
          4   -1    0    0  501    0  0.00000000000E+00 -0.00000000000E+00 -0.16046321540E+03  0.16046321540E+03  0.00000000000E+00 0. -1.
         23    2    1    2    0    0  0.11697831627E+02  0.53752073254E+02 -0.10850709395E+01  0.10880441692E+03  0.93867455055E+02 0.  0.
         11    1    3    3    0    0 -0.19544881769E+02 -0.19659915569E+02  0.70575356522E+01  0.28606354067E+02  0.00000000000E+00 0. -1.
        -11    1    3    3    0    0  0.31242713396E+02  0.73411988822E+02 -0.81426065917E+01  0.80198062853E+02  0.00000000000E+00 0.  1.
         22    1    1    2    0    0 -0.11697831627E+02 -0.53752073254E+02 -0.98348815293E+02  0.11268812765E+03  0.00000000000E+00 0. -1.
<mgrwt>
<rscale>  0 0.91744396E+02</rscale>
<asrwt>0</asrwt>
<pdfrwt beam="1">  1        4 0.24686648E-01 0.10879901E+03</pdfrwt>
<pdfrwt beam="2">  1       -4 0.93891277E-02 0.10879901E+03</pdfrwt>
<totfact> 0.20192533E+03</totfact>
</mgrwt>
</event>
<event>
 6    1  0.3062576E-002  0.9297952E+02  0.7546771E-02  0.1404298E+00
          1   -1    0    0  501    0  0.00000000000E+00  0.00000000000E+00  0.67991531218E+02  0.67991531218E+02  0.00000000000E+00 0. -1.
         -1   -1    0    0    0  501 -0.00000000000E+00 -0.00000000000E+00 -0.54742916875E+02  0.54742916875E+02  0.00000000000E+00 0.  1.
         23    2    1    2    0    0 -0.10460762224E+02  0.10121705021E+02  0.32591852766E+02  0.98526240156E+02  0.91833080497E+02 0.  0.
         11    1    3    3    0    0 -0.34964155243E+02  0.57888211953E+01 -0.19749166952E+02  0.40571322359E+02  0.00000000000E+00 0.  1.
        -11    1    3    3    0    0  0.24503393019E+02  0.43328838262E+01  0.52341019718E+02  0.57954917796E+02  0.00000000000E+00 0. -1.
         22    1    1    2    0    0  0.10460762224E+02 -0.10121705021E+02 -0.19343238423E+02  0.24208207937E+02  0.00000000000E+00 0.  1.
<mgrwt>
<rscale>  0 0.58485851E+02</rscale>
<asrwt>0</asrwt>
<pdfrwt beam="1">  1        1 0.10460236E-01 0.92979520E+02</pdfrwt>
<pdfrwt beam="2">  1       -1 0.84219872E-02 0.92979520E+02</pdfrwt>
<totfact> 0.41643160E+04</totfact>
</mgrwt>
</event>
<event>
 6    1  0.3062576E-002  0.1137798E+03  0.7546771E-02  0.1326862E+00
         -1   -1    0    0    0  501 -0.00000000000E+00  0.00000000000E+00  0.30221449446E+01  0.30221449446E+01  0.00000000000E+00 0.  1.
          1   -1    0    0  501    0  0.00000000000E+00 -0.00000000000E+00 -0.20187080761E+04  0.20187080761E+04  0.00000000000E+00 0. -1.
         23    2    1    2    0    0 -0.25933641020E+02  0.12760976288E+02 -0.18535005639E+04  0.18569895472E+04  0.11004745316E+03 0.  0.
         13    1    3    3    0    0 -0.23165554436E+02 -0.11833655938E+02 -0.10042806082E+03  0.10374234297E+03  0.00000000000E+00 0.  1.
        -13    1    3    3    0    0 -0.27680865842E+01  0.24594632226E+02 -0.17530725031E+04  0.17532472042E+04  0.00000000000E+00 0. -1.
         22    1    1    2    0    0  0.25933641020E+02 -0.12760976288E+02 -0.16218536730E+03  0.16474067385E+03  0.00000000000E+00 0.  1.
<mgrwt>
<rscale>  0 0.80776565E+02</rscale>
<asrwt>0</asrwt>
<pdfrwt beam="1">  1        1 0.31056987E+00 0.11377978E+03</pdfrwt>
<pdfrwt beam="2">  1       -1 0.46494628E-03 0.11377978E+03</pdfrwt>
<totfact> 0.17849101E+04</totfact>
</mgrwt>
</event>
<event>
 6    1  0.3062576E-002  0.9032611E+02  0.7546771E-02  0.1416813E+00
          2   -1    0    0  501    0  0.00000000000E+00  0.00000000000E+00  0.56059369599E+02  0.56059369599E+02  0.00000000000E+00 0. -1.
         -2   -1    0    0    0  501 -0.00000000000E+00 -0.00000000000E+00 -0.89464588732E+02  0.89464588732E+02  0.00000000000E+00 0.  1.
         23    2    1    2    0    0  0.53612039270E+00 -0.13050934333E+02  0.18328359802E+02  0.92166882872E+02  0.89376681597E+02 0.  0.
         11    1    3    3    0    0  0.32098221669E+02 -0.20003992112E+01  0.40744833645E+02  0.51907984936E+02  0.00000000000E+00 0. -1.
        -11    1    3    3    0    0 -0.31562101277E+02 -0.11050535122E+02 -0.22416473843E+02  0.40258897936E+02  0.00000000000E+00 0.  1.
         22    1    1    2    0    0 -0.53612039270E+00  0.13050934333E+02 -0.51733578935E+02  0.53357075459E+02  0.00000000000E+00 0.  1.
<mgrwt>
<rscale>  0 0.55700860E+02</rscale>
<asrwt>0</asrwt>
<pdfrwt beam="1">  1        2 0.86245186E-02 0.90326107E+02</pdfrwt>
<pdfrwt beam="2">  1       -2 0.13763783E-01 0.90326107E+02</pdfrwt>
<totfact> 0.26716691E+04</totfact>
</mgrwt>
</event>
<event>
 6    1  0.3062576E-002  0.9796440E+02  0.7546771E-02  0.1366168E+00
          1   -1    0    0  501    0  0.00000000000E+00  0.00000000000E+00  0.46163198556E+03  0.46163198556E+03  0.00000000000E+00 0. -1.
         -1   -1    0    0    0  501 -0.00000000000E+00 -0.00000000000E+00 -0.10959552878E+02  0.10959552878E+02  0.00000000000E+00 0.  1.
         23    2    1    2    0    0  0.19786998807E+02  0.11862498247E+02  0.43183477104E+03  0.44280728618E+03  0.95209133110E+02 0.  0.
         11    1    3    3    0    0  0.13341238678E+02  0.22277405649E+02  0.42956677320E+03  0.43035088485E+03  0.00000000000E+00 0. -1.
        -11    1    3    3    0    0  0.64457601297E+01 -0.10414907401E+02  0.22679978356E+01  0.12456401327E+02  0.00000000000E+00 0.  1.
         22    1    1    2    0    0 -0.19786998807E+02 -0.11862498247E+02  0.18837661639E+02  0.29784252257E+02  0.00000000000E+00 0.  1.
<mgrwt>
<rscale>  0 0.68244094E+02</rscale>
<asrwt>0</asrwt>
<pdfrwt beam="1">  1        1 0.71020290E-01 0.97964398E+02</pdfrwt>
<pdfrwt beam="2">  1       -1 0.16860854E-02 0.97964398E+02</pdfrwt>
<totfact> 0.39568785E+04</totfact>
</mgrwt>
</event>
<event>
 6    1  0.3062576E-002  0.9199964E+02  0.7546771E-02  0.1398253E+00
          2   -1    0    0  501    0  0.00000000000E+00  0.00000000000E+00  0.69783168713E+03  0.69783168713E+03  0.00000000000E+00 0.  1.
         -2   -1    0    0    0  501 -0.00000000000E+00 -0.00000000000E+00 -0.45381400714E+01  0.45381400714E+01  0.00000000000E+00 0. -1.
         23    2    1    2    0    0 -0.85953717121E+01 -0.14122479858E+02  0.63977427699E+03  0.64635521196E+03  0.90501987128E+02 0.  0.
         13    1    3    3    0    0 -0.29199060854E+02 -0.11548590197E+02  0.76433781149E+02  0.82632184959E+02  0.00000000000E+00 0. -1.
        -13    1    3    3    0    0  0.20603689142E+02 -0.25738896615E+01  0.56334049584E+03  0.56372302700E+03  0.00000000000E+00 0.  1.
         22    1    1    2    0    0  0.85953717121E+01  0.14122479858E+02  0.53519270061E+02  0.56014615236E+02  0.00000000000E+00 0. -1.
<mgrwt>
<rscale>  0 0.59899680E+02</rscale>
<asrwt>0</asrwt>
<pdfrwt beam="1">  1        2 0.10735864E+00 0.91999644E+02</pdfrwt>
<pdfrwt beam="2">  1       -2 0.69817595E-03 0.91999644E+02</pdfrwt>
<totfact> 0.13137276E+05</totfact>
</mgrwt>
</event>
<event>
 6    1  0.3062576E-002  0.9512400E+02  0.7546771E-02  0.1415555E+00
          2   -1    0    0  501    0  0.00000000000E+00  0.00000000000E+00  0.15404407432E+03  0.15404407432E+03  0.00000000000E+00 0. -1.
         -2   -1    0    0    0  501 -0.00000000000E+00 -0.00000000000E+00 -0.28185476262E+02  0.28185476262E+02  0.00000000000E+00 0.  1.
         23    2    1    2    0    0 -0.10303543992E+02  0.48859189074E+01  0.13667049962E+03  0.16651546652E+03  0.94438021495E+02 0.  0.
         11    1    3    3    0    0  0.41821011195E+02 -0.39537030751E+00  0.72231369945E+02  0.83465706127E+02  0.00000000000E+00 0. -1.
        -11    1    3    3    0    0 -0.52124555187E+02  0.52812892150E+01  0.64439129672E+02  0.83049760398E+02  0.00000000000E+00 0.  1.
         22    1    1    2    0    0  0.10303543992E+02 -0.48859189074E+01 -0.10811901561E+02  0.15714084057E+02  0.00000000000E+00 0. -1.
<mgrwt>
<rscale>  0 0.55972564E+02</rscale>
<asrwt>0</asrwt>
<pdfrwt beam="1">  1        2 0.23699088E-01 0.95123999E+02</pdfrwt>
<pdfrwt beam="2">  1       -2 0.43362272E-02 0.95123999E+02</pdfrwt>
<totfact> 0.48567665E+04</totfact>
</mgrwt>
</event>
<event>
 6    1  0.3062576E-002  0.9759291E+02  0.7546771E-02  0.1417140E+00
          3   -1    0    0  501    0  0.00000000000E+00  0.00000000000E+00  0.59544198175E+02  0.59544198175E+02  0.00000000000E+00 0. -1.
         -3   -1    0    0    0  501 -0.00000000000E+00 -0.00000000000E+00 -0.64978403577E+02  0.64978403577E+02  0.00000000000E+00 0.  1.
         23    2    1    2    0    0 -0.10248276653E+02 -0.10685676576E+01  0.17711445550E+02  0.99187050264E+02  0.97047445229E+02 0.  0.
         11    1    3    3    0    0 -0.27383797416E+02 -0.29142143605E+02 -0.23559753743E+02  0.46413348202E+02  0.00000000000E+00 0.  1.
        -11    1    3    3    0    0  0.17135520762E+02  0.28073575948E+02  0.41271199293E+02  0.52773702063E+02  0.00000000000E+00 0. -1.
         22    1    1    2    0    0  0.10248276653E+02  0.10685676576E+01 -0.23145650952E+02  0.25335551488E+02  0.00000000000E+00 0.  1.
<mgrwt>
<rscale>  0 0.55630558E+02</rscale>
<asrwt>0</asrwt>
<pdfrwt beam="1">  1        3 0.91606459E-02 0.97592908E+02</pdfrwt>
<pdfrwt beam="2">  1       -3 0.99966775E-02 0.97592908E+02</pdfrwt>
<totfact> 0.13170916E+04</totfact>
</mgrwt>
</event>
<event>
 6    1  0.3062576E-002  0.9222903E+02  0.7546771E-02  0.1415295E+00
         -2   -1    0    0    0  501 -0.00000000000E+00  0.00000000000E+00  0.95520399798E+01  0.95520399798E+01  0.00000000000E+00 0.  1.
          2   -1    0    0  501    0  0.00000000000E+00 -0.00000000000E+00 -0.46316396364E+03  0.46316396364E+03  0.00000000000E+00 0. -1.
         23    2    1    2    0    0  0.12448472291E+02  0.16822873377E+01 -0.45040583872E+03  0.45975168591E+03  0.91369571438E+02 0.  0.
         11    1    3    3    0    0  0.50086885532E+02  0.99598336919E+01 -0.30886190811E+03  0.31305522303E+03  0.00000000000E+00 0. -1.
        -11    1    3    3    0    0 -0.37638413241E+02 -0.82775463542E+01 -0.14154393062E+03  0.14669646287E+03  0.00000000000E+00 0.  1.
         22    1    1    2    0    0 -0.12448472291E+02 -0.16822873377E+01 -0.32060849331E+01  0.12964317710E+02  0.00000000000E+00 0. -1.
<mgrwt>
<rscale>  0 0.56028915E+02</rscale>
<asrwt>0</asrwt>
<pdfrwt beam="1">  1        2 0.71255977E-01 0.92229025E+02</pdfrwt>
<pdfrwt beam="2">  1       -2 0.14695450E-02 0.92229025E+02</pdfrwt>
<totfact> 0.72183127E+04</totfact>
</mgrwt>
</event>
<event>
 6    1  0.3062576E-002  0.9544509E+02  0.7546771E-02  0.1360952E+00
          2   -1    0    0  501    0  0.00000000000E+00  0.00000000000E+00  0.10188801535E+04  0.10188801535E+04  0.00000000000E+00 0. -1.
         -2   -1    0    0    0  501 -0.00000000000E+00 -0.00000000000E+00 -0.40780695425E+01  0.40780695425E+01  0.00000000000E+00 0.  1.
         23    2    1    2    0    0 -0.13459601071E+02  0.23657932810E+02  0.89644337334E+03  0.90151011468E+03  0.91481728341E+02 0.  0.
         11    1    3    3    0    0  0.18223147768E+01 -0.28969645819E+02  0.54942590079E+03  0.55019213160E+03  0.00000000000E+00 0. -1.
        -11    1    3    3    0    0 -0.15281915848E+02  0.52627578629E+02  0.34701747255E+03  0.35131798309E+03  0.00000000000E+00 0.  1.
         22    1    1    2    0    0  0.13459601071E+02 -0.23657932810E+02  0.11835871064E+03  0.12144810839E+03  0.00000000000E+00 0.  1.
<mgrwt>
<rscale>  0 0.69748057E+02</rscale>
<asrwt>0</asrwt>
<pdfrwt beam="1">  1        2 0.15675059E+00 0.95445090E+02</pdfrwt>
<pdfrwt beam="2">  1       -2 0.62739613E-03 0.95445090E+02</pdfrwt>
<totfact> 0.95446988E+04</totfact>
</mgrwt>
</event>
<event>
 6    1  0.3062576E-002  0.9187579E+02  0.7546771E-02  0.1410748E+00
         -2   -1    0    0    0  501 -0.00000000000E+00  0.00000000000E+00  0.11243091566E+02  0.11243091566E+02  0.00000000000E+00 0.  1.
          2   -1    0    0  501    0  0.00000000000E+00 -0.00000000000E+00 -0.24861682493E+03  0.24861682493E+03  0.00000000000E+00 0. -1.
         23    2    1    2    0    0  0.86397851159E+01  0.10551193979E+02 -0.21203741253E+03  0.23108661751E+03  0.90858059069E+02 0.  0.
         11    1    3    3    0    0  0.45182140498E+02 -0.69667259038E+01 -0.15142194707E+03  0.15817258658E+03  0.00000000000E+00 0. -1.
        -11    1    3    3    0    0 -0.36542355382E+02  0.17517919883E+02 -0.60615465465E+02  0.72914030937E+02  0.00000000000E+00 0.  1.
         22    1    1    2    0    0 -0.86397851159E+01 -0.10551193979E+02 -0.25336320825E+02  0.28773298979E+02  0.00000000000E+00 0.  1.
<mgrwt>
<rscale>  0 0.57027222E+02</rscale>
<asrwt>0</asrwt>
<pdfrwt beam="1">  1        2 0.38248738E-01 0.91875788E+02</pdfrwt>
<pdfrwt beam="2">  1       -2 0.17297066E-02 0.91875788E+02</pdfrwt>
<totfact> 0.10988888E+05</totfact>
</mgrwt>
</event>
<event>
 6    1  0.3062576E-002  0.8844489E+02  0.7546771E-02  0.1437762E+00
         -2   -1    0    0    0  501 -0.00000000000E+00  0.00000000000E+00  0.62946513646E+01  0.62946513646E+01  0.00000000000E+00 0.  1.
          2   -1    0    0  501    0  0.00000000000E+00 -0.00000000000E+00 -0.56633814742E+03  0.56633814742E+03  0.00000000000E+00 0. -1.
         23    2    1    2    0    0 -0.47451102848E+01  0.89325586326E+01 -0.55364314343E+03  0.56066320443E+03  0.87864622333E+02 0.  0.
         13    1    3    3    0    0  0.26781157011E+02  0.28512026442E+02 -0.42435599794E+03  0.42615511144E+03  0.00000000000E+00 0. -1.
        -13    1    3    3    0    0 -0.31526267295E+02 -0.19579467809E+02 -0.12928714549E+03  0.13450809299E+03  0.00000000000E+00 0.  1.
         22    1    1    2    0    0  0.47451102848E+01 -0.89325586326E+01 -0.64003526272E+01  0.11969594358E+02  0.00000000000E+00 0.  1.
<mgrwt>
<rscale>  0 0.51433083E+02</rscale>
<asrwt>0</asrwt>
<pdfrwt beam="1">  1        2 0.87128945E-01 0.88444890E+02</pdfrwt>
<pdfrwt beam="2">  1       -2 0.96840791E-03 0.88444890E+02</pdfrwt>
<totfact> 0.10429358E+05</totfact>
</mgrwt>
</event>
<event>
 6    1  0.3062576E-002  0.9001144E+02  0.7546771E-02  0.1412406E+00
          2   -1    0    0  501    0  0.00000000000E+00  0.00000000000E+00  0.69238209923E+03  0.69238209923E+03  0.00000000000E+00 0. -1.
         -2   -1    0    0    0  501 -0.00000000000E+00 -0.00000000000E+00 -0.44467077218E+01  0.44467077218E+01  0.00000000000E+00 0.  1.
         23    2    1    2    0    0 -0.12623639235E+02 -0.63542240561E+01  0.65249828993E+03  0.65867752127E+03  0.88895029301E+02 0.  0.
         13    1    3    3    0    0  0.20625151978E+02  0.14395847642E+02  0.51735134843E+03  0.51796240698E+03  0.00000000000E+00 0. -1.
        -13    1    3    3    0    0 -0.33248791213E+02 -0.20750071698E+02  0.13514694150E+03  0.14071511429E+03  0.00000000000E+00 0.  1.
         22    1    1    2    0    0  0.12623639235E+02  0.63542240561E+01  0.35437101580E+02  0.38151285683E+02  0.00000000000E+00 0.  1.
<mgrwt>
<rscale>  0 0.56660362E+02</rscale>
<asrwt>0</asrwt>
<pdfrwt beam="1">  1        2 0.10652024E+00 0.90011436E+02</pdfrwt>
<pdfrwt beam="2">  1       -2 0.68410943E-03 0.90011436E+02</pdfrwt>
<totfact> 0.13599442E+05</totfact>
</mgrwt>
</event>
<event>
 6    1  0.3062576E-002  0.5981941E+02  0.7546771E-02  0.1497573E+00
         -2   -1    0    0    0  501 -0.00000000000E+00  0.00000000000E+00  0.56275732735E+01  0.56275732735E+01  0.00000000000E+00 0.  1.
          2   -1    0    0  501    0  0.00000000000E+00 -0.00000000000E+00 -0.35384201119E+03  0.35384201119E+03  0.00000000000E+00 0. -1.
         23    2    1    2    0    0  0.10495860209E+02 -0.90125785744E+01 -0.33513277355E+03  0.34042963707E+03  0.58197699579E+02 0.  0.
         11    1    3    3    0    0  0.26047048245E+01 -0.31012486479E+02 -0.25695665004E+03  0.25883446217E+03  0.00000000000E+00 0. -1.
        -11    1    3    3    0    0  0.78911553842E+01  0.21999907905E+02 -0.78176123508E+02  0.81595174905E+02  0.00000000000E+00 0.  1.
         22    1    1    2    0    0 -0.10495860209E+02  0.90125785744E+01 -0.13081664371E+02  0.19039947394E+02  0.00000000000E+00 0.  1.
<mgrwt>
<rscale>  0 0.41483119E+02</rscale>
<asrwt>0</asrwt>
<pdfrwt beam="1">  1        2 0.54437234E-01 0.59819411E+02</pdfrwt>
<pdfrwt beam="2">  1       -2 0.86578048E-03 0.59819411E+02</pdfrwt>
<totfact> 0.18817631E+05</totfact>
</mgrwt>
</event>
<event>
 6    1  0.3062576E-002  0.1151090E+03  0.7546771E-02  0.1276764E+00
          1   -1    0    0  501    0  0.00000000000E+00  0.00000000000E+00  0.43422243990E+03  0.43422243990E+03  0.00000000000E+00 0. -1.
         -1   -1    0    0    0  501 -0.00000000000E+00 -0.00000000000E+00 -0.27313136225E+02  0.27313136225E+02  0.00000000000E+00 0.  1.
         23    2    1    2    0    0  0.68469847002E+02 -0.15187544806E+02  0.35795029451E+03  0.37600332464E+03  0.91275984441E+02 0.  0.
         13    1    3    3    0    0 -0.75410719974E+01 -0.98047109906E+01  0.20253307338E+03  0.20291043822E+03  0.00000000000E+00 0. -1.
        -13    1    3    3    0    0  0.76010919000E+02 -0.53828338154E+01  0.15541722113E+03  0.17309288643E+03  0.00000000000E+00 0.  1.
         22    1    1    2    0    0 -0.68469847002E+02  0.15187544806E+02  0.48959009169E+02  0.85532251488E+02  0.00000000000E+00 0.  1.
<mgrwt>
<rscale>  0 0.10169842E+03</rscale>
<asrwt>0</asrwt>
<pdfrwt beam="1">  1        1 0.66803447E-01 0.11510902E+03</pdfrwt>
<pdfrwt beam="2">  1       -1 0.42020213E-02 0.11510902E+03</pdfrwt>
<totfact> 0.11634716E+04</totfact>
</mgrwt>
</event>
<event>
 6    1  0.3062576E-002  0.1158841E+03  0.7546771E-02  0.1274520E+00
         -2   -1    0    0    0  501 -0.00000000000E+00  0.00000000000E+00  0.54070606448E+02  0.54070606448E+02  0.00000000000E+00 0.  1.
          2   -1    0    0  501    0  0.00000000000E+00 -0.00000000000E+00 -0.17717658050E+04  0.17717658050E+04  0.00000000000E+00 0. -1.
         23    2    1    2    0    0 -0.68211250874E+02 -0.22277521271E+02 -0.17451597560E+04  0.17490030553E+04  0.90994785226E+02 0.  0.
         11    1    3    3    0    0 -0.45853668727E+02  0.28414441478E+02 -0.11517436742E+04  0.11530062578E+04  0.00000000000E+00 0.  1.
        -11    1    3    3    0    0 -0.22357582147E+02 -0.50691962749E+02 -0.59341608181E+03  0.59599679757E+03  0.00000000000E+00 0. -1.
         22    1    1    2    0    0  0.68211250874E+02  0.22277521271E+02  0.27464557422E+02  0.76833356130E+02  0.00000000000E+00 0.  1.
<mgrwt>
<rscale>  0 0.10279779E+03</rscale>
<asrwt>0</asrwt>
<pdfrwt beam="1">  1        2 0.27257934E+00 0.11588405E+03</pdfrwt>
<pdfrwt beam="2">  1       -2 0.83185554E-02 0.11588405E+03</pdfrwt>
<totfact> 0.89224919E+02</totfact>
</mgrwt>
</event>
<event>
 6    1  0.3062576E-002  0.9165574E+02  0.7546771E-02  0.1418343E+00
          1   -1    0    0  501    0  0.00000000000E+00  0.00000000000E+00  0.16959531476E+03  0.16959531476E+03  0.00000000000E+00 0. -1.
         -1   -1    0    0    0  501 -0.00000000000E+00 -0.00000000000E+00 -0.15979197393E+02  0.15979197393E+02  0.00000000000E+00 0.  1.
         23    2    1    2    0    0  0.97113466047E+01 -0.74010205590E+01  0.13942551652E+03  0.16685397502E+03  0.90838807593E+02 0.  0.
         13    1    3    3    0    0 -0.31967487213E+02 -0.13901771551E+02  0.19981371757E+02  0.40180028725E+02  0.00000000000E+00 0. -1.
        -13    1    3    3    0    0  0.41678833818E+02  0.65007509920E+01  0.11944414477E+03  0.12667394630E+03  0.00000000000E+00 0.  1.
         22    1    1    2    0    0 -0.97113466047E+01  0.74010205590E+01  0.14190600847E+02  0.18720537134E+02  0.00000000000E+00 0. -1.
<mgrwt>
<rscale>  0 0.55373136E+02</rscale>
<asrwt>0</asrwt>
<pdfrwt beam="1">  1        1 0.26091586E-01 0.91655738E+02</pdfrwt>
<pdfrwt beam="2">  1       -1 0.24583382E-02 0.91655738E+02</pdfrwt>
<totfact> 0.78569911E+04</totfact>
</mgrwt>
</event>
<event>
 6    1  0.3062576E-002  0.9535418E+02  0.7546771E-02  0.1405071E+00
         -2   -1    0    0    0  501 -0.00000000000E+00  0.00000000000E+00  0.34125509415E+02  0.34125509415E+02  0.00000000000E+00 0. -1.
          2   -1    0    0  501    0  0.00000000000E+00 -0.00000000000E+00 -0.92851983640E+02  0.92851983640E+02  0.00000000000E+00 0.  1.
         23    2    1    2    0    0  0.10454711008E+02 -0.82733694424E+01 -0.61355675689E+02  0.11338844141E+03  0.94417530590E+02 0.  0.
         13    1    3    3    0    0  0.33097425733E+02 -0.28010247410E+02 -0.69814194768E+02  0.82182938261E+02  0.00000000000E+00 0.  1.
        -13    1    3    3    0    0 -0.22642714724E+02  0.19736877968E+02  0.84585190786E+01  0.31205503153E+02  0.00000000000E+00 0. -1.
         22    1    1    2    0    0 -0.10454711008E+02  0.82733694424E+01  0.26292014639E+01  0.13589051642E+02  0.00000000000E+00 0.  1.
<mgrwt>
<rscale>  0 0.58308368E+02</rscale>
<asrwt>0</asrwt>
<pdfrwt beam="1">  1        2 0.14284920E-01 0.95354180E+02</pdfrwt>
<pdfrwt beam="2">  1       -2 0.52500785E-02 0.95354180E+02</pdfrwt>
<totfact> 0.64818271E+04</totfact>
</mgrwt>
</event>
<event>
 6    1  0.3062576E-002  0.9325347E+02  0.7546771E-02  0.1390780E+00
          2   -1    0    0  501    0  0.00000000000E+00  0.00000000000E+00  0.82248858989E+02  0.82248858989E+02  0.00000000000E+00 0.  1.
         -2   -1    0    0    0  501 -0.00000000000E+00 -0.00000000000E+00 -0.11585794693E+03  0.11585794693E+03  0.00000000000E+00 0. -1.
         23    2    1    2    0    0 -0.10407235335E+02 -0.14546644662E+02  0.54627410864E+02  0.10807572718E+03  0.91522092245E+02 0.  0.
         11    1    3    3    0    0 -0.26555391087E+02  0.34547131120E+01 -0.17508043284E+02  0.31994615454E+02  0.00000000000E+00 0. -1.
        -11    1    3    3    0    0  0.16148155751E+02 -0.18001357774E+02  0.72135454147E+02  0.76081111723E+02  0.00000000000E+00 0.  1.
         22    1    1    2    0    0  0.10407235335E+02  0.14546644662E+02 -0.88236498801E+02  0.90031078740E+02  0.00000000000E+00 0. -1.
<mgrwt>
<rscale>  0 0.61713209E+02</rscale>
<asrwt>0</asrwt>
<pdfrwt beam="1">  1        2 0.12653671E-01 0.93253465E+02</pdfrwt>
<pdfrwt beam="2">  1       -2 0.17824299E-01 0.93253465E+02</pdfrwt>
<totfact> 0.11088425E+04</totfact>
</mgrwt>
</event>
<event>
 6    1  0.3062576E-002  0.9007316E+02  0.7546771E-02  0.1434852E+00
         -2   -1    0    0    0  501 -0.00000000000E+00  0.00000000000E+00  0.10128827285E+03  0.10128827285E+03  0.00000000000E+00 0.  1.
          2   -1    0    0  501    0  0.00000000000E+00 -0.00000000000E+00 -0.25134898927E+02  0.25134898927E+02  0.00000000000E+00 0. -1.
         23    2    1    2    0    0  0.58094028770E+01 -0.81442689349E+01  0.72980630333E+02  0.11592819297E+03  0.89515893801E+02 0.  0.
         11    1    3    3    0    0  0.30453650268E+02 -0.35872115265E+02  0.19717951073E+02  0.51019908494E+02  0.00000000000E+00 0. -1.
        -11    1    3    3    0    0 -0.24644247391E+02  0.27727846330E+02  0.53262679261E+02  0.64908284476E+02  0.00000000000E+00 0.  1.
         22    1    1    2    0    0 -0.58094028770E+01  0.81442689349E+01  0.31727435887E+01  0.10494978807E+02  0.00000000000E+00 0. -1.
<mgrwt>
<rscale>  0 0.51998284E+02</rscale>
<asrwt>0</asrwt>
<pdfrwt beam="1">  1        2 0.38669076E-02 0.90073156E+02</pdfrwt>
<pdfrwt beam="2">  1       -2 0.15582811E-01 0.90073156E+02</pdfrwt>
<totfact> 0.60730030E+04</totfact>
</mgrwt>
</event>
<event>
 6    1  0.3062576E-002  0.8513320E+02  0.7546771E-02  0.1439949E+00
         -1   -1    0    0    0  501 -0.00000000000E+00  0.00000000000E+00  0.31777594664E+02  0.31777594664E+02  0.00000000000E+00 0.  1.
          1   -1    0    0  501    0  0.00000000000E+00 -0.00000000000E+00 -0.81668404197E+02  0.81668404197E+02  0.00000000000E+00 0. -1.
         23    2    1    2    0    0 -0.10096541860E+02 -0.43056483841E+01 -0.54984157258E+02  0.10134554612E+03  0.84422647455E+02 0.  0.
         11    1    3    3    0    0  0.10131917705E+02  0.33536203666E+02 -0.48684905532E+01  0.35369971910E+02  0.00000000000E+00 0.  1.
        -11    1    3    3    0    0 -0.20228459564E+02 -0.37841852050E+02 -0.50115666705E+02  0.65975574209E+02  0.00000000000E+00 0. -1.
         22    1    1    2    0    0  0.10096541860E+02  0.43056483841E+01  0.50933477246E+01  0.12100452742E+02  0.00000000000E+00 0.  1.
<mgrwt>
<rscale>  0 0.51013843E+02</rscale>
<asrwt>0</asrwt>
<pdfrwt beam="1">  1        1 0.12564370E-01 0.85133203E+02</pdfrwt>
<pdfrwt beam="2">  1       -1 0.48888608E-02 0.85133203E+02</pdfrwt>
<totfact> 0.72364934E+04</totfact>
</mgrwt>
</event>
<event>
 6    1  0.3062576E-002  0.9561458E+02  0.7546771E-02  0.1366698E+00
         -1   -1    0    0    0  501 -0.00000000000E+00  0.00000000000E+00  0.32250513999E+01  0.32250513999E+01  0.00000000000E+00 0.  1.
          1   -1    0    0  501    0  0.00000000000E+00 -0.00000000000E+00 -0.12271770668E+04  0.12271770668E+04  0.00000000000E+00 0. -1.
         23    2    1    2    0    0 -0.41962516485E+01  0.24234745485E+02 -0.10919589634E+04  0.10961370922E+04  0.92397055389E+02 0.  0.
         11    1    3    3    0    0 -0.11650602985E+02  0.47211636997E+02 -0.99593319685E+03  0.99711965571E+03  0.00000000000E+00 0. -1.
        -11    1    3    3    0    0  0.74543513364E+01 -0.22976891511E+02 -0.96025766505E+02  0.99017436496E+02  0.00000000000E+00 0.  1.
         22    1    1    2    0    0  0.41962516485E+01 -0.24234745485E+02 -0.13199305205E+03  0.13426502600E+03  0.00000000000E+00 0.  1.
<mgrwt>
<rscale>  0 0.68093608E+02</rscale>
<asrwt>0</asrwt>
<pdfrwt beam="1">  1        1 0.18879676E+00 0.95614577E+02</pdfrwt>
<pdfrwt beam="2">  1       -1 0.49616099E-03 0.95614577E+02</pdfrwt>
<totfact> 0.51571700E+04</totfact>
</mgrwt>
</event>
<event>
 6    1  0.3062576E-002  0.9085497E+02  0.7546771E-02  0.1403223E+00
          2   -1    0    0  501    0  0.00000000000E+00  0.00000000000E+00  0.12390427305E+02  0.12390427305E+02  0.00000000000E+00 0. -1.
         -2   -1    0    0    0  501 -0.00000000000E+00 -0.00000000000E+00 -0.23046436826E+03  0.23046436826E+03  0.00000000000E+00 0.  1.
         23    2    1    2    0    0 -0.91744010621E+01 -0.12946279396E+02 -0.18081493689E+03  0.20235776889E+03  0.89458646566E+02 0.  0.
         13    1    3    3    0    0  0.14039842771E+02 -0.20954178407E+02 -0.17540896168E+03  0.17721314459E+03  0.00000000000E+00 0.  1.
        -13    1    3    3    0    0 -0.23214243833E+02  0.80078990111E+01 -0.54059752028E+01  0.25144624300E+02  0.00000000000E+00 0. -1.
         22    1    1    2    0    0  0.91744010621E+01  0.12946279396E+02 -0.37259004074E+02  0.40497026677E+02  0.00000000000E+00 0. -1.
<mgrwt>
<rscale>  0 0.58733821E+02</rscale>
<asrwt>0</asrwt>
<pdfrwt beam="1">  1        2 0.19062197E-02 0.90854968E+02</pdfrwt>
<pdfrwt beam="2">  1       -2 0.35456055E-01 0.90854968E+02</pdfrwt>
<totfact> 0.37964799E+04</totfact>
</mgrwt>
</event>
<event>
 6    1  0.3062576E-002  0.9415700E+02  0.7546771E-02  0.1378500E+00
          2   -1    0    0  501    0  0.00000000000E+00  0.00000000000E+00  0.27643907198E+02  0.27643907198E+02  0.00000000000E+00 0. -1.
         -2   -1    0    0    0  501 -0.00000000000E+00 -0.00000000000E+00 -0.12948786882E+03  0.12948786882E+03  0.00000000000E+00 0.  1.
         23    2    1    2    0    0  0.17285482034E+01  0.21129555384E+02 -0.64306406874E+02  0.11402128998E+03  0.91739275204E+02 0.  0.
         13    1    3    3    0    0  0.42290359767E+02 -0.89357966159E+01 -0.24173889888E+02  0.49524740713E+02  0.00000000000E+00 0. -1.
        -13    1    3    3    0    0 -0.40561811563E+02  0.30065352000E+02 -0.40132516986E+02  0.64496549271E+02  0.00000000000E+00 0.  1.
         22    1    1    2    0    0 -0.17285482034E+01 -0.21129555384E+02 -0.37537554749E+02  0.43110486035E+02  0.00000000000E+00 0.  1.
<mgrwt>
<rscale>  0 0.64859582E+02</rscale>
<asrwt>0</asrwt>
<pdfrwt beam="1">  1        2 0.42529088E-02 0.94157000E+02</pdfrwt>
<pdfrwt beam="2">  1       -2 0.19921211E-01 0.94157000E+02</pdfrwt>
<totfact> 0.35988894E+04</totfact>
</mgrwt>
</event>
<event>
 6    1  0.3062576E-002  0.9055539E+02  0.7546771E-02  0.1408162E+00
          2   -1    0    0  501    0  0.00000000000E+00  0.00000000000E+00  0.53529078179E+02  0.53529078179E+02  0.00000000000E+00 0. -1.
         -2   -1    0    0    0  501 -0.00000000000E+00 -0.00000000000E+00 -0.67796809610E+02  0.67796809610E+02  0.00000000000E+00 0.  1.
         23    2    1    2    0    0 -0.19064488672E+00  0.14828317508E+02  0.11814245785E+02  0.91322806595E+02  0.89332878916E+02 0.  0.
         13    1    3    3    0    0 -0.30597801935E+02  0.40242634260E+02  0.25113892826E+01  0.50616224390E+02  0.00000000000E+00 0. -1.
        -13    1    3    3    0    0  0.30407157048E+02 -0.25414316752E+02  0.93028565024E+01  0.40706582205E+02  0.00000000000E+00 0.  1.
         22    1    1    2    0    0  0.19064488672E+00 -0.14828317508E+02 -0.26081977216E+02  0.30003081193E+02  0.00000000000E+00 0.  1.
<mgrwt>
<rscale>  0 0.57605993E+02</rscale>
<asrwt>0</asrwt>
<pdfrwt beam="1">  1        2 0.82352428E-02 0.90555390E+02</pdfrwt>
<pdfrwt beam="2">  1       -2 0.10430278E-01 0.90555390E+02</pdfrwt>
<totfact> 0.43858149E+04</totfact>
</mgrwt>
</event>
<event>
 6    1  0.3062576E-002  0.9222592E+02  0.7546771E-02  0.1425504E+00
          1   -1    0    0  501    0  0.00000000000E+00  0.00000000000E+00  0.71039145614E+03  0.71039145614E+03  0.00000000000E+00 0. -1.
         -1   -1    0    0    0  501 -0.00000000000E+00 -0.00000000000E+00 -0.10621985805E+02  0.10621985805E+02  0.00000000000E+00 0.  1.
         23    2    1    2    0    0 -0.27285748514E+01  0.10385762373E+02  0.70359537055E+03  0.70961402560E+03  0.91598639082E+02 0.  0.
         13    1    3    3    0    0 -0.20071338896E+02  0.10171259093E+02  0.40813918150E+02  0.46605676386E+02  0.00000000000E+00 0.  1.
        -13    1    3    3    0    0  0.17342764045E+02  0.21450327984E+00  0.66278145240E+03  0.66300834921E+03  0.00000000000E+00 0. -1.
         22    1    1    2    0    0  0.27285748514E+01 -0.10385762373E+02 -0.38259002110E+01  0.11399416354E+02  0.00000000000E+00 0.  1.
<mgrwt>
<rscale>  0 0.53873194E+02</rscale>
<asrwt>0</asrwt>
<pdfrwt beam="1">  1        1 0.10929096E+00 0.92225918E+02</pdfrwt>
<pdfrwt beam="2">  1       -1 0.16341522E-02 0.92225918E+02</pdfrwt>
<totfact> 0.23151234E+04</totfact>
</mgrwt>
</event>
<event>
 6    1  0.3062576E-002  0.9658063E+02  0.7546771E-02  0.1362126E+00
          2   -1    0    0  501    0  0.00000000000E+00  0.00000000000E+00  0.56320682675E+02  0.56320682675E+02  0.00000000000E+00 0.  1.
         -2   -1    0    0    0  501 -0.00000000000E+00 -0.00000000000E+00 -0.12346952947E+03  0.12346952947E+03  0.00000000000E+00 0. -1.
         23    2    1    2    0    0  0.12011353725E+02 -0.22785650538E+02  0.11282681902E+02  0.97237421867E+02  0.93082537630E+02 0.  0.
         13    1    3    3    0    0 -0.27890054259E+00  0.12730690828E+02 -0.35217202249E+02  0.37448626260E+02  0.00000000000E+00 0. -1.
        -13    1    3    3    0    0  0.12290254268E+02 -0.35516341366E+02  0.46499884152E+02  0.59788795607E+02  0.00000000000E+00 0.  1.
         22    1    1    2    0    0 -0.12011353725E+02  0.22785650538E+02 -0.78431528697E+02  0.82552790277E+02  0.00000000000E+00 0. -1.
<mgrwt>
<rscale>  0 0.69405555E+02</rscale>
<asrwt>0</asrwt>
<pdfrwt beam="1">  1        2 0.86647205E-02 0.96580626E+02</pdfrwt>
<pdfrwt beam="2">  1       -2 0.18995312E-01 0.96580626E+02</pdfrwt>
<totfact> 0.15816769E+04</totfact>
</mgrwt>
</event>
<event>
 6    1  0.3062576E-002  0.9057672E+02  0.7546771E-02  0.1412542E+00
          3   -1    0    0  501    0  0.00000000000E+00  0.00000000000E+00  0.37163748203E+02  0.37163748203E+02  0.00000000000E+00 0. -1.
         -3   -1    0    0    0  501 -0.00000000000E+00 -0.00000000000E+00 -0.84342677146E+02  0.84342677146E+02  0.00000000000E+00 0.  1.
         23    2    1    2    0    0 -0.12561540662E+02  0.58110409688E+01 -0.22687660587E+02  0.93374899855E+02  0.89513024075E+02 0.  0.
         13    1    3    3    0    0 -0.38025636426E+02 -0.28350706388E+02 -0.68725635900E+01  0.47926440601E+02  0.00000000000E+00 0. -1.
        -13    1    3    3    0    0  0.25464095764E+02  0.34161747357E+02 -0.15815096997E+02  0.45448459254E+02  0.00000000000E+00 0.  1.
         22    1    1    2    0    0  0.12561540662E+02 -0.58110409688E+01 -0.24491268356E+02  0.28131525494E+02  0.00000000000E+00 0.  1.
<mgrwt>
<rscale>  0 0.56630537E+02</rscale>
<asrwt>0</asrwt>
<pdfrwt beam="1">  1        3 0.57174998E-02 0.90576719E+02</pdfrwt>
<pdfrwt beam="2">  1       -3 0.12975796E-01 0.90576719E+02</pdfrwt>
<totfact> 0.17873901E+04</totfact>
</mgrwt>
</event>
<event>
 6    1  0.3062576E-002  0.9335754E+02  0.7546771E-02  0.1394983E+00
         -2   -1    0    0    0  501 -0.00000000000E+00  0.00000000000E+00  0.16478887785E+02  0.16478887785E+02  0.00000000000E+00 0.  1.
          2   -1    0    0  501    0  0.00000000000E+00 -0.00000000000E+00 -0.30670942152E+03  0.30670942152E+03  0.00000000000E+00 0. -1.
         23    2    1    2    0    0 -0.92029316630E+01 -0.13895565500E+02 -0.29187377332E+03  0.30644074446E+03  0.91857768449E+02 0.  0.
         13    1    3    3    0    0  0.29832780975E+02 -0.31620547333E+02 -0.88541089528E+02  0.98637611331E+02  0.00000000000E+00 0.  1.
        -13    1    3    3    0    0 -0.39035712638E+02  0.17724981833E+02 -0.20333268379E+03  0.20780313313E+03  0.00000000000E+00 0. -1.
         22    1    1    2    0    0  0.92029316630E+01  0.13895565500E+02  0.16432395842E+01  0.16747564841E+02  0.00000000000E+00 0.  1.
<mgrwt>
<rscale>  0 0.60684085E+02</rscale>
<asrwt>0</asrwt>
<pdfrwt beam="1">  1        2 0.47186061E-01 0.93357540E+02</pdfrwt>
<pdfrwt beam="2">  1       -2 0.25352137E-02 0.93357540E+02</pdfrwt>
<totfact> 0.50988748E+04</totfact>
</mgrwt>
</event>
<event>
 6    1  0.3062576E-002  0.9101355E+02  0.7546771E-02  0.1411339E+00
          1   -1    0    0  501    0  0.00000000000E+00  0.00000000000E+00  0.36726401600E+03  0.36726401600E+03  0.00000000000E+00 0. -1.
         -1   -1    0    0    0  501 -0.00000000000E+00 -0.00000000000E+00 -0.82608894212E+01  0.82608894212E+01  0.00000000000E+00 0.  1.
         23    2    1    2    0    0  0.48494746230E+01  0.13026615061E+02  0.34006202399E+03  0.35203074718E+03  0.89945854255E+02 0.  0.
         13    1    3    3    0    0  0.31017756466E+02  0.37040467154E+02  0.25991045158E+03  0.26436251675E+03  0.00000000000E+00 0.  1.
        -13    1    3    3    0    0 -0.26168281843E+02 -0.24013852093E+02  0.80151572410E+02  0.87668230430E+02  0.00000000000E+00 0. -1.
         22    1    1    2    0    0 -0.48494746230E+01 -0.13026615061E+02  0.18941102590E+02  0.23494158240E+02  0.00000000000E+00 0. -1.
<mgrwt>
<rscale>  0 0.56896202E+02</rscale>
<asrwt>0</asrwt>
<pdfrwt beam="1">  1        1 0.56502144E-01 0.91013553E+02</pdfrwt>
<pdfrwt beam="2">  1       -1 0.12709063E-02 0.91013553E+02</pdfrwt>
<totfact> 0.77921790E+04</totfact>
</mgrwt>
</event>
<event>
 6    1  0.3062576E-002  0.9537354E+02  0.7546771E-02  0.1384458E+00
          2   -1    0    0  501    0  0.00000000000E+00  0.00000000000E+00  0.64007196615E+02  0.64007196615E+02  0.00000000000E+00 0. -1.
         -2   -1    0    0    0  501 -0.00000000000E+00 -0.00000000000E+00 -0.50772944494E+02  0.50772944494E+02  0.00000000000E+00 0.  1.
         23    2    1    2    0    0  0.17815884763E+02 -0.50373053618E+01  0.13071215568E+02  0.96265099221E+02  0.93559245702E+02 0.  0.
         11    1    3    3    0    0  0.55923121172E+02 -0.95706332582E+01  0.42954746413E+01  0.56898537810E+02  0.00000000000E+00 0.  1.
        -11    1    3    3    0    0 -0.38107236408E+02  0.45333278964E+01  0.87757409265E+01  0.39366561411E+02  0.00000000000E+00 0. -1.
         22    1    1    2    0    0 -0.17815884763E+02  0.50373053618E+01  0.16303655299E+00  0.18515041888E+02  0.00000000000E+00 0. -1.
<mgrwt>
<rscale>  0 0.63306441E+02</rscale>
<asrwt>0</asrwt>
<pdfrwt beam="1">  1        2 0.98472610E-02 0.95373543E+02</pdfrwt>
<pdfrwt beam="2">  1       -2 0.78112222E-02 0.95373543E+02</pdfrwt>
<totfact> 0.55433507E+04</totfact>
</mgrwt>
</event>
<event>
 6    1  0.3062576E-002  0.1105621E+03  0.7546771E-02  0.1289660E+00
          2   -1    0    0  501    0  0.00000000000E+00  0.00000000000E+00  0.46502187255E+02  0.46502187255E+02  0.00000000000E+00 0. -1.
         -2   -1    0    0    0  501 -0.00000000000E+00 -0.00000000000E+00 -0.26349130645E+03  0.26349130645E+03  0.00000000000E+00 0.  1.
         23    2    1    2    0    0 -0.23732306530E+02 -0.57278865188E+02 -0.32312666986E+02  0.11518722386E+03  0.91541779108E+02 0.  0.
         11    1    3    3    0    0 -0.50414129594E+02 -0.59620919181E+02 -0.39434972433E+02  0.87472027057E+02  0.00000000000E+00 0. -1.
        -11    1    3    3    0    0  0.26681823064E+02  0.23420539929E+01  0.71223054470E+01  0.27715196802E+02  0.00000000000E+00 0.  1.
         22    1    1    2    0    0  0.23732306530E+02  0.57278865188E+02 -0.18467645221E+03  0.19480626984E+03  0.00000000000E+00 0.  1.
<mgrwt>
<rscale>  0 0.95676229E+02</rscale>
<asrwt>0</asrwt>
<pdfrwt beam="1">  1        2 0.71541824E-02 0.11056215E+03</pdfrwt>
<pdfrwt beam="2">  1       -2 0.40537125E-01 0.11056215E+03</pdfrwt>
<totfact> 0.53219660E+03</totfact>
</mgrwt>
</event>
<event>
 6    1  0.3062576E-002  0.9215013E+02  0.7546771E-02  0.1415915E+00
         -1   -1    0    0    0  501 -0.00000000000E+00  0.00000000000E+00  0.16687991469E+02  0.16687991469E+02  0.00000000000E+00 0.  1.
          1   -1    0    0  501    0  0.00000000000E+00 -0.00000000000E+00 -0.19807370120E+03  0.19807370120E+03  0.00000000000E+00 0. -1.
         23    2    1    2    0    0 -0.10018326677E+02  0.74312548951E+01 -0.17999299410E+03  0.20221059409E+03  0.91302004466E+02 0.  0.
         11    1    3    3    0    0 -0.43388921725E+02 -0.71895260673E+01 -0.47217852620E+02  0.64527617495E+02  0.00000000000E+00 0.  1.
        -11    1    3    3    0    0  0.33370595048E+02  0.14620780962E+02 -0.13277514148E+03  0.13768297659E+03  0.00000000000E+00 0. -1.
         22    1    1    2    0    0  0.10018326677E+02 -0.74312548951E+01 -0.13927156343E+01  0.12551098579E+02  0.00000000000E+00 0.  1.
<mgrwt>
<rscale>  0 0.55894596E+02</rscale>
<asrwt>0</asrwt>
<pdfrwt beam="1">  1        1 0.30472876E-01 0.92150130E+02</pdfrwt>
<pdfrwt beam="2">  1       -1 0.25673834E-02 0.92150130E+02</pdfrwt>
<totfact> 0.61023371E+04</totfact>
</mgrwt>
</event>
<event>
 6    1  0.3062576E-002  0.9327047E+02  0.7546771E-02  0.1421662E+00
          2   -1    0    0  501    0  0.00000000000E+00  0.00000000000E+00  0.18294224608E+04  0.18294224608E+04  0.00000000000E+00 0. -1.
         -2   -1    0    0    0  501 -0.00000000000E+00 -0.00000000000E+00 -0.12728412863E+02  0.12728412863E+02  0.00000000000E+00 0.  1.
         23    2    1    2    0    0  0.25031656428E+01  0.10721831651E+02  0.18256052963E+04  0.18279863454E+04  0.92618343748E+02 0.  0.
         13    1    3    3    0    0 -0.31525229225E+02 -0.56983028715E+01  0.14755831336E+04  0.14759308570E+04  0.00000000000E+00 0. -1.
        -13    1    3    3    0    0  0.34028394868E+02  0.16420134523E+02  0.35002216273E+03  0.35205548834E+03  0.00000000000E+00 0.  1.
         22    1    1    2    0    0 -0.25031656428E+01 -0.10721831651E+02 -0.89112483888E+01  0.14164528232E+02  0.00000000000E+00 0.  1.
<mgrwt>
<rscale>  0 0.54670934E+02</rscale>
<asrwt>0</asrwt>
<pdfrwt beam="1">  1        2 0.28144940E+00 0.93270473E+02</pdfrwt>
<pdfrwt beam="2">  1       -2 0.19582188E-02 0.93270473E+02</pdfrwt>
<totfact> 0.70965353E+03</totfact>
</mgrwt>
</event>
<event>
 6    1  0.3062576E-002  0.9284810E+02  0.7546771E-02  0.1386266E+00
         -2   -1    0    0    0  501 -0.00000000000E+00  0.00000000000E+00  0.43415754201E+01  0.43415754201E+01  0.00000000000E+00 0.  1.
          2   -1    0    0  501    0  0.00000000000E+00 -0.00000000000E+00 -0.11577345668E+04  0.11577345668E+04  0.00000000000E+00 0. -1.
         23    2    1    2    0    0  0.17589543945E+01  0.19408421954E+02 -0.11164857015E+04  0.11203397215E+04  0.90779894804E+02 0.  0.
         11    1    3    3    0    0  0.43734017539E+02 -0.53454517840E+01 -0.54997066388E+03  0.55173269731E+03  0.00000000000E+00 0.  1.
        -11    1    3    3    0    0 -0.41975063145E+02  0.24753873738E+02 -0.56651503758E+03  0.56860702422E+03  0.00000000000E+00 0. -1.
         22    1    1    2    0    0 -0.17589543945E+01 -0.19408421954E+02 -0.36907289937E+02  0.41736420711E+02  0.00000000000E+00 0.  1.
<mgrwt>
<rscale>  0 0.62845096E+02</rscale>
<asrwt>0</asrwt>
<pdfrwt beam="1">  1        2 0.17811326E+00 0.92848102E+02</pdfrwt>
<pdfrwt beam="2">  1       -2 0.66793373E-03 0.92848102E+02</pdfrwt>
<totfact> 0.72695437E+04</totfact>
</mgrwt>
</event>
<event>
 6    1  0.3062576E-002  0.9474613E+02  0.7546771E-02  0.1369992E+00
          2   -1    0    0  501    0  0.00000000000E+00  0.00000000000E+00  0.92648053686E+03  0.92648053686E+03  0.00000000000E+00 0. -1.
         -2   -1    0    0    0  501 -0.00000000000E+00 -0.00000000000E+00 -0.48493334822E+01  0.48493334822E+01  0.00000000000E+00 0.  1.
         23    2    1    2    0    0  0.22810276570E+02 -0.72453409893E+01  0.86018399754E+03  0.86538623692E+03  0.91673473524E+02 0.  0.
         11    1    3    3    0    0  0.39805248299E+02  0.76271520312E+01  0.80123404878E+03  0.80225845721E+03  0.00000000000E+00 0. -1.
        -11    1    3    3    0    0 -0.16994971729E+02 -0.14872493021E+02  0.58949948765E+02  0.63127779718E+02  0.00000000000E+00 0.  1.
         22    1    1    2    0    0 -0.22810276570E+02  0.72453409893E+01  0.61447205834E+02  0.65943633416E+02  0.00000000000E+00 0.  1.
<mgrwt>
<rscale>  0 0.67169457E+02</rscale>
<asrwt>0</asrwt>
<pdfrwt beam="1">  1        2 0.14253533E+00 0.94746131E+02</pdfrwt>
<pdfrwt beam="2">  1       -2 0.74605204E-03 0.94746131E+02</pdfrwt>
<totfact> 0.84807477E+04</totfact>
</mgrwt>
</event>
<event>
 6    1  0.3062576E-002  0.9241708E+02  0.7546771E-02  0.1416338E+00
          2   -1    0    0  501    0  0.00000000000E+00  0.00000000000E+00  0.69640506645E+03  0.69640506645E+03  0.00000000000E+00 0. -1.
         -2   -1    0    0    0  501 -0.00000000000E+00 -0.00000000000E+00 -0.40392376658E+01  0.40392376658E+01  0.00000000000E+00 0.  1.
         23    2    1    2    0    0  0.69952577417E+01 -0.10099103785E+02  0.64110814684E+03  0.64773495498E+03  0.91596890934E+02 0.  0.
         11    1    3    3    0    0 -0.11807279637E+02  0.37218966235E+02  0.35398725339E+03  0.35613429891E+03  0.00000000000E+00 0. -1.
        -11    1    3    3    0    0  0.18802537379E+02 -0.47318070020E+02  0.28712089345E+03  0.29160065607E+03  0.00000000000E+00 0.  1.
         22    1    1    2    0    0 -0.69952577417E+01  0.10099103785E+02  0.51257681942E+02  0.52709349135E+02  0.00000000000E+00 0. -1.
<mgrwt>
<rscale>  0 0.55803252E+02</rscale>
<asrwt>0</asrwt>
<pdfrwt beam="1">  1        2 0.10713915E+00 0.92417076E+02</pdfrwt>
<pdfrwt beam="2">  1       -2 0.62142173E-03 0.92417076E+02</pdfrwt>
<totfact> 0.15523585E+05</totfact>
</mgrwt>
</event>
<event>
 6    1  0.3062576E-002  0.8287794E+02  0.7546771E-02  0.1436584E+00
         -2   -1    0    0    0  501 -0.00000000000E+00  0.00000000000E+00  0.48328725256E+01  0.48328725256E+01  0.00000000000E+00 0.  1.
          2   -1    0    0  501    0  0.00000000000E+00 -0.00000000000E+00 -0.51359540029E+03  0.51359540029E+03  0.00000000000E+00 0. -1.
         23    2    1    2    0    0  0.10458656063E+02  0.68679423531E+01 -0.47939800647E+03  0.48650919968E+03  0.81928021151E+02 0.  0.
         11    1    3    3    0    0  0.14680546438E+02  0.40012215475E+02 -0.16792517656E+03  0.17324941776E+03  0.00000000000E+00 0.  1.
        -11    1    3    3    0    0 -0.42218903751E+01 -0.33144273122E+02 -0.31147282991E+03  0.31325978193E+03  0.00000000000E+00 0. -1.
         22    1    1    2    0    0 -0.10458656063E+02 -0.68679423531E+01 -0.29364521294E+02  0.31919073132E+02  0.00000000000E+00 0. -1.
<mgrwt>
<rscale>  0 0.51660853E+02</rscale>
<asrwt>0</asrwt>
<pdfrwt beam="1">  1        2 0.79014651E-01 0.82877939E+02</pdfrwt>
<pdfrwt beam="2">  1       -2 0.74351909E-03 0.82877939E+02</pdfrwt>
<totfact> 0.16672767E+05</totfact>
</mgrwt>
</event>
<event>
 6    1  0.3062576E-002  0.9112869E+02  0.7546771E-02  0.1429510E+00
         -2   -1    0    0    0  501 -0.00000000000E+00  0.00000000000E+00  0.15790134767E+03  0.15790134767E+03  0.00000000000E+00 0.  1.
          2   -1    0    0  501    0  0.00000000000E+00 -0.00000000000E+00 -0.16344005649E+02  0.16344005649E+02  0.00000000000E+00 0. -1.
         23    2    1    2    0    0  0.60445937162E+01 -0.85520393860E+01  0.12676446963E+03  0.15612068603E+03  0.90524932225E+02 0.  0.
         11    1    3    3    0    0 -0.13258127588E+01 -0.40009438223E+02  0.20344986414E+02  0.44904692389E+02  0.00000000000E+00 0. -1.
        -11    1    3    3    0    0  0.73704064750E+01  0.31457398837E+02  0.10641948322E+03  0.11121599364E+03  0.00000000000E+00 0.  1.
         22    1    1    2    0    0 -0.60445937162E+01  0.85520393860E+01  0.14792872391E+02  0.18124667292E+02  0.00000000000E+00 0.  1.
<mgrwt>
<rscale>  0 0.53058448E+02</rscale>
<asrwt>0</asrwt>
<pdfrwt beam="1">  1        2 0.25144625E-02 0.91128688E+02</pdfrwt>
<pdfrwt beam="2">  1       -2 0.24292514E-01 0.91128688E+02</pdfrwt>
<totfact> 0.51242989E+04</totfact>
</mgrwt>
</event>
<event>
 6    1  0.3062576E-002  0.9154946E+02  0.7546771E-02  0.1430386E+00
         -2   -1    0    0    0  501 -0.00000000000E+00  0.00000000000E+00  0.23328749238E+01  0.23328749238E+01  0.00000000000E+00 0.  1.
          2   -1    0    0  501    0  0.00000000000E+00 -0.00000000000E+00 -0.11861685072E+04  0.11861685072E+04  0.00000000000E+00 0. -1.
         23    2    1    2    0    0  0.34604451508E+01  0.95872173461E+01 -0.11304805506E+04  0.11341814580E+04  0.90980299769E+02 0.  0.
         11    1    3    3    0    0 -0.23212075810E+02  0.14175633095E+02 -0.10224725173E+04  0.10228341985E+04  0.00000000000E+00 0. -1.
        -11    1    3    3    0    0  0.26672520961E+02 -0.45884157493E+01 -0.10800803335E+03  0.11134725952E+03  0.00000000000E+00 0.  1.
         22    1    1    2    0    0 -0.34604451508E+01 -0.95872173461E+01 -0.53355081589E+02  0.54319924047E+02  0.00000000000E+00 0.  1.
<mgrwt>
<rscale>  0 0.52882657E+02</rscale>
<asrwt>0</asrwt>
<pdfrwt beam="1">  1        2 0.18248821E+00 0.91549464E+02</pdfrwt>
<pdfrwt beam="2">  1       -2 0.35890237E-03 0.91549464E+02</pdfrwt>
<totfact> 0.16718706E+05</totfact>
</mgrwt>
</event>
<event>
 6    1  0.3062576E-002  0.9269363E+02  0.7546771E-02  0.1412152E+00
          3   -1    0    0  501    0  0.00000000000E+00  0.00000000000E+00  0.38132478619E+03  0.38132478619E+03  0.00000000000E+00 0. -1.
         -3   -1    0    0    0  501 -0.00000000000E+00 -0.00000000000E+00 -0.77914749940E+01  0.77914749940E+01  0.00000000000E+00 0.  1.
         23    2    1    2    0    0  0.30250579459E+01  0.12635111496E+02  0.35169727669E+03  0.36370741585E+03  0.91778608062E+02 0.  0.
         13    1    3    3    0    0 -0.44389544051E+02  0.58537231287E+01  0.17394612395E+03  0.17961612325E+03  0.00000000000E+00 0. -1.
        -13    1    3    3    0    0  0.47414601997E+02  0.67813883672E+01  0.17775115274E+03  0.18409129260E+03  0.00000000000E+00 0.  1.
         22    1    1    2    0    0 -0.30250579459E+01 -0.12635111496E+02  0.21836034510E+02  0.25408845334E+02  0.00000000000E+00 0.  1.
<mgrwt>
<rscale>  0 0.56716318E+02</rscale>
<asrwt>0</asrwt>
<pdfrwt beam="1">  1        3 0.58665337E-01 0.92693635E+02</pdfrwt>
<pdfrwt beam="2">  1       -3 0.11986888E-02 0.92693635E+02</pdfrwt>
<totfact> 0.12432909E+04</totfact>
</mgrwt>
</event>
<event>
 6    1  0.3062576E-002  0.9335127E+02  0.7546771E-02  0.1384738E+00
          2   -1    0    0  501    0  0.00000000000E+00  0.00000000000E+00  0.17791760361E+02  0.17791760361E+02  0.00000000000E+00 0. -1.
         -2   -1    0    0    0  501 -0.00000000000E+00 -0.00000000000E+00 -0.18043197624E+03  0.18043197624E+03  0.00000000000E+00 0.  1.
         23    2    1    2    0    0 -0.19470048981E+02  0.26841771642E+01 -0.13964340070E+03  0.16797243708E+03  0.91258822286E+02 0.  0.
         11    1    3    3    0    0 -0.30382675740E+02  0.27108317727E+02 -0.19981272340E+02  0.45356577466E+02  0.00000000000E+00 0.  1.
        -11    1    3    3    0    0  0.10912626760E+02 -0.24424140563E+02 -0.11966212836E+03  0.12261585962E+03  0.00000000000E+00 0. -1.
         22    1    1    2    0    0  0.19470048981E+02 -0.26841771642E+01 -0.22996815179E+02  0.30251299521E+02  0.00000000000E+00 0. -1.
<mgrwt>
<rscale>  0 0.63234492E+02</rscale>
<asrwt>0</asrwt>
<pdfrwt beam="1">  1        2 0.27371937E-02 0.93351273E+02</pdfrwt>
<pdfrwt beam="2">  1       -2 0.27758768E-01 0.93351273E+02</pdfrwt>
<totfact> 0.36394172E+04</totfact>
</mgrwt>
</event>
<event>
 6    1  0.3062576E-002  0.9468005E+02  0.7546771E-02  0.1388212E+00
         -3   -1    0    0    0  501 -0.00000000000E+00  0.00000000000E+00  0.10464940287E+02  0.10464940287E+02  0.00000000000E+00 0.  1.
          3   -1    0    0  501    0  0.00000000000E+00 -0.00000000000E+00 -0.30295067960E+03  0.30295067960E+03  0.00000000000E+00 0. -1.
         23    2    1    2    0    0 -0.69857599188E+01  0.16382932963E+02 -0.25128470167E+03  0.26852991128E+03  0.92989841521E+02 0.  0.
         13    1    3    3    0    0 -0.29198073374E+01  0.54490376636E+02 -0.12120929616E+03  0.13292637021E+03  0.00000000000E+00 0.  1.
        -13    1    3    3    0    0 -0.40659525815E+01 -0.38107443673E+02 -0.13007540551E+03  0.13560354108E+03  0.00000000000E+00 0. -1.
         22    1    1    2    0    0  0.69857599188E+01 -0.16382932963E+02 -0.41201037645E+02  0.44885708607E+02  0.00000000000E+00 0.  1.
<mgrwt>
<rscale>  0 0.62353486E+02</rscale>
<asrwt>0</asrwt>
<pdfrwt beam="1">  1        3 0.46607795E-01 0.94680050E+02</pdfrwt>
<pdfrwt beam="2">  1       -3 0.16099909E-02 0.94680050E+02</pdfrwt>
<totfact> 0.12721020E+04</totfact>
</mgrwt>
</event>
<event>
 6    1  0.3062576E-002  0.9156259E+02  0.7546771E-02  0.1398569E+00
          2   -1    0    0  501    0  0.00000000000E+00  0.00000000000E+00  0.10856612912E+04  0.10856612912E+04  0.00000000000E+00 0. -1.
         -2   -1    0    0    0  501 -0.00000000000E+00 -0.00000000000E+00 -0.49367704047E+01  0.49367704047E+01  0.00000000000E+00 0.  1.
         23    2    1    2    0    0  0.16376268931E+02  0.32034157464E+01  0.10601987766E+04  0.10641452691E+04  0.90029238567E+02 0.  0.
         13    1    3    3    0    0  0.45950167025E+02  0.25288971608E+02  0.73221652102E+03  0.73409262603E+03  0.00000000000E+00 0. -1.
        -13    1    3    3    0    0 -0.29573898094E+02 -0.22085555861E+02  0.32798225555E+03  0.33005264305E+03  0.00000000000E+00 0.  1.
         22    1    1    2    0    0 -0.16376268931E+02 -0.32034157464E+01  0.20525744218E+02  0.26452792522E+02  0.00000000000E+00 0.  1.
<mgrwt>
<rscale>  0 0.59824737E+02</rscale>
<asrwt>0</asrwt>
<pdfrwt beam="1">  1        2 0.16702462E+00 0.91562590E+02</pdfrwt>
<pdfrwt beam="2">  1       -2 0.75950400E-03 0.91562590E+02</pdfrwt>
<totfact> 0.66437057E+04</totfact>
</mgrwt>
</event>
<event>
 6    1  0.3062576E-002  0.1073685E+03  0.7546771E-02  0.1390605E+00
         -2   -1    0    0    0  501 -0.00000000000E+00  0.00000000000E+00  0.31955924788E+02  0.31955924788E+02  0.00000000000E+00 0. -1.
          2   -1    0    0  501    0  0.00000000000E+00 -0.00000000000E+00 -0.16676710385E+03  0.16676710385E+03  0.00000000000E+00 0.  1.
         23    2    1    2    0    0 -0.39200858108E+01 -0.11078490325E+02 -0.14684003546E+03  0.18190656627E+03  0.10672348765E+03 0.  0.
         11    1    3    3    0    0  0.27071300294E+02 -0.27149515262E+02 -0.14148502354E+03  0.14658773265E+03  0.00000000000E+00 0.  1.
        -11    1    3    3    0    0 -0.30991386105E+02  0.16071024937E+02 -0.53550119192E+01  0.35318833614E+02  0.00000000000E+00 0. -1.
         22    1    1    2    0    0  0.39200858108E+01  0.11078490325E+02  0.12028856393E+02  0.16816462374E+02  0.00000000000E+00 0.  1.
<mgrwt>
<rscale>  0 0.61756403E+02</rscale>
<asrwt>0</asrwt>
<pdfrwt beam="1">  1        2 0.25656478E-01 0.10736854E+03</pdfrwt>
<pdfrwt beam="2">  1       -2 0.49162960E-02 0.10736854E+03</pdfrwt>
<totfact> 0.37526615E+04</totfact>
</mgrwt>
</event>
<event>
 6    1  0.3062576E-002  0.1818092E+03  0.7546771E-02  0.1172481E+00
          2   -1    0    0  501    0  0.00000000000E+00  0.00000000000E+00  0.68670238047E+03  0.68670238047E+03  0.00000000000E+00 0. -1.
         -2   -1    0    0    0  501 -0.00000000000E+00 -0.00000000000E+00 -0.71833330618E+02  0.71833330618E+02  0.00000000000E+00 0.  1.
         23    2    1    2    0    0  0.11983074659E+03  0.10137431659E+03  0.56548175614E+03  0.59399008011E+03  0.91752050943E+02 0.  0.
         13    1    3    3    0    0 -0.81502029873E+01  0.36151585529E+02  0.14452018639E+03  0.14919600270E+03  0.00000000000E+00 0.  1.
        -13    1    3    3    0    0  0.12798094958E+03  0.65222731059E+02  0.42096156975E+03  0.44479407742E+03  0.00000000000E+00 0. -1.
         22    1    1    2    0    0 -0.11983074659E+03 -0.10137431659E+03  0.49387293709E+02  0.16454563097E+03  0.00000000000E+00 0.  1.
<mgrwt>
<rscale>  0 0.17525023E+03</rscale>
<asrwt>0</asrwt>
<pdfrwt beam="1">  1        2 0.10564652E+00 0.18180924E+03</pdfrwt>
<pdfrwt beam="2">  1       -2 0.11051282E-01 0.18180924E+03</pdfrwt>
<totfact> 0.24017371E+03</totfact>
</mgrwt>
</event>
<event>
 6    1  0.3062576E-002  0.9593733E+02  0.7546771E-02  0.1360516E+00
         -2   -1    0    0    0  501 -0.00000000000E+00  0.00000000000E+00  0.29703915557E+01  0.29703915557E+01  0.00000000000E+00 0.  1.
          2   -1    0    0  501    0  0.00000000000E+00 -0.00000000000E+00 -0.17067504294E+04  0.17067504294E+04  0.00000000000E+00 0. -1.
         23    2    1    2    0    0  0.66697120471E+01 -0.26161843314E+02 -0.15854419967E+04  0.15883419963E+04  0.92060007877E+02 0.  0.
         11    1    3    3    0    0  0.22184192330E+02 -0.37290902614E+02 -0.15064660611E+04  0.15070908211E+04  0.00000000000E+00 0. -1.
        -11    1    3    3    0    0 -0.15514480283E+02  0.11129059300E+02 -0.78975935672E+02  0.81251175220E+02  0.00000000000E+00 0.  1.
         22    1    1    2    0    0 -0.66697120471E+01  0.26161843314E+02 -0.11833804107E+03  0.12137882463E+03  0.00000000000E+00 0.  1.
<mgrwt>
<rscale>  0 0.69875712E+02</rscale>
<asrwt>0</asrwt>
<pdfrwt beam="1">  1        2 0.26257743E+00 0.95937335E+02</pdfrwt>
<pdfrwt beam="2">  1       -2 0.45698254E-03 0.95937335E+02</pdfrwt>
<totfact> 0.64402824E+04</totfact>
</mgrwt>
</event>
<event>
 6    1  0.3062576E-002  0.1053746E+03  0.7546771E-02  0.1381515E+00
         -2   -1    0    0    0  501 -0.00000000000E+00  0.00000000000E+00  0.19314482314E+01  0.19314482314E+01  0.00000000000E+00 0.  1.
          2   -1    0    0  501    0  0.00000000000E+00 -0.00000000000E+00 -0.30258683331E+04  0.30258683331E+04  0.00000000000E+00 0. -1.
         23    2    1    2    0    0  0.12583239062E+02 -0.69999442103E+01 -0.29729977532E+04  0.29748646110E+04  0.10438618707E+03 0.  0.
         11    1    3    3    0    0  0.43955128211E+02 -0.39207203977E+02 -0.14313598344E+04  0.14325711968E+04  0.00000000000E+00 0. -1.
        -11    1    3    3    0    0 -0.31371889149E+02  0.32207259766E+02 -0.15416379188E+04  0.15422934143E+04  0.00000000000E+00 0.  1.
         22    1    1    2    0    0 -0.12583239062E+02  0.69999442103E+01 -0.50939131691E+02  0.52935170366E+02  0.00000000000E+00 0.  1.
<mgrwt>
<rscale>  0 0.64067339E+02</rscale>
<asrwt>0</asrwt>
<pdfrwt beam="1">  1        2 0.46551984E+00 0.10537463E+03</pdfrwt>
<pdfrwt beam="2">  1       -2 0.29714484E-03 0.10537463E+03</pdfrwt>
<totfact> 0.23975658E+04</totfact>
</mgrwt>
</event>
<event>
 6    1  0.3062576E-002  0.8752782E+02  0.7546771E-02  0.1399574E+00
          2   -1    0    0  501    0  0.00000000000E+00  0.00000000000E+00  0.37470176471E+03  0.37470176471E+03  0.00000000000E+00 0. -1.
         -2   -1    0    0    0  501 -0.00000000000E+00 -0.00000000000E+00 -0.96422092375E+01  0.96422092375E+01  0.00000000000E+00 0.  1.
         23    2    1    2    0    0 -0.17968491200E+02 -0.55302467248E+01  0.34839326531E+03  0.35921997083E+03  0.85484909928E+02 0.  0.
         13    1    3    3    0    0 -0.56486904250E+01  0.20795705299E+02  0.19553859836E+02  0.29098496471E+02  0.00000000000E+00 0.  1.
        -13    1    3    3    0    0 -0.12319800775E+02 -0.26325952023E+02  0.32883940547E+03  0.33012147436E+03  0.00000000000E+00 0. -1.
         22    1    1    2    0    0  0.17968491200E+02  0.55302467248E+01  0.16666290163E+02  0.25124003117E+02  0.00000000000E+00 0.  1.
<mgrwt>
<rscale>  0 0.59586880E+02</rscale>
<asrwt>0</asrwt>
<pdfrwt beam="1">  1        2 0.57646414E-01 0.87527825E+02</pdfrwt>
<pdfrwt beam="2">  1       -2 0.14834171E-02 0.87527825E+02</pdfrwt>
<totfact> 0.88445368E+04</totfact>
</mgrwt>
</event>
<event>
 6    1  0.3062576E-002  0.9084092E+02  0.7546771E-02  0.1400463E+00
          2   -1    0    0  501    0  0.00000000000E+00  0.00000000000E+00  0.37677966738E+03  0.37677966738E+03  0.00000000000E+00 0. -1.
         -2   -1    0    0    0  501 -0.00000000000E+00 -0.00000000000E+00 -0.10577558941E+02  0.10577558941E+02  0.00000000000E+00 0.  1.
         23    2    1    2    0    0  0.15345545444E+02  0.62835879361E+01  0.35703420185E+03  0.36840940973E+03  0.89314627264E+02 0.  0.
         13    1    3    3    0    0  0.83610002844E-01  0.35829086799E+02  0.30192987921E+03  0.30404832249E+03  0.00000000000E+00 0. -1.
        -13    1    3    3    0    0  0.15261935441E+02 -0.29545498862E+02  0.55104322642E+02  0.64361087237E+02  0.00000000000E+00 0.  1.
         22    1    1    2    0    0 -0.15345545444E+02 -0.62835879361E+01  0.91679065828E+01  0.18947816587E+02  0.00000000000E+00 0.  1.
<mgrwt>
<rscale>  0 0.59377463E+02</rscale>
<asrwt>0</asrwt>
<pdfrwt beam="1">  1        2 0.57966092E-01 0.90840915E+02</pdfrwt>
<pdfrwt beam="2">  1       -2 0.16273170E-02 0.90840915E+02</pdfrwt>
<totfact> 0.77467910E+04</totfact>
</mgrwt>
</event>
<event>
 6    1  0.3062576E-002  0.1611874E+03  0.7546771E-02  0.1196530E+00
         -2   -1    0    0    0  501 -0.00000000000E+00  0.00000000000E+00  0.20894095504E+03  0.20894095504E+03  0.00000000000E+00 0.  1.
          2   -1    0    0  501    0  0.00000000000E+00 -0.00000000000E+00 -0.22648534295E+03  0.22648534295E+03  0.00000000000E+00 0. -1.
         23    2    1    2    0    0 -0.63237176126E+02 -0.11555098334E+03 -0.16978394547E+03  0.23411099037E+03  0.92899932610E+02 0.  0.
         11    1    3    3    0    0 -0.42490794330E+02 -0.12571047137E+03 -0.16269323730E+03  0.20994684965E+03  0.00000000000E+00 0. -1.
        -11    1    3    3    0    0 -0.20746381797E+02  0.10159488025E+02 -0.70907081658E+01  0.24164140723E+02  0.00000000000E+00 0.  1.
         22    1    1    2    0    0  0.63237176126E+02  0.11555098334E+03  0.15223955755E+03  0.20131530761E+03  0.00000000000E+00 0.  1.
<mgrwt>
<rscale>  0 0.15325467E+03</rscale>
<asrwt>0</asrwt>
<pdfrwt beam="1">  1        2 0.34843899E-01 0.16118737E+03</pdfrwt>
<pdfrwt beam="2">  1       -2 0.32144762E-01 0.16118737E+03</pdfrwt>
<totfact> 0.13216296E+03</totfact>
</mgrwt>
</event>
<event>
 6    1  0.3062576E-002  0.9485494E+02  0.7546771E-02  0.1363594E+00
          2   -1    0    0  501    0  0.00000000000E+00  0.00000000000E+00  0.14104249829E+04  0.14104249829E+04  0.00000000000E+00 0. -1.
         -2   -1    0    0    0  501 -0.00000000000E+00 -0.00000000000E+00 -0.37641239281E+01  0.37641239281E+01  0.00000000000E+00 0.  1.
         23    2    1    2    0    0 -0.18520734222E+02 -0.18994448017E+02  0.13235981346E+04  0.13269926457E+04  0.91069496548E+02 0.  0.
         13    1    3    3    0    0 -0.34823206859E+02 -0.45272718190E+02  0.59407373497E+03  0.59681310084E+03  0.00000000000E+00 0. -1.
        -13    1    3    3    0    0  0.16302472638E+02  0.26278270174E+02  0.72952439965E+03  0.73017954489E+03  0.00000000000E+00 0.  1.
         22    1    1    2    0    0  0.18520734222E+02  0.18994448017E+02  0.83062724396E+02  0.87196461141E+02  0.00000000000E+00 0.  1.
<mgrwt>
<rscale>  0 0.68980548E+02</rscale>
<asrwt>0</asrwt>
<pdfrwt beam="1">  1        2 0.21698804E+00 0.94854941E+02</pdfrwt>
<pdfrwt beam="2">  1       -2 0.57909711E-03 0.94854941E+02</pdfrwt>
<totfact> 0.65326669E+04</totfact>
</mgrwt>
</event>
<event>
 6    1  0.3062576E-002  0.9068813E+02  0.7546771E-02  0.1420966E+00
         -2   -1    0    0    0  501 -0.00000000000E+00  0.00000000000E+00  0.17659937929E+02  0.17659937929E+02  0.00000000000E+00 0.  1.
          2   -1    0    0  501    0  0.00000000000E+00 -0.00000000000E+00 -0.17962656530E+03  0.17962656530E+03  0.00000000000E+00 0. -1.
         23    2    1    2    0    0 -0.11730008934E+02  0.29946972135E+01 -0.16144089577E+03  0.18516884195E+03  0.89876447880E+02 0.  0.
         11    1    3    3    0    0  0.18152002050E+02 -0.22394129237E+02 -0.13459648837E+03  0.13764885356E+03  0.00000000000E+00 0. -1.
        -11    1    3    3    0    0 -0.29882010984E+02  0.25388826451E+02 -0.26844407391E+02  0.47519988396E+02  0.00000000000E+00 0.  1.
         22    1    1    2    0    0  0.11730008934E+02 -0.29946972135E+01 -0.52573160040E+00  0.12117661272E+02  0.00000000000E+00 0.  1.
<mgrwt>
<rscale>  0 0.54817000E+02</rscale>
<asrwt>0</asrwt>
<pdfrwt beam="1">  1        2 0.27634856E-01 0.90688132E+02</pdfrwt>
<pdfrwt beam="2">  1       -2 0.27169136E-02 0.90688132E+02</pdfrwt>
<totfact> 0.80880292E+04</totfact>
</mgrwt>
</event>
<event>
 6    1  0.3062576E-002  0.9193883E+02  0.7546771E-02  0.1404921E+00
          2   -1    0    0  501    0  0.00000000000E+00  0.00000000000E+00  0.11229054104E+03  0.11229054104E+03  0.00000000000E+00 0. -1.
         -2   -1    0    0    0  501 -0.00000000000E+00 -0.00000000000E+00 -0.25610686619E+02  0.25610686619E+02  0.00000000000E+00 0.  1.
         23    2    1    2    0    0 -0.14907275747E+02 -0.22993689166E+00  0.78518613193E+02  0.12090459271E+03  0.90721927780E+02 0.  0.
         11    1    3    3    0    0  0.88293392240E+01 -0.64220651643E+00  0.92785780903E+02  0.93207139202E+02  0.00000000000E+00 0. -1.
        -11    1    3    3    0    0 -0.23736614971E+02  0.41226962477E+00 -0.14267167710E+02  0.27697453511E+02  0.00000000000E+00 0.  1.
         22    1    1    2    0    0  0.14907275747E+02  0.22993689166E+00  0.81612412308E+01  0.16996634949E+02  0.00000000000E+00 0.  1.
<mgrwt>
<rscale>  0 0.58342724E+02</rscale>
<asrwt>0</asrwt>
<pdfrwt beam="1">  1        2 0.17275468E-01 0.91938827E+02</pdfrwt>
<pdfrwt beam="2">  1       -2 0.39401057E-02 0.91938827E+02</pdfrwt>
<totfact> 0.79233145E+04</totfact>
</mgrwt>
</event>
<event>
 6    1  0.3062576E-002  0.1539300E+03  0.7546771E-02  0.1204947E+00
         -3   -1    0    0    0  501 -0.00000000000E+00  0.00000000000E+00  0.66898871423E+03  0.66898871423E+03  0.00000000000E+00 0.  1.
          3   -1    0    0  501    0  0.00000000000E+00 -0.00000000000E+00 -0.46026055083E+02  0.46026055083E+02  0.00000000000E+00 0. -1.
         23    2    1    2    0    0 -0.11972798833E+03 -0.39278331199E+02  0.54618189402E+03  0.56745846011E+03  0.88413031342E+02 0.  0.
         13    1    3    3    0    0 -0.10244009035E+03 -0.45042091411E+02  0.29333490670E+03  0.31395561725E+03  0.00000000000E+00 0. -1.
        -13    1    3    3    0    0 -0.17287897979E+02  0.57637602123E+01  0.25284698731E+03  0.25350284287E+03  0.00000000000E+00 0.  1.
         22    1    1    2    0    0  0.11972798833E+03  0.39278331199E+02  0.76780765130E+02  0.14755630920E+03  0.00000000000E+00 0. -1.
<mgrwt>
<rscale>  0 0.14641665E+03</rscale>
<asrwt>0</asrwt>
<pdfrwt beam="1">  1        3 0.70809320E-02 0.15392999E+03</pdfrwt>
<pdfrwt beam="2">  1       -3 0.10292133E+00 0.15392999E+03</pdfrwt>
<totfact> 0.26133733E+02</totfact>
</mgrwt>
</event>
<event>
 6    1  0.3062576E-002  0.9533239E+02  0.7546771E-02  0.1359819E+00
         -2   -1    0    0    0  501 -0.00000000000E+00  0.00000000000E+00  0.71238483723E+01  0.71238483723E+01  0.00000000000E+00 0. -1.
          2   -1    0    0  501    0  0.00000000000E+00 -0.00000000000E+00 -0.56264077167E+03  0.56264077167E+03  0.00000000000E+00 0.  1.
         23    2    1    2    0    0  0.19637207415E+02  0.19734663882E+02 -0.47764431750E+03  0.48706504563E+03  0.91176684326E+02 0.  0.
         13    1    3    3    0    0 -0.24122333788E+02 -0.13047694124E+02 -0.29863293922E+03  0.29988958251E+03  0.00000000000E+00 0.  1.
        -13    1    3    3    0    0  0.43759541203E+02  0.32782358006E+02 -0.17901137827E+03  0.18717546312E+03  0.00000000000E+00 0. -1.
         22    1    1    2    0    0 -0.19637207415E+02 -0.19734663882E+02 -0.77872605799E+02  0.82699574410E+02  0.00000000000E+00 0. -1.
<mgrwt>
<rscale>  0 0.70080705E+02</rscale>
<asrwt>0</asrwt>
<pdfrwt beam="1">  1        2 0.86560112E-01 0.95332390E+02</pdfrwt>
<pdfrwt beam="2">  1       -2 0.10959768E-02 0.95332390E+02</pdfrwt>
<totfact> 0.89093249E+04</totfact>
</mgrwt>
</event>
<event>
 6    1  0.3062576E-002  0.8983628E+02  0.7546771E-02  0.1394741E+00
         -2   -1    0    0    0  501 -0.00000000000E+00  0.00000000000E+00  0.69826242262E+01  0.69826242262E+01  0.00000000000E+00 0.  1.
          2   -1    0    0  501    0  0.00000000000E+00 -0.00000000000E+00 -0.43078942377E+03  0.43078942377E+03  0.00000000000E+00 0. -1.
         23    2    1    2    0    0 -0.16956115011E+02  0.80656203929E+01 -0.32450565496E+03  0.33671126735E+03  0.87852110918E+02 0.  0.
         11    1    3    3    0    0 -0.49577252307E+02 -0.60219802794E+00 -0.25067148158E+03  0.25552780331E+03  0.00000000000E+00 0.  1.
        -11    1    3    3    0    0  0.32621137296E+02  0.86678184208E+01 -0.73834173379E+02  0.81183464038E+02  0.00000000000E+00 0. -1.
         22    1    1    2    0    0  0.16956115011E+02 -0.80656203929E+01 -0.99301144582E+02  0.10106078064E+03  0.00000000000E+00 0. -1.
<mgrwt>
<rscale>  0 0.60742629E+02</rscale>
<asrwt>0</asrwt>
<pdfrwt beam="1">  1        2 0.66275325E-01 0.89836281E+02</pdfrwt>
<pdfrwt beam="2">  1       -2 0.10742494E-02 0.89836281E+02</pdfrwt>
<totfact> 0.12126029E+05</totfact>
</mgrwt>
</event>
<event>
 6    1  0.3062576E-002  0.9454533E+02  0.7546771E-02  0.1371373E+00
          2   -1    0    0  501    0  0.00000000000E+00  0.00000000000E+00  0.44096071296E+02  0.44096071296E+02  0.00000000000E+00 0.  1.
         -2   -1    0    0    0  501 -0.00000000000E+00 -0.00000000000E+00 -0.87559828443E+02  0.87559828443E+02  0.00000000000E+00 0. -1.
         23    2    1    2    0    0  0.59388723722E+01  0.22780927218E+02 -0.50364145936E+02  0.10712314173E+03  0.91567349250E+02 0.  0.
         13    1    3    3    0    0 -0.11867215708E+02 -0.19676955110E+02  0.14802249734E+02  0.27333495354E+02  0.00000000000E+00 0.  1.
        -13    1    3    3    0    0  0.17806088081E+02  0.42457882328E+02 -0.65166395671E+02  0.79789646379E+02  0.00000000000E+00 0. -1.
         22    1    1    2    0    0 -0.59388723722E+01 -0.22780927218E+02  0.69003887898E+01  0.24532758007E+02  0.00000000000E+00 0.  1.
<mgrwt>
<rscale>  0 0.66787070E+02</rscale>
<asrwt>0</asrwt>
<pdfrwt beam="1">  1        2 0.67840110E-02 0.94545335E+02</pdfrwt>
<pdfrwt beam="2">  1       -2 0.13470743E-01 0.94545335E+02</pdfrwt>
<totfact> 0.37510304E+04</totfact>
</mgrwt>
</event>
<event>
 6    1  0.3062576E-002  0.9794863E+02  0.7546771E-02  0.1352203E+00
         -2   -1    0    0    0  501 -0.00000000000E+00  0.00000000000E+00  0.32296940399E+01  0.32296940399E+01  0.00000000000E+00 0.  1.
          2   -1    0    0  501    0  0.00000000000E+00 -0.00000000000E+00 -0.17926296979E+04  0.17926296979E+04  0.00000000000E+00 0. -1.
         23    2    1    2    0    0  0.20322426860E+02 -0.20962176439E+02 -0.16726045258E+04  0.16754700337E+04  0.93496097959E+02 0.  0.
         11    1    3    3    0    0  0.42982358929E+02 -0.42590215957E+02 -0.79182029217E+03  0.79412894719E+03  0.00000000000E+00 0. -1.
        -11    1    3    3    0    0 -0.22659932069E+02  0.21628039517E+02 -0.88078423362E+03  0.88134108653E+03  0.00000000000E+00 0.  1.
         22    1    1    2    0    0 -0.20322426860E+02  0.20962176439E+02 -0.11679547809E+03  0.12038935824E+03  0.00000000000E+00 0.  1.
<mgrwt>
<rscale>  0 0.72373586E+02</rscale>
<asrwt>0</asrwt>
<pdfrwt beam="1">  1        2 0.27578938E+00 0.97948630E+02</pdfrwt>
<pdfrwt beam="2">  1       -2 0.49687566E-03 0.97948630E+02</pdfrwt>
<totfact> 0.51941323E+04</totfact>
</mgrwt>
</event>
<event>
 6    1  0.3062576E-002  0.9480973E+02  0.7546771E-02  0.1405413E+00
         -2   -1    0    0    0  501 -0.00000000000E+00  0.00000000000E+00  0.15072097490E+01  0.15072097490E+01  0.00000000000E+00 0.  1.
          2   -1    0    0  501    0  0.00000000000E+00 -0.00000000000E+00 -0.25525989477E+04  0.25525989477E+04  0.00000000000E+00 0. -1.
         23    2    1    2    0    0  0.13207792136E+02  0.27477537622E+01 -0.24758453422E+04  0.24776599934E+04  0.93845023786E+02 0.  0.
         11    1    3    3    0    0  0.21929203771E+02 -0.24600083116E+02 -0.33391178655E+03  0.33553410447E+03  0.00000000000E+00 0.  1.
        -11    1    3    3    0    0 -0.87214116356E+01  0.27347836878E+02 -0.21419335557E+04  0.21421258889E+04  0.00000000000E+00 0. -1.
         22    1    1    2    0    0 -0.13207792136E+02 -0.27477537622E+01 -0.75246395713E+02  0.76446164008E+02  0.00000000000E+00 0. -1.
<mgrwt>
<rscale>  0 0.58230079E+02</rscale>
<asrwt>0</asrwt>
<pdfrwt beam="1">  1        2 0.39270366E+00 0.94809727E+02</pdfrwt>
<pdfrwt beam="2">  1       -2 0.23188071E-03 0.94809727E+02</pdfrwt>
<totfact> 0.61376681E+04</totfact>
</mgrwt>
</event>
<event>
 6    1  0.3062576E-002  0.9193206E+02  0.7546771E-02  0.1407249E+00
         -4   -1    0    0    0  501 -0.00000000000E+00  0.00000000000E+00  0.41492108065E+02  0.41492108065E+02  0.00000000000E+00 0.  1.
          4   -1    0    0  501    0  0.00000000000E+00 -0.00000000000E+00 -0.76257992537E+02  0.76257992537E+02  0.00000000000E+00 0. -1.
         23    2    1    2    0    0 -0.14226018826E+02 -0.20810050635E+01 -0.42660265491E+02  0.10134792253E+03  0.90800842267E+02 0.  0.
         13    1    3    3    0    0  0.25043764663E+02 -0.75012535685E+01  0.15924536911E+02  0.30611269647E+02  0.00000000000E+00 0.  1.
        -13    1    3    3    0    0 -0.39269783489E+02  0.54202485050E+01 -0.58584802402E+02  0.70736652886E+02  0.00000000000E+00 0. -1.
         22    1    1    2    0    0  0.14226018826E+02  0.20810050635E+01  0.78943810187E+01  0.16402178068E+02  0.00000000000E+00 0.  1.
<mgrwt>
<rscale>  0 0.57812330E+02</rscale>
<asrwt>0</asrwt>
<pdfrwt beam="1">  1        4 0.11731999E-01 0.91932057E+02</pdfrwt>
<pdfrwt beam="2">  1       -4 0.63834013E-02 0.91932057E+02</pdfrwt>
<totfact> 0.13444252E+04</totfact>
</mgrwt>
</event>
<event>
 6    1  0.3062576E-002  0.9319200E+02  0.7546771E-02  0.1397647E+00
         -2   -1    0    0    0  501 -0.00000000000E+00  0.00000000000E+00  0.14282509098E+02  0.14282509098E+02  0.00000000000E+00 0.  1.
          2   -1    0    0  501    0  0.00000000000E+00 -0.00000000000E+00 -0.22764938929E+03  0.22764938929E+03  0.00000000000E+00 0. -1.
         23    2    1    2    0    0 -0.16058988207E+02 -0.18555683732E+00 -0.20136001352E+03  0.22187970696E+03  0.91797733009E+02 0.  0.
         13    1    3    3    0    0 -0.10270425607E+02 -0.45847963946E+02 -0.94821061023E+02  0.10582320659E+03  0.00000000000E+00 0. -1.
        -13    1    3    3    0    0 -0.57885626001E+01  0.45662407109E+02 -0.10653895249E+03  0.11605650037E+03  0.00000000000E+00 0.  1.
         22    1    1    2    0    0  0.16058988207E+02  0.18555683732E+00 -0.12006866676E+02  0.20052191425E+02  0.00000000000E+00 0. -1.
<mgrwt>
<rscale>  0 0.60044160E+02</rscale>
<asrwt>0</asrwt>
<pdfrwt beam="1">  1        2 0.35022980E-01 0.93192002E+02</pdfrwt>
<pdfrwt beam="2">  1       -2 0.21973093E-02 0.93192002E+02</pdfrwt>
<totfact> 0.85703771E+04</totfact>
</mgrwt>
</event>
<event>
 6    1  0.3062576E-002  0.1033613E+03  0.7546771E-02  0.1318134E+00
         -2   -1    0    0    0  501 -0.00000000000E+00  0.00000000000E+00  0.32604904257E+03  0.32604904257E+03  0.00000000000E+00 0.  1.
          2   -1    0    0  501    0  0.00000000000E+00 -0.00000000000E+00 -0.44179567312E+02  0.44179567312E+02  0.00000000000E+00 0. -1.
         23    2    1    2    0    0  0.30635995185E+02  0.33006486997E+02  0.20964866133E+02  0.10546606070E+03  0.93035326428E+02 0.  0.
         11    1    3    3    0    0  0.45620071326E+02  0.20771436075E+02  0.49854814709E+02  0.70697567243E+02  0.00000000000E+00 0.  1.
        -11    1    3    3    0    0 -0.14984076140E+02  0.12235050923E+02 -0.28889948576E+02  0.34768493461E+02  0.00000000000E+00 0. -1.
         22    1    1    2    0    0 -0.30635995185E+02 -0.33006486997E+02  0.26090460913E+03  0.26476254918E+03  0.00000000000E+00 0.  1.
<mgrwt>
<rscale>  0 0.83975356E+02</rscale>
<asrwt>0</asrwt>
<pdfrwt beam="1">  1        2 0.67968567E-02 0.10336133E+03</pdfrwt>
<pdfrwt beam="2">  1       -2 0.50161390E-01 0.10336133E+03</pdfrwt>
<totfact> 0.37450345E+03</totfact>
</mgrwt>
</event>
<event>
 6    1  0.3062576E-002  0.1005177E+03  0.7546771E-02  0.1314703E+00
          1   -1    0    0  501    0  0.00000000000E+00  0.00000000000E+00  0.10779731470E+02  0.10779731470E+02  0.00000000000E+00 0. -1.
         -1   -1    0    0    0  501 -0.00000000000E+00 -0.00000000000E+00 -0.55929329543E+03  0.55929329543E+03  0.00000000000E+00 0.  1.
         23    2    1    2    0    0 -0.46603109713E+02 -0.23243012485E+02 -0.30805427836E+03  0.32403897337E+03  0.85975173068E+02 0.  0.
         11    1    3    3    0    0  0.16544664616E+02 -0.29101561443E+02 -0.15094779388E+03  0.15461521038E+03  0.00000000000E+00 0.  1.
        -11    1    3    3    0    0 -0.63147774329E+02  0.58585489581E+01 -0.15710648448E+03  0.16942376299E+03  0.00000000000E+00 0. -1.
         22    1    1    2    0    0  0.46603109713E+02  0.23243012485E+02 -0.24045928560E+03  0.24603405353E+03  0.00000000000E+00 0.  1.
<mgrwt>
<rscale>  0 0.85279575E+02</rscale>
<asrwt>0</asrwt>
<pdfrwt beam="1">  1        1 0.16584193E-02 0.10051775E+03</pdfrwt>
<pdfrwt beam="2">  1       -1 0.86045171E-01 0.10051775E+03</pdfrwt>
<totfact> 0.10105757E+04</totfact>
</mgrwt>
</event>
<event>
 6    1  0.3062576E-002  0.9678048E+02  0.7546771E-02  0.1399086E+00
         -1   -1    0    0    0  501 -0.00000000000E+00  0.00000000000E+00  0.51929880987E+02  0.51929880987E+02  0.00000000000E+00 0.  1.
          1   -1    0    0  501    0  0.00000000000E+00 -0.00000000000E+00 -0.70499422378E+02  0.70499422378E+02  0.00000000000E+00 0. -1.
         23    2    1    2    0    0  0.74495474337E+01  0.11871298499E+02 -0.33058742535E+02  0.10227091963E+03  0.95760310457E+02 0.  0.
         11    1    3    3    0    0 -0.13810608655E+01  0.85471198994E+01 -0.66736790733E+02  0.67296060992E+02  0.00000000000E+00 0. -1.
        -11    1    3    3    0    0  0.88306082992E+01  0.33241786001E+01  0.33678048198E+02  0.34974858638E+02  0.00000000000E+00 0.  1.
         22    1    1    2    0    0 -0.74495474337E+01 -0.11871298499E+02  0.14489201144E+02  0.20158383735E+02  0.00000000000E+00 0.  1.
<mgrwt>
<rscale>  0 0.59702153E+02</rscale>
<asrwt>0</asrwt>
<pdfrwt beam="1">  1        1 0.10846065E-01 0.96780476E+02</pdfrwt>
<pdfrwt beam="2">  1       -1 0.79892125E-02 0.96780476E+02</pdfrwt>
<totfact> 0.43208296E+04</totfact>
</mgrwt>
</event>
<event>
 6    1  0.3062576E-002  0.9320555E+02  0.7546771E-02  0.1405872E+00
          2   -1    0    0  501    0  0.00000000000E+00  0.00000000000E+00  0.56933292176E+02  0.56933292176E+02  0.00000000000E+00 0. -1.
         -2   -1    0    0    0  501 -0.00000000000E+00 -0.00000000000E+00 -0.50605569857E+02  0.50605569857E+02  0.00000000000E+00 0.  1.
         23    2    1    2    0    0 -0.13975081713E+02  0.18509181073E+01  0.43865599712E+01  0.93308720853E+02  0.92133309243E+02 0.  0.
         13    1    3    3    0    0 -0.12599537419E+02  0.43050610955E+02  0.20150613543E+02  0.49174695454E+02  0.00000000000E+00 0. -1.
        -13    1    3    3    0    0 -0.13755442941E+01 -0.41199692848E+02 -0.15764053572E+02  0.44134025399E+02  0.00000000000E+00 0.  1.
         22    1    1    2    0    0  0.13975081713E+02 -0.18509181073E+01  0.19411623479E+01  0.14230141180E+02  0.00000000000E+00 0. -1.
<mgrwt>
<rscale>  0 0.58125132E+02</rscale>
<asrwt>0</asrwt>
<pdfrwt beam="1">  1        2 0.87589680E-02 0.93205555E+02</pdfrwt>
<pdfrwt beam="2">  1       -2 0.77854723E-02 0.93205555E+02</pdfrwt>
<totfact> 0.64083193E+04</totfact>
</mgrwt>
</event>
<event>
 6    1  0.3062576E-002  0.8953083E+02  0.7546771E-02  0.1433940E+00
         -2   -1    0    0    0  501 -0.00000000000E+00  0.00000000000E+00  0.15883439181E+02  0.15883439181E+02  0.00000000000E+00 0.  1.
          2   -1    0    0  501    0  0.00000000000E+00 -0.00000000000E+00 -0.16154565355E+03  0.16154565355E+03  0.00000000000E+00 0. -1.
         23    2    1    2    0    0  0.10110934462E+02 -0.21050425647E+01 -0.11962632427E+03  0.14941963410E+03  0.88933162515E+02 0.  0.
         13    1    3    3    0    0  0.63648057038E+01  0.32177098781E+02 -0.10824248308E+03  0.11310310155E+03  0.00000000000E+00 0. -1.
        -13    1    3    3    0    0  0.37461287587E+01 -0.34282141346E+02 -0.11383841197E+02  0.36316532548E+02  0.00000000000E+00 0.  1.
         22    1    1    2    0    0 -0.10110934462E+02  0.21050425647E+01 -0.26035890097E+02  0.28009458635E+02  0.00000000000E+00 0. -1.
<mgrwt>
<rscale>  0 0.52177201E+02</rscale>
<asrwt>0</asrwt>
<pdfrwt beam="1">  1        2 0.24853178E-01 0.89530830E+02</pdfrwt>
<pdfrwt beam="2">  1       -2 0.24436060E-02 0.89530830E+02</pdfrwt>
<totfact> 0.10556292E+05</totfact>
</mgrwt>
</event>
<event>
 6    1  0.3062576E-002  0.8831630E+02  0.7546771E-02  0.1416740E+00
         -4   -1    0    0    0  501 -0.00000000000E+00  0.00000000000E+00  0.13529721793E+02  0.13529721793E+02  0.00000000000E+00 0. -1.
          4   -1    0    0  501    0  0.00000000000E+00 -0.00000000000E+00 -0.22397413609E+03  0.22397413609E+03  0.00000000000E+00 0.  1.
         23    2    1    2    0    0  0.71035069271E+01 -0.12052422411E+02 -0.20359946890E+03  0.22192907140E+03  0.87201194370E+02 0.  0.
         13    1    3    3    0    0 -0.15298676859E+02  0.29196981288E+02 -0.40549347469E+02  0.52256701103E+02  0.00000000000E+00 0. -1.
        -13    1    3    3    0    0  0.22402183786E+02 -0.41249403699E+02 -0.16305012143E+03  0.16967237029E+03  0.00000000000E+00 0.  1.
         22    1    1    2    0    0 -0.71035069271E+01  0.12052422411E+02 -0.68449454066E+01  0.15574786491E+02  0.00000000000E+00 0. -1.
<mgrwt>
<rscale>  0 0.55716682E+02</rscale>
<asrwt>0</asrwt>
<pdfrwt beam="1">  1        4 0.34457557E-01 0.88316301E+02</pdfrwt>
<pdfrwt beam="2">  1       -4 0.20814958E-02 0.88316301E+02</pdfrwt>
<totfact> 0.11207936E+04</totfact>
</mgrwt>
</event>
<event>
 6    1  0.3062576E-002  0.9415857E+02  0.7546771E-02  0.1380506E+00
         -2   -1    0    0    0  501 -0.00000000000E+00  0.00000000000E+00  0.23180985859E+02  0.23180985859E+02  0.00000000000E+00 0.  1.
          2   -1    0    0  501    0  0.00000000000E+00 -0.00000000000E+00 -0.18676546896E+03  0.18676546896E+03  0.00000000000E+00 0. -1.
         23    2    1    2    0    0 -0.32388505124E+01  0.20259071166E+02 -0.16435467427E+03  0.18941566547E+03  0.91896220004E+02 0.  0.
         11    1    3    3    0    0  0.13083279551E+02 -0.22874754091E+02 -0.12801780816E+03  0.13070189664E+03  0.00000000000E+00 0. -1.
        -11    1    3    3    0    0 -0.16322130063E+02  0.43133825257E+02 -0.36336866115E+02  0.58713768830E+02  0.00000000000E+00 0.  1.
         22    1    1    2    0    0  0.32388505124E+01 -0.20259071166E+02  0.77019116990E+00  0.20530789356E+02  0.00000000000E+00 0.  1.
<mgrwt>
<rscale>  0 0.64330931E+02</rscale>
<asrwt>0</asrwt>
<pdfrwt beam="1">  1        2 0.28733148E-01 0.94158565E+02</pdfrwt>
<pdfrwt beam="2">  1       -2 0.35663057E-02 0.94158565E+02</pdfrwt>
<totfact> 0.52457007E+04</totfact>
</mgrwt>
</event>
<event>
 6    1  0.3062576E-002  0.9156038E+02  0.7546771E-02  0.1373508E+00
          2   -1    0    0  501    0  0.00000000000E+00  0.00000000000E+00  0.11656366565E+04  0.11656366565E+04  0.00000000000E+00 0. -1.
         -2   -1    0    0    0  501 -0.00000000000E+00 -0.00000000000E+00 -0.43125879673E+01  0.43125879673E+01  0.00000000000E+00 0.  1.
         23    2    1    2    0    0  0.39667779340E+01  0.24707057618E+02  0.10987333813E+04  0.11025417660E+04  0.88074562775E+02 0.  0.
         13    1    3    3    0    0 -0.23321693754E+02  0.37347246930E+02  0.93713402301E+03  0.93816783964E+03  0.00000000000E+00 0. -1.
        -13    1    3    3    0    0  0.27288471687E+02 -0.12640189312E+02  0.16159935825E+03  0.16437392634E+03  0.00000000000E+00 0.  1.
         22    1    1    2    0    0 -0.39667779340E+01 -0.24707057618E+02  0.62590687308E+02  0.67407478524E+02  0.00000000000E+00 0.  1.
<mgrwt>
<rscale>  0 0.66201459E+02</rscale>
<asrwt>0</asrwt>
<pdfrwt beam="1">  1        2 0.17932847E+00 0.91560377E+02</pdfrwt>
<pdfrwt beam="2">  1       -2 0.66347600E-03 0.91560377E+02</pdfrwt>
<totfact> 0.72536269E+04</totfact>
</mgrwt>
</event>
<event>
 6    1  0.3062576E-002  0.9193790E+02  0.7546771E-02  0.1389251E+00
          2   -1    0    0  501    0  0.00000000000E+00  0.00000000000E+00  0.67355626110E+03  0.67355626110E+03  0.00000000000E+00 0. -1.
         -2   -1    0    0    0  501 -0.00000000000E+00 -0.00000000000E+00 -0.87644453380E+01  0.87644453380E+01  0.00000000000E+00 0.  1.
         23    2    1    2    0    0 -0.58312608983E+01  0.18218635433E+02  0.65385258687E+03  0.66028462218E+03  0.89925828610E+02 0.  0.
         11    1    3    3    0    0  0.13498563051E+02 -0.33748440607E+02  0.27721349817E+03  0.27958628725E+03  0.00000000000E+00 0.  1.
        -11    1    3    3    0    0 -0.19329823950E+02  0.51967076040E+02  0.37663908869E+03  0.38069833493E+03  0.00000000000E+00 0. -1.
         22    1    1    2    0    0  0.58312608983E+01 -0.18218635433E+02  0.10939228895E+02  0.22036084260E+02  0.00000000000E+00 0.  1.
<mgrwt>
<rscale>  0 0.62093270E+02</rscale>
<asrwt>0</asrwt>
<pdfrwt beam="1">  1        2 0.10362400E+00 0.91937897E+02</pdfrwt>
<pdfrwt beam="2">  1       -2 0.13483767E-02 0.91937897E+02</pdfrwt>
<totfact> 0.53914864E+04</totfact>
</mgrwt>
</event>
<event>
 6    1  0.3062576E-002  0.8065071E+02  0.7546771E-02  0.1432761E+00
         -4   -1    0    0    0  501 -0.00000000000E+00  0.00000000000E+00  0.68387364316E+02  0.68387364316E+02  0.00000000000E+00 0.  1.
          4   -1    0    0  501    0  0.00000000000E+00 -0.00000000000E+00 -0.35461049508E+02  0.35461049508E+02  0.00000000000E+00 0. -1.
         23    2    1    2    0    0  0.63126078931E+01  0.12922830056E+02  0.17062956652E+02  0.82435924780E+02  0.79357977857E+02 0.  0.
         13    1    3    3    0    0 -0.21573366899E+02  0.16967605512E+01 -0.23501538442E+02  0.31947010265E+02  0.00000000000E+00 0. -1.
        -13    1    3    3    0    0  0.27885974792E+02  0.11226069505E+02  0.40564495094E+02  0.50488914515E+02  0.00000000000E+00 0.  1.
         22    1    1    2    0    0 -0.63126078931E+01 -0.12922830056E+02  0.15863358156E+02  0.21412489044E+02  0.00000000000E+00 0. -1.
<mgrwt>
<rscale>  0 0.52409825E+02</rscale>
<asrwt>0</asrwt>
<pdfrwt beam="1">  1        4 0.54555461E-02 0.80650711E+02</pdfrwt>
<pdfrwt beam="2">  1       -4 0.10521133E-01 0.80650711E+02</pdfrwt>
<totfact> 0.19934086E+04</totfact>
</mgrwt>
</event>
<event>
 6    1  0.3062576E-002  0.9085485E+02  0.7546771E-02  0.1433143E+00
         -2   -1    0    0    0  501 -0.00000000000E+00  0.00000000000E+00  0.67326097520E+01  0.67326097520E+01  0.00000000000E+00 0.  1.
          2   -1    0    0  501    0  0.00000000000E+00 -0.00000000000E+00 -0.41786824978E+03  0.41786824978E+03  0.00000000000E+00 0. -1.
         23    2    1    2    0    0 -0.55130272193E+01  0.83457359839E+01 -0.39713023061E+03  0.40739050593E+03  0.90302599503E+02 0.  0.
         13    1    3    3    0    0 -0.13482277122E+01  0.18379615865E+02 -0.39604388295E+03  0.39647242681E+03  0.00000000000E+00 0. -1.
        -13    1    3    3    0    0 -0.41647995072E+01 -0.10033879881E+02 -0.10863476600E+01  0.10918079119E+02  0.00000000000E+00 0.  1.
         22    1    1    2    0    0  0.55130272193E+01 -0.83457359839E+01 -0.14005409418E+02  0.17210353605E+02  0.00000000000E+00 0.  1.
<mgrwt>
<rscale>  0 0.52334177E+02</rscale>
<asrwt>0</asrwt>
<pdfrwt beam="1">  1        2 0.64287442E-01 0.90854853E+02</pdfrwt>
<pdfrwt beam="2">  1       -2 0.10357858E-02 0.90854853E+02</pdfrwt>
<totfact> 0.13209967E+05</totfact>
</mgrwt>
</event>
<event>
 6    1  0.3062576E-002  0.9225669E+02  0.7546771E-02  0.1418203E+00
          2   -1    0    0  501    0  0.00000000000E+00  0.00000000000E+00  0.29950658286E+03  0.29950658286E+03  0.00000000000E+00 0.  1.
         -2   -1    0    0    0  501 -0.00000000000E+00 -0.00000000000E+00 -0.67585170402E+02  0.67585170402E+02  0.00000000000E+00 0. -1.
         23    2    1    2    0    0 -0.11330438735E+02 -0.39483941076E+01  0.29179276276E+03  0.30602992193E+03  0.91473100195E+02 0.  0.
         13    1    3    3    0    0 -0.69448477783E+01  0.25693920813E+02  0.26342755321E+03  0.26476873733E+03  0.00000000000E+00 0.  1.
        -13    1    3    3    0    0 -0.43855909563E+01 -0.29642314920E+02  0.28365209556E+02  0.41261184605E+02  0.00000000000E+00 0. -1.
         22    1    1    2    0    0  0.11330438735E+02  0.39483941076E+01 -0.59871350305E+02  0.61061831329E+02  0.00000000000E+00 0. -1.
<mgrwt>
<rscale>  0 0.55402823E+02</rscale>
<asrwt>0</asrwt>
<pdfrwt beam="1">  1        2 0.46077935E-01 0.92256689E+02</pdfrwt>
<pdfrwt beam="2">  1       -2 0.10397719E-01 0.92256689E+02</pdfrwt>
<totfact> 0.63429052E+03</totfact>
</mgrwt>
</event>
<event>
 6    1  0.3062576E-002  0.9354964E+02  0.7546771E-02  0.1414173E+00
         -2   -1    0    0    0  501 -0.00000000000E+00  0.00000000000E+00  0.29322343746E+01  0.29322343746E+01  0.00000000000E+00 0.  1.
          2   -1    0    0  501    0  0.00000000000E+00 -0.00000000000E+00 -0.10850502117E+04  0.10850502117E+04  0.00000000000E+00 0. -1.
         23    2    1    2    0    0 -0.10058913332E+02  0.69882104889E+01 -0.10376513312E+04  0.10418597896E+04  0.92744375622E+02 0.  0.
         11    1    3    3    0    0 -0.80301408135E+01 -0.23178470395E+02 -0.78752839160E+02  0.82484752088E+02  0.00000000000E+00 0.  1.
        -11    1    3    3    0    0 -0.20287725188E+01  0.30166680883E+02 -0.95889849204E+03  0.95937503750E+03  0.00000000000E+00 0. -1.
         22    1    1    2    0    0  0.10058913332E+02 -0.69882104889E+01 -0.44466646167E+02  0.46122656522E+02  0.00000000000E+00 0.  1.
<mgrwt>
<rscale>  0 0.56272875E+02</rscale>
<asrwt>0</asrwt>
<pdfrwt beam="1">  1        2 0.16693091E+00 0.93549645E+02</pdfrwt>
<pdfrwt beam="2">  1       -2 0.45111268E-03 0.93549645E+02</pdfrwt>
<totfact> 0.13860323E+05</totfact>
</mgrwt>
</event>
<event>
 6    1  0.3062576E-002  0.9366900E+02  0.7546771E-02  0.1383665E+00
         -1   -1    0    0    0  501 -0.00000000000E+00  0.00000000000E+00  0.79162516771E+01  0.79162516771E+01  0.00000000000E+00 0.  1.
          1   -1    0    0  501    0  0.00000000000E+00 -0.00000000000E+00 -0.44451100605E+03  0.44451100605E+03  0.00000000000E+00 0. -1.
         23    2    1    2    0    0 -0.14581367710E+02 -0.13389658703E+02 -0.40000084626E+03  0.41082180910E+03  0.91553168047E+02 0.  0.
         13    1    3    3    0    0 -0.50205669714E+02  0.95195910538E+01 -0.20481313354E+03  0.21109157150E+03  0.00000000000E+00 0. -1.
        -13    1    3    3    0    0  0.35624302003E+02 -0.22909249757E+02 -0.19518771271E+03  0.19973023760E+03  0.00000000000E+00 0.  1.
         22    1    1    2    0    0  0.14581367710E+02  0.13389658703E+02 -0.36593908120E+02  0.41605448633E+02  0.00000000000E+00 0.  1.
<mgrwt>
<rscale>  0 0.63510235E+02</rscale>
<asrwt>0</asrwt>
<pdfrwt beam="1">  1        1 0.68386319E-01 0.93669001E+02</pdfrwt>
<pdfrwt beam="2">  1       -1 0.12178847E-02 0.93669001E+02</pdfrwt>
<totfact> 0.65511677E+04</totfact>
</mgrwt>
</event>
<event>
 6    1  0.3062576E-002  0.9379185E+02  0.7546771E-02  0.1388793E+00
          2   -1    0    0  501    0  0.00000000000E+00  0.00000000000E+00  0.85319494328E+03  0.85319494328E+03  0.00000000000E+00 0. -1.
         -2   -1    0    0    0  501 -0.00000000000E+00 -0.00000000000E+00 -0.37656175015E+01  0.37656175015E+01  0.00000000000E+00 0.  1.
         23    2    1    2    0    0  0.16470200652E+02 -0.76272895807E+01  0.75492278551E+03  0.76072683899E+03  0.92018848208E+02 0.  0.
         11    1    3    3    0    0  0.31816174982E+02  0.88176170101E+01  0.97861127691E+02  0.10328029664E+03  0.00000000000E+00 0.  1.
        -11    1    3    3    0    0 -0.15345974330E+02 -0.16444906591E+02  0.65706165782E+03  0.65744654236E+03  0.00000000000E+00 0. -1.
         22    1    1    2    0    0 -0.16470200652E+02  0.76272895807E+01  0.94506540270E+02  0.96233721791E+02  0.00000000000E+00 0. -1.
<mgrwt>
<rscale>  0 0.62208020E+02</rscale>
<asrwt>0</asrwt>
<pdfrwt beam="1">  1        2 0.13126061E+00 0.93791852E+02</pdfrwt>
<pdfrwt beam="2">  1       -2 0.57932645E-03 0.93791852E+02</pdfrwt>
<totfact> 0.13435119E+05</totfact>
</mgrwt>
</event>
<event>
 6    1  0.3062576E-002  0.1036541E+03  0.7546771E-02  0.1310721E+00
          2   -1    0    0  501    0  0.00000000000E+00  0.00000000000E+00  0.11532191080E+03  0.11532191080E+03  0.00000000000E+00 0. -1.
         -2   -1    0    0    0  501 -0.00000000000E+00 -0.00000000000E+00 -0.62795797760E+02  0.62795797760E+02  0.00000000000E+00 0.  1.
         23    2    1    2    0    0 -0.49503177941E+02 -0.12410905089E+02  0.68964881130E+02  0.12450028334E+03  0.90219568443E+02 0.  0.
         13    1    3    3    0    0 -0.48658087368E+02  0.30489601127E+02  0.23672039024E+02  0.62109505510E+02  0.00000000000E+00 0.  1.
        -13    1    3    3    0    0 -0.84509057262E+00 -0.42900506216E+02  0.45292842107E+02  0.62390777826E+02  0.00000000000E+00 0. -1.
         22    1    1    2    0    0  0.49503177941E+02  0.12410905089E+02 -0.16438768090E+02  0.53617425224E+02  0.00000000000E+00 0.  1.
<mgrwt>
<rscale>  0 0.86827499E+02</rscale>
<asrwt>0</asrwt>
<pdfrwt beam="1">  1        2 0.17741832E-01 0.10365407E+03</pdfrwt>
<pdfrwt beam="2">  1       -2 0.96608920E-02 0.10365407E+03</pdfrwt>
<totfact> 0.20181822E+04</totfact>
</mgrwt>
</event>
<event>
 6    1  0.3062576E-002  0.9229754E+02  0.7546771E-02  0.1415056E+00
         -2   -1    0    0    0  501 -0.00000000000E+00  0.00000000000E+00  0.24524690214E+03  0.24524690214E+03  0.00000000000E+00 0.  1.
          2   -1    0    0  501    0  0.00000000000E+00 -0.00000000000E+00 -0.11214051202E+02  0.11214051202E+02  0.00000000000E+00 0. -1.
         23    2    1    2    0    0  0.10629963473E+02 -0.67279580851E+01  0.20497360049E+03  0.22479548982E+03  0.91436173379E+02 0.  0.
         13    1    3    3    0    0 -0.38680767597E+02 -0.15002595775E+02  0.78331888508E+02  0.88640647668E+02  0.00000000000E+00 0. -1.
        -13    1    3    3    0    0  0.49310731070E+02  0.82746376895E+01  0.12664171198E+03  0.13615484215E+03  0.00000000000E+00 0.  1.
         22    1    1    2    0    0 -0.10629963473E+02  0.67279580851E+01  0.29059250447E+02  0.31665463520E+02  0.00000000000E+00 0. -1.
<mgrwt>
<rscale>  0 0.56080840E+02</rscale>
<asrwt>0</asrwt>
<pdfrwt beam="1">  1        2 0.17252388E-02 0.92297537E+02</pdfrwt>
<pdfrwt beam="2">  1       -2 0.37730289E-01 0.92297537E+02</pdfrwt>
<totfact> 0.38828561E+04</totfact>
</mgrwt>
</event>
<event>
 6    1  0.3062576E-002  0.9524999E+02  0.7546771E-02  0.1370567E+00
          2   -1    0    0  501    0  0.00000000000E+00  0.00000000000E+00  0.18942736444E+04  0.18942736444E+04  0.00000000000E+00 0. -1.
         -2   -1    0    0    0  501 -0.00000000000E+00 -0.00000000000E+00 -0.27362280013E+01  0.27362280013E+01  0.00000000000E+00 0.  1.
         23    2    1    2    0    0 -0.71161283193E+01 -0.22220749152E+02  0.18009102341E+04  0.18034273572E+04  0.92348040198E+02 0.  0.
         13    1    3    3    0    0  0.66232836614E+01  0.35380925423E+02  0.65667850289E+03  0.65766430185E+03  0.00000000000E+00 0.  1.
        -13    1    3    3    0    0 -0.13739411981E+02 -0.57601674574E+02  0.11442317312E+04  0.11457630554E+04  0.00000000000E+00 0. -1.
         22    1    1    2    0    0  0.71161283193E+01  0.22220749152E+02  0.90627182284E+02  0.93582515161E+02  0.00000000000E+00 0.  1.
<mgrwt>
<rscale>  0 0.67009840E+02</rscale>
<asrwt>0</asrwt>
<pdfrwt beam="1">  1        2 0.29142567E+00 0.95249995E+02</pdfrwt>
<pdfrwt beam="2">  1       -2 0.42095967E-03 0.95249995E+02</pdfrwt>
<totfact> 0.58115434E+04</totfact>
</mgrwt>
</event>
<event>
 6    1  0.3062576E-002  0.1595521E+03  0.7546771E-02  0.1198206E+00
         -2   -1    0    0    0  501 -0.00000000000E+00  0.00000000000E+00  0.23577710426E+02  0.23577710426E+02  0.00000000000E+00 0.  1.
          2   -1    0    0  501    0  0.00000000000E+00 -0.00000000000E+00 -0.98435313228E+03  0.98435313228E+03  0.00000000000E+00 0. -1.
         23    2    1    2    0    0 -0.12330245674E+03 -0.44058911408E+02 -0.67478087879E+03  0.69338742412E+03  0.91171278578E+02 0.  0.
         11    1    3    3    0    0 -0.85796389322E+02 -0.58765465431E+02 -0.59491955869E+03  0.60394013085E+03  0.00000000000E+00 0. -1.
        -11    1    3    3    0    0 -0.37506067417E+02  0.14706554024E+02 -0.79861320106E+02  0.89447293270E+02  0.00000000000E+00 0.  1.
         22    1    1    2    0    0  0.12330245674E+03  0.44058911408E+02 -0.28599454307E+03  0.31454341859E+03  0.00000000000E+00 0. -1.
<mgrwt>
<rscale>  0 0.15185992E+03</rscale>
<asrwt>0</asrwt>
<pdfrwt beam="1">  1        2 0.15143892E+00 0.15955214E+03</pdfrwt>
<pdfrwt beam="2">  1       -2 0.36273406E-02 0.15955214E+03</pdfrwt>
<totfact> 0.83389628E+03</totfact>
</mgrwt>
</event>
<event>
 6    1  0.3062576E-002  0.9207062E+02  0.7546771E-02  0.1373738E+00
         -2   -1    0    0    0  501 -0.00000000000E+00  0.00000000000E+00  0.15695630216E+02  0.15695630216E+02  0.00000000000E+00 0.  1.
          2   -1    0    0  501    0  0.00000000000E+00 -0.00000000000E+00 -0.21653865658E+03  0.21653865658E+03  0.00000000000E+00 0. -1.
         23    2    1    2    0    0  0.16303614375E+02 -0.18310479811E+02 -0.15740090264E+03  0.18235142776E+03  0.88746366346E+02 0.  0.
         11    1    3    3    0    0  0.16301697399E+02  0.28749567183E+02 -0.23863950273E+02  0.40764826431E+02  0.00000000000E+00 0.  1.
        -11    1    3    3    0    0  0.19169762162E-02 -0.47060046994E+02 -0.13353695237E+03  0.14158660133E+03  0.00000000000E+00 0. -1.
         22    1    1    2    0    0 -0.16303614375E+02  0.18310479811E+02 -0.43442123721E+02  0.49882859040E+02  0.00000000000E+00 0. -1.
<mgrwt>
<rscale>  0 0.66138977E+02</rscale>
<asrwt>0</asrwt>
<pdfrwt beam="1">  1        2 0.33313637E-01 0.92070620E+02</pdfrwt>
<pdfrwt beam="2">  1       -2 0.24147125E-02 0.92070620E+02</pdfrwt>
<totfact> 0.78732087E+04</totfact>
</mgrwt>
</event>
<event>
 6    1  0.3062576E-002  0.1033095E+03  0.7546771E-02  0.1314525E+00
          2   -1    0    0  501    0  0.00000000000E+00  0.00000000000E+00  0.18371472126E+04  0.18371472126E+04  0.00000000000E+00 0. -1.
         -2   -1    0    0    0  501 -0.00000000000E+00 -0.00000000000E+00 -0.40794480819E+01  0.40794480819E+01  0.00000000000E+00 0.  1.
         23    2    1    2    0    0 -0.34351272839E+02  0.33702300334E+02  0.15950853506E+04  0.15984273931E+04  0.91416630829E+02 0.  0.
         13    1    3    3    0    0  0.24093031648E+02  0.29696664256E+02  0.92366588094E+03  0.92445715188E+03  0.00000000000E+00 0. -1.
        -13    1    3    3    0    0 -0.58444304487E+02  0.40056360776E+01  0.67141946967E+03  0.67397024125E+03  0.00000000000E+00 0.  1.
         22    1    1    2    0    0  0.34351272839E+02 -0.33702300334E+02  0.23798241395E+03  0.24279926759E+03  0.00000000000E+00 0. -1.
<mgrwt>
<rscale>  0 0.85348158E+02</rscale>
<asrwt>0</asrwt>
<pdfrwt beam="1">  1        2 0.28263737E+00 0.10330951E+03</pdfrwt>
<pdfrwt beam="2">  1       -2 0.62760886E-03 0.10330951E+03</pdfrwt>
<totfact> 0.35664660E+04</totfact>
</mgrwt>
</event>
<event>
 6    1  0.3062576E-002  0.9814614E+02  0.7546771E-02  0.1357756E+00
          2   -1    0    0  501    0  0.00000000000E+00  0.00000000000E+00  0.25040193630E+02  0.25040193630E+02  0.00000000000E+00 0. -1.
         -2   -1    0    0    0  501 -0.00000000000E+00 -0.00000000000E+00 -0.17405719415E+03  0.17405719415E+03  0.00000000000E+00 0.  1.
         23    2    1    2    0    0  0.91084892656E+01  0.24795167816E+02 -0.84971897202E+02  0.12981867400E+03  0.94524599348E+02 0.  0.
         11    1    3    3    0    0 -0.37815208847E+02  0.11012591570E+02 -0.10565266808E+02  0.40778573491E+02  0.00000000000E+00 0. -1.
        -11    1    3    3    0    0  0.46923698112E+02  0.13782576246E+02 -0.74406630394E+02  0.89040100512E+02  0.00000000000E+00 0.  1.
         22    1    1    2    0    0 -0.91084892656E+01 -0.24795167816E+02 -0.64045103323E+02  0.69278713782E+02  0.00000000000E+00 0.  1.
<mgrwt>
<rscale>  0 0.70691722E+02</rscale>
<asrwt>0</asrwt>
<pdfrwt beam="1">  1        2 0.38523373E-02 0.98146140E+02</pdfrwt>
<pdfrwt beam="2">  1       -2 0.26778031E-01 0.98146140E+02</pdfrwt>
<totfact> 0.24815301E+04</totfact>
</mgrwt>
</event>
<event>
 6    1  0.3062576E-002  0.9491530E+02  0.7546771E-02  0.1368732E+00
         -1   -1    0    0    0  501 -0.00000000000E+00  0.00000000000E+00  0.88747676456E+03  0.88747676456E+03  0.00000000000E+00 0.  1.
          1   -1    0    0  501    0  0.00000000000E+00 -0.00000000000E+00 -0.40601660695E+01  0.40601660695E+01  0.00000000000E+00 0. -1.
         23    2    1    2    0    0 -0.72366312487E+01  0.23205508603E+02  0.74206016870E+03  0.74810574607E+03  0.91749925715E+02 0.  0.
         13    1    3    3    0    0 -0.43058259736E+02 -0.73385349813E+01  0.24887424346E+03  0.25267816860E+03  0.00000000000E+00 0. -1.
        -13    1    3    3    0    0  0.35821628487E+02  0.30544043584E+02  0.49318592524E+03  0.49542757747E+03  0.00000000000E+00 0.  1.
         22    1    1    2    0    0  0.72366312487E+01 -0.23205508603E+02  0.14135642978E+03  0.14343118455E+03  0.00000000000E+00 0. -1.
<mgrwt>
<rscale>  0 0.67520887E+02</rscale>
<asrwt>0</asrwt>
<pdfrwt beam="1">  1        1 0.62464164E-03 0.94915296E+02</pdfrwt>
<pdfrwt beam="2">  1       -1 0.13653473E+00 0.94915296E+02</pdfrwt>
<totfact> 0.13770922E+04</totfact>
</mgrwt>
</event>
<event>
 6    1  0.3062576E-002  0.9233439E+02  0.7546771E-02  0.1402551E+00
          2   -1    0    0  501    0  0.00000000000E+00  0.00000000000E+00  0.79573343582E+03  0.79573343582E+03  0.00000000000E+00 0. -1.
         -2   -1    0    0    0  501 -0.00000000000E+00 -0.00000000000E+00 -0.29201467481E+02  0.29201467481E+02  0.00000000000E+00 0.  1.
         23    2    1    2    0    0  0.10983451223E+01  0.15238471213E+02  0.79084669539E+03  0.79621864801E+03  0.91061640984E+02 0.  0.
         11    1    3    3    0    0 -0.15014923425E+02 -0.34992532336E+02  0.26294374964E+03  0.26568654599E+03  0.00000000000E+00 0. -1.
        -11    1    3    3    0    0  0.16113268547E+02  0.50231003549E+02  0.52790294575E+03  0.53053210202E+03  0.00000000000E+00 0.  1.
         22    1    1    2    0    0 -0.10983451223E+01 -0.15238471213E+02 -0.24314727048E+02  0.28716255298E+02  0.00000000000E+00 0.  1.
<mgrwt>
<rscale>  0 0.58889689E+02</rscale>
<asrwt>0</asrwt>
<pdfrwt beam="1">  1        2 0.12242051E+00 0.92334391E+02</pdfrwt>
<pdfrwt beam="2">  1       -2 0.44925341E-02 0.92334391E+02</pdfrwt>
<totfact> 0.77561110E+03</totfact>
</mgrwt>
</event>
<event>
 6    1  0.3062576E-002  0.9224705E+02  0.7546771E-02  0.1413918E+00
         -1   -1    0    0    0  501 -0.00000000000E+00  0.00000000000E+00  0.24492515245E+02  0.24492515245E+02  0.00000000000E+00 0.  1.
          1   -1    0    0  501    0  0.00000000000E+00 -0.00000000000E+00 -0.11295837544E+03  0.11295837544E+03  0.00000000000E+00 0. -1.
         23    2    1    2    0    0 -0.12760338314E+02  0.12862416315E+01 -0.79789301010E+02  0.12196659765E+03  0.91351178075E+02 0.  0.
         11    1    3    3    0    0 -0.44681712022E+02  0.42753202611E+01 -0.11212106494E+02  0.46264944446E+02  0.00000000000E+00 0.  1.
        -11    1    3    3    0    0  0.31921373708E+02 -0.29890786295E+01 -0.68577194516E+02  0.75701653206E+02  0.00000000000E+00 0. -1.
         22    1    1    2    0    0  0.12760338314E+02 -0.12862416315E+01 -0.86765591820E+01  0.15484293031E+02  0.00000000000E+00 0.  1.
<mgrwt>
<rscale>  0 0.56328569E+02</rscale>
<asrwt>0</asrwt>
<pdfrwt beam="1">  1        1 0.17378212E-01 0.92247051E+02</pdfrwt>
<pdfrwt beam="2">  1       -1 0.37680792E-02 0.92247051E+02</pdfrwt>
<totfact> 0.70662664E+04</totfact>
</mgrwt>
</event>
<event>
 6    1  0.3062576E-002  0.9167503E+02  0.7546771E-02  0.1403862E+00
         -3   -1    0    0    0  501 -0.00000000000E+00  0.00000000000E+00  0.42051262280E+02  0.42051262280E+02  0.00000000000E+00 0.  1.
          3   -1    0    0  501    0  0.00000000000E+00 -0.00000000000E+00 -0.15589041449E+03  0.15589041449E+03  0.00000000000E+00 0. -1.
         23    2    1    2    0    0 -0.12995085443E+02  0.80584205762E+01 -0.14017342919E+03  0.16749000142E+03  0.90390817766E+02 0.  0.
         11    1    3    3    0    0 -0.12120955161E+02  0.37854006427E+02 -0.21620352464E+02  0.45246911466E+02  0.00000000000E+00 0.  1.
        -11    1    3    3    0    0 -0.87413028206E+00 -0.29795585850E+02 -0.11855307672E+03  0.12224308995E+03  0.00000000000E+00 0. -1.
         22    1    1    2    0    0  0.12995085443E+02 -0.80584205762E+01  0.26334276978E+02  0.30451675353E+02  0.00000000000E+00 0. -1.
<mgrwt>
<rscale>  0 0.58586325E+02</rscale>
<asrwt>0</asrwt>
<pdfrwt beam="1">  1        3 0.23983140E-01 0.91675026E+02</pdfrwt>
<pdfrwt beam="2">  1       -3 0.64694251E-02 0.91675026E+02</pdfrwt>
<totfact> 0.51143324E+03</totfact>
</mgrwt>
</event>
<event>
 6    1  0.3062576E-002  0.9315929E+02  0.7546771E-02  0.1407210E+00
          2   -1    0    0  501    0  0.00000000000E+00  0.00000000000E+00  0.21580187087E+03  0.21580187087E+03  0.00000000000E+00 0. -1.
         -2   -1    0    0    0  501 -0.00000000000E+00 -0.00000000000E+00 -0.29172494719E+02  0.29172494719E+02  0.00000000000E+00 0.  1.
         23    2    1    2    0    0  0.77291660621E+01 -0.11462715423E+02  0.20311444243E+03  0.22345945767E+03  0.92127730055E+02 0.  0.
         11    1    3    3    0    0  0.20511091427E+02 -0.46277221760E+02  0.78178595054E+02  0.93135271782E+02  0.00000000000E+00 0. -1.
        -11    1    3    3    0    0 -0.12781925364E+02  0.34814506337E+02  0.12493584737E+03  0.13032418589E+03  0.00000000000E+00 0.  1.
         22    1    1    2    0    0 -0.77291660621E+01  0.11462715423E+02 -0.16485066275E+02  0.21514907924E+02  0.00000000000E+00 0.  1.
<mgrwt>
<rscale>  0 0.57821162E+02</rscale>
<asrwt>0</asrwt>
<pdfrwt beam="1">  1        2 0.33200287E-01 0.93159286E+02</pdfrwt>
<pdfrwt beam="2">  1       -2 0.44880762E-02 0.93159286E+02</pdfrwt>
<totfact> 0.32009804E+04</totfact>
</mgrwt>
</event>
<event>
 6    1  0.3062576E-002  0.9299365E+02  0.7546771E-02  0.1403974E+00
          1   -1    0    0  501    0  0.00000000000E+00  0.00000000000E+00  0.83772451382E+01  0.83772451382E+01  0.00000000000E+00 0. -1.
         -1   -1    0    0    0  501 -0.00000000000E+00 -0.00000000000E+00 -0.35594689890E+03  0.35594689890E+03  0.00000000000E+00 0.  1.
         23    2    1    2    0    0  0.12254884457E+02 -0.79795188053E+01 -0.27506385765E+03  0.29035830474E+03  0.91836618145E+02 0.  0.
         13    1    3    3    0    0  0.49719738895E+01 -0.31215750005E+02 -0.28394418759E+02  0.42489841014E+02  0.00000000000E+00 0. -1.
        -13    1    3    3    0    0  0.72829105670E+01  0.23236231199E+02 -0.24666943889E+03  0.24786846373E+03  0.00000000000E+00 0.  1.
         22    1    1    2    0    0 -0.12254884457E+02  0.79795188053E+01 -0.72505796113E+02  0.73965839301E+02  0.00000000000E+00 0.  1.
<mgrwt>
<rscale>  0 0.58560514E+02</rscale>
<asrwt>0</asrwt>
<pdfrwt beam="1">  1        1 0.12888073E-02 0.92993652E+02</pdfrwt>
<pdfrwt beam="2">  1       -1 0.54761044E-01 0.92993652E+02</pdfrwt>
<totfact> 0.34274237E+04</totfact>
</mgrwt>
</event>
<event>
 6    1  0.3062576E-002  0.8504662E+02  0.7546771E-02  0.1437149E+00
          1   -1    0    0  501    0  0.00000000000E+00  0.00000000000E+00  0.27979008184E+02  0.27979008184E+02  0.00000000000E+00 0. -1.
         -1   -1    0    0    0  501 -0.00000000000E+00 -0.00000000000E+00 -0.11740338547E+03  0.11740338547E+03  0.00000000000E+00 0.  1.
         23    2    1    2    0    0  0.10966326773E+02  0.34000047547E+01 -0.38812214705E+02  0.93484307406E+02  0.84268068482E+02 0.  0.
         13    1    3    3    0    0  0.28712303869E+02 -0.33205211325E+02 -0.15236462856E+02  0.46466463745E+02  0.00000000000E+00 0. -1.
        -13    1    3    3    0    0 -0.17745977096E+02  0.36605216079E+02 -0.23575751849E+02  0.47017843661E+02  0.00000000000E+00 0.  1.
         22    1    1    2    0    0 -0.10966326773E+02 -0.34000047547E+01 -0.50612162583E+02  0.51898086251E+02  0.00000000000E+00 0.  1.
<mgrwt>
<rscale>  0 0.51551417E+02</rscale>
<asrwt>0</asrwt>
<pdfrwt beam="1">  1        1 0.43044629E-02 0.85046621E+02</pdfrwt>
<pdfrwt beam="2">  1       -1 0.18062059E-01 0.85046621E+02</pdfrwt>
<totfact> 0.41809610E+04</totfact>
</mgrwt>
</event>
<event>
 6    1  0.3062576E-002  0.9039100E+02  0.7546771E-02  0.1424175E+00
         -2   -1    0    0    0  501 -0.00000000000E+00  0.00000000000E+00  0.96063872884E+01  0.96063872884E+01  0.00000000000E+00 0.  1.
          2   -1    0    0  501    0  0.00000000000E+00 -0.00000000000E+00 -0.36317315752E+03  0.36317315752E+03  0.00000000000E+00 0. -1.
         23    2    1    2    0    0 -0.49178806774E+01  0.10549400707E+02 -0.34859356189E+03  0.36012220675E+03  0.89638479432E+02 0.  0.
         11    1    3    3    0    0 -0.29085518592E+02  0.17162383831E+02 -0.32130646419E+03  0.32307639768E+03  0.00000000000E+00 0. -1.
        -11    1    3    3    0    0  0.24167637915E+02 -0.66129831246E+01 -0.27287097702E+02  0.37045809064E+02  0.00000000000E+00 0.  1.
         22    1    1    2    0    0  0.49178806774E+01 -0.10549400707E+02 -0.49732083424E+01  0.12657338063E+02  0.00000000000E+00 0.  1.
<mgrwt>
<rscale>  0 0.54147255E+02</rscale>
<asrwt>0</asrwt>
<pdfrwt beam="1">  1        2 0.55872793E-01 0.90390997E+02</pdfrwt>
<pdfrwt beam="2">  1       -2 0.14779058E-02 0.90390997E+02</pdfrwt>
<totfact> 0.92314257E+04</totfact>
</mgrwt>
</event>
<event>
 6    1  0.3062576E-002  0.9396913E+02  0.7546771E-02  0.1421215E+00
         -2   -1    0    0    0  501 -0.00000000000E+00  0.00000000000E+00  0.76489320545E+01  0.76489320545E+01  0.00000000000E+00 0.  1.
          2   -1    0    0  501    0  0.00000000000E+00 -0.00000000000E+00 -0.39064836621E+03  0.39064836621E+03  0.00000000000E+00 0. -1.
         23    2    1    2    0    0 -0.71161752393E+01 -0.81776515255E+01 -0.36788893063E+03  0.37970049070E+03  0.93341756087E+02 0.  0.
         11    1    3    3    0    0 -0.93133994745E+01  0.32349549487E+02 -0.57192001578E+02  0.66363829051E+02  0.00000000000E+00 0.  1.
        -11    1    3    3    0    0  0.21972242352E+01 -0.40527201013E+02 -0.31069692905E+03  0.31333666165E+03  0.00000000000E+00 0. -1.
         22    1    1    2    0    0  0.71161752393E+01  0.81776515255E+01 -0.15110503527E+02  0.18596807558E+02  0.00000000000E+00 0. -1.
<mgrwt>
<rscale>  0 0.54764620E+02</rscale>
<asrwt>0</asrwt>
<pdfrwt beam="1">  1        2 0.60099749E-01 0.93969130E+02</pdfrwt>
<pdfrwt beam="2">  1       -2 0.11767588E-02 0.93969130E+02</pdfrwt>
<totfact> 0.11894547E+05</totfact>
</mgrwt>
</event>
<event>
 6    1  0.3062576E-002  0.9473230E+02  0.7546771E-02  0.1412833E+00
         -2   -1    0    0    0  501 -0.00000000000E+00  0.00000000000E+00  0.60406366126E+01  0.60406366126E+01  0.00000000000E+00 0.  1.
          2   -1    0    0  501    0  0.00000000000E+00 -0.00000000000E+00 -0.50712231265E+03  0.50712231265E+03  0.00000000000E+00 0. -1.
         23    2    1    2    0    0  0.52864926336E+01  0.10820924831E+02 -0.47605797942E+03  0.48539201462E+03  0.93963656099E+02 0.  0.
         13    1    3    3    0    0 -0.38778813620E+02 -0.11308481445E+02 -0.29448890884E+03  0.29724635501E+03  0.00000000000E+00 0. -1.
        -13    1    3    3    0    0  0.44065306254E+02  0.22129406277E+02 -0.18156907059E+03  0.18814565961E+03  0.00000000000E+00 0.  1.
         22    1    1    2    0    0 -0.52864926336E+01 -0.10820924831E+02 -0.25023696609E+02  0.27770934636E+02  0.00000000000E+00 0.  1.
<mgrwt>
<rscale>  0 0.56566500E+02</rscale>
<asrwt>0</asrwt>
<pdfrwt beam="1">  1        2 0.78018829E-01 0.94732297E+02</pdfrwt>
<pdfrwt beam="2">  1       -2 0.92932857E-03 0.94732297E+02</pdfrwt>
<totfact> 0.12600500E+05</totfact>
</mgrwt>
</event>
<event>
 6    1  0.3062576E-002  0.1033154E+03  0.7546771E-02  0.1310663E+00
          2   -1    0    0  501    0  0.00000000000E+00  0.00000000000E+00  0.82612136400E+03  0.82612136400E+03  0.00000000000E+00 0. -1.
         -2   -1    0    0    0  501 -0.00000000000E+00 -0.00000000000E+00 -0.72958105491E+01  0.72958105491E+01  0.00000000000E+00 0.  1.
         23    2    1    2    0    0 -0.28962329323E+02 -0.42697789662E+02  0.51868921196E+03  0.52887860352E+03  0.89510674750E+02 0.  0.
         11    1    3    3    0    0 -0.18832541878E+02 -0.67417185535E+02  0.44551467508E+03  0.45098011847E+03  0.00000000000E+00 0. -1.
        -11    1    3    3    0    0 -0.10129787446E+02  0.24719395873E+02  0.73174536878E+02  0.77898485052E+02  0.00000000000E+00 0.  1.
         22    1    1    2    0    0  0.28962329323E+02  0.42697789662E+02  0.30013634149E+03  0.30453857103E+03  0.00000000000E+00 0.  1.
<mgrwt>
<rscale>  0 0.86850681E+02</rscale>
<asrwt>0</asrwt>
<pdfrwt beam="1">  1        2 0.12709552E+00 0.10331543E+03</pdfrwt>
<pdfrwt beam="2">  1       -2 0.11224330E-02 0.10331543E+03</pdfrwt>
<totfact> 0.55584905E+04</totfact>
</mgrwt>
</event>
<event>
 6    1  0.3062576E-002  0.9020143E+02  0.7546771E-02  0.1428655E+00
         -2   -1    0    0    0  501 -0.00000000000E+00  0.00000000000E+00  0.89393739131E+01  0.89393739131E+01  0.00000000000E+00 0.  1.
          2   -1    0    0  501    0  0.00000000000E+00 -0.00000000000E+00 -0.37170529895E+03  0.37170529895E+03  0.00000000000E+00 0. -1.
         23    2    1    2    0    0 -0.58159068107E+01 -0.92659192092E+01 -0.35711672660E+03  0.36833226149E+03  0.89535559440E+02 0.  0.
         13    1    3    3    0    0 -0.23824397285E+02 -0.39812423775E+02 -0.27500069627E+03  0.27888709891E+03  0.00000000000E+00 0. -1.
        -13    1    3    3    0    0  0.18008490474E+02  0.30546504566E+02 -0.82116030337E+02  0.89445162578E+02  0.00000000000E+00 0.  1.
         22    1    1    2    0    0  0.58159068107E+01  0.92659192092E+01 -0.56491984312E+01  0.12312411370E+02  0.00000000000E+00 0. -1.
<mgrwt>
<rscale>  0 0.53230886E+02</rscale>
<asrwt>0</asrwt>
<pdfrwt beam="1">  1        2 0.57185431E-01 0.90201433E+02</pdfrwt>
<pdfrwt beam="2">  1       -2 0.13752883E-02 0.90201433E+02</pdfrwt>
<totfact> 0.99788390E+04</totfact>
</mgrwt>
</event>
<event>
 6    1  0.3062576E-002  0.9134571E+02  0.7546771E-02  0.1430051E+00
          4   -1    0    0  501    0  0.00000000000E+00  0.00000000000E+00  0.22446478199E+02  0.22446478199E+02  0.00000000000E+00 0. -1.
         -4   -1    0    0    0  501 -0.00000000000E+00 -0.00000000000E+00 -0.14530805050E+03  0.14530805050E+03  0.00000000000E+00 0.  1.
         23    2    1    2    0    0 -0.45476482813E+01  0.92563962939E+01 -0.73266025375E+02  0.11709803600E+03  0.90761652611E+02 0.  0.
         11    1    3    3    0    0  0.79650404290E+01 -0.27322611090E+01  0.20280922520E+02  0.21959575088E+02  0.00000000000E+00 0. -1.
        -11    1    3    3    0    0 -0.12512688710E+02  0.11988657403E+02 -0.93546947895E+02  0.95138460917E+02  0.00000000000E+00 0.  1.
         22    1    1    2    0    0  0.45476482813E+01 -0.92563962939E+01 -0.49595546925E+02  0.50656492694E+02  0.00000000000E+00 0. -1.
<mgrwt>
<rscale>  0 0.52949813E+02</rscale>
<asrwt>0</asrwt>
<pdfrwt beam="1">  1        4 0.34533044E-02 0.91345715E+02</pdfrwt>
<pdfrwt beam="2">  1       -4 0.22355084E-01 0.91345715E+02</pdfrwt>
<totfact> 0.11556836E+04</totfact>
</mgrwt>
</event>
<event>
 6    1  0.3062576E-002  0.9690246E+02  0.7546771E-02  0.1406946E+00
          2   -1    0    0  501    0  0.00000000000E+00  0.00000000000E+00  0.20933774131E+03  0.20933774131E+03  0.00000000000E+00 0. -1.
         -2   -1    0    0    0  501 -0.00000000000E+00 -0.00000000000E+00 -0.14656838992E+02  0.14656838992E+02  0.00000000000E+00 0.  1.
         23    2    1    2    0    0 -0.11097814539E+02  0.53840751603E+01  0.18265325973E+03  0.20676629138E+03  0.96114183186E+02 0.  0.
         13    1    3    3    0    0  0.14680361897E+02 -0.36821488477E+02  0.12326740304E+03  0.12948431446E+03  0.00000000000E+00 0. -1.
        -13    1    3    3    0    0 -0.25778176437E+02  0.42205563637E+02  0.59385856688E+02  0.77281976922E+02  0.00000000000E+00 0.  1.
         22    1    1    2    0    0  0.11097814539E+02 -0.53840751603E+01  0.12027642596E+02  0.17228288925E+02  0.00000000000E+00 0. -1.
<mgrwt>
<rscale>  0 0.57880863E+02</rscale>
<asrwt>0</asrwt>
<pdfrwt beam="1">  1        2 0.32205804E-01 0.96902456E+02</pdfrwt>
<pdfrwt beam="2">  1       -2 0.22548985E-02 0.96902456E+02</pdfrwt>
<totfact> 0.90766781E+04</totfact>
</mgrwt>
</event>
<event>
 6    1  0.3062576E-002  0.9134531E+02  0.7546771E-02  0.1422183E+00
          1   -1    0    0  501    0  0.00000000000E+00  0.00000000000E+00  0.25548228159E+04  0.25548228159E+04  0.00000000000E+00 0. -1.
         -1   -1    0    0    0  501 -0.00000000000E+00 -0.00000000000E+00 -0.12837476093E+02  0.12837476093E+02  0.00000000000E+00 0.  1.
         23    2    1    2    0    0  0.23199554796E+01 -0.11393875662E+02  0.25511934105E+04  0.25528281930E+04  0.90602221909E+02 0.  0.
         11    1    3    3    0    0  0.23886477279E+02  0.26888649796E+02  0.17943257545E+04  0.17946861777E+04  0.00000000000E+00 0. -1.
        -11    1    3    3    0    0 -0.21566521799E+02 -0.38282525458E+02  0.75686765601E+03  0.75814201528E+03  0.00000000000E+00 0.  1.
         22    1    1    2    0    0 -0.23199554796E+01  0.11393875662E+02 -0.92080706624E+01  0.14832099020E+02  0.00000000000E+00 0.  1.
<mgrwt>
<rscale>  0 0.54561690E+02</rscale>
<asrwt>0</asrwt>
<pdfrwt beam="1">  1        1 0.39304926E+00 0.91345308E+02</pdfrwt>
<pdfrwt beam="2">  1       -1 0.19749984E-02 0.91345308E+02</pdfrwt>
<totfact> 0.10446381E+03</totfact>
</mgrwt>
</event>
<event>
 6    1  0.3062576E-002  0.1103809E+03  0.7546771E-02  0.1290999E+00
         -1   -1    0    0    0  501 -0.00000000000E+00  0.00000000000E+00  0.10620334457E+02  0.10620334457E+02  0.00000000000E+00 0.  1.
          1   -1    0    0  501    0  0.00000000000E+00 -0.00000000000E+00 -0.11881854990E+04  0.11881854990E+04  0.00000000000E+00 0. -1.
         23    2    1    2    0    0 -0.47670968031E+02 -0.37680125800E+02 -0.10665685270E+04  0.10722650629E+04  0.92150036299E+02 0.  0.
         11    1    3    3    0    0  0.15149005380E+02  0.79319544896E+01 -0.51239968437E+03  0.51268493718E+03  0.00000000000E+00 0. -1.
        -11    1    3    3    0    0 -0.62819973411E+02 -0.45612080290E+02 -0.55416884265E+03  0.55958012571E+03  0.00000000000E+00 0.  1.
         22    1    1    2    0    0  0.47670968031E+02  0.37680125800E+02 -0.11099663749E+03  0.12654077053E+03  0.00000000000E+00 0.  1.
<mgrwt>
<rscale>  0 0.95078594E+02</rscale>
<asrwt>0</asrwt>
<pdfrwt beam="1">  1        1 0.18279777E+00 0.11038090E+03</pdfrwt>
<pdfrwt beam="2">  1       -1 0.16338976E-02 0.11038090E+03</pdfrwt>
<totfact> 0.10283454E+04</totfact>
</mgrwt>
</event>
<event>
 6    1  0.3062576E-002  0.9574434E+02  0.7546771E-02  0.1357587E+00
         -2   -1    0    0    0  501 -0.00000000000E+00  0.00000000000E+00  0.19493639012E+02  0.19493639012E+02  0.00000000000E+00 0.  1.
          2   -1    0    0  501    0  0.00000000000E+00 -0.00000000000E+00 -0.23317006074E+03  0.23317006074E+03  0.00000000000E+00 0. -1.
         23    2    1    2    0    0  0.84610675139E+01 -0.27251476690E+02 -0.19840656894E+03  0.22030012379E+03  0.91393354773E+02 0.  0.
         13    1    3    3    0    0  0.44344659547E+02  0.81769567797E+01 -0.10123898848E+03  0.11082709164E+03  0.00000000000E+00 0. -1.
        -13    1    3    3    0    0 -0.35883592033E+02 -0.35428433470E+02 -0.97167580455E+02  0.10947303214E+03  0.00000000000E+00 0.  1.
         22    1    1    2    0    0 -0.84610675139E+01  0.27251476690E+02 -0.15269852792E+02  0.32363575970E+02  0.00000000000E+00 0.  1.
<mgrwt>
<rscale>  0 0.70742171E+02</rscale>
<asrwt>0</asrwt>
<pdfrwt beam="1">  1        2 0.35872318E-01 0.95744336E+02</pdfrwt>
<pdfrwt beam="2">  1       -2 0.29990213E-02 0.95744336E+02</pdfrwt>
<totfact> 0.53452663E+04</totfact>
</mgrwt>
</event>
<event>
 6    1  0.3062576E-002  0.9524212E+02  0.7546771E-02  0.1381556E+00
         -2   -1    0    0    0  501 -0.00000000000E+00  0.00000000000E+00  0.14954720126E+02  0.14954720126E+02  0.00000000000E+00 0.  1.
          2   -1    0    0  501    0  0.00000000000E+00 -0.00000000000E+00 -0.22024121404E+03  0.22024121404E+03  0.00000000000E+00 0. -1.
         23    2    1    2    0    0 -0.17467025648E+02 -0.86416845745E+01 -0.16773332914E+03  0.19288735487E+03  0.93227068323E+02 0.  0.
         11    1    3    3    0    0 -0.41238171267E+02  0.25713997762E+02 -0.11992052977E+03  0.12939370120E+03  0.00000000000E+00 0. -1.
        -11    1    3    3    0    0  0.23771145620E+02 -0.34355682337E+02 -0.47812799373E+02  0.63493653673E+02  0.00000000000E+00 0.  1.
         22    1    1    2    0    0  0.17467025648E+02  0.86416845745E+01 -0.37553164772E+02  0.42308579291E+02  0.00000000000E+00 0.  1.
<mgrwt>
<rscale>  0 0.64056425E+02</rscale>
<asrwt>0</asrwt>
<pdfrwt beam="1">  1        2 0.33883262E-01 0.95242123E+02</pdfrwt>
<pdfrwt beam="2">  1       -2 0.23007263E-02 0.95242123E+02</pdfrwt>
<totfact> 0.83325498E+04</totfact>
</mgrwt>
</event>
<event>
 6    1  0.3062576E-002  0.9270240E+02  0.7546771E-02  0.1414134E+00
         -4   -1    0    0    0  501 -0.00000000000E+00  0.00000000000E+00  0.83337671792E+02  0.83337671792E+02  0.00000000000E+00 0.  1.
          4   -1    0    0  501    0  0.00000000000E+00 -0.00000000000E+00 -0.34519002436E+02  0.34519002436E+02  0.00000000000E+00 0. -1.
         23    2    1    2    0    0 -0.12013749845E+01  0.12537303000E+02  0.34819961919E+02  0.99026085329E+02  0.91842847077E+02 0.  0.
         13    1    3    3    0    0 -0.27614846539E+02  0.22078144718E+01 -0.22095705535E+02  0.35435496288E+02  0.00000000000E+00 0. -1.
        -13    1    3    3    0    0  0.26413471555E+02  0.10329488528E+02  0.56915667454E+02  0.63590589041E+02  0.00000000000E+00 0.  1.
         22    1    1    2    0    0  0.12013749845E+01 -0.12537303000E+02  0.13998707437E+02  0.18830588898E+02  0.00000000000E+00 0. -1.
<mgrwt>
<rscale>  0 0.56281476E+02</rscale>
<asrwt>0</asrwt>
<pdfrwt beam="1">  1        4 0.53106158E-02 0.92702405E+02</pdfrwt>
<pdfrwt beam="2">  1       -4 0.12821180E-01 0.92702405E+02</pdfrwt>
<totfact> 0.15582997E+04</totfact>
</mgrwt>
</event>
<event>
 6    1  0.3062576E-002  0.9697321E+02  0.7546771E-02  0.1350724E+00
         -3   -1    0    0    0  501 -0.00000000000E+00  0.00000000000E+00  0.36002492412E+03  0.36002492412E+03  0.00000000000E+00 0.  1.
          3   -1    0    0  501    0  0.00000000000E+00 -0.00000000000E+00 -0.12388189182E+02  0.12388189182E+02  0.00000000000E+00 0. -1.
         23    2    1    2    0    0  0.28558884848E+02 -0.11675002943E+02  0.20924190188E+03  0.23062085183E+03  0.91934151419E+02 0.  0.
         11    1    3    3    0    0  0.14732615584E+02 -0.42947161615E+02  0.17997371654E+03  0.18561262699E+03  0.00000000000E+00 0.  1.
        -11    1    3    3    0    0  0.13826269264E+02  0.31272158672E+02  0.29268185337E+02  0.45008224834E+02  0.00000000000E+00 0. -1.
         22    1    1    2    0    0 -0.28558884848E+02  0.11675002943E+02  0.13839483306E+03  0.14179226147E+03  0.00000000000E+00 0.  1.
<mgrwt>
<rscale>  0 0.72830558E+02</rscale>
<asrwt>0</asrwt>
<pdfrwt beam="1">  1        3 0.19058755E-02 0.96973212E+02</pdfrwt>
<pdfrwt beam="2">  1       -3 0.55388442E-01 0.96973212E+02</pdfrwt>
<totfact> 0.70415797E+03</totfact>
</mgrwt>
</event>
<event>
 6    1  0.3062576E-002  0.1056602E+03  0.7546771E-02  0.1335389E+00
         -1   -1    0    0    0  501 -0.00000000000E+00  0.00000000000E+00  0.58588564180E+02  0.58588564180E+02  0.00000000000E+00 0.  1.
          1   -1    0    0  501    0  0.00000000000E+00 -0.00000000000E+00 -0.80007042466E+02  0.80007042466E+02  0.00000000000E+00 0. -1.
         23    2    1    2    0    0 -0.14548965509E+02  0.27455453317E+02 -0.13407930129E+02  0.10650755286E+03  0.10098817708E+03 0.  0.
         11    1    3    3    0    0  0.79333195047E+01 -0.27760740258E+02 -0.32911263442E+02  0.43780675182E+02  0.00000000000E+00 0. -1.
        -11    1    3    3    0    0 -0.22482285013E+02  0.55216193576E+02  0.19503333313E+02  0.62726877674E+02  0.00000000000E+00 0.  1.
         22    1    1    2    0    0  0.14548965509E+02 -0.27455453317E+02 -0.80105481565E+01  0.32088053790E+02  0.00000000000E+00 0. -1.
<mgrwt>
<rscale>  0 0.77808364E+02</rscale>
<asrwt>0</asrwt>
<pdfrwt beam="1">  1        1 0.12308776E-01 0.10566024E+03</pdfrwt>
<pdfrwt beam="2">  1       -1 0.90136252E-02 0.10566024E+03</pdfrwt>
<totfact> 0.30914634E+04</totfact>
</mgrwt>
</event>
<event>
 6    1  0.3062576E-002  0.9384832E+02  0.7546771E-02  0.1395093E+00
         -3   -1    0    0    0  501 -0.00000000000E+00  0.00000000000E+00  0.17628767257E+02  0.17628767257E+02  0.00000000000E+00 0. -1.
          3   -1    0    0  501    0  0.00000000000E+00 -0.00000000000E+00 -0.23418327989E+03  0.23418327989E+03  0.00000000000E+00 0.  1.
         23    2    1    2    0    0  0.94119402106E+01  0.13403435683E+02 -0.21590665327E+03  0.23542130499E+03  0.92408177184E+02 0.  0.
         13    1    3    3    0    0  0.42932981692E+02 -0.11174099646E+02 -0.63594900672E+02  0.77539749879E+02  0.00000000000E+00 0. -1.
        -13    1    3    3    0    0 -0.33521041481E+02  0.24577535329E+02 -0.15231175260E+03  0.15788155511E+03  0.00000000000E+00 0.  1.
         22    1    1    2    0    0 -0.94119402106E+01 -0.13403435683E+02 -0.64785936011E+00  0.16390742155E+02  0.00000000000E+00 0. -1.
<mgrwt>
<rscale>  0 0.60657522E+02</rscale>
<asrwt>0</asrwt>
<pdfrwt beam="1">  1        3 0.36028198E-01 0.93848324E+02</pdfrwt>
<pdfrwt beam="2">  1       -3 0.27121180E-02 0.93848324E+02</pdfrwt>
<totfact> 0.94467472E+03</totfact>
</mgrwt>
</event>
<event>
 6    1  0.3062576E-002  0.9177249E+02  0.7546771E-02  0.1415229E+00
         -4   -1    0    0    0  501 -0.00000000000E+00  0.00000000000E+00  0.49017849827E+02  0.49017849827E+02  0.00000000000E+00 0.  1.
          4   -1    0    0  501    0  0.00000000000E+00 -0.00000000000E+00 -0.63165567266E+02  0.63165567266E+02  0.00000000000E+00 0. -1.
         23    2    1    2    0    0 -0.87064758836E+01 -0.93323642292E+01 -0.25341520418E+02  0.95207052066E+02  0.90880659998E+02 0.  0.
         13    1    3    3    0    0  0.10995562956E+02 -0.56606344124E+01 -0.56677097817E+02  0.58010676635E+02  0.00000000000E+00 0. -1.
        -13    1    3    3    0    0 -0.19702038839E+02 -0.36717298168E+01  0.31335577399E+02  0.37196375431E+02  0.00000000000E+00 0.  1.
         22    1    1    2    0    0  0.87064758836E+01  0.93323642292E+01  0.11193802978E+02  0.16976365027E+02  0.00000000000E+00 0.  1.
<mgrwt>
<rscale>  0 0.56043224E+02</rscale>
<asrwt>0</asrwt>
<pdfrwt beam="1">  1        4 0.97177795E-02 0.91772491E+02</pdfrwt>
<pdfrwt beam="2">  1       -4 0.75412077E-02 0.91772491E+02</pdfrwt>
<totfact> 0.14058601E+04</totfact>
</mgrwt>
</event>
<event>
 6    1  0.3062576E-002  0.9051914E+02  0.7546771E-02  0.1417924E+00
          2   -1    0    0  501    0  0.00000000000E+00  0.00000000000E+00  0.10816798554E+04  0.10816798554E+04  0.00000000000E+00 0. -1.
         -2   -1    0    0    0  501 -0.00000000000E+00 -0.00000000000E+00 -0.29265284038E+01  0.29265284038E+01  0.00000000000E+00 0.  1.
         23    2    1    2    0    0  0.12636723244E+02  0.17537078497E+01  0.10371067024E+04  0.10410494830E+04  0.89615577156E+02 0.  0.
         11    1    3    3    0    0  0.10655491709E+02  0.28738582739E+02  0.13096179142E+03  0.13450069313E+03  0.00000000000E+00 0.  1.
        -11    1    3    3    0    0  0.19812315355E+01 -0.26984874889E+02  0.90614491099E+03  0.90654878990E+03  0.00000000000E+00 0. -1.
         22    1    1    2    0    0 -0.12636723244E+02 -0.17537078497E+01  0.41646624596E+02  0.43556900783E+02  0.00000000000E+00 0.  1.
<mgrwt>
<rscale>  0 0.55462509E+02</rscale>
<asrwt>0</asrwt>
<pdfrwt beam="1">  1        2 0.16641197E+00 0.90519136E+02</pdfrwt>
<pdfrwt beam="2">  1       -2 0.45023600E-03 0.90519136E+02</pdfrwt>
<totfact> 0.13897135E+05</totfact>
</mgrwt>
</event>
<event>
 6    1  0.3062576E-002  0.1034926E+03  0.7546771E-02  0.1310710E+00
          2   -1    0    0  501    0  0.00000000000E+00  0.00000000000E+00  0.23269723020E+03  0.23269723020E+03  0.00000000000E+00 0.  1.
         -2   -1    0    0    0  501 -0.00000000000E+00 -0.00000000000E+00 -0.26505721163E+02  0.26505721163E+02  0.00000000000E+00 0. -1.
         23    2    1    2    0    0  0.15862912056E+02 -0.48769854107E+02  0.15767421089E+03  0.18860508406E+03  0.89892103683E+02 0.  0.
         11    1    3    3    0    0  0.11991525958E+01 -0.56536700146E+02  0.16189157477E+03  0.17148387216E+03  0.00000000000E+00 0.  1.
        -11    1    3    3    0    0  0.14663759460E+02  0.77668460389E+01 -0.42173638754E+01  0.17121211901E+02  0.00000000000E+00 0. -1.
         22    1    1    2    0    0 -0.15862912056E+02  0.48769854107E+02  0.48517298149E+02  0.70597867306E+02  0.00000000000E+00 0.  1.
<mgrwt>
<rscale>  0 0.86831875E+02</rscale>
<asrwt>0</asrwt>
<pdfrwt beam="1">  1        2 0.35799572E-01 0.10349261E+03</pdfrwt>
<pdfrwt beam="2">  1       -2 0.40778034E-02 0.10349261E+03</pdfrwt>
<totfact> 0.34472250E+04</totfact>
</mgrwt>
</event>
<event>
 6    1  0.3062576E-002  0.9409524E+02  0.7546771E-02  0.1417904E+00
         -1   -1    0    0    0  501 -0.00000000000E+00  0.00000000000E+00  0.84643418510E+01  0.84643418510E+01  0.00000000000E+00 0.  1.
          1   -1    0    0  501    0  0.00000000000E+00 -0.00000000000E+00 -0.33725529449E+03  0.33725529449E+03  0.00000000000E+00 0. -1.
         23    2    1    2    0    0 -0.93742364791E+00 -0.11322704715E+02 -0.30766625002E+03  0.32173348480E+03  0.93406806139E+02 0.  0.
         13    1    3    3    0    0  0.57353153510E+01  0.24036523833E+02 -0.26398797014E+03  0.26514203118E+03  0.00000000000E+00 0. -1.
        -13    1    3    3    0    0 -0.66727389989E+01 -0.35359228548E+02 -0.43678279886E+02  0.56591453622E+02  0.00000000000E+00 0.  1.
         22    1    1    2    0    0  0.93742364791E+00  0.11322704715E+02 -0.21124702619E+02  0.23986151544E+02  0.00000000000E+00 0. -1.
<mgrwt>
<rscale>  0 0.55466928E+02</rscale>
<asrwt>0</asrwt>
<pdfrwt beam="1">  1        1 0.51885427E-01 0.94095238E+02</pdfrwt>
<pdfrwt beam="2">  1       -1 0.13022065E-02 0.94095238E+02</pdfrwt>
<totfact> 0.84013462E+04</totfact>
</mgrwt>
</event>
<event>
 6    1  0.3062576E-002  0.9123520E+02  0.7546771E-02  0.1431144E+00
          2   -1    0    0  501    0  0.00000000000E+00  0.00000000000E+00  0.81086525060E+03  0.81086525060E+03  0.00000000000E+00 0. -1.
         -2   -1    0    0    0  501 -0.00000000000E+00 -0.00000000000E+00 -0.15395977703E+02  0.15395977703E+02  0.00000000000E+00 0.  1.
         23    2    1    2    0    0 -0.95039306197E+01  0.36498349838E+01  0.80627181662E+03  0.81141734258E+03  0.90665404435E+02 0.  0.
         13    1    3    3    0    0 -0.46410609484E+02 -0.63220600221E+01  0.29264418375E+03  0.29636891099E+03  0.00000000000E+00 0.  1.
        -13    1    3    3    0    0  0.36906678864E+02  0.99718950059E+01  0.51362763287E+03  0.51504843159E+03  0.00000000000E+00 0. -1.
         22    1    1    2    0    0  0.95039306197E+01 -0.36498349838E+01 -0.10802543724E+02  0.14843885729E+02  0.00000000000E+00 0.  1.
<mgrwt>
<rscale>  0 0.52730985E+02</rscale>
<asrwt>0</asrwt>
<pdfrwt beam="1">  1        2 0.12474847E+00 0.91235199E+02</pdfrwt>
<pdfrwt beam="2">  1       -2 0.23686126E-02 0.91235199E+02</pdfrwt>
<totfact> 0.19273958E+04</totfact>
</mgrwt>
</event>
<event>
 6    1  0.3062576E-002  0.9337394E+02  0.7546771E-02  0.1420671E+00
          1   -1    0    0  501    0  0.00000000000E+00  0.00000000000E+00  0.11618444105E+03  0.11618444105E+03  0.00000000000E+00 0. -1.
         -1   -1    0    0    0  501 -0.00000000000E+00 -0.00000000000E+00 -0.34146107687E+02  0.34146107687E+02  0.00000000000E+00 0.  1.
         23    2    1    2    0    0 -0.10749449858E+02 -0.29305296539E+01  0.95022344960E+02  0.13322139232E+03  0.92706820964E+02 0.  0.
         11    1    3    3    0    0  0.29590817038E+02 -0.61082214897E+01  0.29829944544E+00  0.30216151398E+02  0.00000000000E+00 0.  1.
        -11    1    3    3    0    0 -0.40340266895E+02  0.31776918358E+01  0.94724045514E+02  0.10300524092E+03  0.00000000000E+00 0. -1.
         22    1    1    2    0    0  0.10749449858E+02  0.29305296539E+01 -0.12984011595E+02  0.17109156420E+02  0.00000000000E+00 0.  1.
<mgrwt>
<rscale>  0 0.54879186E+02</rscale>
<asrwt>0</asrwt>
<pdfrwt beam="1">  1        1 0.17874529E-01 0.93373944E+02</pdfrwt>
<pdfrwt beam="2">  1       -1 0.52532474E-02 0.93373944E+02</pdfrwt>
<totfact> 0.42069966E+04</totfact>
</mgrwt>
</event>
<event>
 6    1  0.3062576E-002  0.9214819E+02  0.7546771E-02  0.1402911E+00
         -2   -1    0    0    0  501 -0.00000000000E+00  0.00000000000E+00  0.89787458308E+01  0.89787458308E+01  0.00000000000E+00 0. -1.
          2   -1    0    0  501    0  0.00000000000E+00 -0.00000000000E+00 -0.45325093237E+03  0.45325093237E+03  0.00000000000E+00 0.  1.
         23    2    1    2    0    0 -0.93180613656E+01 -0.12114799928E+02 -0.43432798895E+03  0.44399559718E+03  0.90871853094E+02 0.  0.
         11    1    3    3    0    0  0.17414989001E+02  0.83869525875E+01 -0.18339279622E+02  0.26644924332E+02  0.00000000000E+00 0. -1.
        -11    1    3    3    0    0 -0.26733050366E+02 -0.20501752516E+02 -0.41598870933E+03  0.41735067285E+03  0.00000000000E+00 0.  1.
         22    1    1    2    0    0  0.93180613656E+01  0.12114799928E+02 -0.99441975844E+01  0.18234081016E+02  0.00000000000E+00 0. -1.
<mgrwt>
<rscale>  0 0.58806178E+02</rscale>
<asrwt>0</asrwt>
<pdfrwt beam="1">  1        2 0.69730908E-01 0.92148187E+02</pdfrwt>
<pdfrwt beam="2">  1       -2 0.13813456E-02 0.92148187E+02</pdfrwt>
<totfact> 0.80675269E+04</totfact>
</mgrwt>
</event>
<event>
 6    1  0.3062576E-002  0.9232337E+02  0.7546771E-02  0.1388454E+00
          1   -1    0    0  501    0  0.00000000000E+00  0.00000000000E+00  0.23817373992E+02  0.23817373992E+02  0.00000000000E+00 0. -1.
         -1   -1    0    0    0  501 -0.00000000000E+00 -0.00000000000E+00 -0.16662462231E+03  0.16662462231E+03  0.00000000000E+00 0.  1.
         23    2    1    2    0    0 -0.13667234531E+02  0.13391503088E+02 -0.71955933579E+02  0.11705238904E+03  0.90318767413E+02 0.  0.
         11    1    3    3    0    0 -0.48029795583E+02  0.81695571855E+01 -0.65610047599E+02  0.81720751797E+02  0.00000000000E+00 0.  1.
        -11    1    3    3    0    0  0.34362561052E+02  0.52219459023E+01 -0.63458859799E+01  0.35331637238E+02  0.00000000000E+00 0. -1.
         22    1    1    2    0    0  0.13667234531E+02 -0.13391503088E+02 -0.70851314743E+02  0.73389607272E+02  0.00000000000E+00 0.  1.
<mgrwt>
<rscale>  0 0.62292752E+02</rscale>
<asrwt>0</asrwt>
<pdfrwt beam="1">  1        1 0.36642115E-02 0.92323374E+02</pdfrwt>
<pdfrwt beam="2">  1       -1 0.25634557E-01 0.92323374E+02</pdfrwt>
<totfact> 0.30063767E+04</totfact>
</mgrwt>
</event>
<event>
 6    1  0.3062576E-002  0.9073404E+02  0.7546771E-02  0.1427088E+00
          2   -1    0    0  501    0  0.00000000000E+00  0.00000000000E+00  0.15200333900E+03  0.15200333900E+03  0.00000000000E+00 0. -1.
         -2   -1    0    0    0  501 -0.00000000000E+00 -0.00000000000E+00 -0.18498830427E+02  0.18498830427E+02  0.00000000000E+00 0.  1.
         23    2    1    2    0    0 -0.10947566754E+02  0.11494250799E+01  0.13076135086E+03  0.15915777389E+03  0.90063842433E+02 0.  0.
         11    1    3    3    0    0  0.38873447862E+01 -0.21659826591E+00 -0.13540407439E+02  0.14089038218E+02  0.00000000000E+00 0.  1.
        -11    1    3    3    0    0 -0.14834911540E+02  0.13660233458E+01  0.14430175830E+03  0.14506873567E+03  0.00000000000E+00 0. -1.
         22    1    1    2    0    0  0.10947566754E+02 -0.11494250799E+01  0.27431577068E+01  0.11344395535E+02  0.00000000000E+00 0.  1.
<mgrwt>
<rscale>  0 0.53549110E+02</rscale>
<asrwt>0</asrwt>
<pdfrwt beam="1">  1        2 0.23385128E-01 0.90734041E+02</pdfrwt>
<pdfrwt beam="2">  1       -2 0.28459740E-02 0.90734041E+02</pdfrwt>
<totfact> 0.90678406E+04</totfact>
</mgrwt>
</event>
<event>
 6    1  0.3062576E-002  0.9194393E+02  0.7546771E-02  0.1404030E+00
          2   -1    0    0  501    0  0.00000000000E+00  0.00000000000E+00  0.29452343992E+03  0.29452343992E+03  0.00000000000E+00 0. -1.
         -2   -1    0    0    0  501 -0.00000000000E+00 -0.00000000000E+00 -0.10086446492E+02  0.10086446492E+02  0.00000000000E+00 0.  1.
         23    2    1    2    0    0  0.12279216001E+02 -0.88175062569E+01  0.26099165204E+03  0.27671344228E+03  0.90692663119E+02 0.  0.
         13    1    3    3    0    0 -0.33770126811E+02 -0.21603499690E+02  0.16058080406E+03  0.16550929671E+03  0.00000000000E+00 0. -1.
        -13    1    3    3    0    0  0.46049342811E+02  0.12785993433E+02  0.10041084798E+03  0.11120414557E+03  0.00000000000E+00 0.  1.
         22    1    1    2    0    0 -0.12279216001E+02  0.88175062569E+01  0.23445341389E+02  0.27896444129E+02  0.00000000000E+00 0.  1.
<mgrwt>
<rscale>  0 0.58547672E+02</rscale>
<asrwt>0</asrwt>
<pdfrwt beam="1">  1        2 0.45311292E-01 0.91943932E+02</pdfrwt>
<pdfrwt beam="2">  1       -2 0.15517612E-02 0.91943932E+02</pdfrwt>
<totfact> 0.10747886E+05</totfact>
</mgrwt>
</event>
<event>
 6    1  0.3062576E-002  0.9213250E+02  0.7546771E-02  0.1402371E+00
         -2   -1    0    0    0  501 -0.00000000000E+00  0.00000000000E+00  0.61481046390E+02  0.61481046390E+02  0.00000000000E+00 0.  1.
          2   -1    0    0  501    0  0.00000000000E+00 -0.00000000000E+00 -0.54305753725E+02  0.54305753725E+02  0.00000000000E+00 0. -1.
         23    2    1    2    0    0 -0.11011905432E+02 -0.10797574730E+02 -0.10035024453E+02  0.92677393014E+02  0.90832525996E+02 0.  0.
         13    1    3    3    0    0  0.36443359111E+02 -0.18889315448E+02 -0.16230512420E+02  0.44140165324E+02  0.00000000000E+00 0. -1.
        -13    1    3    3    0    0 -0.47455264543E+02  0.80917407181E+01  0.61954879672E+01  0.48537227690E+02  0.00000000000E+00 0.  1.
         22    1    1    2    0    0  0.11011905432E+02  0.10797574730E+02  0.17210317117E+02  0.23109407101E+02  0.00000000000E+00 0. -1.
<mgrwt>
<rscale>  0 0.58931495E+02</rscale>
<asrwt>0</asrwt>
<pdfrwt beam="1">  1        2 0.83547314E-02 0.92132499E+02</pdfrwt>
<pdfrwt beam="2">  1       -2 0.94586225E-02 0.92132499E+02</pdfrwt>
<totfact> 0.50277394E+04</totfact>
</mgrwt>
</event>
<event>
 6    1  0.3062576E-002  0.9236792E+02  0.7546771E-02  0.1385764E+00
         -2   -1    0    0    0  501 -0.00000000000E+00  0.00000000000E+00  0.33896216690E+02  0.33896216690E+02  0.00000000000E+00 0.  1.
          2   -1    0    0  501    0  0.00000000000E+00 -0.00000000000E+00 -0.42309694118E+03  0.42309694118E+03  0.00000000000E+00 0. -1.
         23    2    1    2    0    0 -0.15652583388E+02 -0.12376578381E+02 -0.41455929691E+03  0.42472490329E+03  0.90186749366E+02 0.  0.
         13    1    3    3    0    0 -0.48967035253E+02 -0.48008056933E+01 -0.14751525262E+03  0.15550423799E+03  0.00000000000E+00 0. -1.
        -13    1    3    3    0    0  0.33314451865E+02 -0.75757726875E+01 -0.26704404429E+03  0.26922066530E+03  0.00000000000E+00 0.  1.
         22    1    1    2    0    0  0.15652583388E+02  0.12376578381E+02  0.25358572414E+02  0.32268254586E+02  0.00000000000E+00 0.  1.
<mgrwt>
<rscale>  0 0.62972542E+02</rscale>
<asrwt>0</asrwt>
<pdfrwt beam="1">  1        2 0.65091841E-01 0.92367921E+02</pdfrwt>
<pdfrwt beam="2">  1       -2 0.52148022E-02 0.92367921E+02</pdfrwt>
<totfact> 0.12618954E+04</totfact>
</mgrwt>
</event>
<event>
 6    1  0.3062576E-002  0.9200311E+02  0.7546771E-02  0.1421219E+00
         -2   -1    0    0    0  501 -0.00000000000E+00  0.00000000000E+00  0.65214494464E+01  0.65214494464E+01  0.00000000000E+00 0.  1.
          2   -1    0    0  501    0  0.00000000000E+00 -0.00000000000E+00 -0.56207928858E+03  0.56207928858E+03  0.00000000000E+00 0. -1.
         23    2    1    2    0    0 -0.57774435375E+01 -0.10000826398E+02 -0.54574373794E+03  0.55344448636E+03  0.91275279216E+02 0.  0.
         11    1    3    3    0    0 -0.31611908698E+02 -0.27983510944E+02 -0.46291806491E+03  0.46483924585E+03  0.00000000000E+00 0. -1.
        -11    1    3    3    0    0  0.25834465160E+02  0.17982684546E+02 -0.82825673028E+02  0.88605240512E+02  0.00000000000E+00 0.  1.
         22    1    1    2    0    0  0.57774435375E+01  0.10000826398E+02 -0.98141011985E+01  0.15156251674E+02  0.00000000000E+00 0. -1.
<mgrwt>
<rscale>  0 0.54763913E+02</rscale>
<asrwt>0</asrwt>
<pdfrwt beam="1">  1        2 0.86473773E-01 0.92003109E+02</pdfrwt>
<pdfrwt beam="2">  1       -2 0.10032995E-02 0.92003109E+02</pdfrwt>
<totfact> 0.10059764E+05</totfact>
</mgrwt>
</event>
<event>
 6    1  0.3062576E-002  0.9224467E+02  0.7546771E-02  0.1425129E+00
         -2   -1    0    0    0  501 -0.00000000000E+00  0.00000000000E+00  0.19568108707E+02  0.19568108707E+02  0.00000000000E+00 0.  1.
          2   -1    0    0  501    0  0.00000000000E+00 -0.00000000000E+00 -0.13767197914E+03  0.13767197914E+03  0.00000000000E+00 0. -1.
         23    2    1    2    0    0 -0.36175323952E+01  0.10169000622E+02 -0.11096560329E+03  0.14429984163E+03  0.91611047736E+02 0.  0.
         13    1    3    3    0    0  0.25190456256E+02  0.59504385013E+01 -0.11221137326E+03  0.11515797451E+03  0.00000000000E+00 0. -1.
        -13    1    3    3    0    0 -0.28807988651E+02  0.42185621205E+01  0.12457699692E+01  0.29141867121E+02  0.00000000000E+00 0.  1.
         22    1    1    2    0    0  0.36175323952E+01 -0.10169000622E+02 -0.71382671423E+01  0.12940246214E+02  0.00000000000E+00 0.  1.
<mgrwt>
<rscale>  0 0.53950370E+02</rscale>
<asrwt>0</asrwt>
<pdfrwt beam="1">  1        2 0.21180305E-01 0.92244670E+02</pdfrwt>
<pdfrwt beam="2">  1       -2 0.30104782E-02 0.92244670E+02</pdfrwt>
<totfact> 0.93449160E+04</totfact>
</mgrwt>
</event>
<event>
 6    1  0.3062576E-002  0.9462963E+02  0.7546771E-02  0.1403601E+00
         -2   -1    0    0    0  501 -0.00000000000E+00  0.00000000000E+00  0.64290671518E+01  0.64290671518E+01  0.00000000000E+00 0.  1.
          2   -1    0    0  501    0  0.00000000000E+00 -0.00000000000E+00 -0.46640795293E+03  0.46640795293E+03  0.00000000000E+00 0. -1.
         23    2    1    2    0    0  0.14263076310E+00 -0.13959460880E+02 -0.41873748700E+03  0.42929692517E+03  0.93594230865E+02 0.  0.
         11    1    3    3    0    0  0.32130832117E+00 -0.49887101840E+02 -0.32684686951E+03  0.33063227652E+03  0.00000000000E+00 0. -1.
        -11    1    3    3    0    0 -0.17867755807E+00  0.35927640960E+02 -0.91890617490E+02  0.98664648651E+02  0.00000000000E+00 0.  1.
         22    1    1    2    0    0 -0.14263076310E+00  0.13959460880E+02 -0.41241398778E+02  0.43540094909E+02  0.00000000000E+00 0.  1.
<mgrwt>
<rscale>  0 0.58646647E+02</rscale>
<asrwt>0</asrwt>
<pdfrwt beam="1">  1        2 0.71755072E-01 0.94629630E+02</pdfrwt>
<pdfrwt beam="2">  1       -2 0.98908722E-03 0.94629630E+02</pdfrwt>
<totfact> 0.12623482E+05</totfact>
</mgrwt>
</event>
<event>
 6    1  0.3062576E-002  0.9319678E+02  0.7546771E-02  0.1425439E+00
          1   -1    0    0  501    0  0.00000000000E+00  0.00000000000E+00  0.18661350582E+04  0.18661350582E+04  0.00000000000E+00 0. -1.
         -1   -1    0    0    0  501 -0.00000000000E+00 -0.00000000000E+00 -0.18329242156E+01  0.18329242156E+01  0.00000000000E+00 0.  1.
         23    2    1    2    0    0 -0.65058519854E+01  0.81349131875E+01  0.18227188659E+04  0.18250999161E+04  0.92612832942E+02 0.  0.
         11    1    3    3    0    0 -0.22390335592E+02  0.27686619566E+02  0.16651021682E+04  0.16654828449E+04  0.00000000000E+00 0. -1.
        -11    1    3    3    0    0  0.15884483606E+02 -0.19551706379E+02  0.15761669769E+03  0.15961707124E+03  0.00000000000E+00 0.  1.
         22    1    1    2    0    0  0.65058519854E+01 -0.81349131875E+01  0.41583268119E+02  0.42868066321E+02  0.00000000000E+00 0.  1.
<mgrwt>
<rscale>  0 0.53886610E+02</rscale>
<asrwt>0</asrwt>
<pdfrwt beam="1">  1        1 0.28709618E+00 0.93196780E+02</pdfrwt>
<pdfrwt beam="2">  1       -1 0.28198983E-03 0.93196780E+02</pdfrwt>
<totfact> 0.44137376E+04</totfact>
</mgrwt>
</event>
<event>
 6    1  0.3062576E-002  0.8990485E+02  0.7546771E-02  0.1418094E+00
         -4   -1    0    0    0  501 -0.00000000000E+00  0.00000000000E+00  0.51240252156E+02  0.51240252156E+02  0.00000000000E+00 0.  1.
          4   -1    0    0  501    0  0.00000000000E+00 -0.00000000000E+00 -0.10406476562E+03  0.10406476562E+03  0.00000000000E+00 0. -1.
         23    2    1    2    0    0 -0.10314759206E+01 -0.12946031129E+02 -0.83058751123E+02  0.12239950469E+03  0.88961896031E+02 0.  0.
         13    1    3    3    0    0  0.23221114503E+02  0.77198463477E+01  0.81445132382E+01  0.25790488214E+02  0.00000000000E+00 0.  1.
        -13    1    3    3    0    0 -0.24252590424E+02 -0.20665877477E+02 -0.91203264361E+02  0.96609016475E+02  0.00000000000E+00 0. -1.
         22    1    1    2    0    0  0.10314759206E+01  0.12946031129E+02  0.30234237660E+02  0.32905513086E+02  0.00000000000E+00 0.  1.
<mgrwt>
<rscale>  0 0.55426192E+02</rscale>
<asrwt>0</asrwt>
<pdfrwt beam="1">  1        4 0.16009964E-01 0.89904853E+02</pdfrwt>
<pdfrwt beam="2">  1       -4 0.78831158E-02 0.89904853E+02</pdfrwt>
<totfact> 0.55549755E+03</totfact>
</mgrwt>
</event>
<event>
 6    1  0.3062576E-002  0.8861489E+02  0.7546771E-02  0.1399315E+00
         -1   -1    0    0    0  501 -0.00000000000E+00  0.00000000000E+00  0.10845839455E+02  0.10845839455E+02  0.00000000000E+00 0.  1.
          1   -1    0    0  501    0  0.00000000000E+00 -0.00000000000E+00 -0.30477260635E+03  0.30477260635E+03  0.00000000000E+00 0. -1.
         23    2    1    2    0    0 -0.12724157232E+02  0.13000743734E+02 -0.27678043883E+03  0.29062004424E+03  0.86727592362E+02 0.  0.
         11    1    3    3    0    0 -0.25517034362E+01  0.49586495607E+02 -0.17788698553E+03  0.18468652186E+03  0.00000000000E+00 0. -1.
        -11    1    3    3    0    0 -0.10172453795E+02 -0.36585751873E+02 -0.98893453303E+02  0.10593352237E+03  0.00000000000E+00 0.  1.
         22    1    1    2    0    0  0.12724157232E+02 -0.13000743734E+02 -0.17146328061E+02  0.24998401566E+02  0.00000000000E+00 0. -1.
<mgrwt>
<rscale>  0 0.59648013E+02</rscale>
<asrwt>0</asrwt>
<pdfrwt beam="1">  1        1 0.46888095E-01 0.88614890E+02</pdfrwt>
<pdfrwt beam="2">  1       -1 0.16685906E-02 0.88614890E+02</pdfrwt>
<totfact> 0.66325623E+04</totfact>
</mgrwt>
</event>
<event>
 6    1  0.3062576E-002  0.8957468E+02  0.7546771E-02  0.1423249E+00
         -2   -1    0    0    0  501 -0.00000000000E+00  0.00000000000E+00  0.61315375364E+01  0.61315375364E+01  0.00000000000E+00 0. -1.
          2   -1    0    0  501    0  0.00000000000E+00 -0.00000000000E+00 -0.52966812294E+03  0.52966812294E+03  0.00000000000E+00 0.  1.
         23    2    1    2    0    0 -0.46734646565E+01 -0.11194861793E+02 -0.50920279446E+03  0.51702138139E+03  0.88749404120E+02 0.  0.
         11    1    3    3    0    0 -0.38901491941E+02 -0.28333083124E+02 -0.34934941441E+03  0.35264869633E+03  0.00000000000E+00 0.  1.
        -11    1    3    3    0    0  0.34228027285E+02  0.17138221331E+02 -0.15985338005E+03  0.16437268506E+03  0.00000000000E+00 0. -1.
         22    1    1    2    0    0  0.46734646565E+01  0.11194861793E+02 -0.14333790947E+02  0.18778279085E+02  0.00000000000E+00 0.  1.
<mgrwt>
<rscale>  0 0.54339414E+02</rscale>
<asrwt>0</asrwt>
<pdfrwt beam="1">  1        2 0.81487425E-01 0.89574678E+02</pdfrwt>
<pdfrwt beam="2">  1       -2 0.94331321E-03 0.89574678E+02</pdfrwt>
<totfact> 0.11669866E+05</totfact>
</mgrwt>
</event>
<event>
 6    1  0.3062576E-002  0.9184087E+02  0.7546771E-02  0.1421641E+00
          2   -1    0    0  501    0  0.00000000000E+00  0.00000000000E+00  0.60667807246E+03  0.60667807246E+03  0.00000000000E+00 0. -1.
         -2   -1    0    0    0  501 -0.00000000000E+00 -0.00000000000E+00 -0.61758543110E+01  0.61758543110E+01  0.00000000000E+00 0.  1.
         23    2    1    2    0    0 -0.89746907189E+01  0.72478999306E+01  0.59045861727E+03  0.59755846844E+03  0.91113486217E+02 0.  0.
         11    1    3    3    0    0  0.52318975784E+01  0.16346572372E+02  0.57308381635E+03  0.57334077453E+03  0.00000000000E+00 0. -1.
        -11    1    3    3    0    0 -0.14206588297E+02 -0.90986724414E+01  0.17374800924E+02  0.24217693911E+02  0.00000000000E+00 0.  1.
         22    1    1    2    0    0  0.89746907189E+01 -0.72478999306E+01  0.10043600880E+02  0.15295458330E+02  0.00000000000E+00 0.  1.
<mgrwt>
<rscale>  0 0.54675140E+02</rscale>
<asrwt>0</asrwt>
<pdfrwt beam="1">  1        2 0.93335041E-01 0.91840865E+02</pdfrwt>
<pdfrwt beam="2">  1       -2 0.95013191E-03 0.91840865E+02</pdfrwt>
<totfact> 0.99782242E+04</totfact>
</mgrwt>
</event>
<event>
 6    1  0.3062576E-002  0.9305025E+02  0.7546771E-02  0.1428310E+00
          2   -1    0    0  501    0  0.00000000000E+00  0.00000000000E+00  0.27770747147E+02  0.27770747147E+02  0.00000000000E+00 0. -1.
         -2   -1    0    0    0  501 -0.00000000000E+00 -0.00000000000E+00 -0.10932423784E+03  0.10932423784E+03  0.00000000000E+00 0.  1.
         23    2    1    2    0    0  0.97634869565E+01 -0.22436757678E+01 -0.53562362579E+02  0.10736515129E+03  0.92509400972E+02 0.  0.
         13    1    3    3    0    0  0.13852254515E+02  0.38907079256E+02 -0.51425959304E+02  0.65956614996E+02  0.00000000000E+00 0.  1.
        -13    1    3    3    0    0 -0.40887675590E+01 -0.41150755024E+02 -0.21364032758E+01  0.41408536296E+02  0.00000000000E+00 0. -1.
         22    1    1    2    0    0 -0.97634869565E+01  0.22436757678E+01 -0.27991128112E+02  0.29729833694E+02  0.00000000000E+00 0.  1.
<mgrwt>
<rscale>  0 0.53300724E+02</rscale>
<asrwt>0</asrwt>
<pdfrwt beam="1">  1        2 0.42724226E-02 0.93050250E+02</pdfrwt>
<pdfrwt beam="2">  1       -2 0.16819114E-01 0.93050250E+02</pdfrwt>
<totfact> 0.47287308E+04</totfact>
</mgrwt>
</event>
<event>
 6    1  0.3062576E-002  0.1019536E+03  0.7546771E-02  0.1330277E+00
         -2   -1    0    0    0  501 -0.00000000000E+00  0.00000000000E+00  0.71829374565E+01  0.71829374565E+01  0.00000000000E+00 0.  1.
          2   -1    0    0  501    0  0.00000000000E+00 -0.00000000000E+00 -0.75965169783E+03  0.75965169783E+03  0.00000000000E+00 0. -1.
         23    2    1    2    0    0 -0.37149288847E+02 -0.71178960879E+01 -0.64258672832E+03  0.65062450201E+03  0.94677373770E+02 0.  0.
         11    1    3    3    0    0 -0.31803645581E+02 -0.25144770094E+02 -0.10273625125E+03  0.11044667789E+03  0.00000000000E+00 0.  1.
        -11    1    3    3    0    0 -0.53456432660E+01  0.18026874006E+02 -0.53985047707E+03  0.54017782413E+03  0.00000000000E+00 0. -1.
         22    1    1    2    0    0  0.37149288847E+02  0.71178960879E+01 -0.10988203206E+03  0.11621013327E+03  0.00000000000E+00 0. -1.
<mgrwt>
<rscale>  0 0.79569537E+02</rscale>
<asrwt>0</asrwt>
<pdfrwt beam="1">  1        2 0.11686948E+00 0.10195361E+03</pdfrwt>
<pdfrwt beam="2">  1       -2 0.11050674E-02 0.10195361E+03</pdfrwt>
<totfact> 0.62880098E+04</totfact>
</mgrwt>
</event>
<event>
 6    1  0.3062576E-002  0.9538301E+02  0.7546771E-02  0.1404869E+00
          1   -1    0    0  501    0  0.00000000000E+00  0.00000000000E+00  0.40885618587E+03  0.40885618587E+03  0.00000000000E+00 0. -1.
         -1   -1    0    0    0  501 -0.00000000000E+00 -0.00000000000E+00 -0.13589801890E+02  0.13589801890E+02  0.00000000000E+00 0.  1.
         23    2    1    2    0    0 -0.12572436234E+02  0.45265530610E+01  0.39760022846E+03  0.40888122954E+03  0.94442375886E+02 0.  0.
         11    1    3    3    0    0  0.25131876320E+02 -0.30873167541E+02  0.23207287162E+03  0.23546248411E+03  0.00000000000E+00 0. -1.
        -11    1    3    3    0    0 -0.37704312555E+02  0.35399720602E+02  0.16552735684E+03  0.17341874543E+03  0.00000000000E+00 0.  1.
         22    1    1    2    0    0  0.12572436234E+02 -0.45265530610E+01 -0.23338444805E+01  0.13564758219E+02  0.00000000000E+00 0.  1.
<mgrwt>
<rscale>  0 0.58354589E+02</rscale>
<asrwt>0</asrwt>
<pdfrwt beam="1">  1        1 0.62900942E-01 0.95383008E+02</pdfrwt>
<pdfrwt beam="2">  1       -1 0.20907391E-02 0.95383008E+02</pdfrwt>
<totfact> 0.33805422E+04</totfact>
</mgrwt>
</event>
<event>
 6    1  0.3062576E-002  0.9316134E+02  0.7546771E-02  0.1382492E+00
         -2   -1    0    0    0  501 -0.00000000000E+00  0.00000000000E+00  0.94931032528E+02  0.94931032528E+02  0.00000000000E+00 0.  1.
          2   -1    0    0  501    0  0.00000000000E+00 -0.00000000000E+00 -0.79057710667E+02  0.79057710667E+02  0.00000000000E+00 0. -1.
         23    2    1    2    0    0  0.19979001101E+02 -0.46305096470E+01 -0.49484927013E+02  0.10548835779E+03  0.90875923783E+02 0.  0.
         11    1    3    3    0    0  0.49992057669E+02  0.13703797186E+02 -0.10326984004E+02  0.52854957061E+02  0.00000000000E+00 0.  1.
        -11    1    3    3    0    0 -0.30013056569E+02 -0.18334306833E+02 -0.39157943010E+02  0.52633400730E+02  0.00000000000E+00 0. -1.
         22    1    1    2    0    0 -0.19979001101E+02  0.46305096470E+01  0.65358248874E+02  0.68500385404E+02  0.00000000000E+00 0.  1.
<mgrwt>
<rscale>  0 0.63813231E+02</rscale>
<asrwt>0</asrwt>
<pdfrwt beam="1">  1        2 0.12162725E-01 0.93161342E+02</pdfrwt>
<pdfrwt beam="2">  1       -2 0.14604774E-01 0.93161342E+02</pdfrwt>
<totfact> 0.16084516E+04</totfact>
</mgrwt>
</event>
<event>
 6    1  0.3062576E-002  0.9880956E+02  0.7546771E-02  0.1335064E+00
          2   -1    0    0  501    0  0.00000000000E+00  0.00000000000E+00  0.53186420482E+03  0.53186420482E+03  0.00000000000E+00 0.  1.
         -2   -1    0    0    0  501 -0.00000000000E+00 -0.00000000000E+00 -0.95123804254E+01  0.95123804254E+01  0.00000000000E+00 0. -1.
         23    2    1    2    0    0  0.11469431255E+02  0.36447300379E+02  0.43418396215E+03  0.44528535000E+03  0.91122864188E+02 0.  0.
         11    1    3    3    0    0  0.12449836566E+02 -0.16987456131E+02  0.25280119953E+02  0.32903746917E+02  0.00000000000E+00 0. -1.
        -11    1    3    3    0    0 -0.98040531127E+00  0.53434756510E+02  0.40890384220E+03  0.41238160308E+03  0.00000000000E+00 0.  1.
         22    1    1    2    0    0 -0.11469431255E+02 -0.36447300379E+02  0.88167862244E+02  0.96091235245E+02  0.00000000000E+00 0. -1.
<mgrwt>
<rscale>  0 0.77918685E+02</rscale>
<asrwt>0</asrwt>
<pdfrwt beam="1">  1        2 0.81825239E-01 0.98809564E+02</pdfrwt>
<pdfrwt beam="2">  1       -2 0.14634436E-02 0.98809564E+02</pdfrwt>
<totfact> 0.63085017E+04</totfact>
</mgrwt>
</event>
<event>
 6    1  0.3062576E-002  0.7802036E+02  0.7546771E-02  0.1448481E+00
         -2   -1    0    0    0  501 -0.00000000000E+00  0.00000000000E+00  0.60176885304E+02  0.60176885304E+02  0.00000000000E+00 0.  1.
          2   -1    0    0  501    0  0.00000000000E+00 -0.00000000000E+00 -0.36418369901E+02  0.36418369901E+02  0.00000000000E+00 0. -1.
         23    2    1    2    0    0 -0.59292367356E+00  0.12548482000E+02  0.11179004370E+02  0.78817177220E+02  0.77002346245E+02 0.  0.
         11    1    3    3    0    0  0.23397282759E+02 -0.15362507555E+02 -0.16746950194E+02  0.32617477212E+02  0.00000000000E+00 0. -1.
        -11    1    3    3    0    0 -0.23990206432E+02  0.27910989555E+02  0.27925954564E+02  0.46199700009E+02  0.00000000000E+00 0.  1.
         22    1    1    2    0    0  0.59292367356E+00 -0.12548482000E+02  0.12579511034E+02  0.17778077985E+02  0.00000000000E+00 0. -1.
<mgrwt>
<rscale>  0 0.49422516E+02</rscale>
<asrwt>0</asrwt>
<pdfrwt beam="1">  1        2 0.56028261E-02 0.78020365E+02</pdfrwt>
<pdfrwt beam="2">  1       -2 0.92579823E-02 0.78020365E+02</pdfrwt>
<totfact> 0.83648693E+04</totfact>
</mgrwt>
</event>
<event>
 6    1  0.3062576E-002  0.9220223E+02  0.7546771E-02  0.1395341E+00
         -1   -1    0    0    0  501 -0.00000000000E+00  0.00000000000E+00  0.13358215817E+03  0.13358215817E+03  0.00000000000E+00 0.  1.
          1   -1    0    0  501    0  0.00000000000E+00 -0.00000000000E+00 -0.26102372517E+02  0.26102372517E+02  0.00000000000E+00 0. -1.
         23    2    1    2    0    0  0.16902683404E+02 -0.31990584185E+01  0.62130568946E+02  0.11118209635E+03  0.90583200812E+02 0.  0.
         11    1    3    3    0    0 -0.55577311923E+01  0.11140733687E+02 -0.20708269132E+02  0.24162713704E+02  0.00000000000E+00 0. -1.
        -11    1    3    3    0    0  0.22460414596E+02 -0.14339792105E+02  0.82838838078E+02  0.87019382643E+02  0.00000000000E+00 0.  1.
         22    1    1    2    0    0 -0.16902683404E+02  0.31990584185E+01  0.45349216704E+02  0.48502434338E+02  0.00000000000E+00 0.  1.
<mgrwt>
<rscale>  0 0.60597617E+02</rscale>
<asrwt>0</asrwt>
<pdfrwt beam="1">  1        1 0.40157497E-02 0.92202229E+02</pdfrwt>
<pdfrwt beam="2">  1       -1 0.20551101E-01 0.92202229E+02</pdfrwt>
<totfact> 0.37883761E+04</totfact>
</mgrwt>
</event>
<event>
 6    1  0.3062576E-002  0.8841962E+02  0.7546771E-02  0.1386746E+00
         -2   -1    0    0    0  501 -0.00000000000E+00  0.00000000000E+00  0.46910929470E+02  0.46910929470E+02  0.00000000000E+00 0.  1.
          2   -1    0    0  501    0  0.00000000000E+00 -0.00000000000E+00 -0.88312172575E+02  0.88312172575E+02  0.00000000000E+00 0. -1.
         23    2    1    2    0    0 -0.10004750946E+02  0.20031356156E+02 -0.59379340673E+02  0.10650790984E+03  0.85537585246E+02 0.  0.
         13    1    3    3    0    0 -0.17587543117E+00 -0.27316522676E+02 -0.50395712984E+02  0.57323217202E+02  0.00000000000E+00 0. -1.
        -13    1    3    3    0    0 -0.98288755144E+01  0.47347878833E+02 -0.89836276896E+01  0.49184692642E+02  0.00000000000E+00 0.  1.
         22    1    1    2    0    0  0.10004750946E+02 -0.20031356156E+02  0.17978097568E+02  0.28715192200E+02  0.00000000000E+00 0.  1.
<mgrwt>
<rscale>  0 0.62723333E+02</rscale>
<asrwt>0</asrwt>
<pdfrwt beam="1">  1        2 0.13586488E-01 0.88419618E+02</pdfrwt>
<pdfrwt beam="2">  1       -2 0.72170661E-02 0.88419618E+02</pdfrwt>
<totfact> 0.42152643E+04</totfact>
</mgrwt>
</event>
<event>
 6    1  0.3062576E-002  0.9147522E+02  0.7546771E-02  0.1398118E+00
         -2   -1    0    0    0  501 -0.00000000000E+00  0.00000000000E+00  0.41291328184E+01  0.41291328184E+01  0.00000000000E+00 0.  1.
          2   -1    0    0  501    0  0.00000000000E+00 -0.00000000000E+00 -0.78743425967E+03  0.78743425967E+03  0.00000000000E+00 0. -1.
         23    2    1    2    0    0 -0.10300138649E+02 -0.13341317138E+02 -0.72862056287E+03  0.73434027533E+03  0.89909019232E+02 0.  0.
         13    1    3    3    0    0 -0.36965687188E+02 -0.97116977233E+01 -0.14054143252E+03  0.14564571177E+03  0.00000000000E+00 0.  1.
        -13    1    3    3    0    0  0.26665548539E+02 -0.36296194143E+01 -0.58807913035E+03  0.58869456356E+03  0.00000000000E+00 0. -1.
         22    1    1    2    0    0  0.10300138649E+02  0.13341317138E+02 -0.54684563978E+02  0.57223117153E+02  0.00000000000E+00 0. -1.
<mgrwt>
<rscale>  0 0.59931943E+02</rscale>
<asrwt>0</asrwt>
<pdfrwt beam="1">  1        2 0.12114390E+00 0.91475217E+02</pdfrwt>
<pdfrwt beam="2">  1       -2 0.63525032E-03 0.91475217E+02</pdfrwt>
<totfact> 0.12985536E+05</totfact>
</mgrwt>
</event>
<event>
 6    1  0.3062576E-002  0.9209082E+02  0.7546771E-02  0.1417699E+00
          2   -1    0    0  501    0  0.00000000000E+00  0.00000000000E+00  0.31484570660E+03  0.31484570660E+03  0.00000000000E+00 0. -1.
         -2   -1    0    0    0  501 -0.00000000000E+00 -0.00000000000E+00 -0.10145666779E+02  0.10145666779E+02  0.00000000000E+00 0.  1.
         23    2    1    2    0    0 -0.38659437044E+01 -0.11526934789E+02  0.29612386144E+03  0.31011298025E+03  0.91284738389E+02 0.  0.
         11    1    3    3    0    0 -0.24387825305E+02 -0.23143246782E+02  0.37296479230E+02  0.50213576428E+02  0.00000000000E+00 0.  1.
        -11    1    3    3    0    0  0.20521881600E+02  0.11616311993E+02  0.25882738221E+03  0.25989940383E+03  0.00000000000E+00 0. -1.
         22    1    1    2    0    0  0.38659437044E+01  0.11526934789E+02  0.85761783844E+01  0.14878393127E+02  0.00000000000E+00 0. -1.
<mgrwt>
<rscale>  0 0.55510782E+02</rscale>
<asrwt>0</asrwt>
<pdfrwt beam="1">  1        2 0.48437794E-01 0.92090820E+02</pdfrwt>
<pdfrwt beam="2">  1       -2 0.15608721E-02 0.92090820E+02</pdfrwt>
<totfact> 0.99427903E+04</totfact>
</mgrwt>
</event>
<event>
 6    1  0.3062576E-002  0.9264499E+02  0.7546771E-02  0.1406360E+00
          2   -1    0    0  501    0  0.00000000000E+00  0.00000000000E+00  0.73749595855E+01  0.73749595855E+01  0.00000000000E+00 0. -1.
         -2   -1    0    0    0  501 -0.00000000000E+00 -0.00000000000E+00 -0.38793979771E+03  0.38793979771E+03  0.00000000000E+00 0.  1.
         23    2    1    2    0    0 -0.11128338122E+02 -0.88929836631E+01 -0.33504908560E+03  0.34762189833E+03  0.91543265040E+02 0.  0.
         13    1    3    3    0    0 -0.12968594800E+02  0.19128541972E+02 -0.30721477706E+03  0.30808278889E+03  0.00000000000E+00 0.  1.
        -13    1    3    3    0    0  0.18402566782E+01 -0.28021525635E+02 -0.27834308538E+02  0.39539109441E+02  0.00000000000E+00 0. -1.
         22    1    1    2    0    0  0.11128338122E+02  0.88929836631E+01 -0.45515752527E+02  0.47692858961E+02  0.00000000000E+00 0.  1.
<mgrwt>
<rscale>  0 0.58014082E+02</rscale>
<asrwt>0</asrwt>
<pdfrwt beam="1">  1        2 0.11346090E-02 0.92644991E+02</pdfrwt>
<pdfrwt beam="2">  1       -2 0.59683057E-01 0.92644991E+02</pdfrwt>
<totfact> 0.28192830E+04</totfact>
</mgrwt>
</event>
<event>
 6    1  0.3062576E-002  0.1003181E+03  0.7546771E-02  0.1327489E+00
          2   -1    0    0  501    0  0.00000000000E+00  0.00000000000E+00  0.15433845604E+03  0.15433845604E+03  0.00000000000E+00 0.  1.
         -2   -1    0    0    0  501 -0.00000000000E+00 -0.00000000000E+00 -0.34324300684E+02  0.34324300684E+02  0.00000000000E+00 0. -1.
         23    2    1    2    0    0  0.40970810348E+02 -0.77921478249E+01  0.10252104992E+03  0.14343739210E+03  0.91238121996E+02 0.  0.
         13    1    3    3    0    0 -0.12386372548E+01 -0.79130014255E+01 -0.15853838362E+02  0.17762150901E+02  0.00000000000E+00 0. -1.
        -13    1    3    3    0    0  0.42209447603E+02  0.12085360060E+00  0.11837488829E+03  0.12567524119E+03  0.00000000000E+00 0.  1.
         22    1    1    2    0    0 -0.40970810348E+02  0.77921478249E+01  0.17493105434E+02  0.45225364632E+02  0.00000000000E+00 0. -1.
<mgrwt>
<rscale>  0 0.80553059E+02</rscale>
<asrwt>0</asrwt>
<pdfrwt beam="1">  1        2 0.23744378E-01 0.10031809E+03</pdfrwt>
<pdfrwt beam="2">  1       -2 0.52806617E-02 0.10031809E+03</pdfrwt>
<totfact> 0.36411916E+04</totfact>
</mgrwt>
</event>
<event>
 6    1  0.3062576E-002  0.9639587E+02  0.7546771E-02  0.1416498E+00
          2   -1    0    0  501    0  0.00000000000E+00  0.00000000000E+00  0.40926176058E+03  0.40926176058E+03  0.00000000000E+00 0. -1.
         -2   -1    0    0    0  501 -0.00000000000E+00 -0.00000000000E+00 -0.72048284222E+01  0.72048284222E+01  0.00000000000E+00 0.  1.
         23    2    1    2    0    0  0.50730198755E+01  0.95334796655E+01  0.37798763075E+03  0.39008564824E+03  0.95789045294E+02 0.  0.
         13    1    3    3    0    0 -0.37764681870E+02 -0.18496073978E+01  0.27997470035E+03  0.28251623862E+03  0.00000000000E+00 0. -1.
        -13    1    3    3    0    0  0.42837701745E+02  0.11383087063E+02  0.98012930396E+02  0.10756940962E+03  0.00000000000E+00 0.  1.
         22    1    1    2    0    0 -0.50730198755E+01 -0.95334796655E+01  0.24069301407E+02  0.26380940761E+02  0.00000000000E+00 0. -1.
<mgrwt>
<rscale>  0 0.55768857E+02</rscale>
<asrwt>0</asrwt>
<pdfrwt beam="1">  1        2 0.62963330E-01 0.96395871E+02</pdfrwt>
<pdfrwt beam="2">  1       -2 0.11084355E-02 0.96395871E+02</pdfrwt>
<totfact> 0.12376137E+05</totfact>
</mgrwt>
</event>
<event>
 6    1  0.3062576E-002  0.9320494E+02  0.7546771E-02  0.1406305E+00
         -2   -1    0    0    0  501 -0.00000000000E+00  0.00000000000E+00  0.14862558332E+02  0.14862558332E+02  0.00000000000E+00 0.  1.
          2   -1    0    0  501    0  0.00000000000E+00 -0.00000000000E+00 -0.25728606205E+03  0.25728606205E+03  0.00000000000E+00 0. -1.
         23    2    1    2    0    0 -0.49482664446E+01 -0.13098554838E+02 -0.24060747069E+03  0.25802929123E+03  0.92147179563E+02 0.  0.
         11    1    3    3    0    0 -0.20906252221E+02 -0.19340032669E+02 -0.23914165667E+03  0.24083155981E+03  0.00000000000E+00 0. -1.
        -11    1    3    3    0    0  0.15957985776E+02  0.62414778302E+01 -0.14658140291E+01  0.17197731429E+02  0.00000000000E+00 0.  1.
         22    1    1    2    0    0  0.49482664446E+01  0.13098554838E+02 -0.18160330248E+01  0.14119329149E+02  0.00000000000E+00 0.  1.
<mgrwt>
<rscale>  0 0.58026598E+02</rscale>
<asrwt>0</asrwt>
<pdfrwt beam="1">  1        2 0.39582475E-01 0.93204936E+02</pdfrwt>
<pdfrwt beam="2">  1       -2 0.22865472E-02 0.93204936E+02</pdfrwt>
<totfact> 0.71128057E+04</totfact>
</mgrwt>
</event>
<event>
 6    1  0.3062576E-002  0.8873187E+02  0.7546771E-02  0.1399132E+00
         -2   -1    0    0    0  501 -0.00000000000E+00  0.00000000000E+00  0.57777658960E+01  0.57777658960E+01  0.00000000000E+00 0.  1.
          2   -1    0    0  501    0  0.00000000000E+00 -0.00000000000E+00 -0.62702161347E+03  0.62702161347E+03  0.00000000000E+00 0. -1.
         23    2    1    2    0    0 -0.10511783383E+02 -0.14823281500E+02 -0.59016102445E+03  0.59679425254E+03  0.86851124477E+02 0.  0.
         11    1    3    3    0    0 -0.43066270850E+02 -0.30106676918E+02 -0.37081232021E+03  0.37451687879E+03  0.00000000000E+00 0. -1.
        -11    1    3    3    0    0  0.32554487467E+02  0.15283395418E+02 -0.21934870424E+03  0.22227737375E+03  0.00000000000E+00 0.  1.
         22    1    1    2    0    0  0.10511783383E+02  0.14823281500E+02 -0.31082823130E+02  0.36005126830E+02  0.00000000000E+00 0.  1.
<mgrwt>
<rscale>  0 0.59691343E+02</rscale>
<asrwt>0</asrwt>
<pdfrwt beam="1">  1        2 0.96464805E-01 0.88731872E+02</pdfrwt>
<pdfrwt beam="2">  1       -2 0.88888760E-03 0.88731872E+02</pdfrwt>
<totfact> 0.10512069E+05</totfact>
</mgrwt>
</event>
<event>
 6    1  0.3062576E-002  0.8644536E+02  0.7546771E-02  0.1393535E+00
          2   -1    0    0  501    0  0.00000000000E+00  0.00000000000E+00  0.21060265418E+03  0.21060265418E+03  0.00000000000E+00 0. -1.
         -2   -1    0    0    0  501 -0.00000000000E+00 -0.00000000000E+00 -0.33747052182E+02  0.33747052182E+02  0.00000000000E+00 0.  1.
         23    2    1    2    0    0 -0.56512899354E+01 -0.20727699158E+02  0.19685390106E+03  0.21499827444E+03  0.83733058353E+02 0.  0.
         13    1    3    3    0    0 -0.11832305066E+01 -0.42445418365E+02  0.46309421616E+02  0.62829739018E+02  0.00000000000E+00 0.  1.
        -13    1    3    3    0    0 -0.44680594288E+01  0.21717719208E+02  0.15054447945E+03  0.15216853543E+03  0.00000000000E+00 0. -1.
         22    1    1    2    0    0  0.56512899354E+01  0.20727699158E+02 -0.19998299062E+02  0.29351431919E+02  0.00000000000E+00 0. -1.
<mgrwt>
<rscale>  0 0.61036060E+02</rscale>
<asrwt>0</asrwt>
<pdfrwt beam="1">  1        2 0.32400407E-01 0.86445356E+02</pdfrwt>
<pdfrwt beam="2">  1       -2 0.51918543E-02 0.86445356E+02</pdfrwt>
<totfact> 0.26234068E+04</totfact>
</mgrwt>
</event>
<event>
 6    1  0.3062576E-002  0.9353928E+02  0.7546771E-02  0.1382899E+00
         -2   -1    0    0    0  501 -0.00000000000E+00  0.00000000000E+00  0.11888258793E+03  0.11888258793E+03  0.00000000000E+00 0.  1.
          2   -1    0    0  501    0  0.00000000000E+00 -0.00000000000E+00 -0.32757119399E+02  0.32757119399E+02  0.00000000000E+00 0. -1.
         23    2    1    2    0    0  0.10123196217E+02 -0.17396344098E+02  0.40807596312E+02  0.10205320279E+03  0.91348149373E+02 0.  0.
         13    1    3    3    0    0 -0.19018934567E+02 -0.34475964723E+02  0.53102005654E+02  0.66106996757E+02  0.00000000000E+00 0.  1.
        -13    1    3    3    0    0  0.29142130784E+02  0.17079620626E+02 -0.12294409342E+02  0.35946206036E+02  0.00000000000E+00 0. -1.
         22    1    1    2    0    0 -0.10123196217E+02  0.17396344098E+02  0.45317872223E+02  0.49586504540E+02  0.00000000000E+00 0.  1.
<mgrwt>
<rscale>  0 0.63707766E+02</rscale>
<asrwt>0</asrwt>
<pdfrwt beam="1">  1        2 0.50395569E-02 0.93539277E+02</pdfrwt>
<pdfrwt beam="2">  1       -2 0.18289629E-01 0.93539277E+02</pdfrwt>
<totfact> 0.33266929E+04</totfact>
</mgrwt>
</event>
<event>
 6    1  0.3062576E-002  0.9213468E+02  0.7546771E-02  0.1409328E+00
         -2   -1    0    0    0  501 -0.00000000000E+00  0.00000000000E+00  0.35642085932E+02  0.35642085932E+02  0.00000000000E+00 0. -1.
          2   -1    0    0  501    0  0.00000000000E+00 -0.00000000000E+00 -0.10932933004E+03  0.10932933004E+03  0.00000000000E+00 0.  1.
         23    2    1    2    0    0  0.12041291510E+02 -0.67937814026E+01 -0.86312653003E+02  0.12624845902E+03  0.91091443999E+02 0.  0.
         13    1    3    3    0    0 -0.20817410142E+02 -0.25751527141E+02 -0.12808157529E+01  0.33138289094E+02  0.00000000000E+00 0. -1.
        -13    1    3    3    0    0  0.32858701652E+02  0.18957745738E+02 -0.85031837250E+02  0.93110169927E+02  0.00000000000E+00 0.  1.
         22    1    1    2    0    0 -0.12041291510E+02  0.67937814026E+01  0.12625408898E+02  0.18722956947E+02  0.00000000000E+00 0. -1.
<mgrwt>
<rscale>  0 0.57344084E+02</rscale>
<asrwt>0</asrwt>
<pdfrwt beam="1">  1        2 0.16819897E-01 0.92134680E+02</pdfrwt>
<pdfrwt beam="2">  1       -2 0.54833978E-02 0.92134680E+02</pdfrwt>
<totfact> 0.50080006E+04</totfact>
</mgrwt>
</event>
<event>
 6    1  0.3062576E-002  0.9273565E+02  0.7546771E-02  0.1425855E+00
          1   -1    0    0  501    0  0.00000000000E+00  0.00000000000E+00  0.28626977463E+02  0.28626977463E+02  0.00000000000E+00 0. -1.
         -1   -1    0    0    0  501 -0.00000000000E+00 -0.00000000000E+00 -0.98862529569E+02  0.98862529569E+02  0.00000000000E+00 0.  1.
         23    2    1    2    0    0 -0.10485785832E+02  0.64646077857E+00 -0.71233728538E+02  0.11693649930E+03  0.92138651881E+02 0.  0.
         11    1    3    3    0    0  0.13424988502E+02  0.42207143017E+02 -0.28180387230E+02  0.52495785187E+02  0.00000000000E+00 0.  1.
        -11    1    3    3    0    0 -0.23910774334E+02 -0.41560682238E+02 -0.43053341308E+02  0.64440714111E+02  0.00000000000E+00 0. -1.
         22    1    1    2    0    0  0.10485785832E+02 -0.64646077857E+00  0.99817643252E+00  0.10553007734E+02  0.00000000000E+00 0. -1.
<mgrwt>
<rscale>  0 0.53801109E+02</rscale>
<asrwt>0</asrwt>
<pdfrwt beam="1">  1        1 0.44041504E-02 0.92735650E+02</pdfrwt>
<pdfrwt beam="2">  1       -1 0.15209620E-01 0.92735650E+02</pdfrwt>
<totfact> 0.53681786E+04</totfact>
</mgrwt>
</event>
<event>
 6    1  0.3062576E-002  0.9358556E+02  0.7546771E-02  0.1381717E+00
          2   -1    0    0  501    0  0.00000000000E+00  0.00000000000E+00  0.14938070179E+04  0.14938070179E+04  0.00000000000E+00 0. -1.
         -2   -1    0    0    0  501 -0.00000000000E+00 -0.00000000000E+00 -0.26599963060E+01  0.26599963060E+01  0.00000000000E+00 0.  1.
         23    2    1    2    0    0 -0.18466205516E+02 -0.88732366196E+01  0.13962901160E+04  0.13994228613E+04  0.91315505877E+02 0.  0.
         11    1    3    3    0    0 -0.45918282968E+02  0.14798008734E+02  0.48054941856E+03  0.48296502301E+03  0.00000000000E+00 0.  1.
        -11    1    3    3    0    0  0.27452077452E+02 -0.23671245353E+02  0.91574069748E+03  0.91645783833E+03  0.00000000000E+00 0. -1.
         22    1    1    2    0    0  0.18466205516E+02  0.88732366196E+01  0.94856905538E+02  0.97044152850E+02  0.00000000000E+00 0.  1.
<mgrwt>
<rscale>  0 0.64014526E+02</rscale>
<asrwt>0</asrwt>
<pdfrwt beam="1">  1        2 0.22981579E+00 0.93585558E+02</pdfrwt>
<pdfrwt beam="2">  1       -2 0.40923139E-03 0.93585558E+02</pdfrwt>
<totfact> 0.96140647E+04</totfact>
</mgrwt>
</event>
<event>
 6    1  0.3062576E-002  0.9238301E+02  0.7546771E-02  0.1418186E+00
         -4   -1    0    0    0  501 -0.00000000000E+00  0.00000000000E+00  0.94497839905E+02  0.94497839905E+02  0.00000000000E+00 0.  1.
          4   -1    0    0  501    0  0.00000000000E+00 -0.00000000000E+00 -0.35145728994E+02  0.35145728994E+02  0.00000000000E+00 0. -1.
         23    2    1    2    0    0  0.11937918326E+02 -0.59487282015E+00  0.28692024187E+02  0.96735990963E+02  0.91606505927E+02 0.  0.
         11    1    3    3    0    0  0.28132812761E+01  0.77857450796E+01 -0.32892168927E+02  0.33917947384E+02  0.00000000000E+00 0. -1.
        -11    1    3    3    0    0  0.91246370500E+01 -0.83806178998E+01  0.61584193114E+02  0.62818043580E+02  0.00000000000E+00 0.  1.
         22    1    1    2    0    0 -0.11937918326E+02  0.59487282015E+00  0.30660086724E+02  0.32907577935E+02  0.00000000000E+00 0.  1.
<mgrwt>
<rscale>  0 0.55406517E+02</rscale>
<asrwt>0</asrwt>
<pdfrwt beam="1">  1        4 0.54070353E-02 0.92383005E+02</pdfrwt>
<pdfrwt beam="2">  1       -4 0.14538129E-01 0.92383005E+02</pdfrwt>
<totfact> 0.12190637E+04</totfact>
</mgrwt>
</event>
<event>
 6    1  0.3062576E-002  0.1000269E+03  0.7546771E-02  0.1369985E+00
          1   -1    0    0  501    0  0.00000000000E+00  0.00000000000E+00  0.37003536924E+03  0.37003536924E+03  0.00000000000E+00 0. -1.
         -1   -1    0    0    0  501 -0.00000000000E+00 -0.00000000000E+00 -0.10494162585E+02  0.10494162585E+02  0.00000000000E+00 0.  1.
         23    2    1    2    0    0 -0.11565681138E+02 -0.16733577590E+02  0.32871219940E+03  0.34359438207E+03  0.97936774277E+02 0.  0.
         11    1    3    3    0    0 -0.39069515335E+01  0.30156014727E+02  0.36326298878E+02  0.47373510368E+02  0.00000000000E+00 0.  1.
        -11    1    3    3    0    0 -0.76587296050E+01 -0.46889592317E+02  0.29238590052E+03  0.29622087170E+03  0.00000000000E+00 0. -1.
         22    1    1    2    0    0  0.11565681138E+02  0.16733577590E+02  0.30829007254E+02  0.36935149755E+02  0.00000000000E+00 0.  1.
<mgrwt>
<rscale>  0 0.67171279E+02</rscale>
<asrwt>0</asrwt>
<pdfrwt beam="1">  1        1 0.56928508E-01 0.10002694E+03</pdfrwt>
<pdfrwt beam="2">  1       -1 0.16144868E-02 0.10002694E+03</pdfrwt>
<totfact> 0.55668378E+04</totfact>
</mgrwt>
</event>
<event>
 6    1  0.3062576E-002  0.1032067E+03  0.7546771E-02  0.1306301E+00
          1   -1    0    0  501    0  0.00000000000E+00  0.00000000000E+00  0.48650150691E+03  0.48650150691E+03  0.00000000000E+00 0. -1.
         -1   -1    0    0    0  501 -0.00000000000E+00 -0.00000000000E+00 -0.22670818426E+02  0.22670818426E+02  0.00000000000E+00 0.  1.
         23    2    1    2    0    0 -0.55962397767E+02  0.27797051831E+01  0.43318087378E+03  0.44530584065E+03  0.86672403824E+02 0.  0.
         11    1    3    3    0    0 -0.33689277859E+02 -0.23691557185E+02  0.37758913239E+03  0.37982865903E+03  0.00000000000E+00 0. -1.
        -11    1    3    3    0    0 -0.22273119908E+02  0.26471262368E+02  0.55591741392E+02  0.65477181619E+02  0.00000000000E+00 0.  1.
         22    1    1    2    0    0  0.55962397767E+02 -0.27797051831E+01  0.30649814706E+02  0.63866484687E+02  0.00000000000E+00 0.  1.
<mgrwt>
<rscale>  0 0.88590828E+02</rscale>
<asrwt>0</asrwt>
<pdfrwt beam="1">  1        1 0.74846378E-01 0.10320670E+03</pdfrwt>
<pdfrwt beam="2">  1       -1 0.34878186E-02 0.10320670E+03</pdfrwt>
<totfact> 0.13086431E+04</totfact>
</mgrwt>
</event>
<event>
 6    1  0.3062576E-002  0.9042945E+02  0.7546771E-02  0.1425601E+00
         -2   -1    0    0    0  501 -0.00000000000E+00  0.00000000000E+00  0.50140184521E+03  0.50140184521E+03  0.00000000000E+00 0.  1.
          2   -1    0    0  501    0  0.00000000000E+00 -0.00000000000E+00 -0.51694304997E+01  0.51694304997E+01  0.00000000000E+00 0. -1.
         23    2    1    2    0    0  0.69796218481E+01 -0.89809005331E+01  0.44380240232E+03  0.45292169142E+03  0.89711284438E+02 0.  0.
         13    1    3    3    0    0 -0.28694479258E+01 -0.45403857183E+02  0.32768173314E+03  0.33082482103E+03  0.00000000000E+00 0.  1.
        -13    1    3    3    0    0  0.98490697740E+01  0.36422956650E+02  0.11612066918E+03  0.12209687038E+03  0.00000000000E+00 0. -1.
         22    1    1    2    0    0 -0.69796218481E+01  0.89809005331E+01  0.52430012393E+02  0.53649584296E+02  0.00000000000E+00 0. -1.
<mgrwt>
<rscale>  0 0.53853303E+02</rscale>
<asrwt>0</asrwt>
<pdfrwt beam="1">  1        2 0.79529739E-03 0.90429455E+02</pdfrwt>
<pdfrwt beam="2">  1       -2 0.77138707E-01 0.90429455E+02</pdfrwt>
<totfact> 0.26708143E+04</totfact>
</mgrwt>
</event>
<event>
 6    1  0.3062576E-002  0.9256312E+02  0.7546771E-02  0.1405357E+00
         -2   -1    0    0    0  501 -0.00000000000E+00  0.00000000000E+00  0.66997374676E+02  0.66997374676E+02  0.00000000000E+00 0.  1.
          2   -1    0    0  501    0  0.00000000000E+00 -0.00000000000E+00 -0.43991713768E+02  0.43991713768E+02  0.00000000000E+00 0. -1.
         23    2    1    2    0    0 -0.87466550234E+01  0.11576949140E+02  0.26059677457E+02  0.96161521463E+02  0.91418825716E+02 0.  0.
         11    1    3    3    0    0 -0.45577572745E+02  0.23555194961E+02  0.36932947205E+01  0.51437367476E+02  0.00000000000E+00 0. -1.
        -11    1    3    3    0    0  0.36830917721E+02 -0.11978245820E+02  0.22366382737E+02  0.44724153987E+02  0.00000000000E+00 0.  1.
         22    1    1    2    0    0  0.87466550234E+01 -0.11576949140E+02 -0.30540165499E+01  0.14827566981E+02  0.00000000000E+00 0.  1.
<mgrwt>
<rscale>  0 0.58242857E+02</rscale>
<asrwt>0</asrwt>
<pdfrwt beam="1">  1        2 0.67679560E-02 0.92563121E+02</pdfrwt>
<pdfrwt beam="2">  1       -2 0.10307288E-01 0.92563121E+02</pdfrwt>
<totfact> 0.57253296E+04</totfact>
</mgrwt>
</event>
<event>
 6    1  0.3062576E-002  0.9267947E+02  0.7546771E-02  0.1427123E+00
         -1   -1    0    0    0  501 -0.00000000000E+00  0.00000000000E+00  0.27095816774E+01  0.27095816774E+01  0.00000000000E+00 0.  1.
          1   -1    0    0  501    0  0.00000000000E+00 -0.00000000000E+00 -0.10261244302E+04  0.10261244302E+04  0.00000000000E+00 0. -1.
         23    2    1    2    0    0 -0.10103112382E+02 -0.21213673314E+01 -0.97094573068E+03  0.97535895782E+03  0.92102723069E+02 0.  0.
         13    1    3    3    0    0  0.21428181824E+02 -0.38791856988E+02 -0.46377858294E+03  0.46589113442E+03  0.00000000000E+00 0. -1.
        -13    1    3    3    0    0 -0.31531294207E+02  0.36670489656E+02 -0.50716714774E+03  0.50946782340E+03  0.00000000000E+00 0.  1.
         22    1    1    2    0    0  0.10103112382E+02  0.21213673314E+01 -0.52469117848E+02  0.53475054062E+02  0.00000000000E+00 0. -1.
<mgrwt>
<rscale>  0 0.53541879E+02</rscale>
<asrwt>0</asrwt>
<pdfrwt beam="1">  1        1 0.15786553E+00 0.92679473E+02</pdfrwt>
<pdfrwt beam="2">  1       -1 0.41685809E-03 0.92679473E+02</pdfrwt>
<totfact> 0.90196203E+04</totfact>
</mgrwt>
</event>
<event>
 6    1  0.3062576E-002  0.9463428E+02  0.7546771E-02  0.1420352E+00
         -2   -1    0    0    0  501 -0.00000000000E+00  0.00000000000E+00  0.13995612985E+02  0.13995612985E+02  0.00000000000E+00 0.  1.
          2   -1    0    0  501    0  0.00000000000E+00 -0.00000000000E+00 -0.20319255670E+03  0.20319255670E+03  0.00000000000E+00 0. -1.
         23    2    1    2    0    0  0.45842699350E+01 -0.97291208043E+01 -0.17841440360E+03  0.20195877397E+03  0.94021144697E+02 0.  0.
         13    1    3    3    0    0  0.13260251203E+02  0.20383676287E+02 -0.38697307820E+01  0.24623227596E+02  0.00000000000E+00 0.  1.
        -13    1    3    3    0    0 -0.86759812678E+01 -0.30112797091E+02 -0.17454467281E+03  0.17733554637E+03  0.00000000000E+00 0. -1.
         22    1    1    2    0    0 -0.45842699350E+01  0.97291208043E+01 -0.10782540122E+02  0.15229395719E+02  0.00000000000E+00 0.  1.
<mgrwt>
<rscale>  0 0.54946442E+02</rscale>
<asrwt>0</asrwt>
<pdfrwt beam="1">  1        2 0.31260397E-01 0.94634280E+02</pdfrwt>
<pdfrwt beam="2">  1       -2 0.21531710E-02 0.94634280E+02</pdfrwt>
<totfact> 0.99796735E+04</totfact>
</mgrwt>
</event>
<event>
 6    1  0.3062576E-002  0.9490442E+02  0.7546771E-02  0.1390107E+00
          2   -1    0    0  501    0  0.00000000000E+00  0.00000000000E+00  0.20967443281E+03  0.20967443281E+03  0.00000000000E+00 0. -1.
         -2   -1    0    0    0  501 -0.00000000000E+00 -0.00000000000E+00 -0.15118643295E+02  0.15118643295E+02  0.00000000000E+00 0.  1.
         23    2    1    2    0    0 -0.47830831033E+01  0.16472788523E+02  0.17212902652E+03  0.19655851671E+03  0.93341406008E+02 0.  0.
         13    1    3    3    0    0 -0.12505863478E+02 -0.59156070915E+01 -0.72526344036E+01  0.15620234774E+02  0.00000000000E+00 0.  1.
        -13    1    3    3    0    0  0.77227803748E+01  0.22388395615E+02  0.17938166093E+03  0.18093828194E+03  0.00000000000E+00 0. -1.
         22    1    1    2    0    0  0.47830831033E+01 -0.16472788523E+02  0.22426762996E+02  0.28234559394E+02  0.00000000000E+00 0.  1.
<mgrwt>
<rscale>  0 0.61880072E+02</rscale>
<asrwt>0</asrwt>
<pdfrwt beam="1">  1        2 0.32257603E-01 0.94904419E+02</pdfrwt>
<pdfrwt beam="2">  1       -2 0.23259453E-02 0.94904419E+02</pdfrwt>
<totfact> 0.86379692E+04</totfact>
</mgrwt>
</event>
<event>
 6    1  0.3062576E-002  0.1072941E+03  0.7546771E-02  0.1299454E+00
          1   -1    0    0  501    0  0.00000000000E+00  0.00000000000E+00  0.18492039422E+03  0.18492039422E+03  0.00000000000E+00 0. -1.
         -1   -1    0    0    0  501 -0.00000000000E+00 -0.00000000000E+00 -0.48156210826E+02  0.48156210826E+02  0.00000000000E+00 0.  1.
         23    2    1    2    0    0 -0.26977820961E+02  0.49694675891E+02  0.28626363877E+02  0.11104729854E+03  0.91184813259E+02 0.  0.
         11    1    3    3    0    0  0.32158627301E+02  0.25079140442E+02  0.22813778629E+02  0.46729103250E+02  0.00000000000E+00 0. -1.
        -11    1    3    3    0    0 -0.59136448262E+02  0.24615535449E+02  0.58125852481E+01  0.64318195293E+02  0.00000000000E+00 0.  1.
         22    1    1    2    0    0  0.26977820961E+02 -0.49694675891E+02  0.10813781952E+03  0.12202930651E+03  0.00000000000E+00 0. -1.
<mgrwt>
<rscale>  0 0.91417855E+02</rscale>
<asrwt>0</asrwt>
<pdfrwt beam="1">  1        1 0.28449291E-01 0.10729415E+03</pdfrwt>
<pdfrwt beam="2">  1       -1 0.74086479E-02 0.10729415E+03</pdfrwt>
<totfact> 0.14367513E+04</totfact>
</mgrwt>
</event>
<event>
 6    1  0.3062576E-002  0.1042204E+03  0.7546771E-02  0.1305740E+00
         -4   -1    0    0    0  501 -0.00000000000E+00  0.00000000000E+00  0.56205392014E+02  0.56205392014E+02  0.00000000000E+00 0.  1.
          4   -1    0    0  501    0  0.00000000000E+00 -0.00000000000E+00 -0.12429861696E+03  0.12429861696E+03  0.00000000000E+00 0. -1.
         23    2    1    2    0    0 -0.49877116122E+02 -0.23111778643E+02 -0.69920364101E+02  0.12550201390E+03  0.88543871343E+02 0.  0.
         11    1    3    3    0    0 -0.75611009224E+02 -0.13955309859E+02 -0.52612426284E+02  0.93165673875E+02  0.00000000000E+00 0. -1.
        -11    1    3    3    0    0  0.25733893102E+02 -0.91564687832E+01 -0.17307937817E+02  0.32336340025E+02  0.00000000000E+00 0.  1.
         22    1    1    2    0    0  0.49877116122E+02  0.23111778643E+02  0.18271391550E+01  0.55001995074E+02  0.00000000000E+00 0.  1.
<mgrwt>
<rscale>  0 0.88817658E+02</rscale>
<asrwt>0</asrwt>
<pdfrwt beam="1">  1        4 0.19122864E-01 0.10422043E+03</pdfrwt>
<pdfrwt beam="2">  1       -4 0.86469833E-02 0.10422043E+03</pdfrwt>
<totfact> 0.36326071E+03</totfact>
</mgrwt>
</event>
<event>
 6    1  0.3062576E-002  0.9424728E+02  0.7546771E-02  0.1369210E+00
         -2   -1    0    0    0  501 -0.00000000000E+00  0.00000000000E+00  0.99391610867E+01  0.99391610867E+01  0.00000000000E+00 0.  1.
          2   -1    0    0  501    0  0.00000000000E+00 -0.00000000000E+00 -0.58723416908E+03  0.58723416908E+03  0.00000000000E+00 0. -1.
         23    2    1    2    0    0  0.18228404460E+02 -0.16567289630E+02 -0.55794658219E+03  0.56585063239E+03  0.90971422920E+02 0.  0.
         13    1    3    3    0    0 -0.31493715035E+02  0.71856749288E+01 -0.11370714396E+03  0.11820660979E+03  0.00000000000E+00 0.  1.
        -13    1    3    3    0    0  0.49722119495E+02 -0.23752964559E+02 -0.44423943823E+03  0.44764402260E+03  0.00000000000E+00 0. -1.
         22    1    1    2    0    0 -0.18228404460E+02  0.16567289630E+02 -0.19348425810E+02  0.31322697779E+02  0.00000000000E+00 0.  1.
<mgrwt>
<rscale>  0 0.67387264E+02</rscale>
<asrwt>0</asrwt>
<pdfrwt beam="1">  1        2 0.90343736E-01 0.94247279E+02</pdfrwt>
<pdfrwt beam="2">  1       -2 0.15291014E-02 0.94247279E+02</pdfrwt>
<totfact> 0.52799449E+04</totfact>
</mgrwt>
</event>
<event>
 6    1  0.3062576E-002  0.9302736E+02  0.7546771E-02  0.1393809E+00
         -2   -1    0    0    0  501 -0.00000000000E+00  0.00000000000E+00  0.40385876512E+02  0.40385876512E+02  0.00000000000E+00 0.  1.
          2   -1    0    0  501    0  0.00000000000E+00 -0.00000000000E+00 -0.88008437414E+02  0.88008437414E+02  0.00000000000E+00 0. -1.
         23    2    1    2    0    0 -0.12652201335E+02  0.11597858050E+02 -0.56733651800E+02  0.10896236890E+03  0.91430312702E+02 0.  0.
         11    1    3    3    0    0 -0.22809481468E+02 -0.18683191204E+02  0.13029815064E+02  0.32235231642E+02  0.00000000000E+00 0.  1.
        -11    1    3    3    0    0  0.10157280133E+02  0.30281049254E+02 -0.69763466864E+02  0.76727137263E+02  0.00000000000E+00 0. -1.
         22    1    1    2    0    0  0.12652201335E+02 -0.11597858050E+02  0.91110908986E+01  0.19431945022E+02  0.00000000000E+00 0.  1.
<mgrwt>
<rscale>  0 0.60969132E+02</rscale>
<asrwt>0</asrwt>
<pdfrwt beam="1">  1        2 0.13539759E-01 0.93027365E+02</pdfrwt>
<pdfrwt beam="2">  1       -2 0.62132119E-02 0.93027365E+02</pdfrwt>
<totfact> 0.53436276E+04</totfact>
</mgrwt>
</event>
<event>
 6    1  0.3062576E-002  0.9534852E+02  0.7546771E-02  0.1378754E+00
         -2   -1    0    0    0  501 -0.00000000000E+00  0.00000000000E+00  0.75254438094E+01  0.75254438094E+01  0.00000000000E+00 0. -1.
          2   -1    0    0  501    0  0.00000000000E+00 -0.00000000000E+00 -0.85729730160E+03  0.85729730160E+03  0.00000000000E+00 0.  1.
         23    2    1    2    0    0  0.35171386743E+01 -0.20024442654E+02 -0.83307659100E+03  0.83851532248E+03  0.93155735130E+02 0.  0.
         13    1    3    3    0    0 -0.16277367920E+02 -0.41374845557E+02 -0.20508537193E+03  0.20984956595E+03  0.00000000000E+00 0. -1.
        -13    1    3    3    0    0  0.19794506595E+02  0.21350402903E+02 -0.62799121907E+03  0.62866575652E+03  0.00000000000E+00 0.  1.
         22    1    1    2    0    0 -0.35171386743E+01  0.20024442654E+02 -0.16695266786E+02  0.26307422928E+02  0.00000000000E+00 0.  1.
<mgrwt>
<rscale>  0 0.64792541E+02</rscale>
<asrwt>0</asrwt>
<pdfrwt beam="1">  1        2 0.13189191E+00 0.95348516E+02</pdfrwt>
<pdfrwt beam="2">  1       -2 0.11577605E-02 0.95348516E+02</pdfrwt>
<totfact> 0.50320466E+04</totfact>
</mgrwt>
</event>
<event>
 6    1  0.3062576E-002  0.9387900E+02  0.7546771E-02  0.1393751E+00
         -2   -1    0    0    0  501 -0.00000000000E+00  0.00000000000E+00  0.63294856748E+03  0.63294856748E+03  0.00000000000E+00 0.  1.
          2   -1    0    0  501    0  0.00000000000E+00 -0.00000000000E+00 -0.49798161463E+01  0.49798161463E+01  0.00000000000E+00 0. -1.
         23    2    1    2    0    0 -0.10257417118E+02  0.13199203033E+02  0.56655471333E+03  0.57427999299E+03  0.92378750727E+02 0.  0.
         13    1    3    3    0    0 -0.27584013493E+01 -0.12505087724E+02  0.80327687553E+01  0.15116592568E+02  0.00000000000E+00 0. -1.
        -13    1    3    3    0    0 -0.74990157689E+01  0.25704290756E+02  0.55852194457E+03  0.55916340042E+03  0.00000000000E+00 0.  1.
         22    1    1    2    0    0  0.10257417118E+02 -0.13199203033E+02  0.61414038002E+02  0.63648390635E+02  0.00000000000E+00 0.  1.
<mgrwt>
<rscale>  0 0.60983335E+02</rscale>
<asrwt>0</asrwt>
<pdfrwt beam="1">  1        2 0.76612606E-03 0.93879003E+02</pdfrwt>
<pdfrwt beam="2">  1       -2 0.97376639E-01 0.93879003E+02</pdfrwt>
<totfact> 0.16889874E+04</totfact>
</mgrwt>
</event>
<event>
 6    1  0.3062576E-002  0.8980475E+02  0.7546771E-02  0.1407052E+00
          2   -1    0    0  501    0  0.00000000000E+00  0.00000000000E+00  0.46779977018E+02  0.46779977018E+02  0.00000000000E+00 0. -1.
         -2   -1    0    0    0  501 -0.00000000000E+00 -0.00000000000E+00 -0.64144865410E+02  0.64144865410E+02  0.00000000000E+00 0.  1.
         23    2    1    2    0    0  0.10933742287E+02  0.10945744013E+02 -0.30646509276E+01  0.89857027545E+02  0.88462066907E+02 0.  0.
         13    1    3    3    0    0  0.94659561337E+01 -0.40753819204E+01  0.41523723250E+02  0.42783555905E+02  0.00000000000E+00 0. -1.
        -13    1    3    3    0    0  0.14677861533E+01  0.15021125934E+02 -0.44588374177E+02  0.47073471640E+02  0.00000000000E+00 0.  1.
         22    1    1    2    0    0 -0.10933742287E+02 -0.10945744013E+02 -0.14300237465E+02  0.21067814883E+02  0.00000000000E+00 0. -1.
<mgrwt>
<rscale>  0 0.57856883E+02</rscale>
<asrwt>0</asrwt>
<pdfrwt beam="1">  1        2 0.71969196E-02 0.89804751E+02</pdfrwt>
<pdfrwt beam="2">  1       -2 0.98684408E-02 0.89804751E+02</pdfrwt>
<totfact> 0.56466010E+04</totfact>
</mgrwt>
</event>
<event>
 6    1  0.3062576E-002  0.9651122E+02  0.7546771E-02  0.1361059E+00
          2   -1    0    0  501    0  0.00000000000E+00  0.00000000000E+00  0.70276006748E+03  0.70276006748E+03  0.00000000000E+00 0. -1.
         -2   -1    0    0    0  501 -0.00000000000E+00 -0.00000000000E+00 -0.55023198807E+01  0.55023198807E+01  0.00000000000E+00 0.  1.
         23    2    1    2    0    0 -0.20954670160E+02  0.15859087835E+02  0.58939822963E+03  0.59724759337E+03  0.92864448664E+02 0.  0.
         11    1    3    3    0    0 -0.18894267877E+02 -0.37117350230E+02  0.31836247148E+03  0.32107530938E+03  0.00000000000E+00 0. -1.
        -11    1    3    3    0    0 -0.20604022825E+01  0.52976438065E+02  0.27103575814E+03  0.27617228398E+03  0.00000000000E+00 0.  1.
         22    1    1    2    0    0  0.20954670160E+02 -0.15859087835E+02  0.10785951797E+03  0.11101479400E+03  0.00000000000E+00 0.  1.
<mgrwt>
<rscale>  0 0.69716786E+02</rscale>
<asrwt>0</asrwt>
<pdfrwt beam="1">  1        2 0.10811686E+00 0.96511215E+02</pdfrwt>
<pdfrwt beam="2">  1       -2 0.84651131E-03 0.96511215E+02</pdfrwt>
<totfact> 0.99950932E+04</totfact>
</mgrwt>
</event>
<event>
 6    1  0.3062576E-002  0.9338518E+02  0.7546771E-02  0.1398341E+00
         -2   -1    0    0    0  501 -0.00000000000E+00  0.00000000000E+00  0.69242312592E+01  0.69242312592E+01  0.00000000000E+00 0.  1.
          2   -1    0    0  501    0  0.00000000000E+00 -0.00000000000E+00 -0.43050751130E+03  0.43050751130E+03  0.00000000000E+00 0. -1.
         23    2    1    2    0    0  0.15105737418E+02  0.45822915302E+01 -0.35895971887E+03  0.37090817262E+03  0.92041360533E+02 0.  0.
         13    1    3    3    0    0  0.30783390372E+02  0.42397667311E+02 -0.19521332393E+03  0.20212229258E+03  0.00000000000E+00 0.  1.
        -13    1    3    3    0    0 -0.15677652953E+02 -0.37815375781E+02 -0.16374639494E+03  0.16878588005E+03  0.00000000000E+00 0. -1.
         22    1    1    2    0    0 -0.15105737418E+02 -0.45822915302E+01 -0.64623561168E+02  0.66523569933E+02  0.00000000000E+00 0. -1.
<mgrwt>
<rscale>  0 0.59878758E+02</rscale>
<asrwt>0</asrwt>
<pdfrwt beam="1">  1        2 0.66231950E-01 0.93385185E+02</pdfrwt>
<pdfrwt beam="2">  1       -2 0.10652659E-02 0.93385185E+02</pdfrwt>
<totfact> 0.12351836E+05</totfact>
</mgrwt>
</event>
<event>
 6    1  0.3062576E-002  0.9017285E+02  0.7546771E-02  0.1418740E+00
         -2   -1    0    0    0  501 -0.00000000000E+00  0.00000000000E+00  0.10169970281E+02  0.10169970281E+02  0.00000000000E+00 0.  1.
          2   -1    0    0  501    0  0.00000000000E+00 -0.00000000000E+00 -0.61345065409E+03  0.61345065409E+03  0.00000000000E+00 0. -1.
         23    2    1    2    0    0  0.12551559472E+02 -0.22072513138E+01 -0.60415426549E+03  0.61084655890E+03  0.89267734403E+02 0.  0.
         11    1    3    3    0    0 -0.71232576910E+01 -0.14819536219E+02 -0.56506263899E+03  0.56530181801E+03  0.00000000000E+00 0. -1.
        -11    1    3    3    0    0  0.19674817163E+02  0.12612284906E+02 -0.39091626499E+02  0.45544740896E+02  0.00000000000E+00 0.  1.
         22    1    1    2    0    0 -0.12551559472E+02  0.22072513138E+01  0.87358168818E+00  0.12774065465E+02  0.00000000000E+00 0.  1.
<mgrwt>
<rscale>  0 0.55288477E+02</rscale>
<asrwt>0</asrwt>
<pdfrwt beam="1">  1        2 0.94377057E-01 0.90172845E+02</pdfrwt>
<pdfrwt beam="2">  1       -2 0.15646103E-02 0.90172845E+02</pdfrwt>
<totfact> 0.48398139E+04</totfact>
</mgrwt>
</event>
<event>
 6    1  0.3062576E-002  0.9356418E+02  0.7546771E-02  0.1408414E+00
          2   -1    0    0  501    0  0.00000000000E+00  0.00000000000E+00  0.64215218150E+03  0.64215218150E+03  0.00000000000E+00 0. -1.
         -2   -1    0    0    0  501 -0.00000000000E+00 -0.00000000000E+00 -0.52414953330E+01  0.52414953330E+01  0.00000000000E+00 0.  1.
         23    2    1    2    0    0 -0.14025559292E+00  0.13390758798E+02  0.61200712341E+03  0.61911790044E+03  0.92600882521E+02 0.  0.
         13    1    3    3    0    0  0.18888153732E+02  0.16148953180E+02  0.58723009059E+03  0.58775567231E+03  0.00000000000E+00 0. -1.
        -13    1    3    3    0    0 -0.19028409324E+02 -0.27581943824E+01  0.24777032826E+02  0.31362228131E+02  0.00000000000E+00 0.  1.
         22    1    1    2    0    0  0.14025559292E+00 -0.13390758798E+02  0.24903562754E+02  0.28275776394E+02  0.00000000000E+00 0.  1.
<mgrwt>
<rscale>  0 0.57549222E+02</rscale>
<asrwt>0</asrwt>
<pdfrwt beam="1">  1        2 0.98792581E-01 0.93564179E+02</pdfrwt>
<pdfrwt beam="2">  1       -2 0.80638441E-03 0.93564179E+02</pdfrwt>
<totfact> 0.11829155E+05</totfact>
</mgrwt>
</event>
<event>
 6    1  0.3062576E-002  0.9324038E+02  0.7546771E-02  0.1407315E+00
         -2   -1    0    0    0  501 -0.00000000000E+00  0.00000000000E+00  0.65781406977E+02  0.65781406977E+02  0.00000000000E+00 0.  1.
          2   -1    0    0  501    0  0.00000000000E+00 -0.00000000000E+00 -0.49764781627E+02  0.49764781627E+02  0.00000000000E+00 0. -1.
         23    2    1    2    0    0 -0.34072428011E+00 -0.13762008809E+02 -0.15187197086E+01  0.93252752221E+02  0.92218546441E+02 0.  0.
         11    1    3    3    0    0  0.42981488575E+02  0.67130199659E+01  0.84350957493E+01  0.44312795415E+02  0.00000000000E+00 0. -1.
        -11    1    3    3    0    0 -0.43322212855E+02 -0.20475028774E+02 -0.99538154579E+01  0.48939956806E+02  0.00000000000E+00 0.  1.
         22    1    1    2    0    0  0.34072428011E+00  0.13762008809E+02  0.17535345059E+02  0.22293436384E+02  0.00000000000E+00 0. -1.
<mgrwt>
<rscale>  0 0.57797196E+02</rscale>
<asrwt>0</asrwt>
<pdfrwt beam="1">  1        2 0.76561203E-02 0.93240384E+02</pdfrwt>
<pdfrwt beam="2">  1       -2 0.10120216E-01 0.93240384E+02</pdfrwt>
<totfact> 0.50528809E+04</totfact>
</mgrwt>
</event>
<event>
 6    1  0.3062576E-002  0.2197322E+03  0.7546771E-02  0.1137967E+00
         -2   -1    0    0    0  501 -0.00000000000E+00  0.00000000000E+00  0.76410057892E+02  0.76410057892E+02  0.00000000000E+00 0.  1.
          2   -1    0    0  501    0  0.00000000000E+00 -0.00000000000E+00 -0.81000631265E+03  0.81000631265E+03  0.00000000000E+00 0. -1.
         23    2    1    2    0    0 -0.49703444652E+02  0.19366855674E+03 -0.14120383063E+03  0.26119103001E+03  0.91127877696E+02 0.  0.
         11    1    3    3    0    0 -0.52588572379E+02  0.77655468048E+02 -0.25218448960E+02  0.97117968629E+02  0.00000000000E+00 0. -1.
        -11    1    3    3    0    0  0.28851277275E+01  0.11601308869E+03 -0.11598538167E+03  0.16407306138E+03  0.00000000000E+00 0.  1.
         22    1    1    2    0    0  0.49703444652E+02 -0.19366855674E+03 -0.59239242412E+03  0.62522534052E+03  0.00000000000E+00 0. -1.
<mgrwt>
<rscale>  0 0.21460894E+03</rscale>
<asrwt>0</asrwt>
<pdfrwt beam="1">  1        2 0.12461636E+00 0.21973218E+03</pdfrwt>
<pdfrwt beam="2">  1       -2 0.11755393E-01 0.21973218E+03</pdfrwt>
<totfact> 0.17803123E+03</totfact>
</mgrwt>
</event>
<event>
 6    1  0.3062576E-002  0.9728575E+02  0.7546771E-02  0.1418987E+00
         -2   -1    0    0    0  501 -0.00000000000E+00  0.00000000000E+00  0.43524093214E+01  0.43524093214E+01  0.00000000000E+00 0.  1.
          2   -1    0    0  501    0  0.00000000000E+00 -0.00000000000E+00 -0.85723036647E+03  0.85723036647E+03  0.00000000000E+00 0. -1.
         23    2    1    2    0    0 -0.36731125027E+01  0.94188146405E+01 -0.83779831354E+03  0.84342784599E+03  0.96759037817E+02 0.  0.
         11    1    3    3    0    0  0.19240494310E+02 -0.38948741136E+02 -0.34148265682E+03  0.34423481225E+03  0.00000000000E+00 0. -1.
        -11    1    3    3    0    0 -0.22913606812E+02  0.48367555776E+02 -0.49631565672E+03  0.49919303374E+03  0.00000000000E+00 0.  1.
         22    1    1    2    0    0  0.36731125027E+01 -0.94188146405E+01 -0.15079643613E+02  0.18154929803E+02  0.00000000000E+00 0.  1.
<mgrwt>
<rscale>  0 0.55235893E+02</rscale>
<asrwt>0</asrwt>
<pdfrwt beam="1">  1        2 0.13188152E+00 0.97285750E+02</pdfrwt>
<pdfrwt beam="2">  1       -2 0.66960182E-03 0.97285750E+02</pdfrwt>
<totfact> 0.10947841E+05</totfact>
</mgrwt>
</event>
<event>
 6    1  0.3062576E-002  0.1038861E+03  0.7546771E-02  0.1404043E+00
          1   -1    0    0  501    0  0.00000000000E+00  0.00000000000E+00  0.10733697478E+03  0.10733697478E+03  0.00000000000E+00 0. -1.
         -1   -1    0    0    0  501 -0.00000000000E+00 -0.00000000000E+00 -0.38115765592E+02  0.38115765592E+02  0.00000000000E+00 0.  1.
         23    2    1    2    0    0 -0.10476736184E+02 -0.15011728922E+00  0.79469301238E+02  0.13079641318E+03  0.10335640921E+03 0.  0.
         13    1    3    3    0    0  0.40311033433E+01 -0.48183508339E+02  0.59800593816E+02  0.76902609129E+02  0.00000000000E+00 0. -1.
        -13    1    3    3    0    0 -0.14507839527E+02  0.48033391050E+02  0.19668707422E+02  0.53893804052E+02  0.00000000000E+00 0.  1.
         22    1    1    2    0    0  0.10476736184E+02  0.15011728922E+00 -0.10248092046E+02  0.14656327195E+02  0.00000000000E+00 0.  1.
<mgrwt>
<rscale>  0 0.58544470E+02</rscale>
<asrwt>0</asrwt>
<pdfrwt beam="1">  1        1 0.16513381E-01 0.10388615E+03</pdfrwt>
<pdfrwt beam="2">  1       -1 0.58639640E-02 0.10388615E+03</pdfrwt>
<totfact> 0.40120463E+04</totfact>
</mgrwt>
</event>
<event>
 6    1  0.3062576E-002  0.9344531E+02  0.7546771E-02  0.1418748E+00
         -2   -1    0    0    0  501 -0.00000000000E+00  0.00000000000E+00  0.39783128581E+01  0.39783128581E+01  0.00000000000E+00 0.  1.
          2   -1    0    0  501    0  0.00000000000E+00 -0.00000000000E+00 -0.69293738894E+03  0.69293738894E+03  0.00000000000E+00 0. -1.
         23    2    1    2    0    0 -0.11249531741E+02  0.21341838813E+01 -0.62329043574E+03  0.63025629114E+03  0.92741137197E+02 0.  0.
         13    1    3    3    0    0  0.21897418653E+01  0.16597497870E+02 -0.59770237372E+03  0.59793678551E+03  0.00000000000E+00 0. -1.
        -13    1    3    3    0    0 -0.13439273606E+02 -0.14463313989E+02 -0.25588062016E+02  0.32319505632E+02  0.00000000000E+00 0.  1.
         22    1    1    2    0    0  0.11249531741E+02 -0.21341838813E+01 -0.65668640339E+02  0.66659410657E+02  0.00000000000E+00 0.  1.
<mgrwt>
<rscale>  0 0.55286772E+02</rscale>
<asrwt>0</asrwt>
<pdfrwt beam="1">  1        2 0.10660579E+00 0.93445306E+02</pdfrwt>
<pdfrwt beam="2">  1       -2 0.61204789E-03 0.93445306E+02</pdfrwt>
<totfact> 0.15977723E+05</totfact>
</mgrwt>
</event>
<event>
 6    1  0.3062576E-002  0.9255626E+02  0.7546771E-02  0.1384804E+00
         -2   -1    0    0    0  501 -0.00000000000E+00  0.00000000000E+00  0.41529361551E+03  0.41529361551E+03  0.00000000000E+00 0.  1.
          2   -1    0    0  501    0  0.00000000000E+00 -0.00000000000E+00 -0.15563030626E+02  0.15563030626E+02  0.00000000000E+00 0. -1.
         23    2    1    2    0    0 -0.16789139469E+01  0.20073434488E+02  0.40014388238E+03  0.41070888350E+03  0.90337693437E+02 0.  0.
         13    1    3    3    0    0 -0.20728117867E+02 -0.29513288856E+02  0.11056951922E+03  0.11630265547E+03  0.00000000000E+00 0. -1.
        -13    1    3    3    0    0  0.19049203920E+02  0.49586723344E+02  0.28957436316E+03  0.29440622803E+03  0.00000000000E+00 0.  1.
         22    1    1    2    0    0  0.16789139469E+01 -0.20073434488E+02 -0.41329750142E+00  0.20147762630E+02  0.00000000000E+00 0. -1.
<mgrwt>
<rscale>  0 0.63217627E+02</rscale>
<asrwt>0</asrwt>
<pdfrwt beam="1">  1        2 0.23943127E-02 0.92556255E+02</pdfrwt>
<pdfrwt beam="2">  1       -2 0.63891317E-01 0.92556255E+02</pdfrwt>
<totfact> 0.89058119E+03</totfact>
</mgrwt>
</event>
<event>
 6    1  0.3062576E-002  0.9544157E+02  0.7546771E-02  0.1366589E+00
         -2   -1    0    0    0  501 -0.00000000000E+00  0.00000000000E+00  0.26874007972E+01  0.26874007972E+01  0.00000000000E+00 0.  1.
          2   -1    0    0  501    0  0.00000000000E+00 -0.00000000000E+00 -0.16468697448E+04  0.16468697448E+04  0.00000000000E+00 0. -1.
         23    2    1    2    0    0 -0.23780494387E+02  0.69477309336E+01 -0.15160757058E+04  0.15190769033E+04  0.92170003493E+02 0.  0.
         13    1    3    3    0    0  0.15471020070E+02  0.78375838910E+01 -0.12499818978E+04  0.12501022058E+04  0.00000000000E+00 0. -1.
        -13    1    3    3    0    0 -0.39251514457E+02 -0.88985295745E+00 -0.26609380803E+03  0.26897469751E+03  0.00000000000E+00 0.  1.
         22    1    1    2    0    0  0.23780494387E+02 -0.69477309336E+01 -0.12810663823E+03  0.13048024232E+03  0.00000000000E+00 0.  1.
<mgrwt>
<rscale>  0 0.68124764E+02</rscale>
<asrwt>0</asrwt>
<pdfrwt beam="1">  1        2 0.25336527E+00 0.95441565E+02</pdfrwt>
<pdfrwt beam="2">  1       -2 0.41344515E-03 0.95441565E+02</pdfrwt>
<totfact> 0.79396156E+04</totfact>
</mgrwt>
</event>
<event>
 6    1  0.3062576E-002  0.7556395E+02  0.7546771E-02  0.1444502E+00
          2   -1    0    0  501    0  0.00000000000E+00  0.00000000000E+00  0.61460708477E+03  0.61460708477E+03  0.00000000000E+00 0. -1.
         -2   -1    0    0    0  501 -0.00000000000E+00 -0.00000000000E+00 -0.10607475194E+02  0.10607475194E+02  0.00000000000E+00 0.  1.
         23    2    1    2    0    0 -0.10854533901E+02  0.98645222559E+01  0.60574845619E+03  0.61044336604E+03  0.74126791764E+02 0.  0.
         11    1    3    3    0    0  0.28787958024E+01  0.41206543322E+02  0.34092756122E+03  0.34342083320E+03  0.00000000000E+00 0. -1.
        -11    1    3    3    0    0 -0.13733329703E+02 -0.31342021066E+02  0.26482089497E+03  0.26702253284E+03  0.00000000000E+00 0.  1.
         22    1    1    2    0    0  0.10854533901E+02 -0.98645222559E+01 -0.17488466130E+01  0.14771193927E+02  0.00000000000E+00 0.  1.
<mgrwt>
<rscale>  0 0.50156076E+02</rscale>
<asrwt>0</asrwt>
<pdfrwt beam="1">  1        2 0.94554909E-01 0.75563953E+02</pdfrwt>
<pdfrwt beam="2">  1       -2 0.16319197E-02 0.75563953E+02</pdfrwt>
<totfact> 0.44503110E+04</totfact>
</mgrwt>
</event>
<event>
 6    1  0.3062576E-002  0.9513754E+02  0.7546771E-02  0.1377701E+00
         -2   -1    0    0    0  501 -0.00000000000E+00  0.00000000000E+00  0.33462012905E+01  0.33462012905E+01  0.00000000000E+00 0.  1.
          2   -1    0    0  501    0  0.00000000000E+00 -0.00000000000E+00 -0.10460280255E+04  0.10460280255E+04  0.00000000000E+00 0. -1.
         23    2    1    2    0    0  0.11534433320E+02  0.17335143212E+02 -0.92346732203E+03  0.92835502223E+03  0.92831040627E+02 0.  0.
         13    1    3    3    0    0  0.21601881860E+02  0.30987130809E+02 -0.89030778230E+03  0.89110874241E+03  0.00000000000E+00 0. -1.
        -13    1    3    3    0    0 -0.10067448540E+02 -0.13651987597E+02 -0.33159539728E+02  0.37246279820E+02  0.00000000000E+00 0.  1.
         22    1    1    2    0    0 -0.11534433320E+02 -0.17335143212E+02 -0.11921450221E+03  0.12101920459E+03  0.00000000000E+00 0. -1.
<mgrwt>
<rscale>  0 0.65071961E+02</rscale>
<asrwt>0</asrwt>
<pdfrwt beam="1">  1        2 0.16092752E+00 0.95137545E+02</pdfrwt>
<pdfrwt beam="2">  1       -2 0.51479978E-03 0.95137545E+02</pdfrwt>
<totfact> 0.12150520E+05</totfact>
</mgrwt>
</event>
<event>
 6    1  0.3062576E-002  0.1000856E+03  0.7546771E-02  0.1329944E+00
         -2   -1    0    0    0  501 -0.00000000000E+00  0.00000000000E+00  0.63300751229E+02  0.63300751229E+02  0.00000000000E+00 0.  1.
          2   -1    0    0  501    0  0.00000000000E+00 -0.00000000000E+00 -0.77886113383E+02  0.77886113383E+02  0.00000000000E+00 0. -1.
         23    2    1    2    0    0  0.18139904138E+02 -0.35894638061E+02 -0.76738437054E+01  0.10037938673E+03  0.91649616692E+02 0.  0.
         11    1    3    3    0    0  0.12469800139E+02 -0.57686422619E+02 -0.32078827576E+02  0.67173435588E+02  0.00000000000E+00 0. -1.
        -11    1    3    3    0    0  0.56701039993E+01  0.21791784558E+02  0.24404983871E+02  0.33205951143E+02  0.00000000000E+00 0.  1.
         22    1    1    2    0    0 -0.18139904138E+02  0.35894638061E+02 -0.69115184483E+01  0.40807477880E+02  0.00000000000E+00 0. -1.
<mgrwt>
<rscale>  0 0.79686307E+02</rscale>
<asrwt>0</asrwt>
<pdfrwt beam="1">  1        2 0.11982479E-01 0.10008563E+03</pdfrwt>
<pdfrwt beam="2">  1       -2 0.97385771E-02 0.10008563E+03</pdfrwt>
<totfact> 0.31354461E+04</totfact>
</mgrwt>
</event>
<event>
 6    1  0.3062576E-002  0.9143636E+02  0.7546771E-02  0.1429933E+00
          4   -1    0    0  501    0  0.00000000000E+00  0.00000000000E+00  0.37688306890E+03  0.37688306890E+03  0.00000000000E+00 0.  1.
         -4   -1    0    0    0  501 -0.00000000000E+00 -0.00000000000E+00 -0.80222334338E+01  0.80222334338E+01  0.00000000000E+00 0. -1.
         23    2    1    2    0    0 -0.14762476048E+00  0.10299904407E+02  0.35963541990E+03  0.37107713846E+03  0.90854265800E+02 0.  0.
         11    1    3    3    0    0 -0.12400877006E+02  0.33267258808E+01  0.18009509626E+01  0.12965040686E+02  0.00000000000E+00 0. -1.
        -11    1    3    3    0    0  0.12253252246E+02  0.69731785258E+01  0.35783446894E+03  0.35811209777E+03  0.00000000000E+00 0.  1.
         22    1    1    2    0    0  0.14762476048E+00 -0.10299904407E+02  0.92254155643E+01  0.13828163876E+02  0.00000000000E+00 0.  1.
<mgrwt>
<rscale>  0 0.52973496E+02</rscale>
<asrwt>0</asrwt>
<pdfrwt beam="1">  1        4 0.57981997E-01 0.91436357E+02</pdfrwt>
<pdfrwt beam="2">  1       -4 0.12341901E-02 0.91436357E+02</pdfrwt>
<totfact> 0.89005397E+03</totfact>
</mgrwt>
</event>
<event>
 6    1  0.3062576E-002  0.1098011E+03  0.7546771E-02  0.1365288E+00
         -2   -1    0    0    0  501 -0.00000000000E+00  0.00000000000E+00  0.11190359956E+02  0.11190359956E+02  0.00000000000E+00 0.  1.
          2   -1    0    0  501    0  0.00000000000E+00 -0.00000000000E+00 -0.36505956745E+03  0.36505956745E+03  0.00000000000E+00 0. -1.
         23    2    1    2    0    0 -0.24450366209E+01 -0.16446069775E+02 -0.32351139904E+03  0.34163709815E+03  0.10853492575E+03 0.  0.
         13    1    3    3    0    0  0.41978964851E+02 -0.41197449725E+02 -0.18175974863E+03  0.19103944508E+03  0.00000000000E+00 0.  1.
        -13    1    3    3    0    0 -0.44424001472E+02  0.24751379950E+02 -0.14175165041E+03  0.15059765307E+03  0.00000000000E+00 0. -1.
         22    1    1    2    0    0  0.24450366209E+01  0.16446069775E+02 -0.30357808452E+02  0.34612829256E+02  0.00000000000E+00 0. -1.
<mgrwt>
<rscale>  0 0.68494763E+02</rscale>
<asrwt>0</asrwt>
<pdfrwt beam="1">  1        2 0.56163005E-01 0.10980110E+03</pdfrwt>
<pdfrwt beam="2">  1       -2 0.17215940E-02 0.10980110E+03</pdfrwt>
<totfact> 0.75812476E+04</totfact>
</mgrwt>
</event>
<event>
 6    1  0.3062576E-002  0.9214002E+02  0.7546771E-02  0.1326889E+00
          1   -1    0    0  501    0  0.00000000000E+00  0.00000000000E+00  0.28596058175E+04  0.28596058175E+04  0.00000000000E+00 0. -1.
         -1   -1    0    0    0  501 -0.00000000000E+00 -0.00000000000E+00 -0.43136211154E+01  0.43136211154E+01  0.00000000000E+00 0.  1.
         23    2    1    2    0    0  0.30614473634E+02 -0.44965988772E+02  0.26481797629E+04  0.26497822250E+04  0.74367985475E+02 0.  0.
         11    1    3    3    0    0  0.38941432186E+02 -0.52108679265E+02  0.25713926579E+04  0.25722153780E+04  0.00000000000E+00 0. -1.
        -11    1    3    3    0    0 -0.83269585525E+01  0.71426904934E+01  0.76787104995E+02  0.77566847040E+02  0.00000000000E+00 0.  1.
         22    1    1    2    0    0 -0.30614473634E+02  0.44965988772E+02  0.20711243349E+03  0.21413721360E+03  0.00000000000E+00 0.  1.
<mgrwt>
<rscale>  0 0.80766779E+02</rscale>
<asrwt>0</asrwt>
<pdfrwt beam="1">  1        1 0.43993784E+00 0.92140021E+02</pdfrwt>
<pdfrwt beam="2">  1       -1 0.66363630E-03 0.92140021E+02</pdfrwt>
<totfact> 0.30798752E+03</totfact>
</mgrwt>
</event>
<event>
 6    1  0.3062576E-002  0.9216650E+02  0.7546771E-02  0.1418763E+00
          1   -1    0    0  501    0  0.00000000000E+00  0.00000000000E+00  0.24341142231E+02  0.24341142231E+02  0.00000000000E+00 0. -1.
         -1   -1    0    0    0  501 -0.00000000000E+00 -0.00000000000E+00 -0.11375413506E+03  0.11375413506E+03  0.00000000000E+00 0.  1.
         23    2    1    2    0    0  0.11833447748E+02 -0.15197521570E+01 -0.84989592689E+02  0.12537102482E+03  0.91391043686E+02 0.  0.
         11    1    3    3    0    0 -0.34170914698E+02 -0.20368018120E+02 -0.52938450551E+02  0.66219235273E+02  0.00000000000E+00 0.  1.
        -11    1    3    3    0    0  0.46004362446E+02  0.18848265963E+02 -0.32051142138E+02  0.59151789544E+02  0.00000000000E+00 0. -1.
         22    1    1    2    0    0 -0.11833447748E+02  0.15197521570E+01 -0.44234001401E+01  0.12724252474E+02  0.00000000000E+00 0. -1.
<mgrwt>
<rscale>  0 0.55283525E+02</rscale>
<asrwt>0</asrwt>
<pdfrwt beam="1">  1        1 0.37447912E-02 0.92166496E+02</pdfrwt>
<pdfrwt beam="2">  1       -1 0.17500636E-01 0.92166496E+02</pdfrwt>
<totfact> 0.53713818E+04</totfact>
</mgrwt>
</event>
<event>
 6    1  0.3062576E-002  0.1063883E+03  0.7546771E-02  0.1299203E+00
          2   -1    0    0  501    0  0.00000000000E+00  0.00000000000E+00  0.81543044958E+03  0.81543044958E+03  0.00000000000E+00 0. -1.
         -2   -1    0    0    0  501 -0.00000000000E+00 -0.00000000000E+00 -0.17255404386E+02  0.17255404386E+02  0.00000000000E+00 0.  1.
         23    2    1    2    0    0 -0.29160704017E+02  0.50449653234E+02  0.74876832771E+03  0.75628861643E+03  0.89010946504E+02 0.  0.
         11    1    3    3    0    0 -0.49905685356E+02  0.11889457856E+02  0.56719308160E+03  0.56950849726E+03  0.00000000000E+00 0. -1.
        -11    1    3    3    0    0  0.20744981339E+02  0.38560195378E+02  0.18157524611E+03  0.18678011917E+03  0.00000000000E+00 0.  1.
         22    1    1    2    0    0  0.29160704017E+02 -0.50449653234E+02  0.49406717489E+02  0.76397237537E+02  0.00000000000E+00 0.  1.
<mgrwt>
<rscale>  0 0.91523683E+02</rscale>
<asrwt>0</asrwt>
<pdfrwt beam="1">  1        2 0.12545081E+00 0.10638826E+03</pdfrwt>
<pdfrwt beam="2">  1       -2 0.26546782E-02 0.10638826E+03</pdfrwt>
<totfact> 0.16437548E+04</totfact>
</mgrwt>
</event>
<event>
 6    1  0.3062576E-002  0.9213000E+02  0.7546771E-02  0.1390670E+00
          2   -1    0    0  501    0  0.00000000000E+00  0.00000000000E+00  0.18827524786E+02  0.18827524786E+02  0.00000000000E+00 0. -1.
         -2   -1    0    0    0  501 -0.00000000000E+00 -0.00000000000E+00 -0.16552329857E+03  0.16552329857E+03  0.00000000000E+00 0.  1.
         23    2    1    2    0    0  0.13694552514E+02 -0.12558719348E+02 -0.11228864821E+03  0.14524695539E+03  0.90236773718E+02 0.  0.
         13    1    3    3    0    0 -0.38409316263E+02 -0.33725646923E+01 -0.56068928156E+02  0.68046854982E+02  0.00000000000E+00 0.  1.
        -13    1    3    3    0    0  0.52103868778E+02 -0.91861546555E+01 -0.56219720058E+02  0.77200100404E+02  0.00000000000E+00 0. -1.
         22    1    1    2    0    0 -0.13694552514E+02  0.12558719348E+02 -0.34407125569E+02  0.39103867969E+02  0.00000000000E+00 0.  1.
<mgrwt>
<rscale>  0 0.61740401E+02</rscale>
<asrwt>0</asrwt>
<pdfrwt beam="1">  1        2 0.28965423E-02 0.92130003E+02</pdfrwt>
<pdfrwt beam="2">  1       -2 0.25465123E-01 0.92130003E+02</pdfrwt>
<totfact> 0.39169854E+04</totfact>
</mgrwt>
</event>
<event>
 6    1  0.3062576E-002  0.9140718E+02  0.7546771E-02  0.1376085E+00
         -2   -1    0    0    0  501 -0.00000000000E+00  0.00000000000E+00  0.10634814090E+02  0.10634814090E+02  0.00000000000E+00 0.  1.
          2   -1    0    0  501    0  0.00000000000E+00 -0.00000000000E+00 -0.31487017417E+03  0.31487017417E+03  0.00000000000E+00 0. -1.
         23    2    1    2    0    0  0.17428814609E+02  0.16654423539E+02 -0.24856839093E+03  0.26484243922E+03  0.88171079376E+02 0.  0.
         13    1    3    3    0    0  0.26629580178E+02 -0.30870457911E+02 -0.14312700145E+03  0.14882022126E+03  0.00000000000E+00 0. -1.
        -13    1    3    3    0    0 -0.92007655692E+01  0.47524881450E+02 -0.10544138949E+03  0.11602221796E+03  0.00000000000E+00 0.  1.
         22    1    1    2    0    0 -0.17428814609E+02 -0.16654423539E+02 -0.55666969145E+02  0.60662549038E+02  0.00000000000E+00 0.  1.
<mgrwt>
<rscale>  0 0.65504286E+02</rscale>
<asrwt>0</asrwt>
<pdfrwt beam="1">  1        2 0.48441562E-01 0.91407180E+02</pdfrwt>
<pdfrwt beam="2">  1       -2 0.16361253E-02 0.91407180E+02</pdfrwt>
<totfact> 0.92849495E+04</totfact>
</mgrwt>
</event>
<event>
 6    1  0.3062576E-002  0.9579735E+02  0.7546771E-02  0.1352354E+00
         -2   -1    0    0    0  501 -0.00000000000E+00  0.00000000000E+00  0.56004667525E+01  0.56004667525E+01  0.00000000000E+00 0.  1.
          2   -1    0    0  501    0  0.00000000000E+00 -0.00000000000E+00 -0.10486920564E+04  0.10486920564E+04  0.00000000000E+00 0. -1.
         23    2    1    2    0    0  0.68916301798E+01  0.30355049914E+02 -0.97169038168E+03  0.97640121349E+03  0.90599162401E+02 0.  0.
         13    1    3    3    0    0  0.34879383910E+02  0.43525666145E+02 -0.80034769814E+03  0.80228890866E+03  0.00000000000E+00 0. -1.
        -13    1    3    3    0    0 -0.27987753730E+02 -0.13170616231E+02 -0.17134268355E+03  0.17411230484E+03  0.00000000000E+00 0.  1.
         22    1    1    2    0    0 -0.68916301798E+01 -0.30355049914E+02 -0.71401207938E+02  0.77891309636E+02  0.00000000000E+00 0.  1.
<mgrwt>
<rscale>  0 0.72327142E+02</rscale>
<asrwt>0</asrwt>
<pdfrwt beam="1">  1        2 0.16133719E+00 0.95797348E+02</pdfrwt>
<pdfrwt beam="2">  1       -2 0.86161053E-03 0.95797348E+02</pdfrwt>
<totfact> 0.58662525E+04</totfact>
</mgrwt>
</event>
<event>
 6    1  0.3062576E-002  0.9365420E+02  0.7546771E-02  0.1376566E+00
          2   -1    0    0  501    0  0.00000000000E+00  0.00000000000E+00  0.25733735132E+03  0.25733735132E+03  0.00000000000E+00 0. -1.
         -2   -1    0    0    0  501 -0.00000000000E+00 -0.00000000000E+00 -0.14832097037E+02  0.14832097037E+02  0.00000000000E+00 0.  1.
         23    2    1    2    0    0 -0.12737095991E+02 -0.18227036080E+02  0.22550340216E+03  0.24417799548E+03  0.90976099245E+02 0.  0.
         13    1    3    3    0    0  0.21034024321E+02  0.25478521670E+02  0.12719829842E+03  0.13141914764E+03  0.00000000000E+00 0. -1.
        -13    1    3    3    0    0 -0.33771120312E+02 -0.43705557750E+02  0.98305103733E+02  0.11275884784E+03  0.00000000000E+00 0.  1.
         22    1    1    2    0    0  0.12737095991E+02  0.18227036080E+02  0.17001852131E+02  0.27991452881E+02  0.00000000000E+00 0. -1.
<mgrwt>
<rscale>  0 0.65374995E+02</rscale>
<asrwt>0</asrwt>
<pdfrwt beam="1">  1        2 0.39590358E-01 0.93654200E+02</pdfrwt>
<pdfrwt beam="2">  1       -2 0.22818613E-02 0.93654200E+02</pdfrwt>
<totfact> 0.71371670E+04</totfact>
</mgrwt>
</event>
<event>
 6    1  0.3062576E-002  0.9503794E+02  0.7546771E-02  0.1385728E+00
          2   -1    0    0  501    0  0.00000000000E+00  0.00000000000E+00  0.10441944297E+03  0.10441944297E+03  0.00000000000E+00 0. -1.
         -2   -1    0    0    0  501 -0.00000000000E+00 -0.00000000000E+00 -0.31773164203E+02  0.31773164203E+02  0.00000000000E+00 0.  1.
         23    2    1    2    0    0  0.17708011513E+02 -0.47361042890E+01  0.51102448160E+02  0.10790584361E+03  0.93253453138E+02 0.  0.
         13    1    3    3    0    0  0.40206868771E+02  0.29661863635E+02  0.12468067339E+02  0.51496321750E+02  0.00000000000E+00 0.  1.
        -13    1    3    3    0    0 -0.22498857258E+02 -0.34397967924E+02  0.38634380821E+02  0.56409521862E+02  0.00000000000E+00 0. -1.
         22    1    1    2    0    0 -0.17708011513E+02  0.47361042890E+01  0.21543830609E+02  0.28286763563E+02  0.00000000000E+00 0.  1.
<mgrwt>
<rscale>  0 0.62981919E+02</rscale>
<asrwt>0</asrwt>
<pdfrwt beam="1">  1        2 0.16064530E-01 0.95037944E+02</pdfrwt>
<pdfrwt beam="2">  1       -2 0.48881792E-02 0.95037944E+02</pdfrwt>
<totfact> 0.62904922E+04</totfact>
</mgrwt>
</event>
<event>
 6    1  0.3062576E-002  0.8713055E+02  0.7546771E-02  0.1421292E+00
         -2   -1    0    0    0  501 -0.00000000000E+00  0.00000000000E+00  0.56822946563E+01  0.56822946563E+01  0.00000000000E+00 0.  1.
          2   -1    0    0  501    0  0.00000000000E+00 -0.00000000000E+00 -0.46669135225E+03  0.46669135225E+03  0.00000000000E+00 0. -1.
         23    2    1    2    0    0  0.10750708685E+02 -0.83008521499E+01 -0.42606185676E+03  0.43487979768E+03  0.86065386547E+02 0.  0.
         11    1    3    3    0    0  0.35162481186E+02 -0.15923531655E+02 -0.38191234844E+03  0.38385804777E+03  0.00000000000E+00 0. -1.
        -11    1    3    3    0    0 -0.24411772501E+02  0.76226795046E+01 -0.44149508316E+02  0.51021749911E+02  0.00000000000E+00 0.  1.
         22    1    1    2    0    0 -0.10750708685E+02  0.83008521499E+01 -0.34947200836E+02  0.37493849228E+02  0.00000000000E+00 0.  1.
<mgrwt>
<rscale>  0 0.54748479E+02</rscale>
<asrwt>0</asrwt>
<pdfrwt beam="1">  1        2 0.71798668E-01 0.87130549E+02</pdfrwt>
<pdfrwt beam="2">  1       -2 0.87419920E-03 0.87130549E+02</pdfrwt>
<totfact> 0.14831466E+05</totfact>
</mgrwt>
</event>
<event>
 6    1  0.3062576E-002  0.9346564E+02  0.7546771E-02  0.1401194E+00
          4   -1    0    0  501    0  0.00000000000E+00  0.00000000000E+00  0.73453478381E+03  0.73453478381E+03  0.00000000000E+00 0. -1.
         -4   -1    0    0    0  501 -0.00000000000E+00 -0.00000000000E+00 -0.40541661603E+01  0.40541661603E+01  0.00000000000E+00 0.  1.
         23    2    1    2    0    0 -0.44154914826E+01 -0.14386676093E+02  0.65362999151E+03  0.66027872234E+03  0.92246150893E+02 0.  0.
         11    1    3    3    0    0 -0.33961834750E+01  0.18400885512E+02  0.57197505759E+03  0.57228104385E+03  0.00000000000E+00 0. -1.
        -11    1    3    3    0    0 -0.10193080076E+01 -0.32787561605E+02  0.81654933926E+02  0.87997678488E+02  0.00000000000E+00 0.  1.
         22    1    1    2    0    0  0.44154914826E+01  0.14386676093E+02  0.76850626140E+02  0.78310227635E+02  0.00000000000E+00 0.  1.
<mgrwt>
<rscale>  0 0.59206043E+02</rscale>
<asrwt>0</asrwt>
<pdfrwt beam="1">  1        4 0.11300525E+00 0.93465637E+02</pdfrwt>
<pdfrwt beam="2">  1       -4 0.62371845E-03 0.93465637E+02</pdfrwt>
<totfact> 0.56973555E+03</totfact>
</mgrwt>
</event>
<event>
 6    1  0.3062576E-002  0.8936507E+02  0.7546771E-02  0.1427330E+00
         -2   -1    0    0    0  501 -0.00000000000E+00  0.00000000000E+00  0.29374164969E+01  0.29374164969E+01  0.00000000000E+00 0. -1.
          2   -1    0    0  501    0  0.00000000000E+00 -0.00000000000E+00 -0.88089922957E+03  0.88089922957E+03  0.00000000000E+00 0.  1.
         23    2    1    2    0    0 -0.40876129192E+01 -0.10726528721E+02 -0.80967469297E+03  0.81459144573E+03  0.88624759644E+02 0.  0.
         11    1    3    3    0    0  0.39381520701E+02 -0.13369056939E+02 -0.52012603423E+03  0.52178609347E+03  0.00000000000E+00 0. -1.
        -11    1    3    3    0    0 -0.43469133620E+02  0.26425282184E+01 -0.28954865875E+03  0.29280535227E+03  0.00000000000E+00 0.  1.
         22    1    1    2    0    0  0.40876129192E+01  0.10726528721E+02 -0.68287120099E+02  0.69245200333E+02  0.00000000000E+00 0. -1.
<mgrwt>
<rscale>  0 0.53499739E+02</rscale>
<asrwt>0</asrwt>
<pdfrwt beam="1">  1        2 0.13552304E+00 0.89365066E+02</pdfrwt>
<pdfrwt beam="2">  1       -2 0.45190997E-03 0.89365066E+02</pdfrwt>
<totfact> 0.18151120E+05</totfact>
</mgrwt>
</event>
<event>
 6    1  0.3062576E-002  0.8397213E+02  0.7546771E-02  0.1416116E+00
          2   -1    0    0  501    0  0.00000000000E+00  0.00000000000E+00  0.38097893361E+03  0.38097893361E+03  0.00000000000E+00 0. -1.
         -2   -1    0    0    0  501 -0.00000000000E+00 -0.00000000000E+00 -0.81188373810E+01  0.81188373810E+01  0.00000000000E+00 0.  1.
         23    2    1    2    0    0 -0.15654931385E+02  0.49977121281E+01  0.35513170974E+03  0.36492444498E+03  0.82348438194E+02 0.  0.
         11    1    3    3    0    0  0.27150006988E+02 -0.20258087593E+02  0.16166167783E+03  0.16517267047E+03  0.00000000000E+00 0.  1.
        -11    1    3    3    0    0 -0.42804938373E+02  0.25255799721E+02  0.19347003191E+03  0.19975177450E+03  0.00000000000E+00 0. -1.
         22    1    1    2    0    0  0.15654931385E+02 -0.49977121281E+01  0.17728386482E+02  0.24173326011E+02  0.00000000000E+00 0.  1.
<mgrwt>
<rscale>  0 0.55851227E+02</rscale>
<asrwt>0</asrwt>
<pdfrwt beam="1">  1        2 0.58612130E-01 0.83972134E+02</pdfrwt>
<pdfrwt beam="2">  1       -2 0.12490522E-02 0.83972134E+02</pdfrwt>
<totfact> 0.11029503E+05</totfact>
</mgrwt>
</event>
<event>
 6    1  0.3062576E-002  0.1034569E+03  0.7546771E-02  0.1313040E+00
         -2   -1    0    0    0  501 -0.00000000000E+00  0.00000000000E+00  0.62596658526E+01  0.62596658526E+01  0.00000000000E+00 0.  1.
          2   -1    0    0  501    0  0.00000000000E+00 -0.00000000000E+00 -0.94308156320E+03  0.94308156320E+03  0.00000000000E+00 0. -1.
         23    2    1    2    0    0  0.38890265725E+02 -0.30166945312E+02 -0.68303298147E+03  0.69082370319E+03  0.90999108519E+02 0.  0.
         11    1    3    3    0    0 -0.33657848409E+01  0.18799931742E+02 -0.37740363459E+02  0.42297765604E+02  0.00000000000E+00 0.  1.
        -11    1    3    3    0    0  0.42256050566E+02 -0.48966877053E+02 -0.64529261801E+03  0.64852593759E+03  0.00000000000E+00 0. -1.
         22    1    1    2    0    0 -0.38890265725E+02  0.30166945312E+02 -0.25378891587E+03  0.25851752586E+03  0.00000000000E+00 0.  1.
<mgrwt>
<rscale>  0 0.85921645E+02</rscale>
<asrwt>0</asrwt>
<pdfrwt beam="1">  1        2 0.14508938E+00 0.10345692E+03</pdfrwt>
<pdfrwt beam="2">  1       -2 0.96302612E-03 0.10345692E+03</pdfrwt>
<totfact> 0.58339689E+04</totfact>
</mgrwt>
</event>
<event>
 6    1  0.3062576E-002  0.9317223E+02  0.7546771E-02  0.1367837E+00
          2   -1    0    0  501    0  0.00000000000E+00  0.00000000000E+00  0.49923473690E+03  0.49923473690E+03  0.00000000000E+00 0.  1.
         -2   -1    0    0    0  501 -0.00000000000E+00 -0.00000000000E+00 -0.11330868533E+02  0.11330868533E+02  0.00000000000E+00 0. -1.
         23    2    1    2    0    0 -0.31387604933E+01 -0.25892640019E+02  0.46947118026E+03  0.47862746812E+03  0.89447098963E+02 0.  0.
         11    1    3    3    0    0 -0.11971523765E+02  0.16913831077E+02  0.27161569252E+02  0.34163517196E+02  0.00000000000E+00 0. -1.
        -11    1    3    3    0    0  0.88327632718E+01 -0.42806471096E+02  0.44230961101E+03  0.44446395092E+03  0.00000000000E+00 0.  1.
         22    1    1    2    0    0  0.31387604933E+01  0.25892640019E+02  0.18432688107E+02  0.31938137319E+02  0.00000000000E+00 0. -1.
<mgrwt>
<rscale>  0 0.67772089E+02</rscale>
<asrwt>0</asrwt>
<pdfrwt beam="1">  1        2 0.76805327E-01 0.93172228E+02</pdfrwt>
<pdfrwt beam="2">  1       -2 0.17432109E-02 0.93172228E+02</pdfrwt>
<totfact> 0.52235335E+04</totfact>
</mgrwt>
</event>
<event>
 6    1  0.3062576E-002  0.1164887E+03  0.7546771E-02  0.1306962E+00
          4   -1    0    0  501    0  0.00000000000E+00  0.00000000000E+00  0.66835051380E+02  0.66835051380E+02  0.00000000000E+00 0. -1.
         -4   -1    0    0    0  501 -0.00000000000E+00 -0.00000000000E+00 -0.90759442624E+02  0.90759442624E+02  0.00000000000E+00 0.  1.
         23    2    1    2    0    0  0.26937567503E+01  0.38405657673E+02 -0.24735600885E+02  0.11908593745E+03  0.10994252899E+03 0.  0.
         13    1    3    3    0    0  0.24789902091E+02  0.49943797667E+02 -0.56050795516E+02  0.79060823731E+02  0.00000000000E+00 0.  1.
        -13    1    3    3    0    0 -0.22096145341E+02 -0.11538139994E+02  0.31315194632E+02  0.40025113720E+02  0.00000000000E+00 0. -1.
         22    1    1    2    0    0 -0.26937567503E+01 -0.38405657673E+02  0.81120964127E+00  0.38508556553E+02  0.00000000000E+00 0.  1.
<mgrwt>
<rscale>  0 0.88323848E+02</rscale>
<asrwt>0</asrwt>
<pdfrwt beam="1">  1        4 0.10282316E-01 0.11648867E+03</pdfrwt>
<pdfrwt beam="2">  1       -4 0.13962991E-01 0.11648867E+03</pdfrwt>
<totfact> 0.48595822E+03</totfact>
</mgrwt>
</event>
<event>
 6    1  0.3062576E-002  0.9153372E+02  0.7546771E-02  0.1425568E+00
         -2   -1    0    0    0  501 -0.00000000000E+00  0.00000000000E+00  0.10958504351E+02  0.10958504351E+02  0.00000000000E+00 0.  1.
          2   -1    0    0  501    0  0.00000000000E+00 -0.00000000000E+00 -0.27343402585E+03  0.27343402585E+03  0.00000000000E+00 0. -1.
         23    2    1    2    0    0 -0.67727918425E+01  0.86333996215E+01 -0.25547216581E+03  0.27137510767E+03  0.90873622480E+02 0.  0.
         11    1    3    3    0    0  0.28349817435E+02 -0.24327436652E+02 -0.16166077989E+03  0.16592089705E+03  0.00000000000E+00 0. -1.
        -11    1    3    3    0    0 -0.35122609277E+02  0.32960836273E+02 -0.93811385917E+02  0.10545421062E+03  0.00000000000E+00 0.  1.
         22    1    1    2    0    0  0.67727918425E+01 -0.86333996215E+01 -0.70033556882E+01  0.13017422528E+02  0.00000000000E+00 0.  1.
<mgrwt>
<rscale>  0 0.53860078E+02</rscale>
<asrwt>0</asrwt>
<pdfrwt beam="1">  1        2 0.42066769E-01 0.91533718E+02</pdfrwt>
<pdfrwt beam="2">  1       -2 0.16859239E-02 0.91533718E+02</pdfrwt>
<totfact> 0.10311017E+05</totfact>
</mgrwt>
</event>
<event>
 6    1  0.3062576E-002  0.9152840E+02  0.7546771E-02  0.1431043E+00
         -1   -1    0    0    0  501 -0.00000000000E+00  0.00000000000E+00  0.12103741816E+02  0.12103741816E+02  0.00000000000E+00 0.  1.
          1   -1    0    0  501    0  0.00000000000E+00 -0.00000000000E+00 -0.55845507296E+03  0.55845507296E+03  0.00000000000E+00 0. -1.
         23    2    1    2    0    0 -0.51684869706E+01  0.86757388396E+01 -0.55162448858E+03  0.55916636591E+03  0.90969591969E+02 0.  0.
         11    1    3    3    0    0 -0.26621077223E+02 -0.79833047213E+01 -0.53376675690E+02  0.60178770464E+02  0.00000000000E+00 0.  1.
        -11    1    3    3    0    0  0.21452590252E+02  0.16659043561E+02 -0.49824781289E+03  0.49898759545E+03  0.00000000000E+00 0. -1.
         22    1    1    2    0    0  0.51684869706E+01 -0.86757388396E+01  0.52731574301E+01  0.11392448870E+02  0.00000000000E+00 0.  1.
<mgrwt>
<rscale>  0 0.52751182E+02</rscale>
<asrwt>0</asrwt>
<pdfrwt beam="1">  1        1 0.85916169E-01 0.91528402E+02</pdfrwt>
<pdfrwt beam="2">  1       -1 0.18621140E-02 0.91528402E+02</pdfrwt>
<totfact> 0.26655899E+04</totfact>
</mgrwt>
</event>
<event>
 6    1  0.3062576E-002  0.9276970E+02  0.7546771E-02  0.1417059E+00
         -1   -1    0    0    0  501 -0.00000000000E+00  0.00000000000E+00  0.72689259756E+01  0.72689259756E+01  0.00000000000E+00 0.  1.
          1   -1    0    0  501    0  0.00000000000E+00 -0.00000000000E+00 -0.45901308906E+03  0.45901308906E+03  0.00000000000E+00 0. -1.
         23    2    1    2    0    0 -0.67832620296E+01 -0.99121163311E+01 -0.43929379220E+03  0.44898246507E+03  0.91988887265E+02 0.  0.
         11    1    3    3    0    0 -0.13293510924E+02 -0.47164027323E+02 -0.32296612116E+03  0.32666233074E+03  0.00000000000E+00 0. -1.
        -11    1    3    3    0    0  0.65102488946E+01  0.37251910991E+02 -0.11632767103E+03  0.12232013433E+03  0.00000000000E+00 0.  1.
         22    1    1    2    0    0  0.67832620296E+01  0.99121163311E+01 -0.12450370889E+02  0.17299549971E+02  0.00000000000E+00 0.  1.
<mgrwt>
<rscale>  0 0.55647913E+02</rscale>
<asrwt>0</asrwt>
<pdfrwt beam="1">  1        1 0.70617371E-01 0.92769705E+02</pdfrwt>
<pdfrwt beam="2">  1       -1 0.11182967E-02 0.92769705E+02</pdfrwt>
<totfact> 0.70883535E+04</totfact>
</mgrwt>
</event>
<event>
 6    1  0.3062576E-002  0.9287296E+02  0.7546771E-02  0.1414483E+00
          2   -1    0    0  501    0  0.00000000000E+00  0.00000000000E+00  0.51244282917E+03  0.51244282917E+03  0.00000000000E+00 0. -1.
         -2   -1    0    0    0  501 -0.00000000000E+00 -0.00000000000E+00 -0.56256623515E+01  0.56256623515E+01  0.00000000000E+00 0.  1.
         23    2    1    2    0    0 -0.36131065578E+01 -0.11922498064E+02  0.47295530829E+03  0.48198766611E+03  0.92033614224E+02 0.  0.
         13    1    3    3    0    0 -0.62578686618E+01  0.24379176826E+02  0.38418571320E+02  0.45929204273E+02  0.00000000000E+00 0.  1.
        -13    1    3    3    0    0  0.26447621041E+01 -0.36301674890E+02  0.43453673697E+03  0.43605846184E+03  0.00000000000E+00 0. -1.
         22    1    1    2    0    0  0.36131065578E+01  0.11922498064E+02  0.33861858529E+02  0.36080825408E+02  0.00000000000E+00 0. -1.
<mgrwt>
<rscale>  0 0.56205473E+02</rscale>
<asrwt>0</asrwt>
<pdfrwt beam="1">  1        2 0.78837321E-01 0.92872960E+02</pdfrwt>
<pdfrwt beam="2">  1       -2 0.86548692E-03 0.92872960E+02</pdfrwt>
<totfact> 0.13737004E+05</totfact>
</mgrwt>
</event>
<event>
 6    1  0.3062576E-002  0.1288943E+03  0.7546771E-02  0.1279964E+00
         -2   -1    0    0    0  501 -0.00000000000E+00  0.00000000000E+00  0.10123650883E+03  0.10123650883E+03  0.00000000000E+00 0.  1.
          2   -1    0    0  501    0  0.00000000000E+00 -0.00000000000E+00 -0.14294167565E+03  0.14294167565E+03  0.00000000000E+00 0. -1.
         23    2    1    2    0    0 -0.27997820044E+02  0.37743666674E+02 -0.10436855475E+03  0.16585090642E+03  0.12002193816E+03 0.  0.
         13    1    3    3    0    0 -0.30434370801E+02  0.29208121360E+02 -0.13108160152E+03  0.13770167586E+03  0.00000000000E+00 0. -1.
        -13    1    3    3    0    0  0.24365507563E+01  0.85355453140E+01  0.26713046769E+02  0.28149230559E+02  0.00000000000E+00 0.  1.
         22    1    1    2    0    0  0.27997820044E+02 -0.37743666674E+02  0.62663387931E+02  0.78327278060E+02  0.00000000000E+00 0.  1.
<mgrwt>
<rscale>  0 0.10015818E+03</rscale>
<asrwt>0</asrwt>
<pdfrwt beam="1">  1        2 0.21991027E-01 0.12889425E+03</pdfrwt>
<pdfrwt beam="2">  1       -2 0.15574848E-01 0.12889425E+03</pdfrwt>
<totfact> 0.75445514E+03</totfact>
</mgrwt>
</event>
<event>
 6    1  0.3062576E-002  0.9724375E+02  0.7546771E-02  0.1416801E+00
         -2   -1    0    0    0  501 -0.00000000000E+00  0.00000000000E+00  0.21561131863E+01  0.21561131863E+01  0.00000000000E+00 0. -1.
          2   -1    0    0  501    0  0.00000000000E+00 -0.00000000000E+00 -0.16937715865E+04  0.16937715865E+04  0.00000000000E+00 0.  1.
         23    2    1    2    0    0 -0.58039864840E+01 -0.87139422142E+01 -0.16547345434E+04  0.16575894415E+04  0.96678479844E+02 0.  0.
         11    1    3    3    0    0  0.26605927465E+02  0.19990710357E+02 -0.12684241762E+04  0.12688606680E+04  0.00000000000E+00 0. -1.
        -11    1    3    3    0    0 -0.32409913949E+02 -0.28704652571E+02 -0.38631036714E+03  0.38872877352E+03  0.00000000000E+00 0.  1.
         22    1    1    2    0    0  0.58039864840E+01  0.87139422142E+01 -0.36880929912E+02  0.38338258166E+02  0.00000000000E+00 0. -1.
<mgrwt>
<rscale>  0 0.55703443E+02</rscale>
<asrwt>0</asrwt>
<pdfrwt beam="1">  1        2 0.26058007E+00 0.97243753E+02</pdfrwt>
<pdfrwt beam="2">  1       -2 0.33170995E-03 0.97243753E+02</pdfrwt>
<totfact> 0.10250419E+05</totfact>
</mgrwt>
</event>
<event>
 6    1  0.3062576E-002  0.8897994E+02  0.7546771E-02  0.1405479E+00
          2   -1    0    0  501    0  0.00000000000E+00  0.00000000000E+00  0.29026529367E+03  0.29026529367E+03  0.00000000000E+00 0. -1.
         -2   -1    0    0    0  501 -0.00000000000E+00 -0.00000000000E+00 -0.96954654232E+01  0.96954654232E+01  0.00000000000E+00 0.  1.
         23    2    1    2    0    0  0.64398755608E+01  0.14977076283E+02  0.24916778255E+03  0.26457893770E+03  0.87473685196E+02 0.  0.
         13    1    3    3    0    0  0.78450946615E+01 -0.11981183765E+02  0.23231369003E+03  0.23275468814E+03  0.00000000000E+00 0. -1.
        -13    1    3    3    0    0 -0.14052191007E+01  0.26958260048E+02  0.16854092522E+02  0.31824249563E+02  0.00000000000E+00 0.  1.
         22    1    1    2    0    0 -0.64398755608E+01 -0.14977076283E+02  0.31402045693E+02  0.35381821390E+02  0.00000000000E+00 0. -1.
<mgrwt>
<rscale>  0 0.58215062E+02</rscale>
<asrwt>0</asrwt>
<pdfrwt beam="1">  1        2 0.44656192E-01 0.88979944E+02</pdfrwt>
<pdfrwt beam="2">  1       -2 0.14916103E-02 0.88979944E+02</pdfrwt>
<totfact> 0.11487773E+05</totfact>
</mgrwt>
</event>
<event>
 6    1  0.3062576E-002  0.9140487E+02  0.7546771E-02  0.1368761E+00
          2   -1    0    0  501    0  0.00000000000E+00  0.00000000000E+00  0.10063158255E+04  0.10063158255E+04  0.00000000000E+00 0. -1.
         -2   -1    0    0    0  501 -0.00000000000E+00 -0.00000000000E+00 -0.45811281836E+01  0.45811281836E+01  0.00000000000E+00 0.  1.
         23    2    1    2    0    0  0.10085056154E+02  0.25265653335E+02  0.92457139999E+03  0.92907864247E+03  0.87262756174E+02 0.  0.
         11    1    3    3    0    0 -0.35243450101E+02 -0.44019430313E+01  0.45733555215E+03  0.45871263896E+03  0.00000000000E+00 0.  1.
        -11    1    3    3    0    0  0.45328506255E+02  0.29667596367E+02  0.46723584784E+03  0.47036600351E+03  0.00000000000E+00 0. -1.
         22    1    1    2    0    0 -0.10085056154E+02 -0.25265653335E+02  0.77163297352E+02  0.81818311241E+02  0.00000000000E+00 0.  1.
<mgrwt>
<rscale>  0 0.67512701E+02</rscale>
<asrwt>0</asrwt>
<pdfrwt beam="1">  1        2 0.15481764E+00 0.91404870E+02</pdfrwt>
<pdfrwt beam="2">  1       -2 0.70478975E-03 0.91404870E+02</pdfrwt>
<totfact> 0.81968298E+04</totfact>
</mgrwt>
</event>
<event>
 6    1  0.3062576E-002  0.1276516E+03  0.7546771E-02  0.1246553E+00
          2   -1    0    0  501    0  0.00000000000E+00  0.00000000000E+00  0.22458054782E+03  0.22458054782E+03  0.00000000000E+00 0.  1.
         -2   -1    0    0    0  501 -0.00000000000E+00 -0.00000000000E+00 -0.76938984493E+02  0.76938984493E+02  0.00000000000E+00 0. -1.
         23    2    1    2    0    0  0.44075134665E+02 -0.81873983559E+02  0.72881061720E+00  0.12765371167E+03  0.87458403017E+02 0.  0.
         13    1    3    3    0    0  0.50729291103E+02 -0.90525047062E+02  0.19836081369E+02  0.10564901914E+03  0.00000000000E+00 0. -1.
        -13    1    3    3    0    0 -0.66541564378E+01  0.86510635033E+01 -0.19107270752E+02  0.22004692527E+02  0.00000000000E+00 0.  1.
         22    1    1    2    0    0 -0.44075134665E+02  0.81873983559E+02  0.14691275271E+03  0.17386582065E+03  0.00000000000E+00 0.  1.
<mgrwt>
<rscale>  0 0.11792923E+03</rscale>
<asrwt>0</asrwt>
<pdfrwt beam="1">  1        2 0.34550853E-01 0.12765163E+03</pdfrwt>
<pdfrwt beam="2">  1       -2 0.11836767E-01 0.12765163E+03</pdfrwt>
<totfact> 0.71730956E+03</totfact>
</mgrwt>
</event>
<event>
 6    1  0.3062576E-002  0.9300645E+02  0.7546771E-02  0.1393575E+00
         -2   -1    0    0    0  501 -0.00000000000E+00  0.00000000000E+00  0.15014607844E+03  0.15014607844E+03  0.00000000000E+00 0.  1.
          2   -1    0    0  501    0  0.00000000000E+00 -0.00000000000E+00 -0.22313593952E+02  0.22313593952E+02  0.00000000000E+00 0. -1.
         23    2    1    2    0    0  0.62232529479E+01  0.16077261175E+02  0.83868094148E+02  0.12523600436E+03  0.91394706459E+02 0.  0.
         11    1    3    3    0    0 -0.28606766909E+02  0.25818946615E+02  0.80082570918E+02  0.88871723749E+02  0.00000000000E+00 0. -1.
        -11    1    3    3    0    0  0.34830019857E+02 -0.97416854393E+01  0.37855232300E+01  0.36364280614E+02  0.00000000000E+00 0.  1.
         22    1    1    2    0    0 -0.62232529479E+01 -0.16077261175E+02  0.43964390336E+02  0.47223668025E+02  0.00000000000E+00 0.  1.
<mgrwt>
<rscale>  0 0.61026325E+02</rscale>
<asrwt>0</asrwt>
<pdfrwt beam="1">  1        2 0.34328607E-02 0.93006449E+02</pdfrwt>
<pdfrwt beam="2">  1       -2 0.23099396E-01 0.93006449E+02</pdfrwt>
<totfact> 0.37042009E+04</totfact>
</mgrwt>
</event>
<event>
 6    1  0.3062576E-002  0.9519278E+02  0.7546771E-02  0.1419040E+00
          2   -1    0    0  501    0  0.00000000000E+00  0.00000000000E+00  0.40323224198E+03  0.40323224198E+03  0.00000000000E+00 0. -1.
         -2   -1    0    0    0  501 -0.00000000000E+00 -0.00000000000E+00 -0.39522787133E+02  0.39522787133E+02  0.00000000000E+00 0.  1.
         23    2    1    2    0    0  0.48841093243E+01  0.96127819535E+01  0.39674456442E+03  0.40800479796E+03  0.94580154693E+02 0.  0.
         13    1    3    3    0    0  0.14893387864E+02 -0.21230726380E+02  0.29285538696E+02  0.39117764780E+02  0.00000000000E+00 0.  1.
        -13    1    3    3    0    0 -0.10009278539E+02  0.30843508333E+02  0.36745902572E+03  0.36888703318E+03  0.00000000000E+00 0. -1.
         22    1    1    2    0    0 -0.48841093243E+01 -0.96127819535E+01 -0.33035109571E+02  0.34750231153E+02  0.00000000000E+00 0.  1.
<mgrwt>
<rscale>  0 0.55224508E+02</rscale>
<asrwt>0</asrwt>
<pdfrwt beam="1">  1        2 0.62035727E-01 0.95192782E+02</pdfrwt>
<pdfrwt beam="2">  1       -2 0.60804291E-02 0.95192782E+02</pdfrwt>
<totfact> 0.10578148E+04</totfact>
</mgrwt>
</event>
<event>
 6    1  0.3062576E-002  0.9353276E+02  0.7546771E-02  0.1377170E+00
         -2   -1    0    0    0  501 -0.00000000000E+00  0.00000000000E+00  0.34331962164E+01  0.34331962164E+01  0.00000000000E+00 0.  1.
          2   -1    0    0  501    0  0.00000000000E+00 -0.00000000000E+00 -0.17725733063E+04  0.17725733063E+04  0.00000000000E+00 0. -1.
         23    2    1    2    0    0 -0.10435603821E+02 -0.19485065898E+02 -0.17147162300E+04  0.17172653045E+04  0.90883480368E+02 0.  0.
         13    1    3    3    0    0 -0.11811585987E+02 -0.50878610360E+02 -0.65352879159E+03  0.65561271189E+03  0.00000000000E+00 0. -1.
        -13    1    3    3    0    0  0.13759821663E+01  0.31393544462E+02 -0.10611874384E+04  0.10616525926E+04  0.00000000000E+00 0.  1.
         22    1    1    2    0    0  0.10435603821E+02  0.19485065898E+02 -0.54423880021E+02  0.58741197951E+02  0.00000000000E+00 0.  1.
<mgrwt>
<rscale>  0 0.65213665E+02</rscale>
<asrwt>0</asrwt>
<pdfrwt beam="1">  1        2 0.27270357E+00 0.93532757E+02</pdfrwt>
<pdfrwt beam="2">  1       -2 0.52818407E-03 0.93532757E+02</pdfrwt>
<totfact> 0.48592614E+04</totfact>
</mgrwt>
</event>
<event>
 6    1  0.3062576E-002  0.9515721E+02  0.7546771E-02  0.1368025E+00
          2   -1    0    0  501    0  0.00000000000E+00  0.00000000000E+00  0.46436118336E+03  0.46436118336E+03  0.00000000000E+00 0.  1.
         -2   -1    0    0    0  501 -0.00000000000E+00 -0.00000000000E+00 -0.50563639007E+02  0.50563639007E+02  0.00000000000E+00 0. -1.
         23    2    1    2    0    0  0.22846051603E+01  0.24300462100E+02  0.45618957974E+03  0.46600839830E+03  0.91973706814E+02 0.  0.
         13    1    3    3    0    0  0.38563827124E+02  0.46020720247E+01  0.34883096978E+03  0.35098631498E+03  0.00000000000E+00 0.  1.
        -13    1    3    3    0    0 -0.36279221964E+02  0.19698390076E+02  0.10735860997E+03  0.11502208332E+03  0.00000000000E+00 0. -1.
         22    1    1    2    0    0 -0.22846051603E+01 -0.24300462100E+02 -0.42392035387E+02  0.48916424065E+02  0.00000000000E+00 0. -1.
<mgrwt>
<rscale>  0 0.67719327E+02</rscale>
<asrwt>0</asrwt>
<pdfrwt beam="1">  1        2 0.71440179E-01 0.95157210E+02</pdfrwt>
<pdfrwt beam="2">  1       -2 0.77790217E-02 0.95157210E+02</pdfrwt>
<totfact> 0.62685274E+03</totfact>
</mgrwt>
</event>
<event>
 6    1  0.3062576E-002  0.7224676E+02  0.7546771E-02  0.1469807E+00
          2   -1    0    0  501    0  0.00000000000E+00  0.00000000000E+00  0.52784368156E+02  0.52784368156E+02  0.00000000000E+00 0. -1.
         -2   -1    0    0    0  501 -0.00000000000E+00 -0.00000000000E+00 -0.33347120132E+02  0.33347120132E+02  0.00000000000E+00 0.  1.
         23    2    1    2    0    0  0.52674535592E+01  0.10337021214E+02  0.17873592252E+02  0.74424862218E+02  0.71309149074E+02 0.  0.
         13    1    3    3    0    0  0.15088948726E+01  0.86390548832E+01 -0.27499846906E+02  0.28864365797E+02  0.00000000000E+00 0.  1.
        -13    1    3    3    0    0  0.37585586866E+01  0.16979663306E+01  0.45373439159E+02  0.45560496421E+02  0.00000000000E+00 0. -1.
         22    1    1    2    0    0 -0.52674535592E+01 -0.10337021214E+02  0.15636557720E+01  0.11706626070E+02  0.00000000000E+00 0. -1.
<mgrwt>
<rscale>  0 0.45734555E+02</rscale>
<asrwt>0</asrwt>
<pdfrwt beam="1">  1        2 0.81206720E-02 0.72246763E+02</pdfrwt>
<pdfrwt beam="2">  1       -2 0.51303262E-02 0.72246763E+02</pdfrwt>
<totfact> 0.12622680E+05</totfact>
</mgrwt>
</event>
<event>
 6    1  0.3062576E-002  0.9062755E+02  0.7546771E-02  0.1432639E+00
         -2   -1    0    0    0  501 -0.00000000000E+00  0.00000000000E+00  0.79492853617E+01  0.79492853617E+01  0.00000000000E+00 0.  1.
          2   -1    0    0  501    0  0.00000000000E+00 -0.00000000000E+00 -0.39586511560E+03  0.39586511560E+03  0.00000000000E+00 0. -1.
         23    2    1    2    0    0 -0.61283643777E+01 -0.80969569967E+01 -0.38074689713E+03  0.39138414898E+03  0.90056842228E+02 0.  0.
         13    1    3    3    0    0  0.29864220284E+02 -0.21642395693E+02 -0.78869166105E+02  0.87066700332E+02  0.00000000000E+00 0.  1.
        -13    1    3    3    0    0 -0.35992584662E+02  0.13545438696E+02 -0.30187773103E+03  0.30431744865E+03  0.00000000000E+00 0. -1.
         22    1    1    2    0    0  0.61283643777E+01  0.80969569967E+01 -0.71689331087E+01  0.12430251987E+02  0.00000000000E+00 0.  1.
<mgrwt>
<rscale>  0 0.52433850E+02</rscale>
<asrwt>0</asrwt>
<pdfrwt beam="1">  1        2 0.60902325E-01 0.90627548E+02</pdfrwt>
<pdfrwt beam="2">  1       -2 0.12229670E-02 0.90627548E+02</pdfrwt>
<totfact> 0.11045202E+05</totfact>
</mgrwt>
</event>
<event>
 6    1  0.3062576E-002  0.9767220E+02  0.7546771E-02  0.1336230E+00
         -4   -1    0    0    0  501 -0.00000000000E+00  0.00000000000E+00  0.23027355052E+03  0.23027355052E+03  0.00000000000E+00 0.  1.
          4   -1    0    0  501    0  0.00000000000E+00 -0.00000000000E+00 -0.25763418177E+02  0.25763418177E+02  0.00000000000E+00 0. -1.
         23    2    1    2    0    0 -0.35336967835E+02  0.15933847092E+02  0.81965396360E+02  0.12750759036E+03  0.89650826098E+02 0.  0.
         13    1    3    3    0    0 -0.28888021915E+02 -0.89419839377E+01 -0.10131636478E+02  0.31892427700E+02  0.00000000000E+00 0. -1.
        -13    1    3    3    0    0 -0.64489459198E+01  0.24875831029E+02  0.92097032837E+02  0.95615162659E+02  0.00000000000E+00 0.  1.
         22    1    1    2    0    0  0.35336967835E+02 -0.15933847092E+02  0.12254473599E+03  0.12852937834E+03  0.00000000000E+00 0. -1.
<mgrwt>
<rscale>  0 0.77523480E+02</rscale>
<asrwt>0</asrwt>
<pdfrwt beam="1">  1        4 0.39636030E-02 0.97672204E+02</pdfrwt>
<pdfrwt beam="2">  1       -4 0.35426699E-01 0.97672204E+02</pdfrwt>
<totfact> 0.40284366E+03</totfact>
</mgrwt>
</event>
<event>
 6    1  0.3062576E-002  0.8994028E+02  0.7546771E-02  0.1407576E+00
         -2   -1    0    0    0  501 -0.00000000000E+00  0.00000000000E+00  0.51729708606E+01  0.51729708606E+01  0.00000000000E+00 0.  1.
          2   -1    0    0  501    0  0.00000000000E+00 -0.00000000000E+00 -0.67650945822E+03  0.67650945822E+03  0.00000000000E+00 0. -1.
         23    2    1    2    0    0  0.86256249732E+01  0.12606910273E+02 -0.64496877116E+03  0.65120962070E+03  0.88633620781E+02 0.  0.
         13    1    3    3    0    0 -0.13866636767E+02 -0.34468235500E+02 -0.23152694847E+03  0.23448895655E+03  0.00000000000E+00 0. -1.
        -13    1    3    3    0    0  0.22492261740E+02  0.47075145773E+02 -0.41344182268E+03  0.41672066415E+03  0.00000000000E+00 0.  1.
         22    1    1    2    0    0 -0.86256249732E+01 -0.12606910273E+02 -0.26367716201E+02  0.30472808378E+02  0.00000000000E+00 0. -1.
<mgrwt>
<rscale>  0 0.57738209E+02</rscale>
<asrwt>0</asrwt>
<pdfrwt beam="1">  1        2 0.10407837E+00 0.89940282E+02</pdfrwt>
<pdfrwt beam="2">  1       -2 0.79584174E-03 0.89940282E+02</pdfrwt>
<totfact> 0.11287769E+05</totfact>
</mgrwt>
</event>
<event>
 6    1  0.3062576E-002  0.9440686E+02  0.7546771E-02  0.1370746E+00
          1   -1    0    0  501    0  0.00000000000E+00  0.00000000000E+00  0.12658724681E+03  0.12658724681E+03  0.00000000000E+00 0. -1.
         -1   -1    0    0    0  501 -0.00000000000E+00 -0.00000000000E+00 -0.29919217331E+02  0.29919217331E+02  0.00000000000E+00 0.  1.
         23    2    1    2    0    0  0.21786438517E+02  0.98078410493E+01  0.92656808392E+02  0.13227977341E+03  0.91333518837E+02 0.  0.
         11    1    3    3    0    0 -0.11013348113E+02 -0.22249312805E+02  0.81334671239E+02  0.85039135123E+02  0.00000000000E+00 0. -1.
        -11    1    3    3    0    0  0.32799786630E+02  0.32057153854E+02  0.11322137153E+02  0.47240638289E+02  0.00000000000E+00 0.  1.
         22    1    1    2    0    0 -0.21786438517E+02 -0.98078410493E+01  0.40112210917E+01  0.24226690735E+02  0.00000000000E+00 0. -1.
<mgrwt>
<rscale>  0 0.66960271E+02</rscale>
<asrwt>0</asrwt>
<pdfrwt beam="1">  1        1 0.19474961E-01 0.94406855E+02</pdfrwt>
<pdfrwt beam="2">  1       -1 0.46029566E-02 0.94406855E+02</pdfrwt>
<totfact> 0.45877110E+04</totfact>
</mgrwt>
</event>
<event>
 6    1  0.3062576E-002  0.1169617E+03  0.7546771E-02  0.1272035E+00
          2   -1    0    0  501    0  0.00000000000E+00  0.00000000000E+00  0.21944559803E+03  0.21944559803E+03  0.00000000000E+00 0. -1.
         -2   -1    0    0    0  501 -0.00000000000E+00 -0.00000000000E+00 -0.42471136603E+02  0.42471136603E+02  0.00000000000E+00 0.  1.
         23    2    1    2    0    0 -0.45877417513E+02  0.57050770215E+02  0.13030123534E+03  0.17509555143E+03  0.91216842626E+02 0.  0.
         13    1    3    3    0    0  0.95272203311E+01  0.60375892470E+02  0.74879382672E+02  0.96658875786E+02  0.00000000000E+00 0. -1.
        -13    1    3    3    0    0 -0.55404637844E+02 -0.33251222544E+01  0.55421852672E+02  0.78436675645E+02  0.00000000000E+00 0.  1.
         22    1    1    2    0    0  0.45877417513E+02 -0.57050770215E+02  0.46673226086E+02  0.86821183205E+02  0.00000000000E+00 0. -1.
<mgrwt>
<rscale>  0 0.10403359E+03</rscale>
<asrwt>0</asrwt>
<pdfrwt beam="1">  1        2 0.33760861E-01 0.11696170E+03</pdfrwt>
<pdfrwt beam="2">  1       -2 0.65340211E-02 0.11696170E+03</pdfrwt>
<totfact> 0.18360349E+04</totfact>
</mgrwt>
</event>
<event>
 6    1  0.3062576E-002  0.9273497E+02  0.7546771E-02  0.1423974E+00
          2   -1    0    0  501    0  0.00000000000E+00  0.00000000000E+00  0.28086616250E+03  0.28086616250E+03  0.00000000000E+00 0. -1.
         -2   -1    0    0    0  501 -0.00000000000E+00 -0.00000000000E+00 -0.11672621205E+02  0.11672621205E+02  0.00000000000E+00 0.  1.
         23    2    1    2    0    0 -0.37303848357E+01  0.10148189653E+02  0.26531042552E+03  0.28105052394E+03  0.92102516774E+02 0.  0.
         13    1    3    3    0    0  0.17096235691E+02 -0.11276061347E+02  0.24274643667E+03  0.24360883266E+03  0.00000000000E+00 0. -1.
        -13    1    3    3    0    0 -0.20826620526E+02  0.21424250999E+02  0.22563988849E+02  0.37441691284E+02  0.00000000000E+00 0.  1.
         22    1    1    2    0    0  0.37303848357E+01 -0.10148189653E+02  0.38831157788E+01  0.11488259764E+02  0.00000000000E+00 0.  1.
<mgrwt>
<rscale>  0 0.54188881E+02</rscale>
<asrwt>0</asrwt>
<pdfrwt beam="1">  1        2 0.43210174E-01 0.92734972E+02</pdfrwt>
<pdfrwt beam="2">  1       -2 0.17957881E-02 0.92734972E+02</pdfrwt>
<totfact> 0.91768314E+04</totfact>
</mgrwt>
</event>
<event>
 6    1  0.3062576E-002  0.9239710E+02  0.7546771E-02  0.1385926E+00
         -1   -1    0    0    0  501 -0.00000000000E+00  0.00000000000E+00  0.39041601475E+02  0.39041601475E+02  0.00000000000E+00 0.  1.
          1   -1    0    0  501    0  0.00000000000E+00 -0.00000000000E+00 -0.88159442970E+02  0.88159442970E+02  0.00000000000E+00 0. -1.
         23    2    1    2    0    0 -0.11484261584E+02 -0.16231776233E+02 -0.53600033838E+02  0.10681848150E+03  0.90232286570E+02 0.  0.
         11    1    3    3    0    0  0.25077357479E+02  0.26106579424E+02 -0.17199635816E+02  0.40078108982E+02  0.00000000000E+00 0. -1.
        -11    1    3    3    0    0 -0.36561619063E+02 -0.42338355657E+02 -0.36400398022E+02  0.66740372523E+02  0.00000000000E+00 0.  1.
         22    1    1    2    0    0  0.11484261584E+02  0.16231776233E+02  0.44821923434E+01  0.20382562940E+02  0.00000000000E+00 0. -1.
<mgrwt>
<rscale>  0 0.62931443E+02</rscale>
<asrwt>0</asrwt>
<pdfrwt beam="1">  1        1 0.13562991E-01 0.92397101E+02</pdfrwt>
<pdfrwt beam="2">  1       -1 0.60064003E-02 0.92397101E+02</pdfrwt>
<totfact> 0.49071159E+04</totfact>
</mgrwt>
</event>
<event>
 6    1  0.3062576E-002  0.9300448E+02  0.7546771E-02  0.1419223E+00
          1   -1    0    0  501    0  0.00000000000E+00  0.00000000000E+00  0.51124315774E+03  0.51124315774E+03  0.00000000000E+00 0. -1.
         -1   -1    0    0    0  501 -0.00000000000E+00 -0.00000000000E+00 -0.13544509624E+02  0.13544509624E+02  0.00000000000E+00 0.  1.
         23    2    1    2    0    0  0.68893902401E+00  0.11508349529E+02  0.50340468864E+03  0.51192393367E+03  0.92287141975E+02 0.  0.
         11    1    3    3    0    0  0.35625493789E+02 -0.22562320336E+02  0.18102196940E+03  0.18586873732E+03  0.00000000000E+00 0.  1.
        -11    1    3    3    0    0 -0.34936554765E+02  0.34070669865E+02  0.32238271924E+03  0.32605519635E+03  0.00000000000E+00 0. -1.
         22    1    1    2    0    0 -0.68893902401E+00 -0.11508349529E+02 -0.57060405290E+01  0.12863733688E+02  0.00000000000E+00 0.  1.
<mgrwt>
<rscale>  0 0.55185549E+02</rscale>
<asrwt>0</asrwt>
<pdfrwt beam="1">  1        1 0.78652779E-01 0.93004480E+02</pdfrwt>
<pdfrwt beam="2">  1       -1 0.20837711E-02 0.93004480E+02</pdfrwt>
<totfact> 0.25516647E+04</totfact>
</mgrwt>
</event>
<event>
 6    1  0.3062576E-002  0.9637984E+02  0.7546771E-02  0.1353700E+00
          2   -1    0    0  501    0  0.00000000000E+00  0.00000000000E+00  0.18998394759E+04  0.18998394759E+04  0.00000000000E+00 0. -1.
         -2   -1    0    0    0  501 -0.00000000000E+00 -0.00000000000E+00 -0.31231570520E+02  0.31231570520E+02  0.00000000000E+00 0.  1.
         23    2    1    2    0    0 -0.27647566748E+02 -0.11320468798E+02  0.18911755763E+04  0.18936298828E+04  0.91632590775E+02 0.  0.
         11    1    3    3    0    0 -0.56904283349E+02 -0.11534624905E+02  0.15840895205E+04  0.15851532273E+04  0.00000000000E+00 0. -1.
        -11    1    3    3    0    0  0.29256716601E+02  0.21415610703E+00  0.30708605585E+03  0.30847665556E+03  0.00000000000E+00 0.  1.
         22    1    1    2    0    0  0.27647566748E+02  0.11320468798E+02 -0.22567670931E+02  0.37441163606E+02  0.00000000000E+00 0.  1.
<mgrwt>
<rscale>  0 0.71914780E+02</rscale>
<asrwt>0</asrwt>
<pdfrwt beam="1">  1        2 0.29228291E+00 0.96379835E+02</pdfrwt>
<pdfrwt beam="2">  1       -2 0.48048585E-02 0.96379835E+02</pdfrwt>
<totfact> 0.17678729E+03</totfact>
</mgrwt>
</event>
<event>
 6    1  0.3062576E-002  0.8993580E+02  0.7546771E-02  0.1435080E+00
          2   -1    0    0  501    0  0.00000000000E+00  0.00000000000E+00  0.52846806241E+03  0.52846806241E+03  0.00000000000E+00 0. -1.
         -2   -1    0    0    0  501 -0.00000000000E+00 -0.00000000000E+00 -0.74246618382E+01  0.74246618382E+01  0.00000000000E+00 0.  1.
         23    2    1    2    0    0  0.47384186267E+01  0.88235794276E+01  0.51751868422E+03  0.52527520145E+03  0.89376398324E+02 0.  0.
         11    1    3    3    0    0 -0.38539455729E+02  0.24773569629E+01  0.13992824637E+03  0.14515970887E+03  0.00000000000E+00 0.  1.
        -11    1    3    3    0    0  0.43277874356E+02  0.63462224647E+01  0.37759043785E+03  0.38011549258E+03  0.00000000000E+00 0. -1.
         22    1    1    2    0    0 -0.47384186267E+01 -0.88235794276E+01  0.35247163519E+01  0.10617522798E+02  0.00000000000E+00 0.  1.
<mgrwt>
<rscale>  0 0.51953702E+02</rscale>
<asrwt>0</asrwt>
<pdfrwt beam="1">  1        2 0.81302749E-01 0.89935803E+02</pdfrwt>
<pdfrwt beam="2">  1       -2 0.11422561E-02 0.89935803E+02</pdfrwt>
<totfact> 0.89273189E+04</totfact>
</mgrwt>
</event>
<event>
 6    1  0.3062576E-002  0.9781460E+02  0.7546771E-02  0.1342322E+00
          2   -1    0    0  501    0  0.00000000000E+00  0.00000000000E+00  0.68671978333E+03  0.68671978333E+03  0.00000000000E+00 0. -1.
         -2   -1    0    0    0  501 -0.00000000000E+00 -0.00000000000E+00 -0.64013662858E+01  0.64013662858E+01  0.00000000000E+00 0.  1.
         23    2    1    2    0    0 -0.21415507635E+02 -0.27334412289E+02  0.49239983341E+03  0.50202120682E+03  0.91443436559E+02 0.  0.
         13    1    3    3    0    0  0.20896592542E+02 -0.25563798523E+02  0.38737501928E+03  0.38877960457E+03  0.00000000000E+00 0. -1.
        -13    1    3    3    0    0 -0.42312100177E+02 -0.17706137657E+01  0.10502481414E+03  0.11324160225E+03  0.00000000000E+00 0.  1.
         22    1    1    2    0    0  0.21415507635E+02  0.27334412289E+02  0.18791858362E+03  0.19109994279E+03  0.00000000000E+00 0.  1.
<mgrwt>
<rscale>  0 0.75502600E+02</rscale>
<asrwt>0</asrwt>
<pdfrwt beam="1">  1        2 0.10564914E+00 0.97814601E+02</pdfrwt>
<pdfrwt beam="2">  1       -2 0.98482613E-03 0.97814601E+02</pdfrwt>
<totfact> 0.83023798E+04</totfact>
</mgrwt>
</event>
<event>
 6    1  0.3062576E-002  0.1019544E+03  0.7546771E-02  0.1318942E+00
         -1   -1    0    0    0  501 -0.00000000000E+00  0.00000000000E+00  0.17936715509E+02  0.17936715509E+02  0.00000000000E+00 0.  1.
          1   -1    0    0  501    0  0.00000000000E+00 -0.00000000000E+00 -0.30613666396E+03  0.30613666396E+03  0.00000000000E+00 0. -1.
         23    2    1    2    0    0  0.39350904605E+02  0.24299640383E+02 -0.19793080138E+03  0.22264613890E+03  0.90861074270E+02 0.  0.
         13    1    3    3    0    0  0.69694696317E+01 -0.61675798034E+01 -0.16975268310E+03  0.17000760561E+03  0.00000000000E+00 0. -1.
        -13    1    3    3    0    0  0.32381434973E+02  0.30467220186E+02 -0.28178118278E+02  0.52638533286E+02  0.00000000000E+00 0.  1.
         22    1    1    2    0    0 -0.39350904605E+02 -0.24299640383E+02 -0.90269147076E+02  0.10142724057E+03  0.00000000000E+00 0.  1.
<mgrwt>
<rscale>  0 0.83671970E+02</rscale>
<asrwt>0</asrwt>
<pdfrwt beam="1">  1        1 0.47097946E-01 0.10195441E+03</pdfrwt>
<pdfrwt beam="2">  1       -1 0.27594948E-02 0.10195441E+03</pdfrwt>
<totfact> 0.32696842E+04</totfact>
</mgrwt>
</event>
<event>
 6    1  0.3062576E-002  0.1147508E+03  0.7546771E-02  0.1373797E+00
         -4   -1    0    0    0  501 -0.00000000000E+00  0.00000000000E+00  0.22518029272E+02  0.22518029272E+02  0.00000000000E+00 0.  1.
          4   -1    0    0  501    0  0.00000000000E+00 -0.00000000000E+00 -0.18080269024E+03  0.18080269024E+03  0.00000000000E+00 0. -1.
         23    2    1    2    0    0  0.10874846479E+02 -0.64650383560E+01 -0.14586656427E+03  0.18559311018E+03  0.11405125588E+03 0.  0.
         11    1    3    3    0    0 -0.37168620534E+02 -0.36093569527E+02 -0.10090849658E+03  0.11343181563E+03  0.00000000000E+00 0. -1.
        -11    1    3    3    0    0  0.48043467013E+02  0.29628531171E+02 -0.44958067685E+02  0.72161294556E+02  0.00000000000E+00 0.  1.
         22    1    1    2    0    0 -0.10874846479E+02  0.64650383560E+01 -0.12418096696E+02  0.17727609326E+02  0.00000000000E+00 0.  1.
<mgrwt>
<rscale>  0 0.66122890E+02</rscale>
<asrwt>0</asrwt>
<pdfrwt beam="1">  1        4 0.27815798E-01 0.11475081E+03</pdfrwt>
<pdfrwt beam="2">  1       -4 0.34643123E-02 0.11475081E+03</pdfrwt>
<totfact> 0.82186831E+03</totfact>
</mgrwt>
</event>
<event>
 6    1  0.3062576E-002  0.9313246E+02  0.7546771E-02  0.1414182E+00
          3   -1    0    0  501    0  0.00000000000E+00  0.00000000000E+00  0.58955908806E+03  0.58955908806E+03  0.00000000000E+00 0. -1.
         -3   -1    0    0    0  501 -0.00000000000E+00 -0.00000000000E+00 -0.50781157111E+01  0.50781157111E+01  0.00000000000E+00 0.  1.
         23    2    1    2    0    0 -0.10346531918E+01  0.12368606926E+02  0.55318297939E+03  0.56096796992E+03  0.92301688235E+02 0.  0.
         11    1    3    3    0    0  0.30646580264E+01 -0.22881418543E+02  0.46955167955E+03  0.47011884797E+03  0.00000000000E+00 0. -1.
        -11    1    3    3    0    0 -0.40993112181E+01  0.35250025469E+02  0.83631299834E+02  0.90849121955E+02  0.00000000000E+00 0.  1.
         22    1    1    2    0    0  0.10346531918E+01 -0.12368606926E+02  0.31297992963E+02  0.33669233849E+02  0.00000000000E+00 0.  1.
<mgrwt>
<rscale>  0 0.56270989E+02</rscale>
<asrwt>0</asrwt>
<pdfrwt beam="1">  1        3 0.90701344E-01 0.93132457E+02</pdfrwt>
<pdfrwt beam="2">  1       -3 0.78124904E-03 0.93132457E+02</pdfrwt>
<totfact> 0.93362403E+03</totfact>
</mgrwt>
</event>
<event>
 6    1  0.3062576E-002  0.9531214E+02  0.7546771E-02  0.1382660E+00
         -2   -1    0    0    0  501 -0.00000000000E+00  0.00000000000E+00  0.36241880157E+02  0.36241880157E+02  0.00000000000E+00 0.  1.
          2   -1    0    0  501    0  0.00000000000E+00 -0.00000000000E+00 -0.91596809961E+02  0.91596809961E+02  0.00000000000E+00 0. -1.
         23    2    1    2    0    0  0.12584614797E+02 -0.14366734655E+02 -0.40138270590E+02  0.10341897857E+03  0.93378952495E+02 0.  0.
         13    1    3    3    0    0 -0.35496224535E+02  0.15404678913E+02 -0.14427826726E+02  0.41297073415E+02  0.00000000000E+00 0. -1.
        -13    1    3    3    0    0  0.48080839332E+02 -0.29771413569E+02 -0.25710443864E+02  0.62121905158E+02  0.00000000000E+00 0.  1.
         22    1    1    2    0    0 -0.12584614797E+02  0.14366734655E+02 -0.15216659215E+02  0.24419711544E+02  0.00000000000E+00 0. -1.
<mgrwt>
<rscale>  0 0.63769703E+02</rscale>
<asrwt>0</asrwt>
<pdfrwt beam="1">  1        2 0.14091817E-01 0.95312142E+02</pdfrwt>
<pdfrwt beam="2">  1       -2 0.55756740E-02 0.95312142E+02</pdfrwt>
<totfact> 0.60190930E+04</totfact>
</mgrwt>
</event>
<event>
 6    1  0.3062576E-002  0.9786675E+02  0.7546771E-02  0.1332236E+00
         -4   -1    0    0    0  501 -0.00000000000E+00  0.00000000000E+00  0.16966315865E+02  0.16966315865E+02  0.00000000000E+00 0.  1.
          4   -1    0    0  501    0  0.00000000000E+00 -0.00000000000E+00 -0.28921258393E+03  0.28921258393E+03  0.00000000000E+00 0. -1.
         23    2    1    2    0    0 -0.41315548827E+02  0.50094736069E+00 -0.20667163337E+03  0.22867239531E+03  0.88716823720E+02 0.  0.
         11    1    3    3    0    0 -0.28694070824E+02 -0.25119320137E+02 -0.19349789746E+03  0.19722009600E+03  0.00000000000E+00 0. -1.
        -11    1    3    3    0    0 -0.12621478003E+02  0.25620267497E+02 -0.13173735908E+02  0.31452299302E+02  0.00000000000E+00 0.  1.
         22    1    1    2    0    0  0.41315548827E+02 -0.50094736069E+00 -0.65574634690E+02  0.77506504487E+02  0.00000000000E+00 0.  1.
<mgrwt>
<rscale>  0 0.78888324E+02</rscale>
<asrwt>0</asrwt>
<pdfrwt beam="1">  1        4 0.44494247E-01 0.97866748E+02</pdfrwt>
<pdfrwt beam="2">  1       -4 0.26102023E-02 0.97866748E+02</pdfrwt>
<totfact> 0.49580790E+03</totfact>
</mgrwt>
</event>
<event>
 6    1  0.3062576E-002  0.9390286E+02  0.7546771E-02  0.1378007E+00
         -2   -1    0    0    0  501 -0.00000000000E+00  0.00000000000E+00  0.41704592461E+01  0.41704592461E+01  0.00000000000E+00 0.  1.
          2   -1    0    0  501    0  0.00000000000E+00 -0.00000000000E+00 -0.90704298660E+03  0.90704298660E+03  0.00000000000E+00 0. -1.
         23    2    1    2    0    0  0.94207007567E+01 -0.19377146947E+02 -0.82783915527E+03  0.83314789420E+03  0.91397610449E+02 0.  0.
         11    1    3    3    0    0  0.15485008648E+02  0.10409617533E+02 -0.34464933209E+02  0.39191545658E+02  0.00000000000E+00 0.  1.
        -11    1    3    3    0    0 -0.60643078913E+01 -0.29786764479E+02 -0.79337422206E+03  0.79395634855E+03  0.00000000000E+00 0. -1.
         22    1    1    2    0    0 -0.94207007567E+01  0.19377146947E+02 -0.75033372083E+02  0.78065551639E+02  0.00000000000E+00 0.  1.
<mgrwt>
<rscale>  0 0.64990516E+02</rscale>
<asrwt>0</asrwt>
<pdfrwt beam="1">  1        2 0.13954484E+00 0.93902857E+02</pdfrwt>
<pdfrwt beam="2">  1       -2 0.64161021E-03 0.93902857E+02</pdfrwt>
<totfact> 0.10768236E+05</totfact>
</mgrwt>
</event>
<event>
 6    1  0.3062576E-002  0.9313147E+02  0.7546771E-02  0.1346580E+00
         -1   -1    0    0    0  501 -0.00000000000E+00  0.00000000000E+00  0.44133108434E+01  0.44133108434E+01  0.00000000000E+00 0.  1.
          1   -1    0    0  501    0  0.00000000000E+00 -0.00000000000E+00 -0.14155748210E+04  0.14155748210E+04  0.00000000000E+00 0. -1.
         23    2    1    2    0    0  0.22245634108E+02 -0.30049998905E+02 -0.12858418855E+04  0.12892101558E+04  0.85297132815E+02 0.  0.
         13    1    3    3    0    0  0.31815130890E+02 -0.18382221591E+02 -0.12469813841E+04  0.12475226174E+04  0.00000000000E+00 0. -1.
        -13    1    3    3    0    0 -0.95694967819E+01 -0.11667777313E+02 -0.38860501347E+02  0.41687538439E+02  0.00000000000E+00 0.  1.
         22    1    1    2    0    0 -0.22245634108E+02  0.30049998905E+02 -0.12531962466E+03  0.13077797596E+03  0.00000000000E+00 0.  1.
<mgrwt>
<rscale>  0 0.74132003E+02</rscale>
<asrwt>0</asrwt>
<pdfrwt beam="1">  1        1 0.21778108E+00 0.93131474E+02</pdfrwt>
<pdfrwt beam="2">  1       -1 0.67896985E-03 0.93131474E+02</pdfrwt>
<totfact> 0.24919185E+04</totfact>
</mgrwt>
</event>
<event>
 6    1  0.3062576E-002  0.8556376E+02  0.7546771E-02  0.1427977E+00
         -1   -1    0    0    0  501 -0.00000000000E+00  0.00000000000E+00  0.41740082778E+02  0.41740082778E+02  0.00000000000E+00 0.  1.
          1   -1    0    0  501    0  0.00000000000E+00 -0.00000000000E+00 -0.58232170160E+02  0.58232170160E+02  0.00000000000E+00 0. -1.
         23    2    1    2    0    0  0.11312802199E+02 -0.63022722730E+01 -0.15749283323E+02  0.87001135512E+02  0.84578126757E+02 0.  0.
         13    1    3    3    0    0  0.38796462474E+02 -0.10629162816E+01 -0.35624171809E+02  0.52681846101E+02  0.00000000000E+00 0. -1.
        -13    1    3    3    0    0 -0.27483660275E+02 -0.52393559914E+01  0.19874888486E+02  0.34319289411E+02  0.00000000000E+00 0.  1.
         22    1    1    2    0    0 -0.11312802199E+02  0.63022722730E+01 -0.74280405837E+00  0.12971117426E+02  0.00000000000E+00 0. -1.
<mgrwt>
<rscale>  0 0.53368308E+02</rscale>
<asrwt>0</asrwt>
<pdfrwt beam="1">  1        1 0.89587953E-02 0.85563764E+02</pdfrwt>
<pdfrwt beam="2">  1       -1 0.64215513E-02 0.85563764E+02</pdfrwt>
<totfact> 0.75420305E+04</totfact>
</mgrwt>
</event>
<event>
 6    1  0.3062576E-002  0.9474099E+02  0.7546771E-02  0.1362803E+00
         -2   -1    0    0    0  501 -0.00000000000E+00  0.00000000000E+00  0.51859484149E+01  0.51859484149E+01  0.00000000000E+00 0. -1.
          2   -1    0    0  501    0  0.00000000000E+00 -0.00000000000E+00 -0.16595829069E+04  0.16595829069E+04  0.00000000000E+00 0.  1.
         23    2    1    2    0    0 -0.16123167874E+02 -0.21632662862E+02 -0.16102193959E+04  0.16130041407E+04  0.90818094362E+02 0.  0.
         11    1    3    3    0    0 -0.35421820671E+02 -0.48292228806E+02 -0.11853009538E+04  0.11868130417E+04  0.00000000000E+00 0.  1.
        -11    1    3    3    0    0  0.19298652798E+02  0.26659565945E+02 -0.42491844210E+03  0.42619109903E+03  0.00000000000E+00 0. -1.
         22    1    1    2    0    0  0.16123167874E+02  0.21632662862E+02 -0.44177562531E+02  0.51764714584E+02  0.00000000000E+00 0. -1.
<mgrwt>
<rscale>  0 0.69209312E+02</rscale>
<asrwt>0</asrwt>
<pdfrwt beam="1">  1        2 0.25532049E+00 0.94740989E+02</pdfrwt>
<pdfrwt beam="2">  1       -2 0.79783809E-03 0.94740989E+02</pdfrwt>
<totfact> 0.31030188E+04</totfact>
</mgrwt>
</event>
<event>
 6    1  0.3062576E-002  0.8802187E+02  0.7546771E-02  0.1402993E+00
         -2   -1    0    0    0  501 -0.00000000000E+00  0.00000000000E+00  0.75659207474E+01  0.75659207474E+01  0.00000000000E+00 0.  1.
          2   -1    0    0  501    0  0.00000000000E+00 -0.00000000000E+00 -0.39505529360E+03  0.39505529360E+03  0.00000000000E+00 0. -1.
         23    2    1    2    0    0 -0.41356184409E+01  0.17017502945E+02 -0.35458140356E+03  0.36534343022E+03  0.86262109349E+02 0.  0.
         13    1    3    3    0    0  0.40038014613E+02  0.15782202773E+02 -0.19947519973E+03  0.20406488146E+03  0.00000000000E+00 0. -1.
        -13    1    3    3    0    0 -0.44173633054E+02  0.12353001722E+01 -0.15510620383E+03  0.16127854876E+03  0.00000000000E+00 0.  1.
         22    1    1    2    0    0  0.41356184409E+01 -0.17017502945E+02 -0.32907969295E+02  0.37277784128E+02  0.00000000000E+00 0. -1.
<mgrwt>
<rscale>  0 0.58787089E+02</rscale>
<asrwt>0</asrwt>
<pdfrwt beam="1">  1        2 0.60777740E-01 0.88021874E+02</pdfrwt>
<pdfrwt beam="2">  1       -2 0.11639878E-02 0.88021874E+02</pdfrwt>
<totfact> 0.11820454E+05</totfact>
</mgrwt>
</event>
<event>
 6    1  0.3062576E-002  0.9306285E+02  0.7546771E-02  0.1362298E+00
         -2   -1    0    0    0  501 -0.00000000000E+00  0.00000000000E+00  0.34445337925E+01  0.34445337925E+01  0.00000000000E+00 0.  1.
          2   -1    0    0  501    0  0.00000000000E+00 -0.00000000000E+00 -0.14081924155E+04  0.14081924155E+04  0.00000000000E+00 0. -1.
         23    2    1    2    0    0  0.11610726207E+02  0.26254847704E+02 -0.12900012558E+04  0.12933537546E+04  0.88524395326E+02 0.  0.
         13    1    3    3    0    0  0.44378148217E+02  0.12021188392E+02 -0.10151176557E+04  0.10161583459E+04  0.00000000000E+00 0. -1.
        -13    1    3    3    0    0 -0.32767422010E+02  0.14233659312E+02 -0.27488360007E+03  0.27719540867E+03  0.00000000000E+00 0.  1.
         22    1    1    2    0    0 -0.11610726207E+02 -0.26254847704E+02 -0.11474662595E+03  0.11828319474E+03  0.00000000000E+00 0.  1.
<mgrwt>
<rscale>  0 0.69355590E+02</rscale>
<asrwt>0</asrwt>
<pdfrwt beam="1">  1        2 0.21664555E+00 0.93062853E+02</pdfrwt>
<pdfrwt beam="2">  1       -2 0.52992689E-03 0.93062853E+02</pdfrwt>
<totfact> 0.74041332E+04</totfact>
</mgrwt>
</event>
<event>
 6    1  0.3062576E-002  0.9021769E+02  0.7546771E-02  0.1418122E+00
         -2   -1    0    0    0  501 -0.00000000000E+00  0.00000000000E+00  0.62587503127E+01  0.62587503127E+01  0.00000000000E+00 0.  1.
          2   -1    0    0  501    0  0.00000000000E+00 -0.00000000000E+00 -0.45322735006E+03  0.45322735006E+03  0.00000000000E+00 0. -1.
         23    2    1    2    0    0 -0.10700255067E+02 -0.71097281318E+01 -0.42044023731E+03  0.43001072580E+03  0.89298306039E+02 0.  0.
         13    1    3    3    0    0 -0.18859534825E+02 -0.13900070964E+02 -0.24394868429E+02  0.33823122746E+02  0.00000000000E+00 0.  1.
        -13    1    3    3    0    0  0.81592797574E+01  0.67903428321E+01 -0.39604536888E+03  0.39618760305E+03  0.00000000000E+00 0. -1.
         22    1    1    2    0    0  0.10700255067E+02  0.71097281318E+01 -0.26528362445E+02  0.29475374580E+02  0.00000000000E+00 0. -1.
<mgrwt>
<rscale>  0 0.55420270E+02</rscale>
<asrwt>0</asrwt>
<pdfrwt beam="1">  1        2 0.69727289E-01 0.90217688E+02</pdfrwt>
<pdfrwt beam="2">  1       -2 0.96288460E-03 0.90217688E+02</pdfrwt>
<totfact> 0.13423161E+05</totfact>
</mgrwt>
</event>
<event>
 6    1  0.3062576E-002  0.8806159E+02  0.7546771E-02  0.1435734E+00
          2   -1    0    0  501    0  0.00000000000E+00  0.00000000000E+00  0.22999371887E+04  0.22999371887E+04  0.00000000000E+00 0. -1.
         -2   -1    0    0    0  501 -0.00000000000E+00 -0.00000000000E+00 -0.14079444486E+01  0.14079444486E+01  0.00000000000E+00 0.  1.
         23    2    1    2    0    0 -0.61728401070E+01  0.85730964923E+01  0.22479607030E+04  0.22496849038E+04  0.87425636592E+02 0.  0.
         13    1    3    3    0    0  0.93563033940E+00 -0.11439840361E+02  0.21156026144E+04  0.21156337507E+04  0.00000000000E+00 0. -1.
        -13    1    3    3    0    0 -0.71084704464E+01  0.20012936854E+02  0.13235808866E+03  0.13405115303E+03  0.00000000000E+00 0.  1.
         22    1    1    2    0    0  0.61728401070E+01 -0.85730964923E+01  0.50568541224E+02  0.51660229383E+02  0.00000000000E+00 0.  1.
<mgrwt>
<rscale>  0 0.51826140E+02</rscale>
<asrwt>0</asrwt>
<pdfrwt beam="1">  1        2 0.35383348E+00 0.88061591E+02</pdfrwt>
<pdfrwt beam="2">  1       -2 0.21660868E-03 0.88061591E+02</pdfrwt>
<totfact> 0.90747310E+04</totfact>
</mgrwt>
</event>
<event>
 6    1  0.3062576E-002  0.9066369E+02  0.7546771E-02  0.1408447E+00
          2   -1    0    0  501    0  0.00000000000E+00  0.00000000000E+00  0.13583342768E+04  0.13583342768E+04  0.00000000000E+00 0. -1.
         -2   -1    0    0    0  501 -0.00000000000E+00 -0.00000000000E+00 -0.25627072652E+01  0.25627072652E+01  0.00000000000E+00 0.  1.
         23    2    1    2    0    0  0.32493651916E+01 -0.14347273673E+02  0.13018983999E+04  0.13050514736E+04  0.89462295796E+02 0.  0.
         11    1    3    3    0    0  0.20458104597E+02 -0.19034641798E+02  0.12473147623E+04  0.12476277361E+04  0.00000000000E+00 0. -1.
        -11    1    3    3    0    0 -0.17208739406E+02  0.46873681249E+01  0.54583637668E+02  0.57423737539E+02  0.00000000000E+00 0.  1.
         22    1    1    2    0    0 -0.32493651916E+01  0.14347273673E+02  0.53873169639E+02  0.55845510500E+02  0.00000000000E+00 0.  1.
<mgrwt>
<rscale>  0 0.57541724E+02</rscale>
<asrwt>0</asrwt>
<pdfrwt beam="1">  1        2 0.20897393E+00 0.90663692E+02</pdfrwt>
<pdfrwt beam="2">  1       -2 0.39426374E-03 0.90663692E+02</pdfrwt>
<totfact> 0.11855033E+05</totfact>
</mgrwt>
</event>
<event>
 6    1  0.3062576E-002  0.9607984E+02  0.7546771E-02  0.1354149E+00
          1   -1    0    0  501    0  0.00000000000E+00  0.00000000000E+00  0.82189977316E+03  0.82189977316E+03  0.00000000000E+00 0.  1.
         -1   -1    0    0    0  501 -0.00000000000E+00 -0.00000000000E+00 -0.48782162341E+01  0.48782162341E+01  0.00000000000E+00 0. -1.
         23    2    1    2    0    0 -0.29640630364E+02  0.41327661536E+01  0.65602555601E+03  0.66302403056E+03  0.91299990312E+02 0.  0.
         11    1    3    3    0    0 -0.23390217437E+02  0.60902840254E+01  0.38463521428E+02  0.45427263971E+02  0.00000000000E+00 0. -1.
        -11    1    3    3    0    0 -0.62504129274E+01 -0.19575178719E+01  0.61756203459E+03  0.61759676659E+03  0.00000000000E+00 0.  1.
         22    1    1    2    0    0  0.29640630364E+02 -0.41327661536E+01  0.16099600091E+03  0.16375395883E+03  0.00000000000E+00 0. -1.
<mgrwt>
<rscale>  0 0.71777989E+02</rscale>
<asrwt>0</asrwt>
<pdfrwt beam="1">  1        1 0.12644601E+00 0.96079836E+02</pdfrwt>
<pdfrwt beam="2">  1       -1 0.75049546E-03 0.96079836E+02</pdfrwt>
<totfact> 0.56514878E+04</totfact>
</mgrwt>
</event>
<event>
 6    1  0.3062576E-002  0.9315832E+02  0.7546771E-02  0.1417761E+00
         -1   -1    0    0    0  501 -0.00000000000E+00  0.00000000000E+00  0.78895690843E+01  0.78895690843E+01  0.00000000000E+00 0.  1.
          1   -1    0    0  501    0  0.00000000000E+00 -0.00000000000E+00 -0.36223670727E+03  0.36223670727E+03  0.00000000000E+00 0. -1.
         23    2    1    2    0    0 -0.11427697684E+02 -0.26609786395E+01 -0.33278657447E+03  0.34557976969E+03  0.92416448696E+02 0.  0.
         11    1    3    3    0    0  0.57864953583E+01  0.65005295653E+01  0.30165967296E+01  0.92108777535E+01  0.00000000000E+00 0.  1.
        -11    1    3    3    0    0 -0.17214193042E+02 -0.91615082047E+01 -0.33580317120E+03  0.33636889193E+03  0.00000000000E+00 0. -1.
         22    1    1    2    0    0  0.11427697684E+02  0.26609786395E+01 -0.21560563713E+02  0.24546506662E+02  0.00000000000E+00 0.  1.
<mgrwt>
<rscale>  0 0.55497366E+02</rscale>
<asrwt>0</asrwt>
<pdfrwt beam="1">  1        1 0.55728722E-01 0.93158323E+02</pdfrwt>
<pdfrwt beam="2">  1       -1 0.12137799E-02 0.93158323E+02</pdfrwt>
<totfact> 0.84871722E+04</totfact>
</mgrwt>
</event>
<event>
 6    1  0.3062576E-002  0.9191532E+02  0.7546771E-02  0.1429538E+00
          1   -1    0    0  501    0  0.00000000000E+00  0.00000000000E+00  0.53310987258E+03  0.53310987258E+03  0.00000000000E+00 0. -1.
         -1   -1    0    0    0  501 -0.00000000000E+00 -0.00000000000E+00 -0.57193240015E+01  0.57193240015E+01  0.00000000000E+00 0.  1.
         23    2    1    2    0    0 -0.30265924130E+01  0.97423895578E+01  0.51311856628E+03  0.52128599577E+03  0.91347424214E+02 0.  0.
         11    1    3    3    0    0 -0.42239697526E+02  0.20340095999E+02  0.35280943074E+03  0.35591067133E+03  0.00000000000E+00 0. -1.
        -11    1    3    3    0    0  0.39213105113E+02 -0.10597706441E+02  0.16030913554E+03  0.16537532444E+03  0.00000000000E+00 0.  1.
         22    1    1    2    0    0  0.30265924130E+01 -0.97423895578E+01  0.14271982299E+02  0.17543200811E+02  0.00000000000E+00 0. -1.
<mgrwt>
<rscale>  0 0.53052876E+02</rscale>
<asrwt>0</asrwt>
<pdfrwt beam="1">  1        1 0.82016864E-01 0.91915322E+02</pdfrwt>
<pdfrwt beam="2">  1       -1 0.87989642E-03 0.91915322E+02</pdfrwt>
<totfact> 0.81943166E+04</totfact>
</mgrwt>
</event>
<event>
 6    1  0.3062576E-002  0.9557049E+02  0.7546771E-02  0.1393310E+00
         -1   -1    0    0    0  501 -0.00000000000E+00  0.00000000000E+00  0.75294132581E+01  0.75294132581E+01  0.00000000000E+00 0.  1.
          1   -1    0    0  501    0  0.00000000000E+00 -0.00000000000E+00 -0.42102229456E+03  0.42102229456E+03  0.00000000000E+00 0. -1.
         23    2    1    2    0    0 -0.67107849646E+01 -0.14476491650E+02 -0.33058389153E+03  0.34412123921E+03  0.94229053307E+02 0.  0.
         13    1    3    3    0    0  0.36287180226E+02  0.38537770955E+01 -0.23392137669E+03  0.23675054703E+03  0.00000000000E+00 0. -1.
        -13    1    3    3    0    0 -0.42997965191E+02 -0.18330268746E+02 -0.96662514847E+02  0.10737069218E+03  0.00000000000E+00 0.  1.
         22    1    1    2    0    0  0.67107849646E+01  0.14476491650E+02 -0.82908989773E+02  0.84430468614E+02  0.00000000000E+00 0.  1.
<mgrwt>
<rscale>  0 0.61090810E+02</rscale>
<asrwt>0</asrwt>
<pdfrwt beam="1">  1        1 0.64772684E-01 0.95570487E+02</pdfrwt>
<pdfrwt beam="2">  1       -1 0.11583709E-02 0.95570487E+02</pdfrwt>
<totfact> 0.75497329E+04</totfact>
</mgrwt>
</event>
<event>
 6    1  0.3062576E-002  0.9246184E+02  0.7546771E-02  0.1405313E+00
          2   -1    0    0  501    0  0.00000000000E+00  0.00000000000E+00  0.54080169026E+03  0.54080169026E+03  0.00000000000E+00 0. -1.
         -2   -1    0    0    0  501 -0.00000000000E+00 -0.00000000000E+00 -0.52978545597E+01  0.52978545597E+01  0.00000000000E+00 0.  1.
         23    2    1    2    0    0  0.77298955918E+00  0.14546985729E+02  0.46647241103E+03  0.47554779148E+03  0.91307061211E+02 0.  0.
         13    1    3    3    0    0  0.26064728975E+02 -0.30903887046E+02  0.19912304652E+03  0.20318564907E+03  0.00000000000E+00 0.  1.
        -13    1    3    3    0    0 -0.25291739416E+02  0.45450872775E+02  0.26734936451E+03  0.27236214241E+03  0.00000000000E+00 0. -1.
         22    1    1    2    0    0 -0.77298955918E+00 -0.14546985729E+02  0.69031424670E+02  0.70551753335E+02  0.00000000000E+00 0. -1.
<mgrwt>
<rscale>  0 0.58252989E+02</rscale>
<asrwt>0</asrwt>
<pdfrwt beam="1">  1        2 0.83200217E-01 0.92461839E+02</pdfrwt>
<pdfrwt beam="2">  1       -2 0.81505497E-03 0.92461839E+02</pdfrwt>
<totfact> 0.14089685E+05</totfact>
</mgrwt>
</event>
<event>
 6    1  0.3062576E-002  0.9467849E+02  0.7546771E-02  0.1346391E+00
         -2   -1    0    0    0  501 -0.00000000000E+00  0.00000000000E+00  0.80731703838E+01  0.80731703838E+01  0.00000000000E+00 0. -1.
          2   -1    0    0  501    0  0.00000000000E+00 -0.00000000000E+00 -0.12753535585E+04  0.12753535585E+04  0.00000000000E+00 0.  1.
         23    2    1    2    0    0  0.22383622041E+02  0.27812137770E+02 -0.12224822895E+04  0.12261431258E+04  0.87689653079E+02 0.  0.
         11    1    3    3    0    0 -0.11053779049E+02  0.55679255929E+01 -0.24139213696E+02  0.27127282660E+02  0.00000000000E+00 0. -1.
        -11    1    3    3    0    0  0.33437401090E+02  0.22244212177E+02 -0.11983430758E+04  0.11990158431E+04  0.00000000000E+00 0.  1.
         22    1    1    2    0    0 -0.22383622041E+02 -0.27812137770E+02 -0.44798098621E+02  0.57283603090E+02  0.00000000000E+00 0. -1.
<mgrwt>
<rscale>  0 0.74192114E+02</rscale>
<asrwt>0</asrwt>
<pdfrwt beam="1">  1        2 0.19620823E+00 0.94678492E+02</pdfrwt>
<pdfrwt beam="2">  1       -2 0.12420263E-02 0.94678492E+02</pdfrwt>
<totfact> 0.26154898E+04</totfact>
</mgrwt>
</event>
<event>
 6    1  0.3062576E-002  0.1306324E+03  0.7546771E-02  0.1285322E+00
          1   -1    0    0  501    0  0.00000000000E+00  0.00000000000E+00  0.22315690580E+03  0.22315690580E+03  0.00000000000E+00 0. -1.
         -1   -1    0    0    0  501 -0.00000000000E+00 -0.00000000000E+00 -0.34841245835E+02  0.34841245835E+02  0.00000000000E+00 0.  1.
         23    2    1    2    0    0  0.40130433082E+02 -0.72729398582E+01  0.16686521111E+03  0.21191703761E+03  0.12410271889E+03 0.  0.
         11    1    3    3    0    0  0.68503114633E+02 -0.23241717763E+02  0.16398568705E+03  0.17923213919E+03  0.00000000000E+00 0. -1.
        -11    1    3    3    0    0 -0.28372681551E+02  0.15968777905E+02  0.28795240601E+01  0.32684898424E+02  0.00000000000E+00 0.  1.
         22    1    1    2    0    0 -0.40130433082E+02  0.72729398582E+01  0.21450448845E+02  0.46081114018E+02  0.00000000000E+00 0.  1.
<mgrwt>
<rscale>  0 0.97647499E+02</rscale>
<asrwt>0</asrwt>
<pdfrwt beam="1">  1        1 0.34331831E-01 0.13063243E+03</pdfrwt>
<pdfrwt beam="2">  1       -1 0.53601918E-02 0.13063243E+03</pdfrwt>
<totfact> 0.18776121E+04</totfact>
</mgrwt>
</event>
<event>
 6    1  0.3062576E-002  0.9401053E+02  0.7546771E-02  0.1367093E+00
          3   -1    0    0  501    0  0.00000000000E+00  0.00000000000E+00  0.79745990011E+01  0.79745990011E+01  0.00000000000E+00 0. -1.
         -3   -1    0    0    0  501 -0.00000000000E+00 -0.00000000000E+00 -0.45558094734E+03  0.45558094734E+03  0.00000000000E+00 0.  1.
         23    2    1    2    0    0 -0.47160942572E+00  0.25702551506E+02 -0.37214168586E+03  0.38383253303E+03  0.90427515077E+02 0.  0.
         13    1    3    3    0    0  0.11012073806E+02 -0.11417852103E+01 -0.34086806324E+03  0.34104780601E+03  0.00000000000E+00 0.  1.
        -13    1    3    3    0    0 -0.11483683232E+02  0.26844336717E+02 -0.31273622618E+02  0.42784727018E+02  0.00000000000E+00 0. -1.
         22    1    1    2    0    0  0.47160942572E+00 -0.25702551506E+02 -0.75464662476E+02  0.79723013315E+02  0.00000000000E+00 0. -1.
<mgrwt>
<rscale>  0 0.67982119E+02</rscale>
<asrwt>0</asrwt>
<pdfrwt beam="1">  1        3 0.12268610E-02 0.94010526E+02</pdfrwt>
<pdfrwt beam="2">  1       -3 0.70089397E-01 0.94010526E+02</pdfrwt>
<totfact> 0.83375838E+03</totfact>
</mgrwt>
</event>
<event>
 6    1  0.3062576E-002  0.9636157E+02  0.7546771E-02  0.1373597E+00
         -2   -1    0    0    0  501 -0.00000000000E+00  0.00000000000E+00  0.10391277757E+02  0.10391277757E+02  0.00000000000E+00 0.  1.
          2   -1    0    0  501    0  0.00000000000E+00 -0.00000000000E+00 -0.12479428275E+04  0.12479428275E+04  0.00000000000E+00 0. -1.
         23    2    1    2    0    0  0.21343185837E+02 -0.19801475651E+01 -0.12325661060E+04  0.12363271242E+04  0.93947324498E+02 0.  0.
         11    1    3    3    0    0  0.51507690382E+02 -0.87412017737E+01 -0.10385954803E+04  0.10399086606E+04  0.00000000000E+00 0. -1.
        -11    1    3    3    0    0 -0.30164504545E+02  0.67610542086E+01 -0.19397062577E+03  0.19641846362E+03  0.00000000000E+00 0.  1.
         22    1    1    2    0    0 -0.21343185837E+02  0.19801475651E+01 -0.49854437340E+01  0.22006981058E+02  0.00000000000E+00 0.  1.
<mgrwt>
<rscale>  0 0.66177139E+02</rscale>
<asrwt>0</asrwt>
<pdfrwt beam="1">  1        2 0.19199123E+00 0.96361571E+02</pdfrwt>
<pdfrwt beam="2">  1       -2 0.15986579E-02 0.96361571E+02</pdfrwt>
<totfact> 0.18898619E+04</totfact>
</mgrwt>
</event>
<event>
 6    1  0.3062576E-002  0.8810138E+02  0.7546771E-02  0.1378960E+00
         -2   -1    0    0    0  501 -0.00000000000E+00  0.00000000000E+00  0.63246948309E+01  0.63246948309E+01  0.00000000000E+00 0. -1.
          2   -1    0    0  501    0  0.00000000000E+00 -0.00000000000E+00 -0.62054105365E+03  0.62054105365E+03  0.00000000000E+00 0.  1.
         23    2    1    2    0    0  0.24234070464E+01 -0.25570773750E+02 -0.55982063414E+03  0.56671068024E+03  0.84274048885E+02 0.  0.
         11    1    3    3    0    0  0.72970648678E+01 -0.53255074305E+02 -0.25541512122E+03  0.26101002710E+03  0.00000000000E+00 0.  1.
        -11    1    3    3    0    0 -0.48736578214E+01  0.27684300555E+02 -0.30440551292E+03  0.30570065315E+03  0.00000000000E+00 0. -1.
         22    1    1    2    0    0 -0.24234070464E+01  0.25570773750E+02 -0.54395724678E+02  0.60155068242E+02  0.00000000000E+00 0.  1.
<mgrwt>
<rscale>  0 0.64737870E+02</rscale>
<asrwt>0</asrwt>
<pdfrwt beam="1">  1        2 0.95467897E-01 0.88101377E+02</pdfrwt>
<pdfrwt beam="2">  1       -2 0.97302954E-03 0.88101377E+02</pdfrwt>
<totfact> 0.93508296E+04</totfact>
</mgrwt>
</event>
<event>
 6    1  0.3062576E-002  0.1086827E+03  0.7546771E-02  0.1355367E+00
         -2   -1    0    0    0  501 -0.00000000000E+00  0.00000000000E+00  0.20038639170E+02  0.20038639170E+02  0.00000000000E+00 0. -1.
          2   -1    0    0  501    0  0.00000000000E+00 -0.00000000000E+00 -0.10953127328E+04  0.10953127328E+04  0.00000000000E+00 0.  1.
         23    2    1    2    0    0  0.50932772549E+01  0.19603976682E+02 -0.10866830638E+04  0.10921043942E+04  0.10677859995E+03 0.  0.
         13    1    3    3    0    0  0.39935467354E+02  0.31448825929E+02 -0.92018263216E+03  0.92158556126E+03  0.00000000000E+00 0.  1.
        -13    1    3    3    0    0 -0.34842190099E+02 -0.11844849248E+02 -0.16650043163E+03  0.17051883297E+03  0.00000000000E+00 0. -1.
         22    1    1    2    0    0 -0.50932772549E+01 -0.19603976682E+02  0.11408970141E+02  0.23246977752E+02  0.00000000000E+00 0. -1.
<mgrwt>
<rscale>  0 0.71408898E+02</rscale>
<asrwt>0</asrwt>
<pdfrwt beam="1">  1        2 0.16850965E+00 0.10868269E+03</pdfrwt>
<pdfrwt beam="2">  1       -2 0.30828675E-02 0.10868269E+03</pdfrwt>
<totfact> 0.89473626E+03</totfact>
</mgrwt>
</event>
<event>
 6    1  0.3062576E-002  0.9269909E+02  0.7546771E-02  0.1370423E+00
          1   -1    0    0  501    0  0.00000000000E+00  0.00000000000E+00  0.89742532947E+02  0.89742532947E+02  0.00000000000E+00 0. -1.
         -1   -1    0    0    0  501 -0.00000000000E+00 -0.00000000000E+00 -0.64909415981E+02  0.64909415981E+02  0.00000000000E+00 0.  1.
         23    2    1    2    0    0 -0.22540265129E+02 -0.11649096206E+02  0.60636606803E+02  0.11076966459E+03  0.89159158326E+02 0.  0.
         13    1    3    3    0    0 -0.26888356692E+02  0.22183480796E+02  0.67505389620E+02  0.75974128318E+02  0.00000000000E+00 0. -1.
        -13    1    3    3    0    0  0.43480915625E+01 -0.33832577002E+02 -0.68687828169E+01  0.34795536269E+02  0.00000000000E+00 0.  1.
         22    1    1    2    0    0  0.22540265129E+02  0.11649096206E+02 -0.35803489837E+02  0.43882284341E+02  0.00000000000E+00 0. -1.
<mgrwt>
<rscale>  0 0.67049803E+02</rscale>
<asrwt>0</asrwt>
<pdfrwt beam="1">  1        1 0.13806544E-01 0.92699086E+02</pdfrwt>
<pdfrwt beam="2">  1       -1 0.99860639E-02 0.92699086E+02</pdfrwt>
<totfact> 0.22480536E+04</totfact>
</mgrwt>
</event>
<event>
 6    1  0.3062576E-002  0.1275133E+03  0.7546771E-02  0.1341287E+00
         -2   -1    0    0    0  501 -0.00000000000E+00  0.00000000000E+00  0.57193857207E+02  0.57193857207E+02  0.00000000000E+00 0.  1.
          2   -1    0    0  501    0  0.00000000000E+00 -0.00000000000E+00 -0.90298570194E+02  0.90298570194E+02  0.00000000000E+00 0. -1.
         23    2    1    2    0    0 -0.15067681859E+02 -0.52520981290E+01 -0.26585590602E+02  0.13025530096E+03  0.12651098857E+03 0.  0.
         11    1    3    3    0    0 -0.58716192215E+02 -0.40376018490E+02 -0.18749925606E+02  0.73684284671E+02  0.00000000000E+00 0. -1.
        -11    1    3    3    0    0  0.43648510356E+02  0.35123920361E+02 -0.78356649963E+01  0.56571016287E+02  0.00000000000E+00 0.  1.
         22    1    1    2    0    0  0.15067681859E+02  0.52520981290E+01 -0.65191223844E+01  0.17237126443E+02  0.00000000000E+00 0. -1.
<mgrwt>
<rscale>  0 0.75840846E+02</rscale>
<asrwt>0</asrwt>
<pdfrwt beam="1">  1        2 0.13892088E-01 0.12751333E+03</pdfrwt>
<pdfrwt beam="2">  1       -2 0.87990549E-02 0.12751333E+03</pdfrwt>
<totfact> 0.31697348E+04</totfact>
</mgrwt>
</event>
<event>
 6    1  0.3062576E-002  0.9511563E+02  0.7546771E-02  0.1375064E+00
          2   -1    0    0  501    0  0.00000000000E+00  0.00000000000E+00  0.96085851562E+02  0.96085851562E+02  0.00000000000E+00 0. -1.
         -2   -1    0    0    0  501 -0.00000000000E+00 -0.00000000000E+00 -0.35546040760E+02  0.35546040760E+02  0.00000000000E+00 0.  1.
         23    2    1    2    0    0 -0.21066385820E+02 -0.54386162932E+01  0.49979961969E+02  0.10744756752E+03  0.92593801137E+02 0.  0.
         11    1    3    3    0    0 -0.37918041904E+02  0.21692165213E+02  0.59779218282E+02  0.74039738465E+02  0.00000000000E+00 0. -1.
        -11    1    3    3    0    0  0.16851656084E+02 -0.27130781506E+02 -0.97992563134E+01  0.33407829056E+02  0.00000000000E+00 0.  1.
         22    1    1    2    0    0  0.21066385820E+02  0.54386162932E+01  0.10559848833E+02  0.24184324801E+02  0.00000000000E+00 0.  1.
<mgrwt>
<rscale>  0 0.65779284E+02</rscale>
<asrwt>0</asrwt>
<pdfrwt beam="1">  1        2 0.14782439E-01 0.95115631E+02</pdfrwt>
<pdfrwt beam="2">  1       -2 0.54686217E-02 0.95115631E+02</pdfrwt>
<totfact> 0.58589603E+04</totfact>
</mgrwt>
</event>
<event>
 6    1  0.3062576E-002  0.9447914E+02  0.7546771E-02  0.1414234E+00
          2   -1    0    0  501    0  0.00000000000E+00  0.00000000000E+00  0.42007205837E+02  0.42007205837E+02  0.00000000000E+00 0. -1.
         -2   -1    0    0    0  501 -0.00000000000E+00 -0.00000000000E+00 -0.67512959530E+02  0.67512959530E+02  0.00000000000E+00 0.  1.
         23    2    1    2    0    0 -0.18889689472E+01  0.11727928691E+02 -0.24466650583E+02  0.97595726163E+02  0.93729377782E+02 0.  0.
         13    1    3    3    0    0  0.41645281498E+02  0.11813651446E+01  0.78062032481E+01  0.42387048775E+02  0.00000000000E+00 0. -1.
        -13    1    3    3    0    0 -0.43534250446E+02  0.10546563547E+02 -0.32272853831E+02  0.55208677388E+02  0.00000000000E+00 0.  1.
         22    1    1    2    0    0  0.18889689472E+01 -0.11727928691E+02 -0.10391031094E+01  0.11924439204E+02  0.00000000000E+00 0.  1.
<mgrwt>
<rscale>  0 0.56259732E+02</rscale>
<asrwt>0</asrwt>
<pdfrwt beam="1">  1        2 0.64626471E-02 0.94479145E+02</pdfrwt>
<pdfrwt beam="2">  1       -2 0.10386609E-01 0.94479145E+02</pdfrwt>
<totfact> 0.60144358E+04</totfact>
</mgrwt>
</event>
<event>
 6    1  0.3062576E-002  0.9188694E+02  0.7546771E-02  0.1390443E+00
         -1   -1    0    0    0  501 -0.00000000000E+00  0.00000000000E+00  0.92320036045E+02  0.92320036045E+02  0.00000000000E+00 0.  1.
          1   -1    0    0  501    0  0.00000000000E+00 -0.00000000000E+00 -0.34184288837E+02  0.34184288837E+02  0.00000000000E+00 0. -1.
         23    2    1    2    0    0 -0.94602903765E+01 -0.16243394049E+02  0.39443530940E+02  0.99995007779E+02  0.89943674060E+02 0.  0.
         13    1    3    3    0    0 -0.57338053771E+01 -0.15072964066E+01 -0.29145276381E+02  0.29742151938E+02  0.00000000000E+00 0. -1.
        -13    1    3    3    0    0 -0.37264849994E+01 -0.14736097642E+02  0.68588807321E+02  0.70252855841E+02  0.00000000000E+00 0.  1.
         22    1    1    2    0    0  0.94602903765E+01  0.16243394049E+02  0.18692216268E+02  0.26509317103E+02  0.00000000000E+00 0. -1.
<mgrwt>
<rscale>  0 0.61796688E+02</rscale>
<asrwt>0</asrwt>
<pdfrwt beam="1">  1        1 0.52591214E-02 0.91886938E+02</pdfrwt>
<pdfrwt beam="2">  1       -1 0.14203082E-01 0.91886938E+02</pdfrwt>
<totfact> 0.46889287E+04</totfact>
</mgrwt>
</event>
<event>
 6    1  0.3062576E-002  0.1081749E+03  0.7546771E-02  0.1377929E+00
         -2   -1    0    0    0  501 -0.00000000000E+00  0.00000000000E+00  0.35211532770E+01  0.35211532770E+01  0.00000000000E+00 0.  1.
          2   -1    0    0  501    0  0.00000000000E+00 -0.00000000000E+00 -0.11064083883E+04  0.11064083883E+04  0.00000000000E+00 0. -1.
         23    2    1    2    0    0 -0.12090210137E+02  0.72774422179E+01 -0.10318089483E+04  0.10374639829E+04  0.10725052794E+03 0.  0.
         11    1    3    3    0    0 -0.59595445299E+02  0.89934446595E+01 -0.61890925523E+03  0.62183692827E+03  0.00000000000E+00 0. -1.
        -11    1    3    3    0    0  0.47505235162E+02 -0.17160024416E+01 -0.41289969305E+03  0.41562705464E+03  0.00000000000E+00 0.  1.
         22    1    1    2    0    0  0.12090210137E+02 -0.72774422179E+01 -0.71078286781E+02  0.72465558703E+02  0.00000000000E+00 0. -1.
<mgrwt>
<rscale>  0 0.65011197E+02</rscale>
<asrwt>0</asrwt>
<pdfrwt beam="1">  1        2 0.17021674E+00 0.10817491E+03</pdfrwt>
<pdfrwt beam="2">  1       -2 0.54171569E-03 0.10817491E+03</pdfrwt>
<totfact> 0.10619232E+05</totfact>
</mgrwt>
</event>
<event>
 6    1  0.3062576E-002  0.9534840E+02  0.7546771E-02  0.1366088E+00
          2   -1    0    0  501    0  0.00000000000E+00  0.00000000000E+00  0.36638471998E+02  0.36638471998E+02  0.00000000000E+00 0. -1.
         -2   -1    0    0    0  501 -0.00000000000E+00 -0.00000000000E+00 -0.11673908008E+03  0.11673908008E+03  0.00000000000E+00 0.  1.
         23    2    1    2    0    0  0.19025788131E+02 -0.16302791831E+02 -0.85130810792E+02  0.12782242392E+03  0.91997584075E+02 0.  0.
         13    1    3    3    0    0  0.10928269238E+02  0.24941542358E+02  0.56254249754E+01  0.27805629104E+02  0.00000000000E+00 0. -1.
        -13    1    3    3    0    0  0.80975188932E+01 -0.41244334189E+02 -0.90756235768E+02  0.10001679482E+03  0.00000000000E+00 0.  1.
         22    1    1    2    0    0 -0.19025788131E+02  0.16302791831E+02  0.50302027149E+01  0.25555128152E+02  0.00000000000E+00 0.  1.
<mgrwt>
<rscale>  0 0.68266777E+02</rscale>
<asrwt>0</asrwt>
<pdfrwt beam="1">  1        2 0.56366880E-02 0.95348399E+02</pdfrwt>
<pdfrwt beam="2">  1       -2 0.17959858E-01 0.95348399E+02</pdfrwt>
<totfact> 0.29762408E+04</totfact>
</mgrwt>
</event>
<event>
 6    1  0.3062576E-002  0.9010343E+02  0.7546771E-02  0.1423626E+00
          2   -1    0    0  501    0  0.00000000000E+00  0.00000000000E+00  0.44826019996E+03  0.44826019996E+03  0.00000000000E+00 0.  1.
         -2   -1    0    0    0  501 -0.00000000000E+00 -0.00000000000E+00 -0.60589557236E+01  0.60589557236E+01  0.00000000000E+00 0. -1.
         23    2    1    2    0    0  0.20833894769E+01  0.11665694076E+02  0.41466144331E+03  0.42433800218E+03  0.89320762429E+02 0.  0.
         11    1    3    3    0    0  0.17159039246E+02  0.26675554662E+00  0.40012889212E+03  0.40049673419E+03  0.00000000000E+00 0.  1.
        -11    1    3    3    0    0 -0.15075649769E+02  0.11398938529E+02  0.14532551187E+02  0.23841267994E+02  0.00000000000E+00 0. -1.
         22    1    1    2    0    0 -0.20833894769E+01 -0.11665694076E+02  0.27539800923E+02  0.29981153495E+02  0.00000000000E+00 0.  1.
<mgrwt>
<rscale>  0 0.54261033E+02</rscale>
<asrwt>0</asrwt>
<pdfrwt beam="1">  1        2 0.68963082E-01 0.90103427E+02</pdfrwt>
<pdfrwt beam="2">  1       -2 0.93214739E-03 0.90103427E+02</pdfrwt>
<totfact> 0.14216298E+05</totfact>
</mgrwt>
</event>
<event>
 6    1  0.3062576E-002  0.8745548E+02  0.7546771E-02  0.1413762E+00
         -2   -1    0    0    0  501 -0.00000000000E+00  0.00000000000E+00  0.47547785516E+01  0.47547785516E+01  0.00000000000E+00 0.  1.
          2   -1    0    0  501    0  0.00000000000E+00 -0.00000000000E+00 -0.55295977997E+03  0.55295977997E+03  0.00000000000E+00 0. -1.
         23    2    1    2    0    0  0.59755772074E+01  0.13853387837E+02 -0.47010052705E+03  0.47816625374E+03  0.86144278998E+02 0.  0.
         13    1    3    3    0    0 -0.83804803080E+01 -0.30082692549E+02 -0.89962819467E+02  0.95228723228E+02  0.00000000000E+00 0.  1.
        -13    1    3    3    0    0  0.14356057515E+02  0.43936080385E+02 -0.38013770758E+03  0.38293753051E+03  0.00000000000E+00 0. -1.
         22    1    1    2    0    0 -0.59755772074E+01 -0.13853387837E+02 -0.78104474369E+02  0.79548304784E+02  0.00000000000E+00 0.  1.
<mgrwt>
<rscale>  0 0.56362791E+02</rscale>
<asrwt>0</asrwt>
<pdfrwt beam="1">  1        2 0.85070706E-01 0.87455478E+02</pdfrwt>
<pdfrwt beam="2">  1       -2 0.73150464E-03 0.87455478E+02</pdfrwt>
<totfact> 0.15876838E+05</totfact>
</mgrwt>
</event>
<event>
 6    1  0.3062576E-002  0.1013767E+03  0.7546771E-02  0.1380495E+00
          2   -1    0    0  501    0  0.00000000000E+00  0.00000000000E+00  0.16681313323E+03  0.16681313323E+03  0.00000000000E+00 0. -1.
         -2   -1    0    0    0  501 -0.00000000000E+00 -0.00000000000E+00 -0.22568211544E+02  0.22568211544E+02  0.00000000000E+00 0.  1.
         23    2    1    2    0    0  0.45146430362E+01  0.15809545706E+02  0.13916158130E+03  0.17217192623E+03  0.10003450772E+03 0.  0.
         11    1    3    3    0    0  0.44768129149E+02  0.27443465137E+01  0.11500609693E+03  0.12344277685E+03  0.00000000000E+00 0. -1.
        -11    1    3    3    0    0 -0.40253486113E+02  0.13065199192E+02  0.24155484374E+02  0.48729149382E+02  0.00000000000E+00 0.  1.
         22    1    1    2    0    0 -0.45146430362E+01 -0.15809545706E+02  0.50833403841E+01  0.17209418544E+02  0.00000000000E+00 0.  1.
<mgrwt>
<rscale>  0 0.64333769E+02</rscale>
<asrwt>0</asrwt>
<pdfrwt beam="1">  1        2 0.25663558E-01 0.10137666E+03</pdfrwt>
<pdfrwt beam="2">  1       -2 0.34720327E-02 0.10137666E+03</pdfrwt>
<totfact> 0.62268505E+04</totfact>
</mgrwt>
</event>
<event>
 6    1  0.3062576E-002  0.9650486E+02  0.7546771E-02  0.1365465E+00
         -2   -1    0    0    0  501 -0.00000000000E+00  0.00000000000E+00  0.64421920335E+03  0.64421920335E+03  0.00000000000E+00 0.  1.
          2   -1    0    0  501    0  0.00000000000E+00 -0.00000000000E+00 -0.64595932022E+01  0.64595932022E+01  0.00000000000E+00 0. -1.
         23    2    1    2    0    0 -0.23254749724E+02  0.74452775144E+01  0.57994242959E+03  0.58791700953E+03  0.93364730597E+02 0.  0.
         13    1    3    3    0    0 -0.10419492593E+02 -0.42073247779E+02  0.32641377653E+03  0.32927902683E+03  0.00000000000E+00 0. -1.
        -13    1    3    3    0    0 -0.12835257132E+02  0.49518525293E+02  0.25352865306E+03  0.25863798270E+03  0.00000000000E+00 0.  1.
         22    1    1    2    0    0  0.23254749724E+02 -0.74452775144E+01  0.57817180561E+02  0.62761787021E+02  0.00000000000E+00 0. -1.
<mgrwt>
<rscale>  0 0.68444303E+02</rscale>
<asrwt>0</asrwt>
<pdfrwt beam="1">  1        2 0.99378408E-03 0.96504862E+02</pdfrwt>
<pdfrwt beam="2">  1       -2 0.99110596E-01 0.96504862E+02</pdfrwt>
<totfact> 0.11393065E+04</totfact>
</mgrwt>
</event>
<event>
 6    1  0.3062576E-002  0.9817508E+02  0.7546771E-02  0.1416046E+00
         -2   -1    0    0    0  501 -0.00000000000E+00  0.00000000000E+00  0.12711556315E+03  0.12711556315E+03  0.00000000000E+00 0.  1.
          2   -1    0    0  501    0  0.00000000000E+00 -0.00000000000E+00 -0.23480689452E+02  0.23480689452E+02  0.00000000000E+00 0. -1.
         23    2    1    2    0    0  0.10256726027E+02 -0.87821648641E+00  0.87796273550E+02  0.13170623017E+03  0.97633875894E+02 0.  0.
         13    1    3    3    0    0  0.27979782869E+02 -0.42148998230E+02  0.31140918653E+02  0.59406759849E+02  0.00000000000E+00 0. -1.
        -13    1    3    3    0    0 -0.17723056842E+02  0.41270781744E+02  0.56655354897E+02  0.72299470317E+02  0.00000000000E+00 0.  1.
         22    1    1    2    0    0 -0.10256726027E+02  0.87821648641E+00  0.15838600145E+02  0.18890022434E+02  0.00000000000E+00 0.  1.
<mgrwt>
<rscale>  0 0.55866269E+02</rscale>
<asrwt>0</asrwt>
<pdfrwt beam="1">  1        2 0.36124139E-02 0.98175075E+02</pdfrwt>
<pdfrwt beam="2">  1       -2 0.19556240E-01 0.98175075E+02</pdfrwt>
<totfact> 0.46251574E+04</totfact>
</mgrwt>
</event>
<event>
 6    1  0.3062576E-002  0.9203282E+02  0.7546771E-02  0.1417633E+00
         -2   -1    0    0    0  501 -0.00000000000E+00  0.00000000000E+00  0.20634451392E+01  0.20634451392E+01  0.00000000000E+00 0.  1.
          2   -1    0    0  501    0  0.00000000000E+00 -0.00000000000E+00 -0.15459651987E+04  0.15459651987E+04  0.00000000000E+00 0. -1.
         23    2    1    2    0    0  0.65895326288E+01  0.10259458042E+02 -0.14864923581E+04  0.14893386353E+04  0.91221496224E+02 0.  0.
         13    1    3    3    0    0 -0.17784960977E+02  0.14356237272E+02 -0.13728176611E+04  0.13730079158E+04  0.00000000000E+00 0. -1.
        -13    1    3    3    0    0  0.24374493606E+02 -0.40967792301E+01 -0.11367469702E+03  0.11633071942E+03  0.00000000000E+00 0.  1.
         22    1    1    2    0    0 -0.65895326288E+01 -0.10259458042E+02 -0.57409395424E+02  0.58690008541E+02  0.00000000000E+00 0.  1.
<mgrwt>
<rscale>  0 0.55524932E+02</rscale>
<asrwt>0</asrwt>
<pdfrwt beam="1">  1        2 0.23784178E+00 0.92032819E+02</pdfrwt>
<pdfrwt beam="2">  1       -2 0.31745179E-03 0.92032819E+02</pdfrwt>
<totfact> 0.12865663E+05</totfact>
</mgrwt>
</event>
<event>
 6    1  0.3062576E-002  0.9242766E+02  0.7546771E-02  0.1410876E+00
         -2   -1    0    0    0  501 -0.00000000000E+00  0.00000000000E+00  0.21644609430E+02  0.21644609430E+02  0.00000000000E+00 0.  1.
          2   -1    0    0  501    0  0.00000000000E+00 -0.00000000000E+00 -0.19534783345E+03  0.19534783345E+03  0.00000000000E+00 0. -1.
         23    2    1    2    0    0 -0.13097864023E+02 -0.26728589931E+01 -0.17990281729E+03  0.20225700349E+03  0.91455855880E+02 0.  0.
         13    1    3    3    0    0 -0.18064404518E+02 -0.34300200863E+01  0.35573000522E+01  0.18728110744E+02  0.00000000000E+00 0.  1.
        -13    1    3    3    0    0  0.49665404950E+01  0.75716109317E+00 -0.18346011734E+03  0.18352889275E+03  0.00000000000E+00 0. -1.
         22    1    1    2    0    0  0.13097864023E+02  0.26728589931E+01  0.61995932736E+01  0.14735439386E+02  0.00000000000E+00 0.  1.
<mgrwt>
<rscale>  0 0.56998901E+02</rscale>
<asrwt>0</asrwt>
<pdfrwt beam="1">  1        2 0.30053514E-01 0.92427657E+02</pdfrwt>
<pdfrwt beam="2">  1       -2 0.33299398E-02 0.92427657E+02</pdfrwt>
<totfact> 0.55127764E+04</totfact>
</mgrwt>
</event>
<event>
 6    1  0.3062576E-002  0.9453662E+02  0.7546771E-02  0.1415190E+00
          2   -1    0    0  501    0  0.00000000000E+00  0.00000000000E+00  0.19556238805E+04  0.19556238805E+04  0.00000000000E+00 0. -1.
         -2   -1    0    0    0  501 -0.00000000000E+00 -0.00000000000E+00 -0.24729304218E+01  0.24729304218E+01  0.00000000000E+00 0.  1.
         23    2    1    2    0    0 -0.73160234150E+01  0.91085738160E+01  0.19285187018E+04  0.19308344198E+04  0.93811956015E+02 0.  0.
         13    1    3    3    0    0  0.35751899423E+02 -0.10920902925E+02  0.12942483799E+04  0.12947881423E+04  0.00000000000E+00 0. -1.
        -13    1    3    3    0    0 -0.43067922838E+02  0.20029476741E+02  0.63427032188E+03  0.63604627751E+03  0.00000000000E+00 0.  1.
         22    1    1    2    0    0  0.73160234150E+01 -0.91085738160E+01  0.24632248265E+02  0.27262391131E+02  0.00000000000E+00 0.  1.
<mgrwt>
<rscale>  0 0.56051572E+02</rscale>
<asrwt>0</asrwt>
<pdfrwt beam="1">  1        2 0.30086398E+00 0.94536625E+02</pdfrwt>
<pdfrwt beam="2">  1       -2 0.38045240E-03 0.94536625E+02</pdfrwt>
<totfact> 0.62320393E+04</totfact>
</mgrwt>
</event>
<event>
 6    1  0.3062576E-002  0.9194325E+02  0.7546771E-02  0.1421585E+00
          2   -1    0    0  501    0  0.00000000000E+00  0.00000000000E+00  0.23071910881E+03  0.23071910881E+03  0.00000000000E+00 0.  1.
         -2   -1    0    0    0  501 -0.00000000000E+00 -0.00000000000E+00 -0.13172147954E+02  0.13172147954E+02  0.00000000000E+00 0. -1.
         23    2    1    2    0    0  0.11491129905E+02  0.61126271712E+00  0.21207742788E+03  0.23115016185E+03  0.91220294880E+02 0.  0.
         11    1    3    3    0    0  0.14298442634E+02  0.45106488542E+02  0.10573956075E+03  0.11584427253E+03  0.00000000000E+00 0. -1.
        -11    1    3    3    0    0 -0.28073127292E+01 -0.44495225825E+02  0.10633786714E+03  0.11530588933E+03  0.00000000000E+00 0.  1.
         22    1    1    2    0    0 -0.11491129905E+02 -0.61126271712E+00  0.54695329699E+01  0.12741094910E+02  0.00000000000E+00 0. -1.
<mgrwt>
<rscale>  0 0.54686985E+02</rscale>
<asrwt>0</asrwt>
<pdfrwt beam="1">  1        2 0.35495245E-01 0.91943254E+02</pdfrwt>
<pdfrwt beam="2">  1       -2 0.20264845E-02 0.91943254E+02</pdfrwt>
<totfact> 0.94749179E+04</totfact>
</mgrwt>
</event>
<event>
 6    1  0.3062576E-002  0.9779814E+02  0.7546771E-02  0.1402462E+00
          2   -1    0    0  501    0  0.00000000000E+00  0.00000000000E+00  0.43162139101E+03  0.43162139101E+03  0.00000000000E+00 0. -1.
         -2   -1    0    0    0  501 -0.00000000000E+00 -0.00000000000E+00 -0.87291033668E+01  0.87291033668E+01  0.00000000000E+00 0.  1.
         23    2    1    2    0    0  0.56834078985E+01  0.11553719400E+02  0.41211268237E+03  0.42355795296E+03  0.96946825585E+02 0.  0.
         11    1    3    3    0    0  0.17085526087E+02 -0.39303169984E+02  0.13681739378E+03  0.14337242976E+03  0.00000000000E+00 0.  1.
        -11    1    3    3    0    0 -0.11402118188E+02  0.50856889384E+02  0.27529528858E+03  0.28018552320E+03  0.00000000000E+00 0. -1.
         22    1    1    2    0    0 -0.56834078985E+01 -0.11553719400E+02  0.10779605276E+02  0.16792541416E+02  0.00000000000E+00 0.  1.
<mgrwt>
<rscale>  0 0.58910485E+02</rscale>
<asrwt>0</asrwt>
<pdfrwt beam="1">  1        2 0.66403274E-01 0.97798142E+02</pdfrwt>
<pdfrwt beam="2">  1       -2 0.13429393E-02 0.97798142E+02</pdfrwt>
<totfact> 0.89204443E+04</totfact>
</mgrwt>
</event>
<event>
 6    1  0.3062576E-002  0.9963390E+02  0.7546771E-02  0.1378120E+00
         -2   -1    0    0    0  501 -0.00000000000E+00  0.00000000000E+00  0.43374720949E+01  0.43374720949E+01  0.00000000000E+00 0.  1.
          2   -1    0    0  501    0  0.00000000000E+00 -0.00000000000E+00 -0.19289483287E+04  0.19289483287E+04  0.00000000000E+00 0. -1.
         23    2    1    2    0    0 -0.20921438790E+01  0.17882324146E+02 -0.19009232043E+04  0.19035324908E+04  0.97993675208E+02 0.  0.
         13    1    3    3    0    0  0.35223531824E+02  0.42036863428E+02 -0.97119429490E+03  0.97274156565E+03  0.00000000000E+00 0.  1.
        -13    1    3    3    0    0 -0.37315675703E+02 -0.24154539282E+02 -0.92972890937E+03  0.93079092515E+03  0.00000000000E+00 0. -1.
         22    1    1    2    0    0  0.20921438790E+01 -0.17882324146E+02 -0.23687652320E+02  0.29753309989E+02  0.00000000000E+00 0.  1.
<mgrwt>
<rscale>  0 0.64960504E+02</rscale>
<asrwt>0</asrwt>
<pdfrwt beam="1">  1        2 0.29676095E+00 0.99633905E+02</pdfrwt>
<pdfrwt beam="2">  1       -2 0.66730413E-03 0.99633905E+02</pdfrwt>
<totfact> 0.29328181E+04</totfact>
</mgrwt>
</event>
<event>
 6    1  0.3062576E-002  0.9109780E+02  0.7546771E-02  0.1427030E+00
         -2   -1    0    0    0  501 -0.00000000000E+00  0.00000000000E+00  0.43962407767E+02  0.43962407767E+02  0.00000000000E+00 0.  1.
          2   -1    0    0  501    0  0.00000000000E+00 -0.00000000000E+00 -0.59312678491E+02  0.59312678491E+02  0.00000000000E+00 0. -1.
         23    2    1    2    0    0 -0.10576548969E+02 -0.25765825464E+01 -0.15392925945E+02  0.92389132686E+02  0.90445052400E+02 0.  0.
         13    1    3    3    0    0 -0.15308216498E+02  0.23442446352E+02  0.29256908935E+02  0.40495141731E+02  0.00000000000E+00 0.  1.
        -13    1    3    3    0    0  0.47316675295E+01 -0.26019028899E+02 -0.44649834880E+02  0.51893990955E+02  0.00000000000E+00 0. -1.
         22    1    1    2    0    0  0.10576548969E+02  0.25765825464E+01  0.42655221096E-01  0.10885953572E+02  0.00000000000E+00 0. -1.
<mgrwt>
<rscale>  0 0.53560758E+02</rscale>
<asrwt>0</asrwt>
<pdfrwt beam="1">  1        2 0.91250275E-02 0.91097803E+02</pdfrwt>
<pdfrwt beam="2">  1       -2 0.67634474E-02 0.91097803E+02</pdfrwt>
<totfact> 0.75214359E+04</totfact>
</mgrwt>
</event>
<event>
 6    1  0.3062576E-002  0.9425348E+02  0.7546771E-02  0.1392073E+00
          2   -1    0    0  501    0  0.00000000000E+00  0.00000000000E+00  0.50605535781E+03  0.50605535781E+03  0.00000000000E+00 0. -1.
         -2   -1    0    0    0  501 -0.00000000000E+00 -0.00000000000E+00 -0.62063552024E+01  0.62063552024E+01  0.00000000000E+00 0.  1.
         23    2    1    2    0    0 -0.33207569198E+01  0.16639094488E+02  0.44391868832E+03  0.45381441241E+03  0.92713710828E+02 0.  0.
         11    1    3    3    0    0 -0.41368463517E+02  0.17869156041E+02  0.34312877348E+03  0.34607515325E+03  0.00000000000E+00 0. -1.
        -11    1    3    3    0    0  0.38047706597E+02 -0.12300615528E+01  0.10078991485E+03  0.10773925916E+03  0.00000000000E+00 0.  1.
         22    1    1    2    0    0  0.33207569198E+01 -0.16639094488E+02  0.55930314287E+02  0.58447300606E+02  0.00000000000E+00 0.  1.
<mgrwt>
<rscale>  0 0.61393981E+02</rscale>
<asrwt>0</asrwt>
<pdfrwt beam="1">  1        2 0.77854638E-01 0.94253483E+02</pdfrwt>
<pdfrwt beam="2">  1       -2 0.95482427E-03 0.94253483E+02</pdfrwt>
<totfact> 0.12145574E+05</totfact>
</mgrwt>
</event>
<event>
 6    1  0.3062576E-002  0.9284664E+02  0.7546771E-02  0.1379920E+00
          2   -1    0    0  501    0  0.00000000000E+00  0.00000000000E+00  0.12980189129E+04  0.12980189129E+04  0.00000000000E+00 0. -1.
         -2   -1    0    0    0  501 -0.00000000000E+00 -0.00000000000E+00 -0.35773568868E+01  0.35773568868E+01  0.00000000000E+00 0.  1.
         23    2    1    2    0    0  0.18413196538E+02 -0.11299602540E+02  0.12325588322E+04  0.12360508784E+04  0.90298241155E+02 0.  0.
         11    1    3    3    0    0  0.19464293065E+00 -0.21436768195E+02  0.67864614634E+02  0.71170069805E+02  0.00000000000E+00 0.  1.
        -11    1    3    3    0    0  0.18218553608E+02  0.10137165655E+02  0.11646942175E+04  0.11648808086E+04  0.00000000000E+00 0. -1.
         22    1    1    2    0    0 -0.18413196538E+02  0.11299602540E+02  0.61882723802E+02  0.65545391367E+02  0.00000000000E+00 0.  1.
<mgrwt>
<rscale>  0 0.64484821E+02</rscale>
<asrwt>0</asrwt>
<pdfrwt beam="1">  1        2 0.19969484E+00 0.92846643E+02</pdfrwt>
<pdfrwt beam="2">  1       -2 0.55036364E-03 0.92846643E+02</pdfrwt>
<totfact> 0.80168297E+04</totfact>
</mgrwt>
</event>
<event>
 6    1  0.3062576E-002  0.9053694E+02  0.7546771E-02  0.1401725E+00
         -2   -1    0    0    0  501 -0.00000000000E+00  0.00000000000E+00  0.40132114840E+03  0.40132114840E+03  0.00000000000E+00 0. -1.
          2   -1    0    0  501    0  0.00000000000E+00 -0.00000000000E+00 -0.73920178167E+01  0.73920178167E+01  0.00000000000E+00 0.  1.
         23    2    1    2    0    0 -0.15042472130E+02 -0.65802683740E+01  0.35694922193E+03  0.36825220301E+03  0.89035734878E+02 0.  0.
         13    1    3    3    0    0  0.25317424188E+02  0.15487054923E+02  0.52167766929E+02  0.60019136482E+02  0.00000000000E+00 0.  1.
        -13    1    3    3    0    0 -0.40359896318E+02 -0.22067323297E+02  0.30478145500E+03  0.30823306653E+03  0.00000000000E+00 0. -1.
         22    1    1    2    0    0  0.15042472130E+02  0.65802683740E+01  0.36979908656E+02  0.40460963209E+02  0.00000000000E+00 0. -1.
<mgrwt>
<rscale>  0 0.59081907E+02</rscale>
<asrwt>0</asrwt>
<pdfrwt beam="1">  1        2 0.11372338E-02 0.90536943E+02</pdfrwt>
<pdfrwt beam="2">  1       -2 0.61741698E-01 0.90536943E+02</pdfrwt>
<totfact> 0.26134557E+04</totfact>
</mgrwt>
</event>
<event>
 6    1  0.3062576E-002  0.1110801E+03  0.7546771E-02  0.1287968E+00
          2   -1    0    0  501    0  0.00000000000E+00  0.00000000000E+00  0.95279945389E+03  0.95279945389E+03  0.00000000000E+00 0. -1.
         -2   -1    0    0    0  501 -0.00000000000E+00 -0.00000000000E+00 -0.21084785696E+02  0.21084785696E+02  0.00000000000E+00 0.  1.
         23    2    1    2    0    0  0.12029269569E+02  0.61953092416E+02  0.89292228081E+03  0.89980496917E+03  0.91410579252E+02 0.  0.
         13    1    3    3    0    0  0.27416178455E+02  0.62483197912E+01  0.62906097472E+03  0.62968912827E+03  0.00000000000E+00 0. -1.
        -13    1    3    3    0    0 -0.15386908886E+02  0.55704772625E+02  0.26386130608E+03  0.27011584090E+03  0.00000000000E+00 0.  1.
         22    1    1    2    0    0 -0.12029269569E+02 -0.61953092416E+02  0.38792387390E+02  0.74079270418E+02  0.00000000000E+00 0.  1.
<mgrwt>
<rscale>  0 0.96438822E+02</rscale>
<asrwt>0</asrwt>
<pdfrwt beam="1">  1        2 0.14658450E+00 0.11108007E+03</pdfrwt>
<pdfrwt beam="2">  1       -2 0.32438139E-02 0.11108007E+03</pdfrwt>
<totfact> 0.10077253E+04</totfact>
</mgrwt>
</event>
<event>
 6    1  0.3062576E-002  0.8951797E+02  0.7546771E-02  0.1386683E+00
         -2   -1    0    0    0  501 -0.00000000000E+00  0.00000000000E+00  0.33235425202E+02  0.33235425202E+02  0.00000000000E+00 0.  1.
          2   -1    0    0  501    0  0.00000000000E+00 -0.00000000000E+00 -0.11084185880E+03  0.11084185880E+03  0.00000000000E+00 0. -1.
         23    2    1    2    0    0  0.19010369979E+02 -0.10252251209E+02 -0.82715681545E+02  0.12188252705E+03  0.86873261737E+02 0.  0.
         13    1    3    3    0    0  0.85372187945E+01 -0.26150481279E+02 -0.95214303581E+02  0.99108503077E+02  0.00000000000E+00 0. -1.
        -13    1    3    3    0    0  0.10473151184E+02  0.15898230070E+02  0.12498622036E+02  0.22774023972E+02  0.00000000000E+00 0.  1.
         22    1    1    2    0    0 -0.19010369979E+02  0.10252251209E+02  0.51092479472E+01  0.22194756952E+02  0.00000000000E+00 0.  1.
<mgrwt>
<rscale>  0 0.62739267E+02</rscale>
<asrwt>0</asrwt>
<pdfrwt beam="1">  1        2 0.17052594E-01 0.89517967E+02</pdfrwt>
<pdfrwt beam="2">  1       -2 0.51131424E-02 0.89517967E+02</pdfrwt>
<totfact> 0.54496574E+04</totfact>
</mgrwt>
</event>
<event>
 6    1  0.3062576E-002  0.1165389E+03  0.7546771E-02  0.1364733E+00
          2   -1    0    0  501    0  0.00000000000E+00  0.00000000000E+00  0.10635355321E+03  0.10635355321E+03  0.00000000000E+00 0. -1.
         -2   -1    0    0    0  501 -0.00000000000E+00 -0.00000000000E+00 -0.53990998032E+02  0.53990998032E+02  0.00000000000E+00 0.  1.
         23    2    1    2    0    0 -0.62764249720E+01  0.12554284598E+02  0.71415227762E+02  0.13668006509E+03  0.11569054354E+03 0.  0.
         13    1    3    3    0    0 -0.38226951330E+02  0.45227810803E+02  0.68985233056E+02  0.90916538967E+02  0.00000000000E+00 0. -1.
        -13    1    3    3    0    0  0.31950526358E+02 -0.32673526205E+02  0.24299947060E+01  0.45763526126E+02  0.00000000000E+00 0.  1.
         22    1    1    2    0    0  0.62764249720E+01 -0.12554284598E+02 -0.19052672583E+02  0.23664486150E+02  0.00000000000E+00 0.  1.
<mgrwt>
<rscale>  0 0.68653444E+02</rscale>
<asrwt>0</asrwt>
<pdfrwt beam="1">  1        2 0.16362085E-01 0.11653886E+03</pdfrwt>
<pdfrwt beam="2">  1       -2 0.83063074E-02 0.11653886E+03</pdfrwt>
<totfact> 0.28344119E+04</totfact>
</mgrwt>
</event>
<event>
 6    1  0.3062576E-002  0.9383359E+02  0.7546771E-02  0.1406906E+00
         -1   -1    0    0    0  501 -0.00000000000E+00  0.00000000000E+00  0.38839001335E+02  0.38839001335E+02  0.00000000000E+00 0.  1.
          1   -1    0    0  501    0  0.00000000000E+00 -0.00000000000E+00 -0.94251037933E+02  0.94251037933E+02  0.00000000000E+00 0. -1.
         23    2    1    2    0    0 -0.10692770007E+02  0.83935641163E+01 -0.66942269289E+02  0.11526495820E+03  0.92843717738E+02 0.  0.
         13    1    3    3    0    0  0.29846892009E+02 -0.52050630209E+00  0.68247100558E+01  0.30621635436E+02  0.00000000000E+00 0.  1.
        -13    1    3    3    0    0 -0.40539662016E+02  0.89140704183E+01 -0.73766979345E+02  0.84643322769E+02  0.00000000000E+00 0. -1.
         22    1    1    2    0    0  0.10692770007E+02 -0.83935641163E+01  0.11530232691E+02  0.17825081063E+02  0.00000000000E+00 0. -1.
<mgrwt>
<rscale>  0 0.57889895E+02</rscale>
<asrwt>0</asrwt>
<pdfrwt beam="1">  1        1 0.14500160E-01 0.93833593E+02</pdfrwt>
<pdfrwt beam="2">  1       -1 0.59752310E-02 0.93833593E+02</pdfrwt>
<totfact> 0.45475416E+04</totfact>
</mgrwt>
</event>
<event>
 6    1  0.3062576E-002  0.9069445E+02  0.7546771E-02  0.1410997E+00
         -2   -1    0    0    0  501 -0.00000000000E+00  0.00000000000E+00  0.38698726111E+01  0.38698726111E+01  0.00000000000E+00 0.  1.
          2   -1    0    0  501    0  0.00000000000E+00 -0.00000000000E+00 -0.83252773650E+03  0.83252773650E+03  0.00000000000E+00 0. -1.
         23    2    1    2    0    0 -0.49545551773E+01  0.13224588518E+02 -0.79093628194E+03  0.79611913964E+03  0.89588197033E+02 0.  0.
         11    1    3    3    0    0  0.42132110095E+02  0.65119161987E+01 -0.41573886724E+03  0.41791904179E+03  0.00000000000E+00 0. -1.
        -11    1    3    3    0    0 -0.47086665272E+02  0.67126723197E+01 -0.37519741470E+03  0.37820009785E+03  0.00000000000E+00 0.  1.
         22    1    1    2    0    0  0.49545551773E+01 -0.13224588518E+02 -0.37721581942E+02  0.40278469468E+02  0.00000000000E+00 0. -1.
<mgrwt>
<rscale>  0 0.56971982E+02</rscale>
<asrwt>0</asrwt>
<pdfrwt beam="1">  1        2 0.12808105E+00 0.90694445E+02</pdfrwt>
<pdfrwt beam="2">  1       -2 0.59536567E-03 0.90694445E+02</pdfrwt>
<totfact> 0.13268283E+05</totfact>
</mgrwt>
</event>
<event>
 6    1  0.3062576E-002  0.1003775E+03  0.7546771E-02  0.1343133E+00
         -2   -1    0    0    0  501 -0.00000000000E+00  0.00000000000E+00  0.12985284996E+02  0.12985284996E+02  0.00000000000E+00 0.  1.
          2   -1    0    0  501    0  0.00000000000E+00 -0.00000000000E+00 -0.47772125866E+03  0.47772125866E+03  0.00000000000E+00 0. -1.
         23    2    1    2    0    0 -0.26724318949E+02  0.17022672552E+02 -0.43767568553E+03  0.44903857277E+03  0.95245333356E+02 0.  0.
         13    1    3    3    0    0 -0.37340611843E+02 -0.27727915905E+02 -0.13270377683E+03  0.14061810338E+03  0.00000000000E+00 0. -1.
        -13    1    3    3    0    0  0.10616292895E+02  0.44750588456E+02 -0.30497190870E+03  0.30842046939E+03  0.00000000000E+00 0.  1.
         22    1    1    2    0    0  0.26724318949E+02 -0.17022672552E+02 -0.27060288136E+02  0.41667970890E+02  0.00000000000E+00 0.  1.
<mgrwt>
<rscale>  0 0.75238777E+02</rscale>
<asrwt>0</asrwt>
<pdfrwt beam="1">  1        2 0.73495589E-01 0.10037746E+03</pdfrwt>
<pdfrwt beam="2">  1       -2 0.19977359E-02 0.10037746E+03</pdfrwt>
<totfact> 0.45450470E+04</totfact>
</mgrwt>
</event>
<event>
 6    1  0.3062576E-002  0.9610522E+02  0.7546771E-02  0.1357342E+00
         -2   -1    0    0    0  501 -0.00000000000E+00  0.00000000000E+00  0.71762785249E+02  0.71762785249E+02  0.00000000000E+00 0.  1.
          2   -1    0    0  501    0  0.00000000000E+00 -0.00000000000E+00 -0.78571159859E+02  0.78571159859E+02  0.00000000000E+00 0. -1.
         23    2    1    2    0    0 -0.26966409717E+02 -0.86887068819E+01 -0.42231237492E+02  0.10497471126E+03  0.91834262146E+02 0.  0.
         13    1    3    3    0    0 -0.16517447897E+02  0.33533088427E+02  0.83113802747E+01  0.38293251972E+02  0.00000000000E+00 0.  1.
        -13    1    3    3    0    0 -0.10448961820E+02 -0.42221795309E+02 -0.50542617767E+02  0.66681459289E+02  0.00000000000E+00 0. -1.
         22    1    1    2    0    0  0.26966409717E+02  0.86887068819E+01  0.35422862882E+02  0.45359233846E+02  0.00000000000E+00 0.  1.
<mgrwt>
<rscale>  0 0.70815461E+02</rscale>
<asrwt>0</asrwt>
<pdfrwt beam="1">  1        2 0.12087871E-01 0.96105216E+02</pdfrwt>
<pdfrwt beam="2">  1       -2 0.11040428E-01 0.96105216E+02</pdfrwt>
<totfact> 0.25379782E+04</totfact>
</mgrwt>
</event>
<event>
 6    1  0.3062576E-002  0.9365409E+02  0.7546771E-02  0.1372891E+00
         -1   -1    0    0    0  501 -0.00000000000E+00  0.00000000000E+00  0.91115801984E+02  0.91115801984E+02  0.00000000000E+00 0.  1.
          1   -1    0    0  501    0  0.00000000000E+00 -0.00000000000E+00 -0.54337298219E+02  0.54337298219E+02  0.00000000000E+00 0. -1.
         23    2    1    2    0    0  0.21215293085E+02 -0.10387133199E+02 -0.88514532574E+01  0.94071448082E+02  0.90626198876E+02 0.  0.
         11    1    3    3    0    0 -0.11737699804E+02  0.39676117179E+01 -0.42844077100E+02  0.44599669079E+02  0.00000000000E+00 0. -1.
        -11    1    3    3    0    0  0.32952992888E+02 -0.14354744917E+02  0.33992623843E+02  0.49471779002E+02  0.00000000000E+00 0.  1.
         22    1    1    2    0    0 -0.21215293085E+02  0.10387133199E+02  0.45629957023E+02  0.51381652121E+02  0.00000000000E+00 0.  1.
<mgrwt>
<rscale>  0 0.66370107E+02</rscale>
<asrwt>0</asrwt>
<pdfrwt beam="1">  1        1 0.83595844E-02 0.93654093E+02</pdfrwt>
<pdfrwt beam="2">  1       -1 0.14017816E-01 0.93654093E+02</pdfrwt>
<totfact> 0.25818087E+04</totfact>
</mgrwt>
</event>
<event>
 6    1  0.3062576E-002  0.1171344E+03  0.7546771E-02  0.1271775E+00
         -1   -1    0    0    0  501 -0.00000000000E+00  0.00000000000E+00  0.31331567923E+02  0.31331567923E+02  0.00000000000E+00 0.  1.
          1   -1    0    0  501    0  0.00000000000E+00 -0.00000000000E+00 -0.71109421102E+03  0.71109421102E+03  0.00000000000E+00 0. -1.
         23    2    1    2    0    0 -0.22422558988E+01  0.73217484242E+02 -0.65456236495E+03  0.66496042069E+03  0.91403740472E+02 0.  0.
         13    1    3    3    0    0  0.21015239251E+02  0.48738663647E+02 -0.58734964795E+03  0.58974291566E+03  0.00000000000E+00 0. -1.
        -13    1    3    3    0    0 -0.23257495150E+02  0.24478820595E+02 -0.67212716995E+02  0.75217505038E+02  0.00000000000E+00 0.  1.
         22    1    1    2    0    0  0.22422558988E+01 -0.73217484242E+02 -0.25200278150E+02  0.77465358252E+02  0.00000000000E+00 0.  1.
<mgrwt>
<rscale>  0 0.10416408E+03</rscale>
<asrwt>0</asrwt>
<pdfrwt beam="1">  1        1 0.10939910E+00 0.11713442E+03</pdfrwt>
<pdfrwt beam="2">  1       -1 0.48202415E-02 0.11713442E+03</pdfrwt>
<totfact> 0.49324125E+03</totfact>
</mgrwt>
</event>
<event>
 6    1  0.3062576E-002  0.8645499E+02  0.7546771E-02  0.1439829E+00
          2   -1    0    0  501    0  0.00000000000E+00  0.00000000000E+00  0.90734552178E+03  0.90734552178E+03  0.00000000000E+00 0. -1.
         -2   -1    0    0    0  501 -0.00000000000E+00 -0.00000000000E+00 -0.29232705818E+01  0.29232705818E+01  0.00000000000E+00 0.  1.
         23    2    1    2    0    0 -0.10238821388E+02  0.23237132239E+01  0.86989180936E+03  0.87417745656E+03  0.85815106221E+02 0.  0.
         11    1    3    3    0    0  0.33475797069E+02 -0.14125263940E+02  0.26408065725E+03  0.26656846326E+03  0.00000000000E+00 0.  1.
        -11    1    3    3    0    0 -0.43714618457E+02  0.16448977163E+02  0.60581115211E+03  0.60760899330E+03  0.00000000000E+00 0. -1.
         22    1    1    2    0    0  0.10238821388E+02 -0.23237132239E+01  0.34530441835E+02  0.36091335801E+02  0.00000000000E+00 0.  1.
<mgrwt>
<rscale>  0 0.51036580E+02</rscale>
<asrwt>0</asrwt>
<pdfrwt beam="1">  1        2 0.13959139E+00 0.86454992E+02</pdfrwt>
<pdfrwt beam="2">  1       -2 0.44973466E-03 0.86454992E+02</pdfrwt>
<totfact> 0.17509294E+05</totfact>
</mgrwt>
</event>
<event>
 6    1  0.3062576E-002  0.9298503E+02  0.7546771E-02  0.1396698E+00
          2   -1    0    0  501    0  0.00000000000E+00  0.00000000000E+00  0.15568369565E+04  0.15568369565E+04  0.00000000000E+00 0. -1.
         -2   -1    0    0    0  501 -0.00000000000E+00 -0.00000000000E+00 -0.57531949564E+01  0.57531949564E+01  0.00000000000E+00 0.  1.
         23    2    1    2    0    0 -0.73632943052E+01 -0.14668979130E+02  0.15399549309E+04  0.15427596718E+04  0.91524962066E+02 0.  0.
         11    1    3    3    0    0 -0.28214997141E+02  0.91414077422E+01  0.13389292449E+04  0.13392576953E+04  0.00000000000E+00 0. -1.
        -11    1    3    3    0    0  0.20851702836E+02 -0.23810386872E+02  0.20102568596E+03  0.20350197652E+03  0.00000000000E+00 0.  1.
         22    1    1    2    0    0  0.73632943052E+01  0.14668979130E+02  0.11128830637E+02  0.19830479648E+02  0.00000000000E+00 0.  1.
<mgrwt>
<rscale>  0 0.60271067E+02</rscale>
<asrwt>0</asrwt>
<pdfrwt beam="1">  1        2 0.23951304E+00 0.92985030E+02</pdfrwt>
<pdfrwt beam="2">  1       -2 0.88510815E-03 0.92985030E+02</pdfrwt>
<totfact> 0.30163726E+04</totfact>
</mgrwt>
</event>
<event>
 6    1  0.3062576E-002  0.9086827E+02  0.7546771E-02  0.1427752E+00
         -2   -1    0    0    0  501 -0.00000000000E+00  0.00000000000E+00  0.41493781029E+01  0.41493781029E+01  0.00000000000E+00 0. -1.
          2   -1    0    0  501    0  0.00000000000E+00 -0.00000000000E+00 -0.12961069364E+04  0.12961069364E+04  0.00000000000E+00 0.  1.
         23    2    1    2    0    0 -0.99598784722E+01  0.43007860104E+01 -0.12829264593E+04  0.12861404834E+04  0.90218329753E+02 0.  0.
         11    1    3    3    0    0  0.32566794969E+01 -0.12944735493E+02 -0.27927656658E+02  0.30953612789E+02  0.00000000000E+00 0. -1.
        -11    1    3    3    0    0 -0.13216557969E+02  0.17245521503E+02 -0.12549988027E+04  0.12551868706E+04  0.00000000000E+00 0.  1.
         22    1    1    2    0    0  0.99598784722E+01 -0.43007860104E+01 -0.90310989672E+01  0.14115831114E+02  0.00000000000E+00 0. -1.
<mgrwt>
<rscale>  0 0.53413912E+02</rscale>
<asrwt>0</asrwt>
<pdfrwt beam="1">  1        2 0.19940109E+00 0.90868273E+02</pdfrwt>
<pdfrwt beam="2">  1       -2 0.63836578E-03 0.90868273E+02</pdfrwt>
<totfact> 0.65083589E+04</totfact>
</mgrwt>
</event>
<event>
 6    1  0.3062576E-002  0.8034229E+02  0.7546771E-02  0.1436060E+00
         -1   -1    0    0    0  501 -0.00000000000E+00  0.00000000000E+00  0.54771606282E+01  0.54771606282E+01  0.00000000000E+00 0.  1.
          1   -1    0    0  501    0  0.00000000000E+00 -0.00000000000E+00 -0.63733573727E+03  0.63733573727E+03  0.00000000000E+00 0. -1.
         23    2    1    2    0    0  0.12008886269E+01  0.13790864549E+02 -0.61808543045E+03  0.62328523458E+03  0.79140724268E+02 0.  0.
         11    1    3    3    0    0  0.97882362762E+01  0.18201259816E+02 -0.61090364124E+03  0.61125310168E+03  0.00000000000E+00 0. -1.
        -11    1    3    3    0    0 -0.85873476493E+01 -0.44103952674E+01 -0.71817892100E+01  0.12032132908E+02  0.00000000000E+00 0.  1.
         22    1    1    2    0    0 -0.12008886269E+01 -0.13790864549E+02 -0.13773146192E+02  0.19527663314E+02  0.00000000000E+00 0.  1.
<mgrwt>
<rscale>  0 0.51762606E+02</rscale>
<asrwt>0</asrwt>
<pdfrwt beam="1">  1        1 0.98051562E-01 0.80342295E+02</pdfrwt>
<pdfrwt beam="2">  1       -1 0.84264087E-03 0.80342295E+02</pdfrwt>
<totfact> 0.67431302E+04</totfact>
</mgrwt>
</event>
<event>
 6    1  0.3062576E-002  0.9483414E+02  0.7546771E-02  0.1362007E+00
          2   -1    0    0  501    0  0.00000000000E+00  0.00000000000E+00  0.26753507885E+02  0.26753507885E+02  0.00000000000E+00 0. -1.
         -2   -1    0    0    0  501 -0.00000000000E+00 -0.00000000000E+00 -0.18567909320E+03  0.18567909320E+03  0.00000000000E+00 0.  1.
         23    2    1    2    0    0  0.20725942672E+02 -0.17709192808E+02 -0.65869708034E+02  0.11546571753E+03  0.90831345244E+02 0.  0.
         11    1    3    3    0    0  0.44423859741E+02  0.48013084252E+01 -0.69453001005E+02  0.82584812317E+02  0.00000000000E+00 0.  1.
        -11    1    3    3    0    0 -0.23697917069E+02 -0.22510501233E+02  0.35832929709E+01  0.32880905214E+02  0.00000000000E+00 0. -1.
         22    1    1    2    0    0 -0.20725942672E+02  0.17709192808E+02 -0.93055877286E+02  0.96966883558E+02  0.00000000000E+00 0.  1.
<mgrwt>
<rscale>  0 0.69440092E+02</rscale>
<asrwt>0</asrwt>
<pdfrwt beam="1">  1        2 0.41159243E-02 0.94834137E+02</pdfrwt>
<pdfrwt beam="2">  1       -2 0.28566014E-01 0.94834137E+02</pdfrwt>
<totfact> 0.20219653E+04</totfact>
</mgrwt>
</event>
