<event>
 6    1  0.3017327E-006  0.1203407E+04  0.7818608E-02  0.9109879E-01
          2   -1    0    0  501    0  0.00000000000E+00  0.00000000000E+00  0.20918671251E+04  0.20918671251E+04  0.00000000000E+00 0. -1.
         -2   -1    0    0    0  501 -0.00000000000E+00 -0.00000000000E+00 -0.17307372173E+03  0.17307372173E+03  0.00000000000E+00 0.  1.
         23    2    1    2    0    0  0.49643157846E+02 -0.35331699193E+03  0.18687908276E+04  0.19046665104E+04  0.89877798632E+02 0.  0.
         11    1    3    3    0    0  0.44132113950E+02 -0.26261602763E+03  0.15679082847E+04  0.15903619748E+04  0.00000000000E+00 0.  1.
        -11    1    3    3    0    0  0.55110438958E+01 -0.90700964299E+02  0.30088254284E+03  0.31430453562E+03  0.00000000000E+00 0. -1.
         22    1    1    2    0    0 -0.49643157846E+02  0.35331699193E+03  0.50002575791E+02  0.36027433643E+03  0.00000000000E+00 0.  1.
<mgrwt>
<rscale>  0 0.12034072E+04</rscale>
<asrwt>0</asrwt>
<pdfrwt beam="1">  1        2 0.32182569E+00 0.12034072E+04</pdfrwt>
<pdfrwt beam="2">  1       -2 0.26626728E-01 0.12034072E+04</pdfrwt>
<totfact> 0.75057108E+01</totfact>
</mgrwt>
</event>
<event>
 6    1  0.3017327E-006  0.1278060E+04  0.7818608E-02  0.9047147E-01
          2   -1    0    0  501    0  0.00000000000E+00  0.00000000000E+00  0.19153189703E+04  0.19153189703E+04  0.00000000000E+00 0. -1.
         -2   -1    0    0    0  501 -0.00000000000E+00 -0.00000000000E+00 -0.21320686724E+03  0.21320686724E+03  0.00000000000E+00 0.  1.
         23    2    1    2    0    0  0.38940358111E+03  0.44751268030E+03  0.12367797956E+04  0.13745782901E+04  0.89098061921E+02 0.  0.
         13    1    3    3    0    0  0.27187749542E+03  0.24697967789E+03  0.74381633910E+03  0.82956559724E+03  0.00000000000E+00 0.  1.
        -13    1    3    3    0    0  0.11752608569E+03  0.20053300241E+03  0.49296345652E+03  0.54501269282E+03  0.00000000000E+00 0. -1.
         22    1    1    2    0    0 -0.38940358111E+03 -0.44751268030E+03  0.46533230742E+03  0.75394754747E+03  0.00000000000E+00 0. -1.
<mgrwt>
<rscale>  0 0.12780597E+04</rscale>
<asrwt>0</asrwt>
<pdfrwt beam="1">  1        2 0.29466444E+00 0.12780597E+04</pdfrwt>
<pdfrwt beam="2">  1       -2 0.32801058E-01 0.12780597E+04</pdfrwt>
<totfact> 0.63400672E+01</totfact>
</mgrwt>
</event>
<event>
 6    1  0.3017327E-006  0.3282291E+04  0.7818608E-02  0.8167416E-01
         -1   -1    0    0    0  501 -0.00000000000E+00  0.00000000000E+00  0.13314283554E+04  0.13314283554E+04  0.00000000000E+00 0.  1.
          1   -1    0    0  501    0  0.00000000000E+00 -0.00000000000E+00 -0.20229095009E+04  0.20229095009E+04  0.00000000000E+00 0. -1.
         23    2    1    2    0    0 -0.15649416284E+04 -0.44826146394E+03 -0.14366501941E+03  0.16367572472E+04  0.91400263414E+02 0.  0.
         11    1    3    3    0    0 -0.37098863889E+03 -0.12437810243E+03  0.49064008135E+00  0.39128343087E+03  0.00000000000E+00 0.  1.
        -11    1    3    3    0    0 -0.11939529895E+04 -0.32388336152E+03 -0.14415565949E+03  0.12454738164E+04  0.00000000000E+00 0. -1.
         22    1    1    2    0    0  0.15649416284E+04  0.44826146394E+03 -0.54781612610E+03  0.17175806090E+04  0.00000000000E+00 0. -1.
<mgrwt>
<rscale>  0 0.32822913E+04</rscale>
<asrwt>0</asrwt>
<pdfrwt beam="1">  1        1 0.31121685E+00 0.32822913E+04</pdfrwt>
<pdfrwt beam="2">  1       -1 0.20483513E+00 0.32822913E+04</pdfrwt>
<totfact> 0.33305434E-01</totfact>
</mgrwt>
</event>
<event>
 6    1  0.3017327E-006  0.2157471E+04  0.7818608E-02  0.8536341E-01
          1   -1    0    0  501    0  0.00000000000E+00  0.00000000000E+00  0.20976472892E+04  0.20976472892E+04  0.00000000000E+00 0. -1.
         -1   -1    0    0    0  501 -0.00000000000E+00 -0.00000000000E+00 -0.55475016986E+03  0.55475016986E+03  0.00000000000E+00 0.  1.
         23    2    1    2    0    0  0.71587489113E+01  0.84669731660E+03  0.15907376960E+04  0.18043194471E+04  0.90413804332E+02 0.  0.
         11    1    3    3    0    0 -0.92558577965E+00  0.43549061790E+03  0.91310170541E+03  0.10116361299E+04  0.00000000000E+00 0. -1.
        -11    1    3    3    0    0  0.80843346910E+01  0.41120669870E+03  0.67763599064E+03  0.79268331718E+03  0.00000000000E+00 0.  1.
         22    1    1    2    0    0 -0.71587489113E+01 -0.84669731660E+03 -0.47840576677E+02  0.84807801198E+03  0.00000000000E+00 0.  1.
<mgrwt>
<rscale>  0 0.21574709E+04</rscale>
<asrwt>0</asrwt>
<pdfrwt beam="1">  1        1 0.32271496E+00 0.21574709E+04</pdfrwt>
<pdfrwt beam="2">  1       -1 0.85346181E-01 0.21574709E+04</pdfrwt>
<totfact> 0.31759975E+00</totfact>
</mgrwt>
</event>
<event>
 6    1  0.3017327E-006  0.1964197E+04  0.7818608E-02  0.8623545E-01
          1   -1    0    0  501    0  0.00000000000E+00  0.00000000000E+00  0.10242342946E+04  0.10242342946E+04  0.00000000000E+00 0. -1.
         -1   -1    0    0    0  501 -0.00000000000E+00 -0.00000000000E+00 -0.94169592827E+03  0.94169592827E+03  0.00000000000E+00 0.  1.
         23    2    1    2    0    0  0.78226439140E+02 -0.89093296069E+03 -0.35955340552E+03  0.96826993448E+03  0.91581102722E+02 0.  0.
         11    1    3    3    0    0 -0.13943825677E+02 -0.30694355990E+03 -0.13922531267E+03  0.33733139037E+03  0.00000000000E+00 0. -1.
        -11    1    3    3    0    0  0.92170264817E+02 -0.58398940079E+03 -0.22032809285E+03  0.63093854411E+03  0.00000000000E+00 0.  1.
         22    1    1    2    0    0 -0.78226439140E+02  0.89093296069E+03  0.44209177180E+03  0.99766028834E+03  0.00000000000E+00 0. -1.
<mgrwt>
<rscale>  0 0.19641968E+04</rscale>
<asrwt>0</asrwt>
<pdfrwt beam="1">  1        1 0.15757451E+00 0.19641968E+04</pdfrwt>
<pdfrwt beam="2">  1       -1 0.14487630E+00 0.19641968E+04</pdfrwt>
<totfact> 0.51628278E+00</totfact>
</mgrwt>
</event>
<event>
 6    1  0.3017327E-006  0.3255120E+04  0.7818608E-02  0.8174410E-01
         -2   -1    0    0    0  501 -0.00000000000E+00  0.00000000000E+00  0.93426352244E+03  0.93426352244E+03  0.00000000000E+00 0.  1.
          2   -1    0    0  501    0  0.00000000000E+00 -0.00000000000E+00 -0.28353361244E+04  0.28353361244E+04  0.00000000000E+00 0. -1.
         23    2    1    2    0    0  0.15765701456E+04  0.15022120865E+03 -0.13797509598E+04  0.21022916099E+04  0.88189945441E+02 0.  0.
         13    1    3    3    0    0  0.42089299031E+03  0.76886448090E+02 -0.39066537433E+03  0.57938059157E+03  0.00000000000E+00 0. -1.
        -13    1    3    3    0    0  0.11556771553E+04  0.73334760559E+02 -0.98908558544E+03  0.15229110183E+04  0.00000000000E+00 0.  1.
         22    1    1    2    0    0 -0.15765701456E+04 -0.15022120865E+03 -0.52132164219E+03  0.16673080370E+04  0.00000000000E+00 0.  1.
<mgrwt>
<rscale>  0 0.32551197E+04</rscale>
<asrwt>0</asrwt>
<pdfrwt beam="1">  1        2 0.43620555E+00 0.32551197E+04</pdfrwt>
<pdfrwt beam="2">  1       -2 0.14373285E+00 0.32551197E+04</pdfrwt>
<totfact> 0.61830733E-01</totfact>
</mgrwt>
</event>
<event>
 6    1  0.3017327E-006  0.3904306E+04  0.7818608E-02  0.8024134E-01
          2   -1    0    0  501    0  0.00000000000E+00  0.00000000000E+00  0.29032933318E+04  0.29032933318E+04  0.00000000000E+00 0. -1.
         -2   -1    0    0    0  501 -0.00000000000E+00 -0.00000000000E+00 -0.13126134239E+04  0.13126134239E+04  0.00000000000E+00 0.  1.
         23    2    1    2    0    0  0.15232610731E+04  0.12190401302E+04  0.77045665911E+03  0.20995066721E+04  0.89116028861E+02 0.  0.
         11    1    3    3    0    0  0.79778599195E+03  0.66162691612E+03  0.45285531682E+03  0.11310572943E+04  0.00000000000E+00 0. -1.
        -11    1    3    3    0    0  0.72547508115E+03  0.55741321410E+03  0.31760134228E+03  0.96844937774E+03  0.00000000000E+00 0.  1.
         22    1    1    2    0    0 -0.15232610731E+04 -0.12190401302E+04  0.82022324885E+03  0.21164000836E+04  0.00000000000E+00 0.  1.
<mgrwt>
<rscale>  0 0.39043062E+04</rscale>
<asrwt>0</asrwt>
<pdfrwt beam="1">  1        2 0.44666051E+00 0.39043062E+04</pdfrwt>
<pdfrwt beam="2">  1       -2 0.20194053E+00 0.39043062E+04</pdfrwt>
<totfact> 0.20523714E-01</totfact>
</mgrwt>
</event>
<event>
 6    1  0.3017327E-006  0.1249363E+04  0.7818608E-02  0.9070713E-01
          2   -1    0    0  501    0  0.00000000000E+00  0.00000000000E+00  0.17980257523E+04  0.17980257523E+04  0.00000000000E+00 0. -1.
         -2   -1    0    0    0  501 -0.00000000000E+00 -0.00000000000E+00 -0.21703094028E+03  0.21703094028E+03  0.00000000000E+00 0.  1.
         23    2    1    2    0    0 -0.31050290338E+03 -0.40074377973E+03  0.13744317320E+04  0.14676300436E+04  0.88700219331E+02 0.  0.
         13    1    3    3    0    0 -0.19758836821E+03 -0.23449624840E+03  0.70792050592E+03  0.77147980950E+03  0.00000000000E+00 0.  1.
        -13    1    3    3    0    0 -0.11291453517E+03 -0.16624753133E+03  0.66651122611E+03  0.69615023411E+03  0.00000000000E+00 0. -1.
         22    1    1    2    0    0  0.31050290338E+03  0.40074377973E+03  0.20656308002E+03  0.54742664900E+03  0.00000000000E+00 0.  1.
<mgrwt>
<rscale>  0 0.12493634E+04</rscale>
<asrwt>0</asrwt>
<pdfrwt beam="1">  1        2 0.27661934E+00 0.12493634E+04</pdfrwt>
<pdfrwt beam="2">  1       -2 0.33389377E-01 0.12493634E+04</pdfrwt>
<totfact> 0.71320255E+01</totfact>
</mgrwt>
</event>
<event>
 6    1  0.3017327E-006  0.2695629E+04  0.7818608E-02  0.8336425E-01
          2   -1    0    0  501    0  0.00000000000E+00  0.00000000000E+00  0.14184732536E+04  0.14184732536E+04  0.00000000000E+00 0. -1.
         -2   -1    0    0    0  501 -0.00000000000E+00 -0.00000000000E+00 -0.12806751317E+04  0.12806751317E+04  0.00000000000E+00 0.  1.
         23    2    1    2    0    0 -0.82150874420E+03  0.50195725825E+03 -0.87344348532E+03  0.13029222954E+04  0.88686412613E+02 0.  0.
         13    1    3    3    0    0 -0.62199281083E+03  0.42312815648E+03 -0.68130548934E+03  0.10149333295E+04  0.00000000000E+00 0. -1.
        -13    1    3    3    0    0 -0.19951593337E+03  0.78829101771E+02 -0.19213799598E+03  0.28798896586E+03  0.00000000000E+00 0.  1.
         22    1    1    2    0    0  0.82150874420E+03 -0.50195725825E+03  0.10112416073E+04  0.13962260900E+04  0.00000000000E+00 0. -1.
<mgrwt>
<rscale>  0 0.26956286E+04</rscale>
<asrwt>0</asrwt>
<pdfrwt beam="1">  1        2 0.21822665E+00 0.26956286E+04</pdfrwt>
<pdfrwt beam="2">  1       -2 0.19702694E+00 0.26956286E+04</pdfrwt>
<totfact> 0.17247212E+00</totfact>
</mgrwt>
</event>
<event>
 6    1  0.3017327E-006  0.1092833E+04  0.7818608E-02  0.9212205E-01
         -2   -1    0    0    0  501 -0.00000000000E+00  0.00000000000E+00  0.91346620554E+02  0.91346620554E+02  0.00000000000E+00 0.  1.
          2   -1    0    0  501    0  0.00000000000E+00 -0.00000000000E+00 -0.32685515020E+04  0.32685515020E+04  0.00000000000E+00 0. -1.
         23    2    1    2    0    0 -0.35904259868E+03  0.35230403220E+03 -0.97467676482E+03  0.11006593518E+04  0.91795936991E+02 0.  0.
         13    1    3    3    0    0 -0.14792147777E+03  0.17981926808E+03 -0.53270378756E+03  0.58136826370E+03  0.00000000000E+00 0.  1.
        -13    1    3    3    0    0 -0.21112112091E+03  0.17248476412E+03 -0.44197297726E+03  0.51929108810E+03  0.00000000000E+00 0. -1.
         22    1    1    2    0    0  0.35904259868E+03 -0.35230403220E+03 -0.22025281167E+04  0.22592387708E+04  0.00000000000E+00 0. -1.
<mgrwt>
<rscale>  0 0.10928333E+04</rscale>
<asrwt>0</asrwt>
<pdfrwt beam="1">  1        2 0.50285414E+00 0.10928333E+04</pdfrwt>
<pdfrwt beam="2">  1       -2 0.14053324E-01 0.10928333E+04</pdfrwt>
<totfact> 0.46701736E+01</totfact>
</mgrwt>
</event>
<event>
 6    1  0.3017327E-006  0.2950058E+04  0.7818608E-02  0.8258138E-01
         -2   -1    0    0    0  501 -0.00000000000E+00  0.00000000000E+00  0.67446471952E+03  0.67446471952E+03  0.00000000000E+00 0.  1.
          2   -1    0    0  501    0  0.00000000000E+00 -0.00000000000E+00 -0.32258335549E+04  0.32258335549E+04  0.00000000000E+00 0. -1.
         23    2    1    2    0    0 -0.20651562007E+02 -0.43080631459E+03 -0.31398688275E+04  0.31706731595E+04  0.91495697895E+02 0.  0.
         11    1    3    3    0    0 -0.52361378566E+02 -0.35326685845E+03 -0.25427543539E+04  0.25677108271E+04  0.00000000000E+00 0.  1.
        -11    1    3    3    0    0  0.31709816560E+02 -0.77539456136E+02 -0.59711447353E+03  0.60296233234E+03  0.00000000000E+00 0. -1.
         22    1    1    2    0    0  0.20651562007E+02  0.43080631459E+03  0.58849999209E+03  0.72962511497E+03  0.00000000000E+00 0.  1.
<mgrwt>
<rscale>  0 0.29500583E+04</rscale>
<asrwt>0</asrwt>
<pdfrwt beam="1">  1        2 0.49628208E+00 0.29500583E+04</pdfrwt>
<pdfrwt beam="2">  1       -2 0.10376380E+00 0.29500583E+04</pdfrwt>
<totfact> 0.81021285E-01</totfact>
</mgrwt>
</event>
<event>
 6    1  0.3017327E-006  0.3537129E+04  0.7818608E-02  0.8105047E-01
          2   -1    0    0  501    0  0.00000000000E+00  0.00000000000E+00  0.44906907423E+04  0.44906907423E+04  0.00000000000E+00 0. -1.
         -2   -1    0    0    0  501 -0.00000000000E+00 -0.00000000000E+00 -0.69651216502E+03  0.69651216502E+03  0.00000000000E+00 0.  1.
         23    2    1    2    0    0 -0.85302736781E+03 -0.13203144045E+04  0.30832670454E+04  0.34620127662E+04  0.90060551498E+02 0.  0.
         13    1    3    3    0    0 -0.65991588731E+03 -0.95193411621E+03  0.22411325441E+04  0.25227648761E+04  0.00000000000E+00 0. -1.
        -13    1    3    3    0    0 -0.19311148050E+03 -0.36838028824E+03  0.84213450139E+03  0.93924789012E+03  0.00000000000E+00 0.  1.
         22    1    1    2    0    0  0.85302736781E+03  0.13203144045E+04  0.71091153179E+03  0.17251901411E+04  0.00000000000E+00 0.  1.
<mgrwt>
<rscale>  0 0.35371292E+04</rscale>
<asrwt>0</asrwt>
<pdfrwt beam="1">  1        2 0.69087548E+00 0.35371292E+04</pdfrwt>
<pdfrwt beam="2">  1       -2 0.10715572E+00 0.35371292E+04</pdfrwt>
<totfact> 0.71714804E-02</totfact>
</mgrwt>
</event>
<event>
 6    1  0.3017327E-006  0.3491907E+04  0.7818608E-02  0.8115710E-01
         -1   -1    0    0    0  501 -0.00000000000E+00  0.00000000000E+00  0.23371216835E+04  0.23371216835E+04  0.00000000000E+00 0.  1.
          1   -1    0    0  501    0  0.00000000000E+00 -0.00000000000E+00 -0.13043198577E+04  0.13043198577E+04  0.00000000000E+00 0. -1.
         23    2    1    2    0    0 -0.42854376735E+03  0.50370715399E+03  0.22003975964E+04  0.22995583342E+04  0.94065363300E+02 0.  0.
         13    1    3    3    0    0 -0.42531756345E+03  0.46957546510E+03  0.20978934712E+04  0.21914728298E+04  0.00000000000E+00 0. -1.
        -13    1    3    3    0    0 -0.32262039070E+01  0.34131688894E+02  0.10250412522E+03  0.10808550442E+03  0.00000000000E+00 0.  1.
         22    1    1    2    0    0  0.42854376735E+03 -0.50370715399E+03 -0.11675957706E+04  0.13418832069E+04  0.00000000000E+00 0. -1.
<mgrwt>
<rscale>  0 0.34919073E+04</rscale>
<asrwt>0</asrwt>
<pdfrwt beam="1">  1        1 0.20066459E+00 0.34919073E+04</pdfrwt>
<pdfrwt beam="2">  1       -1 0.35955718E+00 0.34919073E+04</pdfrwt>
<totfact> 0.98363006E-02</totfact>
</mgrwt>
</event>
<event>
 6    1  0.3017327E-006  0.3055062E+04  0.7818608E-02  0.8228180E-01
         -2   -1    0    0    0  501 -0.00000000000E+00  0.00000000000E+00  0.25206051243E+04  0.25206051243E+04  0.00000000000E+00 0.  1.
          2   -1    0    0  501    0  0.00000000000E+00 -0.00000000000E+00 -0.92571052613E+03  0.92571052613E+03  0.00000000000E+00 0. -1.
         23    2    1    2    0    0 -0.55179689893E+03 -0.13902466018E+04  0.11402606016E+04  0.18829994629E+04  0.90704498910E+02 0.  0.
         11    1    3    3    0    0 -0.27947862266E+03 -0.77127290185E+03  0.57746574582E+03  0.10032132760E+04  0.00000000000E+00 0.  1.
        -11    1    3    3    0    0 -0.27231827627E+03 -0.61897369996E+03  0.56279485583E+03  0.87978618685E+03  0.00000000000E+00 0. -1.
         22    1    1    2    0    0  0.55179689893E+03  0.13902466018E+04  0.45463399656E+03  0.15633161876E+04  0.00000000000E+00 0.  1.
<mgrwt>
<rscale>  0 0.30550618E+04</rscale>
<asrwt>0</asrwt>
<pdfrwt beam="1">  1        2 0.14241701E+00 0.30550618E+04</pdfrwt>
<pdfrwt beam="2">  1       -2 0.38778540E+00 0.30550618E+04</pdfrwt>
<totfact> 0.21393113E-01</totfact>
</mgrwt>
</event>
<event>
 6    1  0.3017327E-006  0.4143686E+04  0.7818608E-02  0.7976172E-01
         -2   -1    0    0    0  501 -0.00000000000E+00  0.00000000000E+00  0.20970449186E+04  0.20970449186E+04  0.00000000000E+00 0.  1.
          2   -1    0    0  501    0  0.00000000000E+00 -0.00000000000E+00 -0.20469441773E+04  0.20469441773E+04  0.00000000000E+00 0. -1.
         23    2    1    2    0    0  0.39550582398E+03  0.18120732780E+04  0.94619112774E+03  0.20841317216E+04  0.91065695247E+02 0.  0.
         13    1    3    3    0    0  0.17749903967E+03  0.88245712897E+03  0.41085336834E+03  0.98946297750E+03  0.00000000000E+00 0. -1.
        -13    1    3    3    0    0  0.21800678431E+03  0.92961614905E+03  0.53533775940E+03  0.10946687441E+04  0.00000000000E+00 0.  1.
         22    1    1    2    0    0 -0.39550582398E+03 -0.18120732780E+04 -0.89609038647E+03  0.20598573743E+04  0.00000000000E+00 0. -1.
<mgrwt>
<rscale>  0 0.41436862E+04</rscale>
<asrwt>0</asrwt>
<pdfrwt beam="1">  1        2 0.31491449E+00 0.41436862E+04</pdfrwt>
<pdfrwt beam="2">  1       -2 0.32262229E+00 0.41436862E+04</pdfrwt>
<totfact> 0.11314695E-01</totfact>
</mgrwt>
</event>
<event>
 6    1  0.3017327E-006  0.7727533E+03  0.7818608E-02  0.9600315E-01
         -2   -1    0    0    0  501 -0.00000000000E+00  0.00000000000E+00  0.12655336916E+03  0.12655336916E+03  0.00000000000E+00 0.  1.
          2   -1    0    0  501    0  0.00000000000E+00 -0.00000000000E+00 -0.11796359195E+04  0.11796359195E+04  0.00000000000E+00 0. -1.
         23    2    1    2    0    0 -0.11345198683E+02  0.33306104730E+03 -0.84630288520E+03  0.91399519809E+03  0.90001521472E+02 0.  0.
         13    1    3    3    0    0 -0.36345797225E+02  0.28949024524E+03 -0.67215317026E+03  0.73274518310E+03  0.00000000000E+00 0. -1.
        -13    1    3    3    0    0  0.25000598542E+02  0.43570802064E+02 -0.17414971494E+03  0.18125001499E+03  0.00000000000E+00 0.  1.
         22    1    1    2    0    0  0.11345198683E+02 -0.33306104730E+03 -0.20677966515E+03  0.39219409058E+03  0.00000000000E+00 0.  1.
<mgrwt>
<rscale>  0 0.77275326E+03</rscale>
<asrwt>0</asrwt>
<pdfrwt beam="1">  1        2 0.18148245E+00 0.77275326E+03</pdfrwt>
<pdfrwt beam="2">  1       -2 0.19469749E-01 0.77275326E+03</pdfrwt>
<totfact> 0.43874188E+02</totfact>
</mgrwt>
</event>
<event>
 6    1  0.3017327E-006  0.1316581E+04  0.7818608E-02  0.9016518E-01
         -2   -1    0    0    0  501 -0.00000000000E+00  0.00000000000E+00  0.20759197779E+03  0.20759197779E+03  0.00000000000E+00 0.  1.
          2   -1    0    0  501    0  0.00000000000E+00 -0.00000000000E+00 -0.20874923395E+04  0.20874923395E+04  0.00000000000E+00 0. -1.
         23    2    1    2    0    0  0.32280269216E+02 -0.65195773476E+03 -0.10398656289E+04  0.12312472734E+04  0.92511719871E+02 0.  0.
         13    1    3    3    0    0 -0.26356622027E+02 -0.19764659053E+03 -0.27462654836E+03  0.33937970967E+03  0.00000000000E+00 0. -1.
        -13    1    3    3    0    0  0.58636891243E+02 -0.45431114423E+03 -0.76523908055E+03  0.89186756371E+03  0.00000000000E+00 0.  1.
         22    1    1    2    0    0 -0.32280269216E+02  0.65195773476E+03 -0.84003473283E+03  0.10638370439E+04  0.00000000000E+00 0.  1.
<mgrwt>
<rscale>  0 0.13165814E+04</rscale>
<asrwt>0</asrwt>
<pdfrwt beam="1">  1        2 0.32115268E+00 0.13165814E+04</pdfrwt>
<pdfrwt beam="2">  1       -2 0.31937226E-01 0.13165814E+04</pdfrwt>
<totfact> 0.53373305E+01</totfact>
</mgrwt>
</event>
<event>
 6    1  0.3017327E-006  0.2298855E+04  0.7818608E-02  0.8478373E-01
         -2   -1    0    0    0  501 -0.00000000000E+00  0.00000000000E+00  0.16859136009E+04  0.16859136009E+04  0.00000000000E+00 0. -1.
          2   -1    0    0  501    0  0.00000000000E+00 -0.00000000000E+00 -0.78366058287E+03  0.78366058287E+03  0.00000000000E+00 0.  1.
         23    2    1    2    0    0  0.79211975347E+03  0.82254465391E+03  0.32826346254E+03  0.11914906883E+04  0.88655220029E+02 0.  0.
         11    1    3    3    0    0  0.61980172628E+03  0.60481611553E+03  0.22038335492E+03  0.89360256078E+03  0.00000000000E+00 0. -1.
        -11    1    3    3    0    0  0.17231802720E+03  0.21772853838E+03  0.10788010762E+03  0.29788812756E+03  0.00000000000E+00 0.  1.
         22    1    1    2    0    0 -0.79211975347E+03 -0.82254465391E+03  0.57398955551E+03  0.12780834955E+04  0.00000000000E+00 0. -1.
<mgrwt>
<rscale>  0 0.22988554E+04</rscale>
<asrwt>0</asrwt>
<pdfrwt beam="1">  1        2 0.12056317E+00 0.22988554E+04</pdfrwt>
<pdfrwt beam="2">  1       -2 0.25937132E+00 0.22988554E+04</pdfrwt>
<totfact> 0.18066918E+00</totfact>
</mgrwt>
</event>
<event>
 6    1  0.3017327E-006  0.2907628E+04  0.7818608E-02  0.8270612E-01
          2   -1    0    0  501    0  0.00000000000E+00  0.00000000000E+00  0.35708881487E+04  0.35708881487E+04  0.00000000000E+00 0. -1.
         -2   -1    0    0    0  501 -0.00000000000E+00 -0.00000000000E+00 -0.59189042730E+03  0.59189042730E+03  0.00000000000E+00 0.  1.
         23    2    1    2    0    0  0.87154915226E+03  0.10388275190E+04  0.22356101629E+04  0.26163680222E+04  0.93103640496E+02 0.  0.
         11    1    3    3    0    0  0.20042128923E+03  0.19526854563E+03  0.51048429016E+03  0.58214492061E+03  0.00000000000E+00 0.  1.
        -11    1    3    3    0    0  0.67112786303E+03  0.84355897334E+03  0.17251258728E+04  0.20342231016E+04  0.00000000000E+00 0. -1.
         22    1    1    2    0    0 -0.87154915226E+03 -0.10388275190E+04  0.74338755851E+03  0.15464105539E+04  0.00000000000E+00 0.  1.
<mgrwt>
<rscale>  0 0.29076276E+04</rscale>
<asrwt>0</asrwt>
<pdfrwt beam="1">  1        2 0.54936740E+00 0.29076276E+04</pdfrwt>
<pdfrwt beam="2">  1       -2 0.91060068E-01 0.29076276E+04</pdfrwt>
<totfact> 0.64231744E-01</totfact>
</mgrwt>
</event>
<event>
 6    1  0.3017327E-006  0.3223119E+04  0.7818608E-02  0.8182738E-01
         -2   -1    0    0    0  501 -0.00000000000E+00  0.00000000000E+00  0.94261896022E+03  0.94261896022E+03  0.00000000000E+00 0.  1.
          2   -1    0    0  501    0  0.00000000000E+00 -0.00000000000E+00 -0.27552220072E+04  0.27552220072E+04  0.00000000000E+00 0. -1.
         23    2    1    2    0    0 -0.11281750233E+04 -0.44000865290E+03 -0.21247980471E+04  0.24473001980E+04  0.90138893370E+02 0.  0.
         13    1    3    3    0    0 -0.24636347395E+03 -0.69626614275E+02 -0.50556908541E+03  0.56669473867E+03  0.00000000000E+00 0. -1.
        -13    1    3    3    0    0 -0.88181154933E+03 -0.37038203863E+03 -0.16192289617E+04  0.18806054593E+04  0.00000000000E+00 0.  1.
         22    1    1    2    0    0  0.11281750233E+04  0.44000865290E+03  0.31219500020E+03  0.12505407694E+04  0.00000000000E+00 0.  1.
<mgrwt>
<rscale>  0 0.32231193E+04</rscale>
<asrwt>0</asrwt>
<pdfrwt beam="1">  1        2 0.42388031E+00 0.32231193E+04</pdfrwt>
<pdfrwt beam="2">  1       -2 0.14501830E+00 0.32231193E+04</pdfrwt>
<totfact> 0.67719653E-01</totfact>
</mgrwt>
</event>
<event>
 6    1  0.3017327E-006  0.1747305E+04  0.7818608E-02  0.8734835E-01
         -3   -1    0    0    0  501 -0.00000000000E+00  0.00000000000E+00  0.16514330303E+04  0.16514330303E+04  0.00000000000E+00 0.  1.
          3   -1    0    0  501    0  0.00000000000E+00 -0.00000000000E+00 -0.46218558028E+03  0.46218558028E+03  0.00000000000E+00 0. -1.
         23    2    1    2    0    0 -0.10459051705E+03  0.51721675275E+03  0.14349250482E+04  0.15315448800E+04  0.90374110451E+02 0.  0.
         13    1    3    3    0    0  0.38942742921E+01  0.84767269410E+02  0.31237426379E+03  0.32369481925E+03  0.00000000000E+00 0.  1.
        -13    1    3    3    0    0 -0.10848479134E+03  0.43244948334E+03  0.11225507844E+04  0.12078500607E+04  0.00000000000E+00 0. -1.
         22    1    1    2    0    0  0.10459051705E+03 -0.51721675275E+03 -0.24567759819E+03  0.58207373059E+03  0.00000000000E+00 0. -1.
<mgrwt>
<rscale>  0 0.17473048E+04</rscale>
<asrwt>0</asrwt>
<pdfrwt beam="1">  1        3 0.71105475E-01 0.17473048E+04</pdfrwt>
<pdfrwt beam="2">  1       -3 0.25406662E+00 0.17473048E+04</pdfrwt>
<totfact> 0.32440536E-01</totfact>
</mgrwt>
</event>
<event>
 6    1  0.3017327E-006  0.9239815E+03  0.7818608E-02  0.9396090E-01
         -2   -1    0    0    0  501 -0.00000000000E+00  0.00000000000E+00  0.59492882818E+03  0.59492882818E+03  0.00000000000E+00 0.  1.
          2   -1    0    0  501    0  0.00000000000E+00 -0.00000000000E+00 -0.35875793960E+03  0.35875793960E+03  0.00000000000E+00 0. -1.
         23    2    1    2    0    0  0.23789375445E+03 -0.94173910519E+02  0.51073825099E+03  0.57838768661E+03  0.90645414469E+02 0.  0.
         13    1    3    3    0    0  0.73675511080E+02  0.66766348455E+01  0.97190679880E+02  0.12214207564E+03  0.00000000000E+00 0. -1.
        -13    1    3    3    0    0  0.16421824337E+03 -0.10085054536E+03  0.41354757111E+03  0.45624561097E+03  0.00000000000E+00 0.  1.
         22    1    1    2    0    0 -0.23789375445E+03  0.94173910519E+02 -0.27456736242E+03  0.37529908118E+03  0.00000000000E+00 0. -1.
<mgrwt>
<rscale>  0 0.92398147E+03</rscale>
<asrwt>0</asrwt>
<pdfrwt beam="1">  1        2 0.55193529E-01 0.92398147E+03</pdfrwt>
<pdfrwt beam="2">  1       -2 0.91527512E-01 0.92398147E+03</pdfrwt>
<totfact> 0.91597549E+01</totfact>
</mgrwt>
</event>
<event>
 6    1  0.3017327E-006  0.1085358E+04  0.7818608E-02  0.9219582E-01
          2   -1    0    0  501    0  0.00000000000E+00  0.00000000000E+00  0.26290311636E+04  0.26290311636E+04  0.00000000000E+00 0. -1.
         -2   -1    0    0    0  501 -0.00000000000E+00 -0.00000000000E+00 -0.11201853906E+03  0.11201853906E+03  0.00000000000E+00 0.  1.
         23    2    1    2    0    0 -0.49794262525E+03 -0.15800019886E+03  0.16024141859E+04  0.16877685318E+04  0.88997038905E+02 0.  0.
         13    1    3    3    0    0 -0.25291787645E+03 -0.60035095069E+02  0.66758389783E+03  0.71640765316E+03  0.00000000000E+00 0. -1.
        -13    1    3    3    0    0 -0.24502474880E+03 -0.97965103789E+02  0.93483028808E+03  0.97136087866E+03  0.00000000000E+00 0.  1.
         22    1    1    2    0    0  0.49794262525E+03  0.15800019886E+03  0.91459843863E+03  0.10532811708E+04  0.00000000000E+00 0.  1.
<mgrwt>
<rscale>  0 0.10853575E+04</rscale>
<asrwt>0</asrwt>
<pdfrwt beam="1">  1        2 0.40446629E+00 0.10853575E+04</pdfrwt>
<pdfrwt beam="2">  1       -2 0.17233623E-01 0.10853575E+04</pdfrwt>
<totfact> 0.81470109E+01</totfact>
</mgrwt>
</event>
<event>
 6    1  0.3017327E-006  0.6885799E+04  0.7818608E-02  0.7589329E-01
          2   -1    0    0  501    0  0.00000000000E+00  0.00000000000E+00  0.50937630664E+04  0.50937630664E+04  0.00000000000E+00 0. -1.
         -2   -1    0    0    0  501 -0.00000000000E+00 -0.00000000000E+00 -0.23270724231E+04  0.23270724231E+04  0.00000000000E+00 0.  1.
         23    2    1    2    0    0 -0.10575730331E+04 -0.25909827327E+04  0.35437153360E+04  0.45164561041E+04  0.93835579993E+02 0.  0.
         13    1    3    3    0    0 -0.87668927853E+03 -0.20827710445E+04  0.28154859998E+04  0.36101912318E+04  0.00000000000E+00 0.  1.
        -13    1    3    3    0    0 -0.18088375454E+03 -0.50821168818E+03  0.72822933620E+03  0.90626487229E+03  0.00000000000E+00 0. -1.
         22    1    1    2    0    0  0.10575730331E+04  0.25909827327E+04 -0.77702469264E+03  0.29043793854E+04  0.00000000000E+00 0.  1.
<mgrwt>
<rscale>  0 0.68857986E+04</rscale>
<asrwt>0</asrwt>
<pdfrwt beam="1">  1        2 0.78365585E+00 0.68857986E+04</pdfrwt>
<pdfrwt beam="2">  1       -2 0.35801114E+00 0.68857986E+04</pdfrwt>
<totfact> 0.21967454E-04</totfact>
</mgrwt>
</event>
<event>
 6    1  0.3017327E-006  0.5212927E+04  0.7818608E-02  0.7796475E-01
         -2   -1    0    0    0  501 -0.00000000000E+00  0.00000000000E+00  0.17070608934E+04  0.17070608934E+04  0.00000000000E+00 0. -1.
          2   -1    0    0  501    0  0.00000000000E+00 -0.00000000000E+00 -0.39797361982E+04  0.39797361982E+04  0.00000000000E+00 0.  1.
         23    2    1    2    0    0  0.27124571739E+02  0.11266928535E+04 -0.36995801271E+04  0.38684929641E+04  0.90400042899E+02 0.  0.
         13    1    3    3    0    0  0.47341452518E+02  0.31474292188E+03 -0.10130975853E+04  0.10619185644E+04  0.00000000000E+00 0. -1.
        -13    1    3    3    0    0 -0.20216880779E+02  0.81194993163E+03 -0.26864825418E+04  0.28065743997E+04  0.00000000000E+00 0.  1.
         22    1    1    2    0    0 -0.27124571739E+02 -0.11266928535E+04  0.14269048223E+04  0.18183041276E+04  0.00000000000E+00 0. -1.
<mgrwt>
<rscale>  0 0.52129270E+04</rscale>
<asrwt>0</asrwt>
<pdfrwt beam="1">  1        2 0.61226711E+00 0.52129270E+04</pdfrwt>
<pdfrwt beam="2">  1       -2 0.26262475E+00 0.52129270E+04</pdfrwt>
<totfact> 0.13609980E-02</totfact>
</mgrwt>
</event>
<event>
 6    1  0.3017327E-006  0.1070921E+04  0.7818608E-02  0.9234007E-01
         -2   -1    0    0    0  501 -0.00000000000E+00  0.00000000000E+00  0.12251543621E+03  0.12251543621E+03  0.00000000000E+00 0.  1.
          2   -1    0    0  501    0  0.00000000000E+00 -0.00000000000E+00 -0.23402589927E+04  0.23402589927E+04  0.00000000000E+00 0. -1.
         23    2    1    2    0    0  0.35245126917E+03  0.30576273323E+03 -0.53410795442E+03  0.71567924354E+03  0.95982948959E+02 0.  0.
         13    1    3    3    0    0  0.24358233341E+03  0.16445125865E+03 -0.37660962403E+03  0.47771474599E+03  0.00000000000E+00 0. -1.
        -13    1    3    3    0    0  0.10886893576E+03  0.14131147458E+03 -0.15749833039E+03  0.23796449755E+03  0.00000000000E+00 0.  1.
         22    1    1    2    0    0 -0.35245126917E+03 -0.30576273323E+03 -0.16836356021E+04  0.17470951854E+04  0.00000000000E+00 0. -1.
<mgrwt>
<rscale>  0 0.10709208E+04</rscale>
<asrwt>0</asrwt>
<pdfrwt beam="1">  1        2 0.36003987E+00 0.10709208E+04</pdfrwt>
<pdfrwt beam="2">  1       -2 0.18848527E-01 0.10709208E+04</pdfrwt>
<totfact> 0.10214718E+02</totfact>
</mgrwt>
</event>
<event>
 6    1  0.3017327E-006  0.2573892E+04  0.7818608E-02  0.8377124E-01
          1   -1    0    0  501    0  0.00000000000E+00  0.00000000000E+00  0.19146813410E+04  0.19146813410E+04  0.00000000000E+00 0. -1.
         -1   -1    0    0    0  501 -0.00000000000E+00 -0.00000000000E+00 -0.86501599513E+03  0.86501599513E+03  0.00000000000E+00 0.  1.
         23    2    1    2    0    0 -0.35201156129E+03 -0.97266579892E+03 -0.29765707384E+03  0.10810894949E+04  0.10081600405E+03 0.  0.
         13    1    3    3    0    0 -0.24046312599E+03 -0.57362816578E+03 -0.13840608519E+03  0.63720328935E+03  0.00000000000E+00 0. -1.
        -13    1    3    3    0    0 -0.11154843530E+03 -0.39903763314E+03 -0.15925098866E+03  0.44388620554E+03  0.00000000000E+00 0.  1.
         22    1    1    2    0    0  0.35201156129E+03  0.97266579892E+03  0.13473224198E+04  0.16986078413E+04  0.00000000000E+00 0. -1.
<mgrwt>
<rscale>  0 0.25738920E+04</rscale>
<asrwt>0</asrwt>
<pdfrwt beam="1">  1        1 0.29456636E+00 0.25738920E+04</pdfrwt>
<pdfrwt beam="2">  1       -1 0.13307938E+00 0.25738920E+04</pdfrwt>
<totfact> 0.14361549E+00</totfact>
</mgrwt>
</event>
<event>
 6    1  0.3017327E-006  0.6369405E+03  0.7818608E-02  0.9831598E-01
         -2   -1    0    0    0  501 -0.00000000000E+00  0.00000000000E+00  0.13522509004E+03  0.13522509004E+03  0.00000000000E+00 0.  1.
          2   -1    0    0  501    0  0.00000000000E+00 -0.00000000000E+00 -0.75003307464E+03  0.75003307464E+03  0.00000000000E+00 0. -1.
         23    2    1    2    0    0 -0.10353431526E+03  0.10185510849E+03  0.69740821680E+02  0.18547185034E+03  0.91881486150E+02 0.  0.
         11    1    3    3    0    0 -0.95910123884E+02  0.50067305141E+02  0.14147966032E+02  0.10911302328E+03  0.00000000000E+00 0.  1.
        -11    1    3    3    0    0 -0.76241913780E+01  0.51787803348E+02  0.55592855649E+02  0.76358827053E+02  0.00000000000E+00 0. -1.
         22    1    1    2    0    0  0.10353431526E+03 -0.10185510849E+03 -0.68454880628E+03  0.69978631435E+03  0.00000000000E+00 0. -1.
<mgrwt>
<rscale>  0 0.63694047E+03</rscale>
<asrwt>0</asrwt>
<pdfrwt beam="1">  1        2 0.11538970E+00 0.63694047E+03</pdfrwt>
<pdfrwt beam="2">  1       -2 0.20803860E-01 0.63694047E+03</pdfrwt>
<totfact> 0.75073506E+02</totfact>
</mgrwt>
</event>
<event>
 6    1  0.3017327E-006  0.1570471E+04  0.7818608E-02  0.8838897E-01
          2   -1    0    0  501    0  0.00000000000E+00  0.00000000000E+00  0.76820509148E+03  0.76820509148E+03  0.00000000000E+00 0. -1.
         -2   -1    0    0    0  501 -0.00000000000E+00 -0.00000000000E+00 -0.80264322499E+03  0.80264322499E+03  0.00000000000E+00 0.  1.
         23    2    1    2    0    0 -0.25156243029E+03 -0.17857271851E+03  0.70215143573E+03  0.77226452898E+03  0.90575890247E+02 0.  0.
         11    1    3    3    0    0 -0.54852688109E+02 -0.88812753576E+02  0.25658041879E+03  0.27700186623E+03  0.00000000000E+00 0.  1.
        -11    1    3    3    0    0 -0.19670974218E+03 -0.89759964936E+02  0.44557101694E+03  0.49526266275E+03  0.00000000000E+00 0. -1.
         22    1    1    2    0    0  0.25156243029E+03  0.17857271851E+03 -0.73658956924E+03  0.79858378749E+03  0.00000000000E+00 0.  1.
<mgrwt>
<rscale>  0 0.15704708E+04</rscale>
<asrwt>0</asrwt>
<pdfrwt beam="1">  1        2 0.11818540E+00 0.15704708E+04</pdfrwt>
<pdfrwt beam="2">  1       -2 0.12348357E+00 0.15704708E+04</pdfrwt>
<totfact> 0.17266667E+01</totfact>
</mgrwt>
</event>
<event>
 6    1  0.3017327E-006  0.2134612E+04  0.7818608E-02  0.8546148E-01
          2   -1    0    0  501    0  0.00000000000E+00  0.00000000000E+00  0.20016434498E+04  0.20016434498E+04  0.00000000000E+00 0. -1.
         -2   -1    0    0    0  501 -0.00000000000E+00 -0.00000000000E+00 -0.56910314155E+03  0.56910314155E+03  0.00000000000E+00 0.  1.
         23    2    1    2    0    0 -0.58924631308E+03  0.43819223839E+03 -0.21161334781E+03  0.77006202707E+03  0.94824370821E+02 0.  0.
         11    1    3    3    0    0 -0.23213934909E+03  0.15057780423E+03 -0.35893773682E+02  0.27901741077E+03  0.00000000000E+00 0.  1.
        -11    1    3    3    0    0 -0.35710696398E+03  0.28761443416E+03 -0.17571957413E+03  0.49104461630E+03  0.00000000000E+00 0. -1.
         22    1    1    2    0    0  0.58924631308E+03 -0.43819223839E+03  0.16441536561E+04  0.18006845643E+04  0.00000000000E+00 0. -1.
<mgrwt>
<rscale>  0 0.21346115E+04</rscale>
<asrwt>0</asrwt>
<pdfrwt beam="1">  1        2 0.30794514E+00 0.21346115E+04</pdfrwt>
<pdfrwt beam="2">  1       -2 0.87554330E-01 0.21346115E+04</pdfrwt>
<totfact> 0.68982105E+00</totfact>
</mgrwt>
</event>
<event>
 6    1  0.3017327E-006  0.1772784E+04  0.7818608E-02  0.8720908E-01
         -2   -1    0    0    0  501 -0.00000000000E+00  0.00000000000E+00  0.51293833646E+03  0.51293833646E+03  0.00000000000E+00 0.  1.
          2   -1    0    0  501    0  0.00000000000E+00 -0.00000000000E+00 -0.15317452597E+04  0.15317452597E+04  0.00000000000E+00 0. -1.
         23    2    1    2    0    0  0.73616935464E+03  0.48613690324E+03 -0.44603504475E+03  0.99285564817E+03  0.92415743074E+02 0.  0.
         11    1    3    3    0    0  0.58353099874E+03  0.41815320528E+03 -0.38759548018E+03  0.81583747513E+03  0.00000000000E+00 0. -1.
        -11    1    3    3    0    0  0.15263835590E+03  0.67983697956E+02 -0.58439564573E+02  0.17701817304E+03  0.00000000000E+00 0.  1.
         22    1    1    2    0    0 -0.73616935464E+03 -0.48613690324E+03 -0.57277187851E+03  0.10518279480E+04  0.00000000000E+00 0. -1.
<mgrwt>
<rscale>  0 0.17727841E+04</rscale>
<asrwt>0</asrwt>
<pdfrwt beam="1">  1        2 0.23565311E+00 0.17727841E+04</pdfrwt>
<pdfrwt beam="2">  1       -2 0.78913592E-01 0.17727841E+04</pdfrwt>
<totfact> 0.16427027E+01</totfact>
</mgrwt>
</event>
<event>
 6    1  0.3017327E-006  0.2575339E+04  0.7818608E-02  0.8376626E-01
         -2   -1    0    0    0  501 -0.00000000000E+00  0.00000000000E+00  0.14950524574E+04  0.14950524574E+04  0.00000000000E+00 0.  1.
          2   -1    0    0  501    0  0.00000000000E+00 -0.00000000000E+00 -0.11090533503E+04  0.11090533503E+04  0.00000000000E+00 0. -1.
         23    2    1    2    0    0 -0.48466504755E+03 -0.42680152981E+03  0.13178435401E+04  0.14703537178E+04  0.90380888440E+02 0.  0.
         13    1    3    3    0    0 -0.38164968264E+03 -0.32772105353E+03  0.11031471121E+04  0.12124319033E+04  0.00000000000E+00 0. -1.
        -13    1    3    3    0    0 -0.10301536492E+03 -0.99080476278E+02  0.21469642808E+03  0.25792181455E+03  0.00000000000E+00 0.  1.
         22    1    1    2    0    0  0.48466504755E+03  0.42680152981E+03 -0.93184443303E+03  0.11337520900E+04  0.00000000000E+00 0. -1.
<mgrwt>
<rscale>  0 0.25753392E+04</rscale>
<asrwt>0</asrwt>
<pdfrwt beam="1">  1        2 0.17062359E+00 0.25753392E+04</pdfrwt>
<pdfrwt beam="2">  1       -2 0.23000807E+00 0.25753392E+04</pdfrwt>
<totfact> 0.16295887E+00</totfact>
</mgrwt>
</event>
<event>
 6    1  0.3017327E-006  0.8994269E+03  0.7818608E-02  0.9426298E-01
         -2   -1    0    0    0  501 -0.00000000000E+00  0.00000000000E+00  0.84623952849E+03  0.84623952849E+03  0.00000000000E+00 0.  1.
          2   -1    0    0  501    0  0.00000000000E+00 -0.00000000000E+00 -0.23898927661E+03  0.23898927661E+03  0.00000000000E+00 0. -1.
         23    2    1    2    0    0  0.32763229866E+03 -0.28865108878E+03  0.41058511292E+03  0.60633471341E+03  0.91647561655E+02 0.  0.
         11    1    3    3    0    0  0.11617122011E+03 -0.48741624742E+02  0.10490983738E+03  0.16394380850E+03  0.00000000000E+00 0.  1.
        -11    1    3    3    0    0  0.21146107854E+03 -0.23990946404E+03  0.30567527554E+03  0.44239090491E+03  0.00000000000E+00 0. -1.
         22    1    1    2    0    0 -0.32763229866E+03  0.28865108878E+03  0.19666513896E+03  0.47889409170E+03  0.00000000000E+00 0. -1.
<mgrwt>
<rscale>  0 0.89942687E+03</rscale>
<asrwt>0</asrwt>
<pdfrwt beam="1">  1        2 0.36767581E-01 0.89942687E+03</pdfrwt>
<pdfrwt beam="2">  1       -2 0.13019070E+00 0.89942687E+03</pdfrwt>
<totfact> 0.61413492E+01</totfact>
</mgrwt>
</event>
<event>
 6    1  0.3887857E-006  0.2205748E+04  0.7818608E-02  0.8516040E-01
          2   -1    0    0  501    0  0.00000000000E+00  0.00000000000E+00  0.16716558058E+04  0.16716558058E+04  0.00000000000E+00 0. -1.
         -2   -1    0    0    0  501 -0.00000000000E+00 -0.00000000000E+00 -0.72762032972E+03  0.72762032972E+03  0.00000000000E+00 0.  1.
         23    2    1    2    0    0  0.11429073966E+03  0.10227553027E+04  0.47310323335E+02  0.10342828088E+04  0.91716299828E+02 0.  0.
         13    1    3    3    0    0 -0.80587985758E+01  0.28436916980E+03  0.26141691337E+01  0.28449534767E+03  0.00000000000E+00 0. -1.
        -13    1    3    3    0    0  0.12234953824E+03  0.73838613286E+03  0.44696154201E+02  0.74978746116E+03  0.00000000000E+00 0.  1.
         22    1    1    2    0    0 -0.11429073966E+03 -0.10227553027E+04  0.89672515273E+03  0.13649933267E+04  0.00000000000E+00 0. -1.
<mgrwt>
<rscale>  0 0.22057477E+04</rscale>
<asrwt>0</asrwt>
<pdfrwt beam="1">  1        2 0.25717782E+00 0.22057477E+04</pdfrwt>
<pdfrwt beam="2">  1       -2 0.11194159E+00 0.22057477E+04</pdfrwt>
<totfact> 0.58513283E+00</totfact>
</mgrwt>
</event>
<event>
 6    1  0.3017327E-006  0.1540975E+04  0.7818608E-02  0.8857653E-01
          2   -1    0    0  501    0  0.00000000000E+00  0.00000000000E+00  0.14903116684E+04  0.14903116684E+04  0.00000000000E+00 0. -1.
         -2   -1    0    0    0  501 -0.00000000000E+00 -0.00000000000E+00 -0.39833991527E+03  0.39833991527E+03  0.00000000000E+00 0.  1.
         23    2    1    2    0    0 -0.52088270208E+03 -0.27011578461E+03  0.11548155220E+04  0.12985408604E+04  0.91258697735E+02 0.  0.
         13    1    3    3    0    0 -0.32044160152E+03 -0.14626030103E+03  0.59980274587E+03  0.69558481122E+03  0.00000000000E+00 0. -1.
        -13    1    3    3    0    0 -0.20044110056E+03 -0.12385548358E+03  0.55501277613E+03  0.60295604920E+03  0.00000000000E+00 0.  1.
         22    1    1    2    0    0  0.52088270208E+03  0.27011578461E+03 -0.62843768857E+02  0.59011072325E+03  0.00000000000E+00 0.  1.
<mgrwt>
<rscale>  0 0.15409745E+04</rscale>
<asrwt>0</asrwt>
<pdfrwt beam="1">  1        2 0.22927871E+00 0.15409745E+04</pdfrwt>
<pdfrwt beam="2">  1       -2 0.61283065E-01 0.15409745E+04</pdfrwt>
<totfact> 0.30657795E+01</totfact>
</mgrwt>
</event>
<event>
 6    1  0.3017327E-006  0.1424706E+04  0.7818608E-02  0.8936127E-01
          2   -1    0    0  501    0  0.00000000000E+00  0.00000000000E+00  0.24128495138E+04  0.24128495138E+04  0.00000000000E+00 0. -1.
         -2   -1    0    0    0  501 -0.00000000000E+00 -0.00000000000E+00 -0.21031002776E+03  0.21031002776E+03  0.00000000000E+00 0.  1.
         23    2    1    2    0    0  0.47894676776E+03  0.34873187272E+03  0.38713168047E+03  0.71352360089E+03  0.90780315051E+02 0.  0.
         11    1    3    3    0    0  0.75740991168E+02  0.94219324389E+02  0.10034185350E+03  0.15710654473E+03  0.00000000000E+00 0. -1.
        -11    1    3    3    0    0  0.40320577659E+03  0.25451254834E+03  0.28678982697E+03  0.55641705616E+03  0.00000000000E+00 0.  1.
         22    1    1    2    0    0 -0.47894676776E+03 -0.34873187272E+03  0.18154078055E+04  0.19096359406E+04  0.00000000000E+00 0.  1.
<mgrwt>
<rscale>  0 0.14247055E+04</rscale>
<asrwt>0</asrwt>
<pdfrwt beam="1">  1        2 0.37120760E+00 0.14247055E+04</pdfrwt>
<pdfrwt beam="2">  1       -2 0.32355391E-01 0.14247055E+04</pdfrwt>
<totfact> 0.33877429E+01</totfact>
</mgrwt>
</event>
<event>
 6    1  0.3017327E-006  0.4448904E+03  0.7818608E-02  0.1029257E+00
          2   -1    0    0  501    0  0.00000000000E+00  0.00000000000E+00  0.16464878958E+03  0.16464878958E+03  0.00000000000E+00 0. -1.
         -2   -1    0    0    0  501 -0.00000000000E+00 -0.00000000000E+00 -0.30052982029E+03  0.30052982029E+03  0.00000000000E+00 0.  1.
         23    2    1    2    0    0 -0.80996630919E+02 -0.78733069775E+01  0.13526960365E+03  0.18207949349E+03  0.90733858586E+02 0.  0.
         11    1    3    3    0    0 -0.75164112778E+02 -0.41552741866E+02  0.81723228830E+02  0.11855361798E+03  0.00000000000E+00 0.  1.
        -11    1    3    3    0    0 -0.58325181411E+01  0.33679434889E+02  0.53546374822E+02  0.63525875507E+02  0.00000000000E+00 0. -1.
         22    1    1    2    0    0  0.80996630919E+02  0.78733069775E+01 -0.27115063436E+03  0.28309911638E+03  0.00000000000E+00 0.  1.
<mgrwt>
<rscale>  0 0.44489042E+03</rscale>
<asrwt>0</asrwt>
<pdfrwt beam="1">  1        2 0.25330583E-01 0.44489042E+03</pdfrwt>
<pdfrwt beam="2">  1       -2 0.46235356E-01 0.44489042E+03</pdfrwt>
<totfact> 0.95858921E+02</totfact>
</mgrwt>
</event>
<event>
 6    1  0.3017327E-006  0.2624945E+04  0.7818608E-02  0.8359777E-01
          1   -1    0    0  501    0  0.00000000000E+00  0.00000000000E+00  0.59820376038E+03  0.59820376038E+03  0.00000000000E+00 0. -1.
         -1   -1    0    0    0  501 -0.00000000000E+00 -0.00000000000E+00 -0.28795948672E+04  0.28795948672E+04  0.00000000000E+00 0.  1.
         23    2    1    2    0    0  0.92951315224E+03  0.31181077399E+03 -0.22949571230E+04  0.24972861617E+04  0.91593220512E+02 0.  0.
         11    1    3    3    0    0  0.28423902198E+03  0.74181106290E+02 -0.59654737088E+03  0.66495370053E+03  0.00000000000E+00 0.  1.
        -11    1    3    3    0    0  0.64527413026E+03  0.23762966770E+03 -0.16984097521E+04  0.18323324611E+04  0.00000000000E+00 0. -1.
         22    1    1    2    0    0 -0.92951315224E+03 -0.31181077399E+03  0.13566016180E+02  0.98051246588E+03  0.00000000000E+00 0. -1.
<mgrwt>
<rscale>  0 0.26249453E+04</rscale>
<asrwt>0</asrwt>
<pdfrwt beam="1">  1        1 0.92031347E-01 0.26249453E+04</pdfrwt>
<pdfrwt beam="2">  1       -1 0.44301460E+00 0.26249453E+04</pdfrwt>
<totfact> 0.10920664E-01</totfact>
</mgrwt>
</event>
<event>
 6    1  0.3017327E-006  0.2111660E+04  0.7818608E-02  0.8556125E-01
          2   -1    0    0  501    0  0.00000000000E+00  0.00000000000E+00  0.13487795554E+04  0.13487795554E+04  0.00000000000E+00 0. -1.
         -2   -1    0    0    0  501 -0.00000000000E+00 -0.00000000000E+00 -0.82650760159E+03  0.82650760159E+03  0.00000000000E+00 0.  1.
         23    2    1    2    0    0 -0.36645083319E+03  0.74950535043E+03  0.92469545320E+03  0.12490101162E+04  0.94446310930E+02 0.  0.
         13    1    3    3    0    0 -0.28234572651E+03  0.51614311303E+03  0.59885698118E+03  0.83949538791E+03  0.00000000000E+00 0. -1.
        -13    1    3    3    0    0 -0.84105106679E+02  0.23336223739E+03  0.32583847202E+03  0.40951472825E+03  0.00000000000E+00 0.  1.
         22    1    1    2    0    0  0.36645083319E+03 -0.74950535043E+03 -0.40242349941E+03  0.92627704081E+03  0.00000000000E+00 0.  1.
<mgrwt>
<rscale>  0 0.21116596E+04</rscale>
<asrwt>0</asrwt>
<pdfrwt beam="1">  1        2 0.20750455E+00 0.21116596E+04</pdfrwt>
<pdfrwt beam="2">  1       -2 0.12715502E+00 0.21116596E+04</pdfrwt>
<totfact> 0.65499678E+00</totfact>
</mgrwt>
</event>
<event>
 6    1  0.3017327E-006  0.3512825E+04  0.7818608E-02  0.8110757E-01
          2   -1    0    0  501    0  0.00000000000E+00  0.00000000000E+00  0.36814092143E+04  0.36814092143E+04  0.00000000000E+00 0. -1.
         -2   -1    0    0    0  501 -0.00000000000E+00 -0.00000000000E+00 -0.83799040352E+03  0.83799040352E+03  0.00000000000E+00 0.  1.
         23    2    1    2    0    0  0.50337107991E+03  0.16284744502E+04  0.88361441443E+03  0.19220654555E+04  0.90827873525E+02 0.  0.
         13    1    3    3    0    0  0.12477123362E+03  0.31574755744E+03  0.14772550528E+03  0.37025289422E+03  0.00000000000E+00 0. -1.
        -13    1    3    3    0    0  0.37859984629E+03  0.13127268928E+04  0.73588890915E+03  0.15518125612E+04  0.00000000000E+00 0.  1.
         22    1    1    2    0    0 -0.50337107991E+03 -0.16284744502E+04  0.19598043963E+04  0.25973341623E+04  0.00000000000E+00 0. -1.
<mgrwt>
<rscale>  0 0.35128254E+04</rscale>
<asrwt>0</asrwt>
<pdfrwt beam="1">  1        2 0.56637064E+00 0.35128254E+04</pdfrwt>
<pdfrwt beam="2">  1       -2 0.12892160E+00 0.35128254E+04</pdfrwt>
<totfact> 0.21890118E-01</totfact>
</mgrwt>
</event>
<event>
 6    1  0.3017327E-006  0.1779344E+04  0.7818608E-02  0.8717362E-01
         -2   -1    0    0    0  501 -0.00000000000E+00  0.00000000000E+00  0.27734257246E+03  0.27734257246E+03  0.00000000000E+00 0.  1.
          2   -1    0    0  501    0  0.00000000000E+00 -0.00000000000E+00 -0.28539312006E+04  0.28539312006E+04  0.00000000000E+00 0. -1.
         23    2    1    2    0    0 -0.28384389101E+03  0.18984237982E+03 -0.27330580733E+04  0.27556540573E+04  0.86112530081E+02 0.  0.
         11    1    3    3    0    0 -0.13927172659E+03  0.45994652586E+02 -0.12728556776E+04  0.12812781501E+04  0.00000000000E+00 0. -1.
        -11    1    3    3    0    0 -0.14457216442E+03  0.14384772723E+03 -0.14602023956E+04  0.14743759071E+04  0.00000000000E+00 0.  1.
         22    1    1    2    0    0  0.28384389101E+03 -0.18984237982E+03  0.15646944512E+03  0.37561971579E+03  0.00000000000E+00 0.  1.
<mgrwt>
<rscale>  0 0.17793444E+04</rscale>
<asrwt>0</asrwt>
<pdfrwt beam="1">  1        2 0.43906632E+00 0.17793444E+04</pdfrwt>
<pdfrwt beam="2">  1       -2 0.42668090E-01 0.17793444E+04</pdfrwt>
<totfact> 0.10590368E+01</totfact>
</mgrwt>
</event>
<event>
 6    1  0.3017327E-006  0.2647644E+04  0.7818608E-02  0.8352195E-01
         -2   -1    0    0    0  501 -0.00000000000E+00  0.00000000000E+00  0.97359204693E+03  0.97359204693E+03  0.00000000000E+00 0.  1.
          2   -1    0    0  501    0  0.00000000000E+00 -0.00000000000E+00 -0.18000403713E+04  0.18000403713E+04  0.00000000000E+00 0. -1.
         23    2    1    2    0    0 -0.69593494256E+02 -0.13088510758E+04 -0.23118068231E+03  0.13340915335E+04  0.91767743753E+02 0.  0.
         11    1    3    3    0    0  0.19200133894E+02 -0.46477416849E+03 -0.83329191871E+02  0.47257531363E+03  0.00000000000E+00 0.  1.
        -11    1    3    3    0    0 -0.88793628150E+02 -0.84407690733E+03 -0.14785149044E+03  0.86151621988E+03  0.00000000000E+00 0. -1.
         22    1    1    2    0    0  0.69593494256E+02  0.13088510758E+04 -0.59526764203E+03  0.14395408847E+04  0.00000000000E+00 0. -1.
<mgrwt>
<rscale>  0 0.26476442E+04</rscale>
<asrwt>0</asrwt>
<pdfrwt beam="1">  1        2 0.27692929E+00 0.26476442E+04</pdfrwt>
<pdfrwt beam="2">  1       -2 0.14978339E+00 0.26476442E+04</pdfrwt>
<totfact> 0.22868651E+00</totfact>
</mgrwt>
</event>
<event>
 6    1  0.3017327E-006  0.3051051E+04  0.7818608E-02  0.8229301E-01
         -2   -1    0    0    0  501 -0.00000000000E+00  0.00000000000E+00  0.15012395459E+04  0.15012395459E+04  0.00000000000E+00 0.  1.
          2   -1    0    0  501    0  0.00000000000E+00 -0.00000000000E+00 -0.15502047581E+04  0.15502047581E+04  0.00000000000E+00 0. -1.
         23    2    1    2    0    0 -0.10252984376E+03 -0.67441219928E+03  0.13386796565E+04  0.15051899701E+04  0.90495525372E+02 0.  0.
         13    1    3    3    0    0 -0.11112649122E+03 -0.45517742376E+03  0.92802081605E+03  0.10395952189E+04  0.00000000000E+00 0. -1.
        -13    1    3    3    0    0  0.85966474596E+01 -0.21923477552E+03  0.41065884042E+03  0.46559475122E+03  0.00000000000E+00 0.  1.
         22    1    1    2    0    0  0.10252984376E+03  0.67441219928E+03 -0.13876448687E+04  0.15462543338E+04  0.00000000000E+00 0. -1.
<mgrwt>
<rscale>  0 0.30510514E+04</rscale>
<asrwt>0</asrwt>
<pdfrwt beam="1">  1        2 0.23849304E+00 0.30510514E+04</pdfrwt>
<pdfrwt beam="2">  1       -2 0.23095993E+00 0.30510514E+04</pdfrwt>
<totfact> 0.85492752E-01</totfact>
</mgrwt>
</event>
<event>
 6    1  0.3017327E-006  0.1826938E+04  0.7818608E-02  0.8692104E-01
         -4   -1    0    0    0  501 -0.00000000000E+00  0.00000000000E+00  0.80448928248E+03  0.80448928248E+03  0.00000000000E+00 0.  1.
          4   -1    0    0  501    0  0.00000000000E+00 -0.00000000000E+00 -0.10372112810E+04  0.10372112810E+04  0.00000000000E+00 0. -1.
         23    2    1    2    0    0 -0.46238482389E+03  0.27662523765E+03  0.62400475247E+03  0.82962251644E+03  0.92576137401E+02 0.  0.
         13    1    3    3    0    0 -0.40962441956E+03  0.20785338686E+03  0.53964038761E+03  0.70866560765E+03  0.00000000000E+00 0. -1.
        -13    1    3    3    0    0 -0.52760404327E+02  0.68771850787E+02  0.84364364857E+02  0.12095690879E+03  0.00000000000E+00 0.  1.
         22    1    1    2    0    0  0.46238482389E+03 -0.27662523765E+03 -0.85672675102E+03  0.10120780471E+04  0.00000000000E+00 0. -1.
<mgrwt>
<rscale>  0 0.18269377E+04</rscale>
<asrwt>0</asrwt>
<pdfrwt beam="1">  1        4 0.15957097E+00 0.18269377E+04</pdfrwt>
<pdfrwt beam="2">  1       -4 0.12376758E+00 0.18269377E+04</pdfrwt>
<totfact> 0.23274719E-01</totfact>
</mgrwt>
</event>
<event>
 6    1  0.3017327E-006  0.4029899E+04  0.7818608E-02  0.7998542E-01
          1   -1    0    0  501    0  0.00000000000E+00  0.00000000000E+00  0.37681968105E+04  0.37681968105E+04  0.00000000000E+00 0. -1.
         -1   -1    0    0    0  501 -0.00000000000E+00 -0.00000000000E+00 -0.10774442802E+04  0.10774442802E+04  0.00000000000E+00 0.  1.
         23    2    1    2    0    0 -0.16020583230E+04  0.34267586940E+03 -0.62331587954E+02  0.16419729144E+04  0.90400237101E+02 0.  0.
         11    1    3    3    0    0 -0.50526614051E+03  0.14313801426E+03 -0.44546303756E+02  0.52703580244E+03  0.00000000000E+00 0.  1.
        -11    1    3    3    0    0 -0.10967921825E+04  0.19953785513E+03 -0.17785284198E+02  0.11149371119E+04  0.00000000000E+00 0. -1.
         22    1    1    2    0    0  0.16020583230E+04 -0.34267586940E+03  0.27530841183E+04  0.32036681763E+04  0.00000000000E+00 0. -1.
<mgrwt>
<rscale>  0 0.40298993E+04</rscale>
<asrwt>0</asrwt>
<pdfrwt beam="1">  1        1 0.57972258E+00 0.40298993E+04</pdfrwt>
<pdfrwt beam="2">  1       -1 0.16576066E+00 0.40298993E+04</pdfrwt>
<totfact> 0.31216009E-02</totfact>
</mgrwt>
</event>
<event>
 6    1  0.3017327E-006  0.1493272E+04  0.7818608E-02  0.8888939E-01
         -4   -1    0    0    0  501 -0.00000000000E+00  0.00000000000E+00  0.91435698407E+03  0.91435698407E+03  0.00000000000E+00 0. -1.
          4   -1    0    0  501    0  0.00000000000E+00 -0.00000000000E+00 -0.60968052189E+03  0.60968052189E+03  0.00000000000E+00 0.  1.
         23    2    1    2    0    0 -0.69733450847E+03  0.21431111358E+03  0.30118616425E+03  0.79450556541E+03  0.91221257563E+02 0.  0.
         13    1    3    3    0    0 -0.37921393361E+03  0.16381964136E+03  0.17183544575E+03  0.44740083008E+03  0.00000000000E+00 0.  1.
        -13    1    3    3    0    0 -0.31812057485E+03  0.50491472220E+02  0.12935071851E+03  0.34710473533E+03  0.00000000000E+00 0. -1.
         22    1    1    2    0    0  0.69733450847E+03 -0.21431111358E+03  0.34902979271E+01  0.72953194055E+03  0.00000000000E+00 0. -1.
<mgrwt>
<rscale>  0 0.14932724E+04</rscale>
<asrwt>0</asrwt>
<pdfrwt beam="1">  1        4 0.93797003E-01 0.14932724E+04</pdfrwt>
<pdfrwt beam="2">  1       -4 0.14067031E+00 0.14932724E+04</pdfrwt>
<totfact> 0.65543555E-01</totfact>
</mgrwt>
</event>
<event>
 6    1  0.3017327E-006  0.2634966E+04  0.7818608E-02  0.8356420E-01
         -2   -1    0    0    0  501 -0.00000000000E+00  0.00000000000E+00  0.80188241648E+03  0.80188241648E+03  0.00000000000E+00 0.  1.
          2   -1    0    0  501    0  0.00000000000E+00 -0.00000000000E+00 -0.21646084095E+04  0.21646084095E+04  0.00000000000E+00 0. -1.
         23    2    1    2    0    0  0.10264974490E+04 -0.70582231246E+03 -0.11591022312E+04  0.17042132076E+04  0.94564924883E+02 0.  0.
         11    1    3    3    0    0  0.59915744349E+03 -0.41620618502E+03 -0.61484242813E+03  0.95406941151E+03  0.00000000000E+00 0.  1.
        -11    1    3    3    0    0  0.42734000550E+03 -0.28961612745E+03 -0.54425980310E+03  0.75014379611E+03  0.00000000000E+00 0. -1.
         22    1    1    2    0    0 -0.10264974490E+04  0.70582231246E+03 -0.20362376184E+03  0.12622776184E+04  0.00000000000E+00 0.  1.
<mgrwt>
<rscale>  0 0.26349660E+04</rscale>
<asrwt>0</asrwt>
<pdfrwt beam="1">  1        2 0.33301667E+00 0.26349660E+04</pdfrwt>
<pdfrwt beam="2">  1       -2 0.12336653E+00 0.26349660E+04</pdfrwt>
<totfact> 0.23627353E+00</totfact>
</mgrwt>
</event>
<event>
 6    1  0.3017327E-006  0.2336914E+04  0.7818608E-02  0.8463507E-01
          1   -1    0    0  501    0  0.00000000000E+00  0.00000000000E+00  0.21444643759E+04  0.21444643759E+04  0.00000000000E+00 0. -1.
         -1   -1    0    0    0  501 -0.00000000000E+00 -0.00000000000E+00 -0.63665880261E+03  0.63665880261E+03  0.00000000000E+00 0.  1.
         23    2    1    2    0    0  0.58057856989E+03  0.68044545603E+03 -0.13704590127E+03  0.90879471699E+03  0.83956918351E+02 0.  0.
         13    1    3    3    0    0  0.35313336051E+03  0.34985920967E+03 -0.79798728965E+02  0.50346049898E+03  0.00000000000E+00 0.  1.
        -13    1    3    3    0    0  0.22744520938E+03  0.33058624636E+03 -0.57247172301E+02  0.40533421801E+03  0.00000000000E+00 0. -1.
         22    1    1    2    0    0 -0.58057856989E+03 -0.68044545603E+03  0.16448514745E+04  0.18723284615E+04  0.00000000000E+00 0. -1.
<mgrwt>
<rscale>  0 0.23369143E+04</rscale>
<asrwt>0</asrwt>
<pdfrwt beam="1">  1        1 0.32991759E+00 0.23369143E+04</pdfrwt>
<pdfrwt beam="2">  1       -1 0.97947509E-01 0.23369143E+04</pdfrwt>
<totfact> 0.21396717E+00</totfact>
</mgrwt>
</event>
<event>
 6    1  0.3017327E-006  0.1098282E+04  0.7818608E-02  0.9206868E-01
         -2   -1    0    0    0  501 -0.00000000000E+00  0.00000000000E+00  0.25400772191E+03  0.25400772191E+03  0.00000000000E+00 0.  1.
          2   -1    0    0  501    0  0.00000000000E+00 -0.00000000000E+00 -0.11871905740E+04  0.11871905740E+04  0.00000000000E+00 0. -1.
         23    2    1    2    0    0  0.16332177088E+03  0.51912301514E+03 -0.42211280413E+03  0.69463597460E+03  0.90427938710E+02 0.  0.
         13    1    3    3    0    0  0.15314933618E+03  0.37079872879E+03 -0.33237862842E+03  0.52098173583E+03  0.00000000000E+00 0. -1.
        -13    1    3    3    0    0  0.10172434707E+02  0.14832428635E+03 -0.89734175716E+02  0.17365423877E+03  0.00000000000E+00 0.  1.
         22    1    1    2    0    0 -0.16332177088E+03 -0.51912301514E+03 -0.51107004795E+03  0.74656232131E+03  0.00000000000E+00 0.  1.
<mgrwt>
<rscale>  0 0.10982815E+04</rscale>
<asrwt>0</asrwt>
<pdfrwt beam="1">  1        2 0.18264471E+00 0.10982815E+04</pdfrwt>
<pdfrwt beam="2">  1       -2 0.39078111E-01 0.10982815E+04</pdfrwt>
<totfact> 0.11840264E+02</totfact>
</mgrwt>
</event>
<event>
 6    1  0.3017327E-006  0.1958140E+04  0.7818608E-02  0.8626445E-01
          2   -1    0    0  501    0  0.00000000000E+00  0.00000000000E+00  0.20167375563E+04  0.20167375563E+04  0.00000000000E+00 0. -1.
         -2   -1    0    0    0  501 -0.00000000000E+00 -0.00000000000E+00 -0.47531131173E+03  0.47531131173E+03  0.00000000000E+00 0.  1.
         23    2    1    2    0    0  0.60612600803E+03  0.54074834377E+03  0.14631501132E+04  0.16760067971E+04  0.91613433522E+02 0.  0.
         13    1    3    3    0    0  0.28115101958E+03  0.21541863194E+03  0.71317180395E+03  0.79628205101E+03  0.00000000000E+00 0.  1.
        -13    1    3    3    0    0  0.32497498845E+03  0.32532971183E+03  0.74997830924E+03  0.87972474607E+03  0.00000000000E+00 0. -1.
         22    1    1    2    0    0 -0.60612600803E+03 -0.54074834377E+03  0.78276131430E+02  0.81604207101E+03  0.00000000000E+00 0.  1.
<mgrwt>
<rscale>  0 0.19581401E+04</rscale>
<asrwt>0</asrwt>
<pdfrwt beam="1">  1        2 0.31026731E+00 0.19581401E+04</pdfrwt>
<pdfrwt beam="2">  1       -2 0.73124819E-01 0.19581401E+04</pdfrwt>
<totfact> 0.10294582E+01</totfact>
</mgrwt>
</event>
<event>
 6    1  0.3017327E-006  0.3188271E+04  0.7818608E-02  0.8191922E-01
         -2   -1    0    0    0  501 -0.00000000000E+00  0.00000000000E+00  0.12390427618E+04  0.12390427618E+04  0.00000000000E+00 0.  1.
          2   -1    0    0  501    0  0.00000000000E+00 -0.00000000000E+00 -0.20509934841E+04  0.20509934841E+04  0.00000000000E+00 0. -1.
         23    2    1    2    0    0  0.63503103824E+03  0.12760270032E+04 -0.11400488384E+04  0.18274502805E+04  0.91399351706E+02 0.  0.
         13    1    3    3    0    0  0.26021975991E+03  0.42546381640E+03 -0.39336018120E+03  0.63518974698E+03  0.00000000000E+00 0.  1.
        -13    1    3    3    0    0  0.37481127833E+03  0.85056318675E+03 -0.74668865715E+03  0.11922605335E+04  0.00000000000E+00 0. -1.
         22    1    1    2    0    0 -0.63503103824E+03 -0.12760270032E+04  0.32809811605E+03  0.14625859654E+04  0.00000000000E+00 0.  1.
<mgrwt>
<rscale>  0 0.31882714E+04</rscale>
<asrwt>0</asrwt>
<pdfrwt beam="1">  1        2 0.31553746E+00 0.31882714E+04</pdfrwt>
<pdfrwt beam="2">  1       -2 0.19062196E+00 0.31882714E+04</pdfrwt>
<totfact> 0.80982910E-01</totfact>
</mgrwt>
</event>
<event>
 6    1  0.3017327E-006  0.5073916E+04  0.7818608E-02  0.7817205E-01
         -1   -1    0    0    0  501 -0.00000000000E+00  0.00000000000E+00  0.43624246024E+04  0.43624246024E+04  0.00000000000E+00 0.  1.
          1   -1    0    0  501    0  0.00000000000E+00 -0.00000000000E+00 -0.14753621845E+04  0.14753621845E+04  0.00000000000E+00 0. -1.
         23    2    1    2    0    0 -0.15790116790E+04  0.84275853439E+03  0.35113325678E+04  0.39422042775E+04  0.89433405837E+02 0.  0.
         11    1    3    3    0    0 -0.36439902511E+03  0.19084602037E+03  0.72682107886E+03  0.83515132381E+03  0.00000000000E+00 0. -1.
        -11    1    3    3    0    0 -0.12146126539E+04  0.65191251402E+03  0.27845114890E+04  0.31070529537E+04  0.00000000000E+00 0.  1.
         22    1    1    2    0    0  0.15790116790E+04 -0.84275853439E+03 -0.62427014992E+03  0.18955825094E+04  0.00000000000E+00 0. -1.
<mgrwt>
<rscale>  0 0.50739162E+04</rscale>
<asrwt>0</asrwt>
<pdfrwt beam="1">  1        1 0.22697880E+00 0.50739162E+04</pdfrwt>
<pdfrwt beam="2">  1       -1 0.67114224E+00 0.50739162E+04</pdfrwt>
<totfact> 0.12342531E-03</totfact>
</mgrwt>
</event>
<event>
 6    1  0.3017327E-006  0.4225803E+04  0.7818608E-02  0.7960482E-01
         -2   -1    0    0    0  501 -0.00000000000E+00  0.00000000000E+00  0.15485266818E+04  0.15485266818E+04  0.00000000000E+00 0.  1.
          2   -1    0    0  501    0  0.00000000000E+00 -0.00000000000E+00 -0.28829678324E+04  0.28829678324E+04  0.00000000000E+00 0. -1.
         23    2    1    2    0    0  0.16531578431E+04 -0.67295014231E+03  0.51719066750E+03  0.18596599282E+04  0.71106356342E+02 0.  0.
         13    1    3    3    0    0  0.32452282748E+03 -0.16114028665E+03  0.11502401344E+03  0.38014705208E+03  0.00000000000E+00 0.  1.
        -13    1    3    3    0    0  0.13286350156E+04 -0.51180985566E+03  0.40216665406E+03  0.14795128762E+04  0.00000000000E+00 0. -1.
         22    1    1    2    0    0 -0.16531578431E+04  0.67295014231E+03 -0.18516318181E+04  0.25718345860E+04  0.00000000000E+00 0. -1.
<mgrwt>
<rscale>  0 0.42258029E+04</rscale>
<asrwt>0</asrwt>
<pdfrwt beam="1">  1        2 0.44353351E+00 0.42258029E+04</pdfrwt>
<pdfrwt beam="2">  1       -2 0.23823488E+00 0.42258029E+04</pdfrwt>
<totfact> 0.12107047E-01</totfact>
</mgrwt>
</event>
<event>
 6    1  0.3017327E-006  0.4892243E+04  0.7818608E-02  0.7845348E-01
         -2   -1    0    0    0  501 -0.00000000000E+00  0.00000000000E+00  0.21811334120E+04  0.21811334120E+04  0.00000000000E+00 0.  1.
          2   -1    0    0  501    0  0.00000000000E+00 -0.00000000000E+00 -0.27433027836E+04  0.27433027836E+04  0.00000000000E+00 0. -1.
         23    2    1    2    0    0 -0.97511082424E+03  0.13973513449E+04 -0.20465385464E+04  0.26646167897E+04  0.91818918077E+02 0.  0.
         13    1    3    3    0    0 -0.96365058248E+02  0.96755376583E+02 -0.17588275484E+03  0.22267144136E+03  0.00000000000E+00 0. -1.
        -13    1    3    3    0    0 -0.87874576599E+03  0.13005959683E+04 -0.18706557915E+04  0.24419453484E+04  0.00000000000E+00 0.  1.
         22    1    1    2    0    0  0.97511082424E+03 -0.13973513449E+04  0.14843691748E+04  0.22598194060E+04  0.00000000000E+00 0.  1.
<mgrwt>
<rscale>  0 0.48922426E+04</rscale>
<asrwt>0</asrwt>
<pdfrwt beam="1">  1        2 0.42204658E+00 0.48922426E+04</pdfrwt>
<pdfrwt beam="2">  1       -2 0.33555898E+00 0.48922426E+04</pdfrwt>
<totfact> 0.35206915E-02</totfact>
</mgrwt>
</event>
<event>
 6    1  0.3017327E-006  0.1886989E+04  0.7818608E-02  0.8661360E-01
          2   -1    0    0  501    0  0.00000000000E+00  0.00000000000E+00  0.42923100917E+04  0.42923100917E+04  0.00000000000E+00 0. -1.
         -2   -1    0    0    0  501 -0.00000000000E+00 -0.00000000000E+00 -0.20738998348E+03  0.20738998348E+03  0.00000000000E+00 0.  1.
         23    2    1    2    0    0  0.55514296773E+03  0.32398109033E+03  0.40748437455E+03  0.76651362969E+03  0.91390193651E+02 0.  0.
         13    1    3    3    0    0  0.39049534577E+03  0.24993241921E+03  0.24888270180E+03  0.52620854089E+03  0.00000000000E+00 0. -1.
        -13    1    3    3    0    0  0.16464762195E+03  0.74048671120E+02  0.15860167275E+03  0.24030508881E+03  0.00000000000E+00 0.  1.
         22    1    1    2    0    0 -0.55514296773E+03 -0.32398109033E+03  0.36774357337E+04  0.37331864455E+04  0.00000000000E+00 0. -1.
<mgrwt>
<rscale>  0 0.18869893E+04</rscale>
<asrwt>0</asrwt>
<pdfrwt beam="1">  1        2 0.66035533E+00 0.18869893E+04</pdfrwt>
<pdfrwt beam="2">  1       -2 0.31906155E-01 0.18869893E+04</pdfrwt>
<totfact> 0.16782342E+00</totfact>
</mgrwt>
</event>
<event>
 6    1  0.3087010E-006  0.3661793E+04  0.7818608E-02  0.8076482E-01
         -2   -1    0    0    0  501 -0.00000000000E+00  0.00000000000E+00  0.15499199630E+04  0.15499199630E+04  0.00000000000E+00 0.  1.
          2   -1    0    0  501    0  0.00000000000E+00 -0.00000000000E+00 -0.21628099702E+04  0.21628099702E+04  0.00000000000E+00 0. -1.
         23    2    1    2    0    0 -0.19502285618E+02 -0.14673441657E+04  0.80151633311E+03  0.16745875105E+04  0.91299826204E+02 0.  0.
         13    1    3    3    0    0 -0.44326435729E+02 -0.62855266984E+03  0.31267237154E+03  0.70342540727E+03  0.00000000000E+00 0.  1.
        -13    1    3    3    0    0  0.24824150111E+02 -0.83879149587E+03  0.48884396156E+03  0.97116210322E+03  0.00000000000E+00 0. -1.
         22    1    1    2    0    0  0.19502285618E+02  0.14673441657E+04 -0.14144063404E+04  0.20381424227E+04  0.00000000000E+00 0.  1.
<mgrwt>
<rscale>  0 0.36617932E+04</rscale>
<asrwt>0</asrwt>
<pdfrwt beam="1">  1        2 0.33274000E+00 0.36617932E+04</pdfrwt>
<pdfrwt beam="2">  1       -2 0.23844923E+00 0.36617932E+04</pdfrwt>
<totfact> 0.33279560E-01</totfact>
</mgrwt>
</event>
<event>
 6    1  0.3017327E-006  0.6543884E+03  0.7818608E-02  0.9798579E-01
         -2   -1    0    0    0  501 -0.00000000000E+00  0.00000000000E+00  0.51679241014E+02  0.51679241014E+02  0.00000000000E+00 0. -1.
          2   -1    0    0  501    0  0.00000000000E+00 -0.00000000000E+00 -0.20715484938E+04  0.20715484938E+04  0.00000000000E+00 0.  1.
         23    2    1    2    0    0 -0.27202720266E+03  0.16777487972E+03 -0.11117706007E+04  0.11605282120E+04  0.92976626494E+02 0.  0.
         11    1    3    3    0    0 -0.16294814781E+03  0.97231206141E+02 -0.81102283393E+03  0.83292499271E+03  0.00000000000E+00 0. -1.
        -11    1    3    3    0    0 -0.10907905485E+03  0.70543673579E+02 -0.30074776673E+03  0.32760321928E+03  0.00000000000E+00 0.  1.
         22    1    1    2    0    0  0.27202720266E+03 -0.16777487972E+03 -0.90809865208E+03  0.96269952278E+03  0.00000000000E+00 0. -1.
<mgrwt>
<rscale>  0 0.65438843E+03</rscale>
<asrwt>0</asrwt>
<pdfrwt beam="1">  1        2 0.31869976E+00 0.65438843E+03</pdfrwt>
<pdfrwt beam="2">  1       -2 0.79506528E-02 0.65438843E+03</pdfrwt>
<totfact> 0.62526885E+02</totfact>
</mgrwt>
</event>
<event>
 6    1  0.3017327E-006  0.5118478E+03  0.7818608E-02  0.1010732E+00
          2   -1    0    0  501    0  0.00000000000E+00  0.00000000000E+00  0.11153625995E+04  0.11153625995E+04  0.00000000000E+00 0. -1.
         -2   -1    0    0    0  501 -0.00000000000E+00 -0.00000000000E+00 -0.58722644221E+02  0.58722644221E+02  0.00000000000E+00 0.  1.
         23    2    1    2    0    0 -0.13957788547E+02 -0.19590110310E+02  0.11106937924E+04  0.11149209844E+04  0.93965465000E+02 0.  0.
         11    1    3    3    0    0 -0.31294142405E+02 -0.35037970644E+02  0.28082166290E+03  0.28472405779E+03  0.00000000000E+00 0. -1.
        -11    1    3    3    0    0  0.17336353858E+02  0.15447860334E+02  0.82987212951E+03  0.83019692657E+03  0.00000000000E+00 0.  1.
         22    1    1    2    0    0  0.13957788547E+02  0.19590110310E+02 -0.54053837098E+02  0.59164259381E+02  0.00000000000E+00 0.  1.
<mgrwt>
<rscale>  0 0.51184779E+03</rscale>
<asrwt>0</asrwt>
<pdfrwt beam="1">  1        2 0.17159423E+00 0.51184779E+03</pdfrwt>
<pdfrwt beam="2">  1       -2 0.90342538E-02 0.51184779E+03</pdfrwt>
<totfact> 0.17410952E+03</totfact>
</mgrwt>
</event>
<event>
 6    1  0.3017327E-006  0.3208929E+04  0.7818608E-02  0.8186463E-01
          2   -1    0    0  501    0  0.00000000000E+00  0.00000000000E+00  0.31098752114E+04  0.31098752114E+04  0.00000000000E+00 0. -1.
         -2   -1    0    0    0  501 -0.00000000000E+00 -0.00000000000E+00 -0.82778450462E+03  0.82778450462E+03  0.00000000000E+00 0.  1.
         23    2    1    2    0    0  0.71016681177E+03 -0.13346918438E+04  0.17964810800E+04  0.23497189337E+04  0.89975430233E+02 0.  0.
         11    1    3    3    0    0  0.15671129513E+03 -0.31547657885E+03  0.36306335733E+03  0.50586451077E+03  0.00000000000E+00 0. -1.
        -11    1    3    3    0    0  0.55345551665E+03 -0.10192152650E+04  0.14334177227E+04  0.18438544230E+04  0.00000000000E+00 0.  1.
         22    1    1    2    0    0 -0.71016681177E+03  0.13346918438E+04  0.48560962680E+03  0.15879407823E+04  0.00000000000E+00 0.  1.
<mgrwt>
<rscale>  0 0.32089291E+04</rscale>
<asrwt>0</asrwt>
<pdfrwt beam="1">  1        2 0.47844233E+00 0.32089291E+04</pdfrwt>
<pdfrwt beam="2">  1       -2 0.12735146E+00 0.32089291E+04</pdfrwt>
<totfact> 0.57045540E-01</totfact>
</mgrwt>
</event>
<event>
 6    1  0.3017327E-006  0.1505596E+04  0.7818608E-02  0.8880740E-01
         -2   -1    0    0    0  501 -0.00000000000E+00  0.00000000000E+00  0.78032285985E+03  0.78032285985E+03  0.00000000000E+00 0.  1.
          2   -1    0    0  501    0  0.00000000000E+00 -0.00000000000E+00 -0.72624359734E+03  0.72624359734E+03  0.00000000000E+00 0. -1.
         23    2    1    2    0    0 -0.13121314152E+03  0.10669234058E+03 -0.70383778311E+03  0.73001099099E+03  0.94489565476E+02 0.  0.
         11    1    3    3    0    0 -0.11310050829E+03  0.33778255593E+02 -0.45657874788E+03  0.47158970360E+03  0.00000000000E+00 0.  1.
        -11    1    3    3    0    0 -0.18112633230E+02  0.72914084989E+02 -0.24725903523E+03  0.25842128738E+03  0.00000000000E+00 0. -1.
         22    1    1    2    0    0  0.13121314152E+03 -0.10669234058E+03  0.75791704562E+03  0.77655546620E+03  0.00000000000E+00 0.  1.
<mgrwt>
<rscale>  0 0.15055955E+04</rscale>
<asrwt>0</asrwt>
<pdfrwt beam="1">  1        2 0.11172978E+00 0.15055955E+04</pdfrwt>
<pdfrwt beam="2">  1       -2 0.12004967E+00 0.15055955E+04</pdfrwt>
<totfact> 0.20025167E+01</totfact>
</mgrwt>
</event>
<event>
 6    1  0.3017327E-006  0.2981456E+04  0.7818608E-02  0.8249046E-01
         -2   -1    0    0    0  501 -0.00000000000E+00  0.00000000000E+00  0.74015388921E+03  0.74015388921E+03  0.00000000000E+00 0.  1.
          2   -1    0    0  501    0  0.00000000000E+00 -0.00000000000E+00 -0.30024422476E+04  0.30024422476E+04  0.00000000000E+00 0. -1.
         23    2    1    2    0    0  0.19925219295E+02 -0.86934529937E+03 -0.26499580635E+04  0.27905215263E+04  0.92597981291E+02 0.  0.
         11    1    3    3    0    0  0.51738855098E+02 -0.64434289369E+03 -0.20129143663E+04  0.21141615170E+04  0.00000000000E+00 0. -1.
        -11    1    3    3    0    0 -0.31813635803E+02 -0.22500240568E+03 -0.63704369724E+03  0.67636000930E+03  0.00000000000E+00 0.  1.
         22    1    1    2    0    0 -0.19925219295E+02  0.86934529937E+03  0.38766970510E+03  0.95207461060E+03  0.00000000000E+00 0.  1.
<mgrwt>
<rscale>  0 0.29814556E+04</rscale>
<asrwt>0</asrwt>
<pdfrwt beam="1">  1        2 0.46191419E+00 0.29814556E+04</pdfrwt>
<pdfrwt beam="2">  1       -2 0.11386983E+00 0.29814556E+04</pdfrwt>
<totfact> 0.89795969E-01</totfact>
</mgrwt>
</event>
<event>
 6    1  0.3017327E-006  0.5441730E+04  0.7818608E-02  0.7763758E-01
         -2   -1    0    0    0  501 -0.00000000000E+00  0.00000000000E+00  0.28961685418E+04  0.28961685418E+04  0.00000000000E+00 0. -1.
          2   -1    0    0  501    0  0.00000000000E+00 -0.00000000000E+00 -0.25561724632E+04  0.25561724632E+04  0.00000000000E+00 0.  1.
         23    2    1    2    0    0 -0.11045935070E+03 -0.16171675236E+04 -0.20186062609E+04  0.25904470406E+04  0.90623209794E+02 0.  0.
         13    1    3    3    0    0 -0.59312878805E+02 -0.34239126801E+03 -0.41666962582E+03  0.54255264729E+03  0.00000000000E+00 0. -1.
        -13    1    3    3    0    0 -0.51146471892E+02 -0.12747762556E+04 -0.16019366351E+04  0.20478943933E+04  0.00000000000E+00 0.  1.
         22    1    1    2    0    0  0.11045935070E+03  0.16171675236E+04  0.23586023395E+04  0.28618939644E+04  0.00000000000E+00 0. -1.
<mgrwt>
<rscale>  0 0.54417300E+04</rscale>
<asrwt>0</asrwt>
<pdfrwt beam="1">  1        2 0.39325730E+00 0.54417300E+04</pdfrwt>
<pdfrwt beam="2">  1       -2 0.44556439E+00 0.54417300E+04</pdfrwt>
<totfact> 0.84579859E-03</totfact>
</mgrwt>
</event>
<event>
 6    1  0.3017327E-006  0.1389709E+04  0.7818608E-02  0.8961301E-01
         -2   -1    0    0    0  501 -0.00000000000E+00  0.00000000000E+00  0.30504671753E+03  0.30504671753E+03  0.00000000000E+00 0.  1.
          2   -1    0    0  501    0  0.00000000000E+00 -0.00000000000E+00 -0.15827835832E+04  0.15827835832E+04  0.00000000000E+00 0. -1.
         23    2    1    2    0    0 -0.19345778987E+03  0.64936308402E+03 -0.45205150394E+03  0.81972232495E+03  0.92172644852E+02 0.  0.
         11    1    3    3    0    0 -0.10125380498E+03  0.46456845567E+03 -0.34211642349E+03  0.58576431288E+03  0.00000000000E+00 0.  1.
        -11    1    3    3    0    0 -0.92203984890E+02  0.18479462835E+03 -0.10993508045E+03  0.23395801207E+03  0.00000000000E+00 0. -1.
         22    1    1    2    0    0  0.19345778987E+03 -0.64936308402E+03 -0.82568536174E+03  0.10681079758E+04  0.00000000000E+00 0.  1.
<mgrwt>
<rscale>  0 0.13897092E+04</rscale>
<asrwt>0</asrwt>
<pdfrwt beam="1">  1        2 0.24350517E+00 0.13897092E+04</pdfrwt>
<pdfrwt beam="2">  1       -2 0.46930263E-01 0.13897092E+04</pdfrwt>
<totfact> 0.47789436E+01</totfact>
</mgrwt>
</event>
<event>
 6    1  0.3423248E-006  0.3821998E+04  0.7818608E-02  0.8041451E-01
          2   -1    0    0  501    0  0.00000000000E+00  0.00000000000E+00  0.24578508420E+04  0.24578508420E+04  0.00000000000E+00 0. -1.
         -2   -1    0    0    0  501 -0.00000000000E+00 -0.00000000000E+00 -0.14858175021E+04  0.14858175021E+04  0.00000000000E+00 0.  1.
         23    2    1    2    0    0  0.11352545094E+04 -0.13854611050E+04  0.11704163847E+04  0.21415415153E+04  0.89555979866E+02 0.  0.
         11    1    3    3    0    0  0.44886142098E+03 -0.55628511451E+03  0.51932816458E+03  0.88353350044E+03  0.00000000000E+00 0. -1.
        -11    1    3    3    0    0  0.68639308842E+03 -0.82917599048E+03  0.65108822008E+03  0.12580080148E+04  0.00000000000E+00 0.  1.
         22    1    1    2    0    0 -0.11352545094E+04  0.13854611050E+04 -0.19838304475E+03  0.18021268288E+04  0.00000000000E+00 0. -1.
<mgrwt>
<rscale>  0 0.38219983E+04</rscale>
<asrwt>0</asrwt>
<pdfrwt beam="1">  1        2 0.37813090E+00 0.38219983E+04</pdfrwt>
<pdfrwt beam="2">  1       -2 0.22858731E+00 0.38219983E+04</pdfrwt>
<totfact> 0.25716629E-01</totfact>
</mgrwt>
</event>
<event>
 6    1  0.3017327E-006  0.2074377E+04  0.7818608E-02  0.8572615E-01
          2   -1    0    0  501    0  0.00000000000E+00  0.00000000000E+00  0.13792691215E+04  0.13792691215E+04  0.00000000000E+00 0. -1.
         -2   -1    0    0    0  501 -0.00000000000E+00 -0.00000000000E+00 -0.77994907175E+03  0.77994907175E+03  0.00000000000E+00 0.  1.
         23    2    1    2    0    0  0.78629983746E+00 -0.81771631118E+03  0.96100852329E+03  0.12650822216E+04  0.90747240646E+02 0.  0.
         13    1    3    3    0    0 -0.18177401685E+02 -0.64673902314E+03  0.70761108741E+03  0.95880927875E+03  0.00000000000E+00 0.  1.
        -13    1    3    3    0    0  0.18963701522E+02 -0.17097728803E+03  0.25339743588E+03  0.30627294283E+03  0.00000000000E+00 0. -1.
         22    1    1    2    0    0 -0.78629983746E+00  0.81771631118E+03 -0.36168847359E+03  0.89413597163E+03  0.00000000000E+00 0.  1.
<mgrwt>
<rscale>  0 0.20743767E+04</rscale>
<asrwt>0</asrwt>
<pdfrwt beam="1">  1        2 0.21219525E+00 0.20743767E+04</pdfrwt>
<pdfrwt beam="2">  1       -2 0.11999216E+00 0.20743767E+04</pdfrwt>
<totfact> 0.72955378E+00</totfact>
</mgrwt>
</event>
<event>
 6    1  0.3017327E-006  0.7720650E+03  0.7818608E-02  0.9601356E-01
          2   -1    0    0  501    0  0.00000000000E+00  0.00000000000E+00  0.13642675582E+04  0.13642675582E+04  0.00000000000E+00 0. -1.
         -2   -1    0    0    0  501 -0.00000000000E+00 -0.00000000000E+00 -0.10923156354E+03  0.10923156354E+03  0.00000000000E+00 0.  1.
         23    2    1    2    0    0 -0.37442901821E+03 -0.48852000871E+02  0.55219362871E+03  0.67564512566E+03  0.94841576218E+02 0.  0.
         13    1    3    3    0    0 -0.22593582492E+03 -0.73131624475E+02  0.36537157109E+03  0.43576555215E+03  0.00000000000E+00 0. -1.
        -13    1    3    3    0    0 -0.14849319329E+03  0.24279623604E+02  0.18682205762E+03  0.23987957351E+03  0.00000000000E+00 0.  1.
         22    1    1    2    0    0  0.37442901821E+03  0.48852000871E+02  0.70284236592E+03  0.79785399604E+03  0.00000000000E+00 0.  1.
<mgrwt>
<rscale>  0 0.77206497E+03</rscale>
<asrwt>0</asrwt>
<pdfrwt beam="1">  1        2 0.20988730E+00 0.77206497E+03</pdfrwt>
<pdfrwt beam="2">  1       -2 0.16804857E-01 0.77206497E+03</pdfrwt>
<totfact> 0.44192523E+02</totfact>
</mgrwt>
</event>
<event>
 6    1  0.3017327E-006  0.9820989E+03  0.7818608E-02  0.9328399E-01
          2   -1    0    0  501    0  0.00000000000E+00  0.00000000000E+00  0.22905547946E+04  0.22905547946E+04  0.00000000000E+00 0.  1.
         -2   -1    0    0    0  501 -0.00000000000E+00 -0.00000000000E+00 -0.10527125260E+03  0.10527125260E+03  0.00000000000E+00 0. -1.
         23    2    1    2    0    0 -0.35289051823E+03  0.29369871857E+03  0.14975823059E+04  0.15689502130E+04  0.89785035419E+02 0.  0.
         13    1    3    3    0    0 -0.22553659076E+03  0.13478730849E+03  0.90380667399E+03  0.94122307465E+03  0.00000000000E+00 0. -1.
        -13    1    3    3    0    0 -0.12735392748E+03  0.15891141008E+03  0.59377563195E+03  0.62772713833E+03  0.00000000000E+00 0.  1.
         22    1    1    2    0    0  0.35289051823E+03 -0.29369871857E+03  0.68770123607E+03  0.82687583423E+03  0.00000000000E+00 0. -1.
<mgrwt>
<rscale>  0 0.98209892E+03</rscale>
<asrwt>0</asrwt>
<pdfrwt beam="1">  1        2 0.35239301E+00 0.98209892E+03</pdfrwt>
<pdfrwt beam="2">  1       -2 0.16195579E-01 0.98209892E+03</pdfrwt>
<totfact> 0.14261217E+02</totfact>
</mgrwt>
</event>
<event>
 6    1  0.3017327E-006  0.4137485E+04  0.7818608E-02  0.7977372E-01
         -2   -1    0    0    0  501 -0.00000000000E+00  0.00000000000E+00  0.18446953671E+04  0.18446953671E+04  0.00000000000E+00 0.  1.
          2   -1    0    0  501    0  0.00000000000E+00 -0.00000000000E+00 -0.23200013399E+04  0.23200013399E+04  0.00000000000E+00 0. -1.
         23    2    1    2    0    0 -0.16355148883E+04  0.37021302592E+03 -0.14555086739E+04  0.22223362951E+04  0.91139862114E+02 0.  0.
         13    1    3    3    0    0 -0.38228784237E+03  0.11572890328E+03 -0.38183178190E+03  0.55256916594E+03  0.00000000000E+00 0.  1.
        -13    1    3    3    0    0 -0.12532270459E+04  0.25448412265E+03 -0.10736768920E+04  0.16697671292E+04  0.00000000000E+00 0. -1.
         22    1    1    2    0    0  0.16355148883E+04 -0.37021302592E+03  0.98020270109E+03  0.19423604119E+04  0.00000000000E+00 0.  1.
<mgrwt>
<rscale>  0 0.41374851E+04</rscale>
<asrwt>0</asrwt>
<pdfrwt beam="1">  1        2 0.35692328E+00 0.41374851E+04</pdfrwt>
<pdfrwt beam="2">  1       -2 0.28379929E+00 0.41374851E+04</pdfrwt>
<totfact> 0.13757321E-01</totfact>
</mgrwt>
</event>
<event>
 6    1  0.3017327E-006  0.9428788E+03  0.7818608E-02  0.9373513E-01
         -1   -1    0    0    0  501 -0.00000000000E+00  0.00000000000E+00  0.84934744582E+03  0.84934744582E+03  0.00000000000E+00 0.  1.
          1   -1    0    0  501    0  0.00000000000E+00 -0.00000000000E+00 -0.26167746957E+03  0.26167746957E+03  0.00000000000E+00 0. -1.
         23    2    1    2    0    0  0.25936701203E+03 -0.26482666665E+03  0.63140262598E+03  0.73777305008E+03  0.90749033213E+02 0.  0.
         13    1    3    3    0    0  0.71730481001E+02 -0.66096091400E+02  0.25164411513E+03  0.26988648703E+03  0.00000000000E+00 0.  1.
        -13    1    3    3    0    0  0.18763653103E+03 -0.19873057525E+03  0.37975851085E+03  0.46788656305E+03  0.00000000000E+00 0. -1.
         22    1    1    2    0    0 -0.25936701203E+03  0.26482666665E+03 -0.43732649729E+02  0.37325186530E+03  0.00000000000E+00 0. -1.
<mgrwt>
<rscale>  0 0.94287876E+03</rscale>
<asrwt>0</asrwt>
<pdfrwt beam="1">  1        1 0.40258073E-01 0.94287876E+03</pdfrwt>
<pdfrwt beam="2">  1       -1 0.13066884E+00 0.94287876E+03</pdfrwt>
<totfact> 0.52780991E+01</totfact>
</mgrwt>
</event>
<event>
 6    1  0.3017327E-006  0.3962886E+04  0.7818608E-02  0.8012076E-01
         -2   -1    0    0    0  501 -0.00000000000E+00  0.00000000000E+00  0.10263337605E+04  0.10263337605E+04  0.00000000000E+00 0.  1.
          2   -1    0    0  501    0  0.00000000000E+00 -0.00000000000E+00 -0.38253806105E+04  0.38253806105E+04  0.00000000000E+00 0. -1.
         23    2    1    2    0    0  0.11147745199E+04 -0.69861166869E+03  0.41190730988E+03  0.13816989371E+04  0.92972184239E+02 0.  0.
         11    1    3    3    0    0  0.59595271183E+03 -0.31899006336E+03  0.21667800087E+03  0.70983353775E+03  0.00000000000E+00 0.  1.
        -11    1    3    3    0    0  0.51882180811E+03 -0.37962160533E+03  0.19522930901E+03  0.67186539939E+03  0.00000000000E+00 0. -1.
         22    1    1    2    0    0 -0.11147745199E+04  0.69861166869E+03 -0.32109541599E+04  0.34700154338E+04  0.00000000000E+00 0. -1.
<mgrwt>
<rscale>  0 0.39628865E+04</rscale>
<asrwt>0</asrwt>
<pdfrwt beam="1">  1        2 0.58852008E+00 0.39628865E+04</pdfrwt>
<pdfrwt beam="2">  1       -2 0.15789751E+00 0.39628865E+04</pdfrwt>
<totfact> 0.96756832E-02</totfact>
</mgrwt>
</event>
<event>
 6    1  0.3017327E-006  0.1098988E+04  0.7818608E-02  0.9206179E-01
          2   -1    0    0  501    0  0.00000000000E+00  0.00000000000E+00  0.15495010700E+04  0.15495010700E+04  0.00000000000E+00 0. -1.
         -2   -1    0    0    0  501 -0.00000000000E+00 -0.00000000000E+00 -0.19486507484E+03  0.19486507484E+03  0.00000000000E+00 0.  1.
         23    2    1    2    0    0 -0.15295549930E+03 -0.42382535751E+03  0.11716314606E+04  0.12580391169E+04  0.83179454740E+02 0.  0.
         11    1    3    3    0    0 -0.79668073446E+00 -0.34948862466E+02  0.48466318807E+02  0.59758193970E+02  0.00000000000E+00 0.  1.
        -11    1    3    3    0    0 -0.15215881856E+03 -0.38887649505E+03  0.11231651418E+04  0.11982809229E+04  0.00000000000E+00 0. -1.
         22    1    1    2    0    0  0.15295549930E+03  0.42382535751E+03  0.18300453452E+03  0.48632702793E+03  0.00000000000E+00 0.  1.
<mgrwt>
<rscale>  0 0.10989880E+04</rscale>
<asrwt>0</asrwt>
<pdfrwt beam="1">  1        2 0.23838477E+00 0.10989880E+04</pdfrwt>
<pdfrwt beam="2">  1       -2 0.29979243E-01 0.10989880E+04</pdfrwt>
<totfact> 0.12128278E+02</totfact>
</mgrwt>
</event>
<event>
 6    1  0.3017327E-006  0.4722776E+04  0.7818608E-02  0.7872755E-01
          2   -1    0    0  501    0  0.00000000000E+00  0.00000000000E+00  0.19663521222E+04  0.19663521222E+04  0.00000000000E+00 0. -1.
         -2   -1    0    0    0  501 -0.00000000000E+00 -0.00000000000E+00 -0.28357857870E+04  0.28357857870E+04  0.00000000000E+00 0.  1.
         23    2    1    2    0    0 -0.21288893688E+03  0.11322681095E+04 -0.25297641156E+04  0.27812346514E+04  0.90592132281E+02 0.  0.
         11    1    3    3    0    0 -0.19765539555E+02  0.72033304772E+02 -0.22230710696E+03  0.23452062458E+03  0.00000000000E+00 0. -1.
        -11    1    3    3    0    0 -0.19312339733E+03  0.10602348047E+04 -0.23074570087E+04  0.25467140269E+04  0.00000000000E+00 0.  1.
         22    1    1    2    0    0  0.21288893688E+03 -0.11322681095E+04  0.16603304508E+04  0.20209032577E+04  0.00000000000E+00 0. -1.
<mgrwt>
<rscale>  0 0.47227760E+04</rscale>
<asrwt>0</asrwt>
<pdfrwt beam="1">  1        2 0.30251571E+00 0.47227760E+04</pdfrwt>
<pdfrwt beam="2">  1       -2 0.43627474E+00 0.47227760E+04</pdfrwt>
<totfact> 0.22241931E-02</totfact>
</mgrwt>
</event>
<event>
 6    1  0.3017327E-006  0.2705175E+04  0.7818608E-02  0.8333328E-01
         -2   -1    0    0    0  501 -0.00000000000E+00  0.00000000000E+00  0.55683779154E+03  0.55683779154E+03  0.00000000000E+00 0.  1.
          2   -1    0    0  501    0  0.00000000000E+00 -0.00000000000E+00 -0.32855047436E+04  0.32855047436E+04  0.00000000000E+00 0. -1.
         23    2    1    2    0    0  0.73510605689E+03  0.43277390399E+02  0.24292410033E+03  0.78087111929E+03  0.92161483409E+02 0.  0.
         13    1    3    3    0    0  0.53424439195E+03  0.75183047223E+01  0.13987340017E+03  0.55230260122E+03  0.00000000000E+00 0. -1.
        -13    1    3    3    0    0  0.20086166494E+03  0.35759085677E+02  0.10305070016E+03  0.22856851807E+03  0.00000000000E+00 0.  1.
         22    1    1    2    0    0 -0.73510605689E+03 -0.43277390399E+02 -0.29715910524E+04  0.30614714159E+04  0.00000000000E+00 0. -1.
<mgrwt>
<rscale>  0 0.27051752E+04</rscale>
<asrwt>0</asrwt>
<pdfrwt beam="1">  1        2 0.50546227E+00 0.27051752E+04</pdfrwt>
<pdfrwt beam="2">  1       -2 0.85667352E-01 0.27051752E+04</pdfrwt>
<totfact> 0.11819979E+00</totfact>
</mgrwt>
</event>
<event>
 6    1  0.3017327E-006  0.2040148E+04  0.7818608E-02  0.8588077E-01
         -2   -1    0    0    0  501 -0.00000000000E+00  0.00000000000E+00  0.31459704578E+03  0.31459704578E+03  0.00000000000E+00 0.  1.
          2   -1    0    0  501    0  0.00000000000E+00 -0.00000000000E+00 -0.33075672439E+04  0.33075672439E+04  0.00000000000E+00 0. -1.
         23    2    1    2    0    0  0.36963378454E+03  0.17979148138E+03 -0.31530666317E+04  0.31810464148E+04  0.90956022555E+02 0.  0.
         13    1    3    3    0    0  0.27916335864E+03  0.91369176100E+02 -0.21149744189E+04  0.21352745256E+04  0.00000000000E+00 0. -1.
        -13    1    3    3    0    0  0.90470425908E+02  0.88422305282E+02 -0.10380922128E+04  0.10457718893E+04  0.00000000000E+00 0.  1.
         22    1    1    2    0    0 -0.36963378454E+03 -0.17979148138E+03  0.16009643357E+03  0.44111787483E+03  0.00000000000E+00 0.  1.
<mgrwt>
<rscale>  0 0.20401479E+04</rscale>
<asrwt>0</asrwt>
<pdfrwt beam="1">  1        2 0.50885647E+00 0.20401479E+04</pdfrwt>
<pdfrwt beam="2">  1       -2 0.48399548E-01 0.20401479E+04</pdfrwt>
<totfact> 0.41383796E+00</totfact>
</mgrwt>
</event>
<event>
 6    1  0.3017327E-006  0.3236220E+04  0.7818608E-02  0.8179317E-01
         -2   -1    0    0    0  501 -0.00000000000E+00  0.00000000000E+00  0.22164050296E+04  0.22164050296E+04  0.00000000000E+00 0.  1.
          2   -1    0    0  501    0  0.00000000000E+00 -0.00000000000E+00 -0.11813183375E+04  0.11813183375E+04  0.00000000000E+00 0. -1.
         23    2    1    2    0    0 -0.23523341815E+03 -0.72540454754E+03 -0.97889510342E+03  0.12441985376E+04  0.90817722849E+02 0.  0.
         13    1    3    3    0    0 -0.16314927201E+03 -0.59656685592E+03 -0.82311041320E+03  0.10295729459E+04  0.00000000000E+00 0.  1.
        -13    1    3    3    0    0 -0.72084146147E+02 -0.12883769162E+03 -0.15578469022E+03  0.21462559170E+03  0.00000000000E+00 0. -1.
         22    1    1    2    0    0  0.23523341815E+03  0.72540454754E+03  0.20139817955E+04  0.21535248295E+04  0.00000000000E+00 0.  1.
<mgrwt>
<rscale>  0 0.32362200E+04</rscale>
<asrwt>0</asrwt>
<pdfrwt beam="1">  1        2 0.18174128E+00 0.32362200E+04</pdfrwt>
<pdfrwt beam="2">  1       -2 0.34098539E+00 0.32362200E+04</pdfrwt>
<totfact> 0.28916517E-01</totfact>
</mgrwt>
</event>
<event>
 6    1  0.3017327E-006  0.7245681E+03  0.7818608E-02  0.9676116E-01
          2   -1    0    0  501    0  0.00000000000E+00  0.00000000000E+00  0.83871115508E+03  0.83871115508E+03  0.00000000000E+00 0.  1.
         -2   -1    0    0    0  501 -0.00000000000E+00 -0.00000000000E+00 -0.15648978721E+03  0.15648978721E+03  0.00000000000E+00 0. -1.
         23    2    1    2    0    0 -0.10868443012E+03 -0.20633925508E+03  0.71707016518E+03  0.75939883838E+03  0.90048766785E+02 0.  0.
         11    1    3    3    0    0 -0.98428730493E+02 -0.10432236713E+03  0.48327452671E+03  0.50410875755E+03  0.00000000000E+00 0.  1.
        -11    1    3    3    0    0 -0.10255699626E+02 -0.10201688795E+03  0.23379563847E+03  0.25529008083E+03  0.00000000000E+00 0. -1.
         22    1    1    2    0    0  0.10868443012E+03  0.20633925508E+03 -0.34848797317E+02  0.23580210391E+03  0.00000000000E+00 0. -1.
<mgrwt>
<rscale>  0 0.72456809E+03</rscale>
<asrwt>0</asrwt>
<pdfrwt beam="1">  1        2 0.12903248E+00 0.72456809E+03</pdfrwt>
<pdfrwt beam="2">  1       -2 0.24075353E-01 0.72456809E+03</pdfrwt>
<totfact> 0.49882505E+02</totfact>
</mgrwt>
</event>
<event>
 6    1  0.3017327E-006  0.2775053E+04  0.7818608E-02  0.8311055E-01
         -2   -1    0    0    0  501 -0.00000000000E+00  0.00000000000E+00  0.50098907275E+03  0.50098907275E+03  0.00000000000E+00 0.  1.
          2   -1    0    0  501    0  0.00000000000E+00 -0.00000000000E+00 -0.38428581006E+04  0.38428581006E+04  0.00000000000E+00 0. -1.
         23    2    1    2    0    0  0.69415787451E+03 -0.11661627204E+04 -0.12318192018E+04  0.18350424951E+04  0.90618804089E+02 0.  0.
         11    1    3    3    0    0  0.50114764350E+03 -0.90341473797E+03 -0.96622963766E+03  0.14145341502E+04  0.00000000000E+00 0.  1.
        -11    1    3    3    0    0  0.19301023100E+03 -0.26274798243E+03 -0.26558956412E+03  0.42050834488E+03  0.00000000000E+00 0. -1.
         22    1    1    2    0    0 -0.69415787451E+03  0.11661627204E+04 -0.21100498260E+04  0.25088046782E+04  0.00000000000E+00 0. -1.
<mgrwt>
<rscale>  0 0.27750531E+04</rscale>
<asrwt>0</asrwt>
<pdfrwt beam="1">  1        2 0.59120893E+00 0.27750531E+04</pdfrwt>
<pdfrwt beam="2">  1       -2 0.77075243E-01 0.27750531E+04</pdfrwt>
<totfact> 0.59694672E-01</totfact>
</mgrwt>
</event>
<event>
 6    1  0.3017327E-006  0.5779252E+04  0.7818608E-02  0.7718391E-01
          2   -1    0    0  501    0  0.00000000000E+00  0.00000000000E+00  0.30822101236E+04  0.30822101236E+04  0.00000000000E+00 0. -1.
         -2   -1    0    0    0  501 -0.00000000000E+00 -0.00000000000E+00 -0.27090749110E+04  0.27090749110E+04  0.00000000000E+00 0.  1.
         23    2    1    2    0    0  0.23504729657E+04  0.13957937577E+03 -0.14910289524E+04  0.27880678266E+04  0.77131729748E+02 0.  0.
         11    1    3    3    0    0  0.21322939596E+04  0.13539460450E+03 -0.13279273998E+04  0.25156312146E+04  0.00000000000E+00 0. -1.
        -11    1    3    3    0    0  0.21817900616E+03  0.41847712636E+01 -0.16310155267E+03  0.27243661193E+03  0.00000000000E+00 0.  1.
         22    1    1    2    0    0 -0.23504729657E+04 -0.13957937577E+03  0.18641641650E+04  0.30032172081E+04  0.00000000000E+00 0. -1.
<mgrwt>
<rscale>  0 0.57792519E+04</rscale>
<asrwt>0</asrwt>
<pdfrwt beam="1">  1        2 0.47418617E+00 0.57792519E+04</pdfrwt>
<pdfrwt beam="2">  1       -2 0.41678076E+00 0.57792519E+04</pdfrwt>
<totfact> 0.60978965E-03</totfact>
</mgrwt>
</event>
<event>
 6    1  0.3017327E-006  0.1540628E+04  0.7818608E-02  0.8857877E-01
         -2   -1    0    0    0  501 -0.00000000000E+00  0.00000000000E+00  0.24660394168E+03  0.24660394168E+03  0.00000000000E+00 0.  1.
          2   -1    0    0  501    0  0.00000000000E+00 -0.00000000000E+00 -0.24062201522E+04  0.24062201522E+04  0.00000000000E+00 0. -1.
         23    2    1    2    0    0 -0.47143840006E+03 -0.59137825687E+03 -0.85786534365E+03  0.11473216106E+04  0.91823322638E+02 0.  0.
         11    1    3    3    0    0 -0.38773676523E+03 -0.53097322174E+03 -0.76215902456E+03  0.10065578672E+04  0.00000000000E+00 0. -1.
        -11    1    3    3    0    0 -0.83701634832E+02 -0.60405035126E+02 -0.95706319091E+02  0.14076374340E+03  0.00000000000E+00 0.  1.
         22    1    1    2    0    0  0.47143840006E+03  0.59137825687E+03 -0.13017508669E+04  0.15055024833E+04  0.00000000000E+00 0.  1.
<mgrwt>
<rscale>  0 0.15406276E+04</rscale>
<asrwt>0</asrwt>
<pdfrwt beam="1">  1        2 0.37018771E+00 0.15406276E+04</pdfrwt>
<pdfrwt beam="2">  1       -2 0.37939068E-01 0.15406276E+04</pdfrwt>
<totfact> 0.24953503E+01</totfact>
</mgrwt>
</event>
<event>
 6    1  0.3017327E-006  0.3174797E+04  0.7818608E-02  0.8195505E-01
          2   -1    0    0  501    0  0.00000000000E+00  0.00000000000E+00  0.17284765484E+04  0.17284765484E+04  0.00000000000E+00 0. -1.
         -2   -1    0    0    0  501 -0.00000000000E+00 -0.00000000000E+00 -0.14578355573E+04  0.14578355573E+04  0.00000000000E+00 0.  1.
         23    2    1    2    0    0 -0.12801409640E+04  0.61631481821E+01 -0.80416884600E+03  0.15147813527E+04  0.95268785544E+02 0.  0.
         13    1    3    3    0    0 -0.88597125615E+03  0.35297685029E+02 -0.59259950693E+03  0.10664732387E+04  0.00000000000E+00 0.  1.
        -13    1    3    3    0    0 -0.39416970786E+03 -0.29134536847E+02 -0.21156933907E+03  0.44830811399E+03  0.00000000000E+00 0. -1.
         22    1    1    2    0    0  0.12801409640E+04 -0.61631481821E+01  0.10748098372E+04  0.16715307530E+04  0.00000000000E+00 0. -1.
<mgrwt>
<rscale>  0 0.31747974E+04</rscale>
<asrwt>0</asrwt>
<pdfrwt beam="1">  1        2 0.26591947E+00 0.31747974E+04</pdfrwt>
<pdfrwt beam="2">  1       -2 0.22428239E+00 0.31747974E+04</pdfrwt>
<totfact> 0.74100060E-01</totfact>
</mgrwt>
</event>
<event>
 6    1  0.3017327E-006  0.1673618E+04  0.7818608E-02  0.8776556E-01
         -2   -1    0    0    0  501 -0.00000000000E+00  0.00000000000E+00  0.34187390942E+03  0.34187390942E+03  0.00000000000E+00 0.  1.
          2   -1    0    0  501    0  0.00000000000E+00 -0.00000000000E+00 -0.20482673699E+04  0.20482673699E+04  0.00000000000E+00 0. -1.
         23    2    1    2    0    0 -0.15145432975E+03 -0.80767067132E+03 -0.65009525680E+03  0.10518452648E+04  0.92110210607E+02 0.  0.
         11    1    3    3    0    0 -0.10948529713E+03 -0.50161862261E+03 -0.35161144857E+03  0.62228521082E+03  0.00000000000E+00 0.  1.
        -11    1    3    3    0    0 -0.41969032625E+02 -0.30605204871E+03 -0.29848380823E+03  0.42956005400E+03  0.00000000000E+00 0. -1.
         22    1    1    2    0    0  0.15145432975E+03  0.80767067132E+03 -0.10562982037E+04  0.13382960145E+04  0.00000000000E+00 0. -1.
<mgrwt>
<rscale>  0 0.16736178E+04</rscale>
<asrwt>0</asrwt>
<pdfrwt beam="1">  1        2 0.31511805E+00 0.16736178E+04</pdfrwt>
<pdfrwt beam="2">  1       -2 0.52595988E-01 0.16736178E+04</pdfrwt>
<totfact> 0.20428072E+01</totfact>
</mgrwt>
</event>
<event>
 6    1  0.3017327E-006  0.2043913E+04  0.7818608E-02  0.8586361E-01
         -2   -1    0    0    0  501 -0.00000000000E+00  0.00000000000E+00  0.91682381438E+03  0.91682381438E+03  0.00000000000E+00 0. -1.
          2   -1    0    0  501    0  0.00000000000E+00 -0.00000000000E+00 -0.11391446769E+04  0.11391446769E+04  0.00000000000E+00 0.  1.
         23    2    1    2    0    0  0.19545674111E+03  0.87970988214E+03  0.36920201039E+03  0.97801110644E+03  0.90015473439E+02 0.  0.
         13    1    3    3    0    0  0.14676174176E+03  0.48388309305E+03  0.23119070142E+03  0.55599550089E+03  0.00000000000E+00 0. -1.
        -13    1    3    3    0    0  0.48694999347E+02  0.39582678909E+03  0.13801130896E+03  0.42201560555E+03  0.00000000000E+00 0.  1.
         22    1    1    2    0    0 -0.19545674111E+03 -0.87970988214E+03 -0.59152287293E+03  0.10779573849E+04  0.00000000000E+00 0.  1.
<mgrwt>
<rscale>  0 0.20439129E+04</rscale>
<asrwt>0</asrwt>
<pdfrwt beam="1">  1        2 0.17525303E+00 0.20439129E+04</pdfrwt>
<pdfrwt beam="2">  1       -2 0.14104982E+00 0.20439129E+04</pdfrwt>
<totfact> 0.67223837E+00</totfact>
</mgrwt>
</event>
<event>
 6    1  0.3017327E-006  0.5522468E+04  0.7818608E-02  0.7752605E-01
          2   -1    0    0  501    0  0.00000000000E+00  0.00000000000E+00  0.21172286446E+04  0.21172286446E+04  0.00000000000E+00 0. -1.
         -2   -1    0    0    0  501 -0.00000000000E+00 -0.00000000000E+00 -0.36011284590E+04  0.36011284590E+04  0.00000000000E+00 0.  1.
         23    2    1    2    0    0  0.24402182396E+04 -0.11483819435E+04 -0.13514588531E+04  0.30181743777E+04  0.97413538545E+02 0.  0.
         13    1    3    3    0    0  0.11912919961E+04 -0.55949832807E+03 -0.71399469809E+03  0.14973321034E+04  0.00000000000E+00 0. -1.
        -13    1    3    3    0    0  0.12489262436E+04 -0.58888361545E+03 -0.63746415498E+03  0.15208422743E+04  0.00000000000E+00 0.  1.
         22    1    1    2    0    0 -0.24402182396E+04  0.11483819435E+04 -0.13244096130E+03  0.27001827259E+04  0.00000000000E+00 0. -1.
<mgrwt>
<rscale>  0 0.55224677E+04</rscale>
<asrwt>0</asrwt>
<pdfrwt beam="1">  1        2 0.32572748E+00 0.55224677E+04</pdfrwt>
<pdfrwt beam="2">  1       -2 0.55401976E+00 0.55224677E+04</pdfrwt>
<totfact> 0.33181648E-03</totfact>
</mgrwt>
</event>
<event>
 6    1  0.3017327E-006  0.1465697E+04  0.7818608E-02  0.8907590E-01
          1   -1    0    0  501    0  0.00000000000E+00  0.00000000000E+00  0.74693860338E+03  0.74693860338E+03  0.00000000000E+00 0. -1.
         -1   -1    0    0    0  501 -0.00000000000E+00 -0.00000000000E+00 -0.71902404267E+03  0.71902404267E+03  0.00000000000E+00 0.  1.
         23    2    1    2    0    0 -0.15598553746E+03 -0.58778457008E+03 -0.38998134845E+03  0.72808787374E+03  0.90577651890E+02 0.  0.
         11    1    3    3    0    0 -0.13700838428E+03 -0.35099375265E+03 -0.25344165430E+03  0.45409314452E+03  0.00000000000E+00 0.  1.
        -11    1    3    3    0    0 -0.18977153178E+02 -0.23679081742E+03 -0.13653969416E+03  0.27399472922E+03  0.00000000000E+00 0. -1.
         22    1    1    2    0    0  0.15598553746E+03  0.58778457008E+03  0.41789590917E+03  0.73787477231E+03  0.00000000000E+00 0. -1.
<mgrwt>
<rscale>  0 0.14656969E+04</rscale>
<asrwt>0</asrwt>
<pdfrwt beam="1">  1        1 0.11491363E+00 0.14656969E+04</pdfrwt>
<pdfrwt beam="2">  1       -1 0.11061908E+00 0.14656969E+04</pdfrwt>
<totfact> 0.18013713E+01</totfact>
</mgrwt>
</event>
<event>
 6    1  0.3017327E-006  0.2258965E+04  0.7818608E-02  0.8494278E-01
         -2   -1    0    0    0  501 -0.00000000000E+00  0.00000000000E+00  0.51281311384E+03  0.51281311384E+03  0.00000000000E+00 0.  1.
          2   -1    0    0  501    0  0.00000000000E+00 -0.00000000000E+00 -0.24877118180E+04  0.24877118180E+04  0.00000000000E+00 0. -1.
         23    2    1    2    0    0 -0.78166710687E+03 -0.66639256680E+03 -0.16073552413E+04  0.19095754756E+04  0.88346511986E+02 0.  0.
         11    1    3    3    0    0 -0.70064634677E+03 -0.62964723800E+03 -0.14697312725E+04  0.17457007077E+04  0.00000000000E+00 0. -1.
        -11    1    3    3    0    0 -0.81020760108E+02 -0.36745328805E+02 -0.13762396880E+03  0.16387476787E+03  0.00000000000E+00 0.  1.
         22    1    1    2    0    0  0.78166710687E+03  0.66639256680E+03 -0.36754346289E+03  0.10909494563E+04  0.00000000000E+00 0.  1.
<mgrwt>
<rscale>  0 0.22589655E+04</rscale>
<asrwt>0</asrwt>
<pdfrwt beam="1">  1        2 0.38272489E+00 0.22589655E+04</pdfrwt>
<pdfrwt beam="2">  1       -2 0.78894325E-01 0.22589655E+04</pdfrwt>
<totfact> 0.45909891E+00</totfact>
</mgrwt>
</event>
<event>
 6    1  0.3017327E-006  0.3293257E+04  0.7818608E-02  0.8164613E-01
          2   -1    0    0  501    0  0.00000000000E+00  0.00000000000E+00  0.30772206186E+04  0.30772206186E+04  0.00000000000E+00 0. -1.
         -2   -1    0    0    0  501 -0.00000000000E+00 -0.00000000000E+00 -0.88111480419E+03  0.88111480419E+03  0.00000000000E+00 0.  1.
         23    2    1    2    0    0  0.83812947768E+03  0.55018629727E+03  0.26669751399E+04  0.28506875073E+04  0.92178545005E+02 0.  0.
         13    1    3    3    0    0  0.66078001001E+03  0.47239983749E+03  0.21989680317E+04  0.23441954340E+04  0.00000000000E+00 0.  1.
        -13    1    3    3    0    0  0.17734946766E+03  0.77786459779E+02  0.46800710817E+03  0.50649207329E+03  0.00000000000E+00 0. -1.
         22    1    1    2    0    0 -0.83812947768E+03 -0.55018629727E+03 -0.47086932549E+03  0.11076479155E+04  0.00000000000E+00 0.  1.
<mgrwt>
<rscale>  0 0.32932565E+04</rscale>
<asrwt>0</asrwt>
<pdfrwt beam="1">  1        2 0.47341855E+00 0.32932565E+04</pdfrwt>
<pdfrwt beam="2">  1       -2 0.13555613E+00 0.32932565E+04</pdfrwt>
<totfact> 0.50722347E-01</totfact>
</mgrwt>
</event>
<event>
 6    1  0.3017327E-006  0.2481130E+04  0.7818608E-02  0.8409739E-01
         -1   -1    0    0    0  501 -0.00000000000E+00  0.00000000000E+00  0.42179783107E+03  0.42179783107E+03  0.00000000000E+00 0.  1.
          1   -1    0    0  501    0  0.00000000000E+00 -0.00000000000E+00 -0.36486700902E+04  0.36486700902E+04  0.00000000000E+00 0. -1.
         23    2    1    2    0    0 -0.20008470780E+03  0.99240728679E+03 -0.44366297660E+03  0.11088534927E+04  0.88391845066E+02 0.  0.
         13    1    3    3    0    0 -0.15480082444E+02  0.27422902826E+03 -0.11568642835E+03  0.29803446545E+03  0.00000000000E+00 0. -1.
        -13    1    3    3    0    0 -0.18460462535E+03  0.71817825853E+03 -0.32797654825E+03  0.81081902724E+03  0.00000000000E+00 0.  1.
         22    1    1    2    0    0  0.20008470780E+03 -0.99240728679E+03 -0.27832092826E+04  0.29616144286E+04  0.00000000000E+00 0. -1.
<mgrwt>
<rscale>  0 0.24811297E+04</rscale>
<asrwt>0</asrwt>
<pdfrwt beam="1">  1        1 0.56133386E+00 0.24811297E+04</pdfrwt>
<pdfrwt beam="2">  1       -1 0.64891974E-01 0.24811297E+04</pdfrwt>
<totfact> 0.40770090E-01</totfact>
</mgrwt>
</event>
<event>
 6    1  0.3017327E-006  0.2397819E+04  0.7818608E-02  0.8440321E-01
         -2   -1    0    0    0  501 -0.00000000000E+00  0.00000000000E+00  0.30758858304E+04  0.30758858304E+04  0.00000000000E+00 0.  1.
          2   -1    0    0  501    0  0.00000000000E+00 -0.00000000000E+00 -0.46730716771E+03  0.46730716771E+03  0.00000000000E+00 0. -1.
         23    2    1    2    0    0 -0.91794655667E+03 -0.28605046784E+02  0.24409135337E+04  0.26096215091E+04  0.92851561036E+02 0.  0.
         13    1    3    3    0    0 -0.53953144878E+03 -0.74178961945E+01  0.13052393822E+04  0.14123735534E+04  0.00000000000E+00 0.  1.
        -13    1    3    3    0    0 -0.37841510789E+03 -0.21187150589E+02  0.11356741514E+04  0.11972479557E+04  0.00000000000E+00 0. -1.
         22    1    1    2    0    0  0.91794655667E+03  0.28605046784E+02  0.16766512903E+03  0.93357148901E+03  0.00000000000E+00 0. -1.
<mgrwt>
<rscale>  0 0.23978186E+04</rscale>
<asrwt>0</asrwt>
<pdfrwt beam="1">  1        2 0.71893412E-01 0.23978186E+04</pdfrwt>
<pdfrwt beam="2">  1       -2 0.47321319E+00 0.23978186E+04</pdfrwt>
<totfact> 0.14608213E-01</totfact>
</mgrwt>
</event>
<event>
 6    1  0.3017327E-006  0.1392160E+04  0.7818608E-02  0.8959513E-01
          2   -1    0    0  501    0  0.00000000000E+00  0.00000000000E+00  0.60185990533E+03  0.60185990533E+03  0.00000000000E+00 0. -1.
         -2   -1    0    0    0  501 -0.00000000000E+00 -0.00000000000E+00 -0.80504988494E+03  0.80504988494E+03  0.00000000000E+00 0.  1.
         23    2    1    2    0    0 -0.62379159321E+03  0.12838385448E+03 -0.37868678299E+03  0.74630590454E+03  0.89277419776E+02 0.  0.
         13    1    3    3    0    0 -0.35988812173E+03  0.29585901748E+02 -0.20344947324E+03  0.41447131855E+03  0.00000000000E+00 0.  1.
        -13    1    3    3    0    0 -0.26390347148E+03  0.98797952728E+02 -0.17523730976E+03  0.33183458598E+03  0.00000000000E+00 0. -1.
         22    1    1    2    0    0  0.62379159321E+03 -0.12838385448E+03  0.17549680338E+03  0.66060388573E+03  0.00000000000E+00 0. -1.
<mgrwt>
<rscale>  0 0.13921598E+04</rscale>
<asrwt>0</asrwt>
<pdfrwt beam="1">  1        2 0.92593832E-01 0.13921598E+04</pdfrwt>
<pdfrwt beam="2">  1       -2 0.12385383E+00 0.13921598E+04</pdfrwt>
<totfact> 0.23604796E+01</totfact>
</mgrwt>
</event>
<event>
 6    1  0.3017327E-006  0.3584491E+03  0.7818608E-02  0.1059200E+00
         -2   -1    0    0    0  501 -0.00000000000E+00  0.00000000000E+00  0.99814110366E+02  0.99814110366E+02  0.00000000000E+00 0.  1.
          2   -1    0    0  501    0  0.00000000000E+00 -0.00000000000E+00 -0.32181252826E+03  0.32181252826E+03  0.00000000000E+00 0. -1.
         23    2    1    2    0    0  0.75782620825E+02 -0.67696481829E+01  0.56319677489E+02  0.13309623126E+03  0.93562102095E+02 0.  0.
         13    1    3    3    0    0 -0.61077972468E+01 -0.86666319334E+01  0.49809600933E+02  0.50925553914E+02  0.00000000000E+00 0.  1.
        -13    1    3    3    0    0  0.81890418072E+02  0.18969837506E+01  0.65100765552E+01  0.82170677350E+02  0.00000000000E+00 0. -1.
         22    1    1    2    0    0 -0.75782620825E+02  0.67696481829E+01 -0.27831809539E+03  0.28853040737E+03  0.00000000000E+00 0. -1.
<mgrwt>
<rscale>  0 0.35844905E+03</rscale>
<asrwt>0</asrwt>
<pdfrwt beam="1">  1        2 0.49509621E-01 0.35844905E+03</pdfrwt>
<pdfrwt beam="2">  1       -2 0.15356017E-01 0.35844905E+03</pdfrwt>
<totfact> 0.33480060E+03</totfact>
</mgrwt>
</event>
<event>
 6    1  0.3017327E-006  0.2586750E+04  0.7818608E-02  0.8372716E-01
         -2   -1    0    0    0  501 -0.00000000000E+00  0.00000000000E+00  0.10507596629E+04  0.10507596629E+04  0.00000000000E+00 0.  1.
          2   -1    0    0  501    0  0.00000000000E+00 -0.00000000000E+00 -0.15920093997E+04  0.15920093997E+04  0.00000000000E+00 0. -1.
         23    2    1    2    0    0 -0.60260910203E+03 -0.40180980386E+03 -0.13643099714E+04  0.15464037047E+04  0.73714799909E+02 0.  0.
         11    1    3    3    0    0 -0.56917663785E+03 -0.37055410966E+03 -0.12380531988E+04  0.14121076858E+04  0.00000000000E+00 0.  1.
        -11    1    3    3    0    0 -0.33432464181E+02 -0.31255694202E+02 -0.12625677257E+03  0.13429601893E+03  0.00000000000E+00 0. -1.
         22    1    1    2    0    0  0.60260910203E+03  0.40180980386E+03  0.82306023458E+03  0.10963653579E+04  0.00000000000E+00 0.  1.
<mgrwt>
<rscale>  0 0.25867503E+04</rscale>
<asrwt>0</asrwt>
<pdfrwt beam="1">  1        2 0.24492452E+00 0.25867503E+04</pdfrwt>
<pdfrwt beam="2">  1       -2 0.16165533E+00 0.25867503E+04</pdfrwt>
<totfact> 0.24440346E+00</totfact>
</mgrwt>
</event>
<event>
 6    1  0.3017327E-006  0.2529264E+04  0.7818608E-02  0.8392634E-01
         -2   -1    0    0    0  501 -0.00000000000E+00  0.00000000000E+00  0.21849365125E+04  0.21849365125E+04  0.00000000000E+00 0.  1.
          2   -1    0    0  501    0  0.00000000000E+00 -0.00000000000E+00 -0.73196376975E+03  0.73196376975E+03  0.00000000000E+00 0. -1.
         23    2    1    2    0    0  0.61471220111E+03  0.60635453895E+03 -0.33570004100E+03  0.93072626056E+03  0.89554103682E+02 0.  0.
         11    1    3    3    0    0  0.46635595280E+03  0.41989720084E+03 -0.21290213272E+03  0.66266798028E+03  0.00000000000E+00 0. -1.
        -11    1    3    3    0    0  0.14835624831E+03  0.18645733811E+03 -0.12279790829E+03  0.26805828028E+03  0.00000000000E+00 0.  1.
         22    1    1    2    0    0 -0.61471220111E+03 -0.60635453895E+03  0.17886727838E+04  0.19861740217E+04  0.00000000000E+00 0.  1.
<mgrwt>
<rscale>  0 0.25292642E+04</rscale>
<asrwt>0</asrwt>
<pdfrwt beam="1">  1        2 0.11260981E+00 0.25292642E+04</pdfrwt>
<pdfrwt beam="2">  1       -2 0.33614408E+00 0.25292642E+04</pdfrwt>
<totfact> 0.65471523E-01</totfact>
</mgrwt>
</event>
<event>
 6    1  0.9045067E-006  0.2953823E+04  0.7818608E-02  0.8257041E-01
          1   -1    0    0  501    0  0.00000000000E+00  0.00000000000E+00  0.18687517657E+04  0.18687517657E+04  0.00000000000E+00 0. -1.
         -1   -1    0    0    0  501 -0.00000000000E+00 -0.00000000000E+00 -0.11672323446E+04  0.11672323446E+04  0.00000000000E+00 0.  1.
         23    2    1    2    0    0  0.11174896362E+03  0.34745046189E+03 -0.11183621434E+04  0.11798648892E+04  0.90208750779E+02 0.  0.
         13    1    3    3    0    0  0.25864708874E+02  0.20281590390E+03 -0.69014675737E+03  0.71979567986E+03  0.00000000000E+00 0. -1.
        -13    1    3    3    0    0  0.85884254749E+02  0.14463455799E+03 -0.42821538603E+03  0.46006920937E+03  0.00000000000E+00 0.  1.
         22    1    1    2    0    0 -0.11174896362E+03 -0.34745046189E+03  0.18198815644E+04  0.18561192211E+04  0.00000000000E+00 0. -1.
<mgrwt>
<rscale>  0 0.29538230E+04</rscale>
<asrwt>0</asrwt>
<pdfrwt beam="1">  1        1 0.28750027E+00 0.29538230E+04</pdfrwt>
<pdfrwt beam="2">  1       -1 0.17957421E+00 0.29538230E+04</pdfrwt>
<totfact> 0.65515596E-01</totfact>
</mgrwt>
</event>
<event>
 6    1  0.3017327E-006  0.2639679E+04  0.7818608E-02  0.8354847E-01
         -1   -1    0    0    0  501 -0.00000000000E+00  0.00000000000E+00  0.52373588740E+03  0.52373588740E+03  0.00000000000E+00 0.  1.
          1   -1    0    0  501    0  0.00000000000E+00 -0.00000000000E+00 -0.33260598049E+04  0.33260598049E+04  0.00000000000E+00 0. -1.
         23    2    1    2    0    0 -0.89659365983E+03  0.16581612548E+03 -0.27915010870E+04  0.29379336896E+04  0.87182953376E+02 0.  0.
         13    1    3    3    0    0 -0.57569608161E+03  0.73473226215E+02 -0.18560206009E+04  0.19446430944E+04  0.00000000000E+00 0. -1.
        -13    1    3    3    0    0 -0.32089757822E+03  0.92342899267E+02 -0.93548048612E+03  0.99329059527E+03  0.00000000000E+00 0.  1.
         22    1    1    2    0    0  0.89659365983E+03 -0.16581612548E+03 -0.10822830482E+02  0.91186200271E+03  0.00000000000E+00 0.  1.
<mgrwt>
<rscale>  0 0.26396794E+04</rscale>
<asrwt>0</asrwt>
<pdfrwt beam="1">  1        1 0.51170150E+00 0.26396794E+04</pdfrwt>
<pdfrwt beam="2">  1       -1 0.80574754E-01 0.26396794E+04</pdfrwt>
<totfact> 0.45995038E-01</totfact>
</mgrwt>
</event>
<event>
 6    1  0.3017327E-006  0.2365038E+04  0.7818608E-02  0.8452710E-01
          2   -1    0    0  501    0  0.00000000000E+00  0.00000000000E+00  0.20848447777E+04  0.20848447777E+04  0.00000000000E+00 0. -1.
         -2   -1    0    0    0  501 -0.00000000000E+00 -0.00000000000E+00 -0.67072186160E+03  0.67072186160E+03  0.00000000000E+00 0.  1.
         23    2    1    2    0    0 -0.60208108202E+03 -0.71358404592E+03  0.15503309214E+04  0.18120326226E+04  0.90732793154E+02 0.  0.
         11    1    3    3    0    0 -0.29618860204E+03 -0.41376212908E+03  0.80267726331E+03  0.95037759679E+03  0.00000000000E+00 0.  1.
        -11    1    3    3    0    0 -0.30589247999E+03 -0.29982191683E+03  0.74765365809E+03  0.86165502585E+03  0.00000000000E+00 0. -1.
         22    1    1    2    0    0  0.60208108202E+03  0.71358404592E+03 -0.13620800528E+03  0.94353401667E+03  0.00000000000E+00 0.  1.
<mgrwt>
<rscale>  0 0.23650378E+04</rscale>
<asrwt>0</asrwt>
<pdfrwt beam="1">  1        2 0.32074535E+00 0.23650378E+04</pdfrwt>
<pdfrwt beam="2">  1       -2 0.10318798E+00 0.23650378E+04</pdfrwt>
<totfact> 0.41408516E+00</totfact>
</mgrwt>
</event>
<event>
 6    1  0.3017327E-006  0.3834793E+04  0.7818608E-02  0.8038729E-01
         -2   -1    0    0    0  501 -0.00000000000E+00  0.00000000000E+00  0.23205197864E+04  0.23205197864E+04  0.00000000000E+00 0.  1.
          2   -1    0    0  501    0  0.00000000000E+00 -0.00000000000E+00 -0.15843043613E+04  0.15843043613E+04  0.00000000000E+00 0. -1.
         23    2    1    2    0    0  0.32470556387E+03  0.16113560192E+04 -0.63488231137E+03  0.17643076384E+04  0.88340079231E+02 0.  0.
         11    1    3    3    0    0  0.25876922991E+03  0.13216569695E+04 -0.55517024985E+03  0.14566923716E+04  0.00000000000E+00 0.  1.
        -11    1    3    3    0    0  0.65936333968E+02  0.28969904978E+03 -0.79712061523E+02  0.30761526674E+03  0.00000000000E+00 0. -1.
         22    1    1    2    0    0 -0.32470556387E+03 -0.16113560192E+04  0.13710977365E+04  0.21405165094E+04  0.00000000000E+00 0.  1.
<mgrwt>
<rscale>  0 0.38347931E+04</rscale>
<asrwt>0</asrwt>
<pdfrwt beam="1">  1        2 0.24373913E+00 0.38347931E+04</pdfrwt>
<pdfrwt beam="2">  1       -2 0.35700304E+00 0.38347931E+04</pdfrwt>
<totfact> 0.12778725E-01</totfact>
</mgrwt>
</event>
<event>
 6    1  0.3017327E-006  0.1235101E+04  0.7818608E-02  0.9082676E-01
         -3   -1    0    0    0  501 -0.00000000000E+00  0.00000000000E+00  0.27984011250E+03  0.27984011250E+03  0.00000000000E+00 0.  1.
          3   -1    0    0  501    0  0.00000000000E+00 -0.00000000000E+00 -0.13628090986E+04  0.13628090986E+04  0.00000000000E+00 0. -1.
         23    2    1    2    0    0  0.30984996148E+03 -0.26183807181E+03  0.68687436368E+02  0.42163377717E+03  0.92146099539E+02 0.  0.
         13    1    3    3    0    0  0.11439955212E+03 -0.69241198722E+02 -0.15484830418E+02  0.13461567924E+03  0.00000000000E+00 0. -1.
        -13    1    3    3    0    0  0.19545040936E+03 -0.19259687308E+03  0.84172266786E+02  0.28701809793E+03  0.00000000000E+00 0.  1.
         22    1    1    2    0    0 -0.30984996148E+03  0.26183807181E+03 -0.11516564225E+04  0.12210154339E+04  0.00000000000E+00 0. -1.
<mgrwt>
<rscale>  0 0.12351011E+04</rscale>
<asrwt>0</asrwt>
<pdfrwt beam="1">  1        3 0.20966294E+00 0.12351011E+04</pdfrwt>
<pdfrwt beam="2">  1       -3 0.43052325E-01 0.12351011E+04</pdfrwt>
<totfact> 0.17802626E+00</totfact>
</mgrwt>
</event>
<event>
 6    1  0.3017327E-006  0.1867586E+04  0.7818608E-02  0.8671161E-01
         -1   -1    0    0    0  501 -0.00000000000E+00  0.00000000000E+00  0.33781369789E+03  0.33781369789E+03  0.00000000000E+00 0.  1.
          1   -1    0    0  501    0  0.00000000000E+00 -0.00000000000E+00 -0.25812143242E+04  0.25812143242E+04  0.00000000000E+00 0. -1.
         23    2    1    2    0    0 -0.35845473107E+03  0.27104380010E+03  0.14539527122E+03  0.48832845698E+03  0.12397726084E+03 0.  0.
         11    1    3    3    0    0 -0.25346481819E+03  0.11622578121E+03  0.95283453065E+02  0.29467233108E+03  0.00000000000E+00 0. -1.
        -11    1    3    3    0    0 -0.10498991288E+03  0.15481801889E+03  0.50111818153E+02  0.19365612590E+03  0.00000000000E+00 0.  1.
         22    1    1    2    0    0  0.35845473107E+03 -0.27104380010E+03 -0.23887958975E+04  0.24306995651E+04  0.00000000000E+00 0. -1.
<mgrwt>
<rscale>  0 0.18675862E+04</rscale>
<asrwt>0</asrwt>
<pdfrwt beam="1">  1        1 0.39710988E+00 0.18675862E+04</pdfrwt>
<pdfrwt beam="2">  1       -1 0.51971340E-01 0.18675862E+04</pdfrwt>
<totfact> 0.41635621E+00</totfact>
</mgrwt>
</event>
<event>
 6    1  0.3017327E-006  0.3144519E+04  0.7818608E-02  0.8203625E-01
         -2   -1    0    0    0  501 -0.00000000000E+00  0.00000000000E+00  0.16200080801E+04  0.16200080801E+04  0.00000000000E+00 0.  1.
          2   -1    0    0  501    0  0.00000000000E+00 -0.00000000000E+00 -0.15259186709E+04  0.15259186709E+04  0.00000000000E+00 0. -1.
         23    2    1    2    0    0  0.18422802689E+03  0.15254760942E+04  0.37417584956E+03  0.15840478524E+04  0.90458567076E+02 0.  0.
         11    1    3    3    0    0  0.14261838147E+03  0.10430750500E+04  0.21632993577E+03  0.10747763506E+04  0.00000000000E+00 0.  1.
        -11    1    3    3    0    0  0.41609645418E+02  0.48240104422E+03  0.15784591379E+03  0.50927150181E+03  0.00000000000E+00 0. -1.
         22    1    1    2    0    0 -0.18422802689E+03 -0.15254760942E+04 -0.28008644036E+03  0.15618788986E+04  0.00000000000E+00 0. -1.
<mgrwt>
<rscale>  0 0.31445194E+04</rscale>
<asrwt>0</asrwt>
<pdfrwt beam="1">  1        2 0.23475672E+00 0.31445194E+04</pdfrwt>
<pdfrwt beam="2">  1       -2 0.24923201E+00 0.31445194E+04</pdfrwt>
<totfact> 0.67450119E-01</totfact>
</mgrwt>
</event>
<event>
 6    1  0.3017327E-006  0.6644146E+03  0.7818608E-02  0.9780101E-01
         -2   -1    0    0    0  501 -0.00000000000E+00  0.00000000000E+00  0.10019844648E+03  0.10019844648E+03  0.00000000000E+00 0.  1.
          2   -1    0    0  501    0  0.00000000000E+00 -0.00000000000E+00 -0.11014311014E+04  0.11014311014E+04  0.00000000000E+00 0. -1.
         23    2    1    2    0    0  0.17223911538E+03 -0.26969249077E+03 -0.61186223791E+03  0.69763582362E+03  0.99599155488E+02 0.  0.
         11    1    3    3    0    0  0.48574731383E+02 -0.41998692805E+02 -0.20899636635E+03  0.21863868796E+03  0.00000000000E+00 0. -1.
        -11    1    3    3    0    0  0.12366438399E+03 -0.22769379797E+03 -0.40286587156E+03  0.47899713566E+03  0.00000000000E+00 0.  1.
         22    1    1    2    0    0 -0.17223911538E+03  0.26969249077E+03 -0.38937041697E+03  0.50399372422E+03  0.00000000000E+00 0.  1.
<mgrwt>
<rscale>  0 0.66441459E+03</rscale>
<asrwt>0</asrwt>
<pdfrwt beam="1">  1        2 0.16945094E+00 0.66441459E+03</pdfrwt>
<pdfrwt beam="2">  1       -2 0.15415146E-01 0.66441459E+03</pdfrwt>
<totfact> 0.73372571E+02</totfact>
</mgrwt>
</event>
<event>
 6    1  0.3017327E-006  0.2123043E+04  0.7818608E-02  0.8551160E-01
         -2   -1    0    0    0  501 -0.00000000000E+00  0.00000000000E+00  0.36323356998E+03  0.36323356998E+03  0.00000000000E+00 0.  1.
          2   -1    0    0  501    0  0.00000000000E+00 -0.00000000000E+00 -0.31022125528E+04  0.31022125528E+04  0.00000000000E+00 0. -1.
         23    2    1    2    0    0 -0.63636859728E+03 -0.84117920778E+03 -0.12073940611E+04  0.16057956654E+04  0.90729537574E+02 0.  0.
         11    1    3    3    0    0 -0.23227680556E+03 -0.24601436021E+03 -0.41822613661E+03  0.53794858600E+03  0.00000000000E+00 0.  1.
        -11    1    3    3    0    0 -0.40409179172E+03 -0.59516484757E+03 -0.78916792444E+03  0.10678470794E+04  0.00000000000E+00 0. -1.
         22    1    1    2    0    0  0.63636859728E+03  0.84117920778E+03 -0.15315849218E+04  0.18596504575E+04  0.00000000000E+00 0.  1.
<mgrwt>
<rscale>  0 0.21230429E+04</rscale>
<asrwt>0</asrwt>
<pdfrwt beam="1">  1        2 0.47726346E+00 0.21230429E+04</pdfrwt>
<pdfrwt beam="2">  1       -2 0.55882088E-01 0.21230429E+04</pdfrwt>
<totfact> 0.41581214E+00</totfact>
</mgrwt>
</event>
<event>
 6    1  0.3017327E-006  0.9353785E+03  0.7818608E-02  0.9382406E-01
         -2   -1    0    0    0  501 -0.00000000000E+00  0.00000000000E+00  0.17203647295E+03  0.17203647295E+03  0.00000000000E+00 0.  1.
          2   -1    0    0  501    0  0.00000000000E+00 -0.00000000000E+00 -0.12714351820E+04  0.12714351820E+04  0.00000000000E+00 0. -1.
         23    2    1    2    0    0  0.35085181127E+03  0.27510127518E+03 -0.74924538087E+03  0.87656332170E+03  0.90647179249E+02 0.  0.
         11    1    3    3    0    0  0.16549158498E+03  0.99414962748E+02 -0.25079572733E+03  0.31649533388E+03  0.00000000000E+00 0. -1.
        -11    1    3    3    0    0  0.18536022629E+03  0.17568631243E+03 -0.49844965354E+03  0.56006798782E+03  0.00000000000E+00 0.  1.
         22    1    1    2    0    0 -0.35085181127E+03 -0.27510127518E+03 -0.35015332817E+03  0.56690833325E+03  0.00000000000E+00 0. -1.
<mgrwt>
<rscale>  0 0.93537848E+03</rscale>
<asrwt>0</asrwt>
<pdfrwt beam="1">  1        2 0.19560541E+00 0.93537848E+03</pdfrwt>
<pdfrwt beam="2">  1       -2 0.26467151E-01 0.93537848E+03</pdfrwt>
<totfact> 0.22209420E+02</totfact>
</mgrwt>
</event>
<event>
 6    1  0.3017327E-006  0.3714326E+04  0.7818608E-02  0.8064795E-01
          2   -1    0    0  501    0  0.00000000000E+00  0.00000000000E+00  0.21062093899E+04  0.21062093899E+04  0.00000000000E+00 0. -1.
         -2   -1    0    0    0  501 -0.00000000000E+00 -0.00000000000E+00 -0.16375644378E+04  0.16375644378E+04  0.00000000000E+00 0.  1.
         23    2    1    2    0    0 -0.65094246820E+03 -0.10037222104E+04 -0.11958406450E+04  0.16939697699E+04  0.91183115904E+02 0.  0.
         11    1    3    3    0    0 -0.52935426040E+02 -0.11238139152E+03 -0.15719624987E+03  0.20035567740E+03  0.00000000000E+00 0. -1.
        -11    1    3    3    0    0 -0.59800704216E+03 -0.89134081890E+03 -0.10386443951E+04  0.14936140925E+04  0.00000000000E+00 0.  1.
         22    1    1    2    0    0  0.65094246820E+03  0.10037222104E+04  0.16644855971E+04  0.20498040578E+04  0.00000000000E+00 0. -1.
<mgrwt>
<rscale>  0 0.37143256E+04</rscale>
<asrwt>0</asrwt>
<pdfrwt beam="1">  1        2 0.32403222E+00 0.37143256E+04</pdfrwt>
<pdfrwt beam="2">  1       -2 0.25193299E+00 0.37143256E+04</pdfrwt>
<totfact> 0.29431133E-01</totfact>
</mgrwt>
</event>
<event>
 6    1  0.3017327E-006  0.1931693E+04  0.7818608E-02  0.8639240E-01
         -2   -1    0    0    0  501 -0.00000000000E+00  0.00000000000E+00  0.44950439744E+03  0.44950439744E+03  0.00000000000E+00 0.  1.
          2   -1    0    0  501    0  0.00000000000E+00 -0.00000000000E+00 -0.20753058080E+04  0.20753058080E+04  0.00000000000E+00 0. -1.
         23    2    1    2    0    0 -0.14982493230E+03  0.49542573492E+03 -0.18771805919E+04  0.19494097692E+04  0.92180825014E+02 0.  0.
         11    1    3    3    0    0 -0.39265620991E+02  0.13372605824E+03 -0.67096377931E+03  0.68528595549E+03  0.00000000000E+00 0.  1.
        -11    1    3    3    0    0 -0.11055931131E+03  0.36169967667E+03 -0.12062168126E+04  0.12641238137E+04  0.00000000000E+00 0. -1.
         22    1    1    2    0    0  0.14982493230E+03 -0.49542573492E+03  0.25137918137E+03  0.57540043621E+03  0.00000000000E+00 0.  1.
<mgrwt>
<rscale>  0 0.19316926E+04</rscale>
<asrwt>0</asrwt>
<pdfrwt beam="1">  1        2 0.31927781E+00 0.19316926E+04</pdfrwt>
<pdfrwt beam="2">  1       -2 0.69154524E-01 0.19316926E+04</pdfrwt>
<totfact> 0.10816323E+01</totfact>
</mgrwt>
</event>
<event>
 6    1  0.3017327E-006  0.5749668E+04  0.7818608E-02  0.7722239E-01
         -2   -1    0    0    0  501 -0.00000000000E+00  0.00000000000E+00  0.27227167592E+04  0.27227167592E+04  0.00000000000E+00 0.  1.
          2   -1    0    0  501    0  0.00000000000E+00 -0.00000000000E+00 -0.30354498536E+04  0.30354498536E+04  0.00000000000E+00 0. -1.
         23    2    1    2    0    0  0.77094031764E+03 -0.19196895674E+04 -0.21545129879E+04  0.29883813893E+04  0.94552126606E+02 0.  0.
         13    1    3    3    0    0  0.54360080780E+03 -0.12810449479E+04 -0.14990603904E+04  0.20454241738E+04  0.00000000000E+00 0. -1.
        -13    1    3    3    0    0  0.22733950984E+03 -0.63864461950E+03 -0.65545259745E+03  0.94295721549E+03  0.00000000000E+00 0.  1.
         22    1    1    2    0    0 -0.77094031764E+03  0.19196895674E+04  0.18417798935E+04  0.27697852235E+04  0.00000000000E+00 0.  1.
<mgrwt>
<rscale>  0 0.57496679E+04</rscale>
<asrwt>0</asrwt>
<pdfrwt beam="1">  1        2 0.46699229E+00 0.57496679E+04</pdfrwt>
<pdfrwt beam="2">  1       -2 0.41887950E+00 0.57496679E+04</pdfrwt>
<totfact> 0.63397685E-03</totfact>
</mgrwt>
</event>
<event>
 6    1  0.3017327E-006  0.2978349E+04  0.7818608E-02  0.8249941E-01
          2   -1    0    0  501    0  0.00000000000E+00  0.00000000000E+00  0.29185080324E+04  0.29185080324E+04  0.00000000000E+00 0. -1.
         -2   -1    0    0    0  501 -0.00000000000E+00 -0.00000000000E+00 -0.75985423083E+03  0.75985423083E+03  0.00000000000E+00 0.  1.
         23    2    1    2    0    0  0.49526541800E+03  0.56433889211E+03 -0.50570650381E+03  0.91022533448E+03  0.94894004632E+02 0.  0.
         11    1    3    3    0    0  0.12164221032E+03  0.14765651148E+03 -0.18006540743E+03  0.26272195124E+03  0.00000000000E+00 0.  1.
        -11    1    3    3    0    0  0.37362320768E+03  0.41668238063E+03 -0.32564109638E+03  0.64750338323E+03  0.00000000000E+00 0. -1.
         22    1    1    2    0    0 -0.49526541800E+03 -0.56433889211E+03  0.26643603054E+04  0.27681369288E+04  0.00000000000E+00 0. -1.
<mgrwt>
<rscale>  0 0.29783490E+04</rscale>
<asrwt>0</asrwt>
<pdfrwt beam="1">  1        2 0.44900123E+00 0.29783490E+04</pdfrwt>
<pdfrwt beam="2">  1       -2 0.11690065E+00 0.29783490E+04</pdfrwt>
<totfact> 0.95009413E-01</totfact>
</mgrwt>
</event>
<event>
 6    1  0.3017327E-006  0.3923026E+04  0.7818608E-02  0.8020257E-01
          2   -1    0    0  501    0  0.00000000000E+00  0.00000000000E+00  0.27988671399E+04  0.27988671399E+04  0.00000000000E+00 0. -1.
         -2   -1    0    0    0  501 -0.00000000000E+00 -0.00000000000E+00 -0.13746752955E+04  0.13746752955E+04  0.00000000000E+00 0.  1.
         23    2    1    2    0    0 -0.83249888891E+03  0.17253836845E+04  0.26975760503E+03  0.19368659564E+04  0.93152074802E+02 0.  0.
         11    1    3    3    0    0 -0.23639623649E+03  0.39826381352E+03  0.64198250706E+02  0.46756674516E+03  0.00000000000E+00 0. -1.
        -11    1    3    3    0    0 -0.59610265242E+03  0.13271198709E+04  0.20555935433E+03  0.14692992113E+04  0.00000000000E+00 0.  1.
         22    1    1    2    0    0  0.83249888891E+03 -0.17253836845E+04  0.11544342393E+04  0.22366764790E+04  0.00000000000E+00 0. -1.
<mgrwt>
<rscale>  0 0.39230261E+04</rscale>
<asrwt>0</asrwt>
<pdfrwt beam="1">  1        2 0.43059494E+00 0.39230261E+04</pdfrwt>
<pdfrwt beam="2">  1       -2 0.21148851E+00 0.39230261E+04</pdfrwt>
<totfact> 0.20586701E-01</totfact>
</mgrwt>
</event>
<event>
 6    1  0.3017327E-006  0.4009265E+04  0.7818608E-02  0.8002680E-01
          2   -1    0    0  501    0  0.00000000000E+00  0.00000000000E+00  0.26371445387E+04  0.26371445387E+04  0.00000000000E+00 0. -1.
         -2   -1    0    0    0  501 -0.00000000000E+00 -0.00000000000E+00 -0.15238267966E+04  0.15238267966E+04  0.00000000000E+00 0.  1.
         23    2    1    2    0    0 -0.84250965627E+03 -0.13115768102E+04 -0.74935429966E+03  0.17320614182E+04  0.91916485026E+02 0.  0.
         13    1    3    3    0    0 -0.12962180230E+03 -0.14854147782E+03 -0.83595886425E+02  0.21413699936E+03  0.00000000000E+00 0.  1.
        -13    1    3    3    0    0 -0.71288785397E+03 -0.11630353323E+04 -0.66575841324E+03  0.15179244189E+04  0.00000000000E+00 0. -1.
         22    1    1    2    0    0  0.84250965627E+03  0.13115768102E+04  0.18626720418E+04  0.24289099171E+04  0.00000000000E+00 0. -1.
<mgrwt>
<rscale>  0 0.40092650E+04</rscale>
<asrwt>0</asrwt>
<pdfrwt beam="1">  1        2 0.40571454E+00 0.40092650E+04</pdfrwt>
<pdfrwt beam="2">  1       -2 0.23443489E+00 0.40092650E+04</pdfrwt>
<totfact> 0.18295622E-01</totfact>
</mgrwt>
</event>
<event>
 6    1  0.3017327E-006  0.2178732E+04  0.7818608E-02  0.8527333E-01
         -2   -1    0    0    0  501 -0.00000000000E+00  0.00000000000E+00  0.31980675429E+03  0.31980675429E+03  0.00000000000E+00 0. -1.
          2   -1    0    0  501    0  0.00000000000E+00 -0.00000000000E+00 -0.37107340263E+04  0.37107340263E+04  0.00000000000E+00 0.  1.
         23    2    1    2    0    0  0.16620546107E+03 -0.99966071927E+03 -0.96883894343E+03  0.14050012778E+04  0.91836177527E+02 0.  0.
         13    1    3    3    0    0  0.38775314755E+02 -0.34016737390E+03 -0.38305325096E+03  0.51375788108E+03  0.00000000000E+00 0. -1.
        -13    1    3    3    0    0  0.12743014632E+03 -0.65949334537E+03 -0.58578569246E+03  0.89124339677E+03  0.00000000000E+00 0.  1.
         22    1    1    2    0    0 -0.16620546107E+03  0.99966071927E+03 -0.24220883285E+04  0.26255395027E+04  0.00000000000E+00 0.  1.
<mgrwt>
<rscale>  0 0.21787316E+04</rscale>
<asrwt>0</asrwt>
<pdfrwt beam="1">  1        2 0.57088219E+00 0.21787316E+04</pdfrwt>
<pdfrwt beam="2">  1       -2 0.49201036E-01 0.21787316E+04</pdfrwt>
<totfact> 0.20627741E+00</totfact>
</mgrwt>
</event>
<event>
 6    1  0.3017327E-006  0.4626752E+04  0.7818608E-02  0.7888814E-01
         -2   -1    0    0    0  501 -0.00000000000E+00  0.00000000000E+00  0.26207268219E+04  0.26207268219E+04  0.00000000000E+00 0.  1.
          2   -1    0    0  501    0  0.00000000000E+00 -0.00000000000E+00 -0.20420700791E+04  0.20420700791E+04  0.00000000000E+00 0. -1.
         23    2    1    2    0    0 -0.17183813180E+04  0.50095357597E+03 -0.11861529959E+04  0.21491656127E+04  0.90360730876E+02 0.  0.
         13    1    3    3    0    0 -0.12756468782E+04  0.37174396361E+03 -0.83237929138E+03  0.15679042755E+04  0.00000000000E+00 0.  1.
        -13    1    3    3    0    0 -0.44273443984E+03  0.12920961236E+03 -0.35377370451E+03  0.58126133722E+03  0.00000000000E+00 0. -1.
         22    1    1    2    0    0  0.17183813180E+04 -0.50095357597E+03  0.17648097387E+04  0.25136312882E+04  0.00000000000E+00 0.  1.
<mgrwt>
<rscale>  0 0.46267517E+04</rscale>
<asrwt>0</asrwt>
<pdfrwt beam="1">  1        2 0.31416463E+00 0.46267517E+04</pdfrwt>
<pdfrwt beam="2">  1       -2 0.40318874E+00 0.46267517E+04</pdfrwt>
<totfact> 0.33595654E-02</totfact>
</mgrwt>
</event>
<event>
 6    1  0.3017327E-006  0.2481003E+04  0.7818608E-02  0.8409785E-01
         -2   -1    0    0    0  501 -0.00000000000E+00  0.00000000000E+00  0.68203590856E+03  0.68203590856E+03  0.00000000000E+00 0. -1.
          2   -1    0    0  501    0  0.00000000000E+00 -0.00000000000E+00 -0.22562507196E+04  0.22562507196E+04  0.00000000000E+00 0.  1.
         23    2    1    2    0    0  0.58575668425E+03  0.34892858128E+03 -0.20131218742E+04  0.21274219920E+04  0.91665718130E+02 0.  0.
         11    1    3    3    0    0  0.34852913728E+03  0.22145094182E+03 -0.13486061898E+04  0.14104083573E+04  0.00000000000E+00 0.  1.
        -11    1    3    3    0    0  0.23722754697E+03  0.12747763946E+03 -0.66451568441E+03  0.71701363475E+03  0.00000000000E+00 0. -1.
         22    1    1    2    0    0 -0.58575668425E+03 -0.34892858128E+03  0.43890706318E+03  0.81086463610E+03  0.00000000000E+00 0. -1.
<mgrwt>
<rscale>  0 0.24810030E+04</rscale>
<asrwt>0</asrwt>
<pdfrwt beam="1">  1        2 0.34711549E+00 0.24810030E+04</pdfrwt>
<pdfrwt beam="2">  1       -2 0.10492860E+00 0.24810030E+04</pdfrwt>
<totfact> 0.31564708E+00</totfact>
</mgrwt>
</event>
<event>
 6    1  0.3017327E-006  0.2364075E+04  0.7818608E-02  0.8453077E-01
         -2   -1    0    0    0  501 -0.00000000000E+00  0.00000000000E+00  0.95708551313E+03  0.95708551313E+03  0.00000000000E+00 0.  1.
          2   -1    0    0  501    0  0.00000000000E+00 -0.00000000000E+00 -0.14598617631E+04  0.14598617631E+04  0.00000000000E+00 0. -1.
         23    2    1    2    0    0 -0.11380704039E+04  0.19715701180E+03 -0.34764149868E+01  0.11586247990E+04  0.91237097767E+02 0.  0.
         11    1    3    3    0    0 -0.54278705614E+03  0.13981003089E+03 -0.83322747550E+01  0.56056583900E+03  0.00000000000E+00 0. -1.
        -11    1    3    3    0    0 -0.59528334771E+03  0.57346980914E+02  0.48558597682E+01  0.59805896002E+03  0.00000000000E+00 0.  1.
         22    1    1    2    0    0  0.11380704039E+04 -0.19715701180E+03 -0.49929983499E+03  0.12583224772E+04  0.00000000000E+00 0. -1.
<mgrwt>
<rscale>  0 0.23640749E+04</rscale>
<asrwt>0</asrwt>
<pdfrwt beam="1">  1        2 0.22459412E+00 0.23640749E+04</pdfrwt>
<pdfrwt beam="2">  1       -2 0.14724393E+00 0.23640749E+04</pdfrwt>
<totfact> 0.37970100E+00</totfact>
</mgrwt>
</event>
<event>
 6    1  0.3017327E-006  0.2673239E+04  0.7818608E-02  0.8343741E-01
          2   -1    0    0  501    0  0.00000000000E+00  0.00000000000E+00  0.14248498090E+04  0.14248498090E+04  0.00000000000E+00 0. -1.
         -2   -1    0    0    0  501 -0.00000000000E+00 -0.00000000000E+00 -0.12538522177E+04  0.12538522177E+04  0.00000000000E+00 0.  1.
         23    2    1    2    0    0 -0.65694993314E+03 -0.56298264523E+03  0.11047030553E+04  0.14057768259E+04  0.85480818437E+02 0.  0.
         11    1    3    3    0    0 -0.38639763544E+03 -0.27531423987E+03  0.59659769710E+03  0.76225315711E+03  0.00000000000E+00 0. -1.
        -11    1    3    3    0    0 -0.27055229770E+03 -0.28766840535E+03  0.50810535821E+03  0.64352366877E+03  0.00000000000E+00 0.  1.
         22    1    1    2    0    0  0.65694993314E+03  0.56298264523E+03 -0.93370546401E+03  0.12729252009E+04  0.00000000000E+00 0.  1.
<mgrwt>
<rscale>  0 0.26732386E+04</rscale>
<asrwt>0</asrwt>
<pdfrwt beam="1">  1        2 0.21920766E+00 0.26732386E+04</pdfrwt>
<pdfrwt beam="2">  1       -2 0.19290034E+00 0.26732386E+04</pdfrwt>
<totfact> 0.18252718E+00</totfact>
</mgrwt>
</event>
<event>
 6    1  0.3017327E-006  0.2606247E+04  0.7818608E-02  0.8366082E-01
         -2   -1    0    0    0  501 -0.00000000000E+00  0.00000000000E+00  0.61950111307E+03  0.61950111307E+03  0.00000000000E+00 0.  1.
          2   -1    0    0  501    0  0.00000000000E+00 -0.00000000000E+00 -0.27411261619E+04  0.27411261619E+04  0.00000000000E+00 0. -1.
         23    2    1    2    0    0  0.12959643863E+04  0.84129041521E+02 -0.11748938572E+04  0.17534865421E+04  0.87966423011E+02 0.  0.
         13    1    3    3    0    0  0.98944785158E+02 -0.16889374997E+02 -0.93037891076E+02  0.13686259779E+03  0.00000000000E+00 0.  1.
        -13    1    3    3    0    0  0.11970196011E+04  0.10101841652E+03 -0.10818559661E+04  0.16166239443E+04  0.00000000000E+00 0. -1.
         22    1    1    2    0    0 -0.12959643863E+04 -0.84129041521E+02 -0.94673119168E+03  0.16071407329E+04  0.00000000000E+00 0. -1.
<mgrwt>
<rscale>  0 0.26062469E+04</rscale>
<asrwt>0</asrwt>
<pdfrwt beam="1">  1        2 0.42171172E+00 0.26062469E+04</pdfrwt>
<pdfrwt beam="2">  1       -2 0.95307864E-01 0.26062469E+04</pdfrwt>
<totfact> 0.20515921E+00</totfact>
</mgrwt>
</event>
<event>
 6    1  0.3017327E-006  0.2189528E+04  0.7818608E-02  0.8522799E-01
          2   -1    0    0  501    0  0.00000000000E+00  0.00000000000E+00  0.12979084793E+04  0.12979084793E+04  0.00000000000E+00 0. -1.
         -2   -1    0    0    0  501 -0.00000000000E+00 -0.00000000000E+00 -0.92341516148E+03  0.92341516148E+03  0.00000000000E+00 0.  1.
         23    2    1    2    0    0 -0.58602812962E+03 -0.76926130526E+03  0.70420460842E+03  0.11996086807E+04  0.89246466566E+02 0.  0.
         13    1    3    3    0    0 -0.14159639874E+03 -0.25008414928E+03  0.22335323548E+03  0.36397567179E+03  0.00000000000E+00 0.  1.
        -13    1    3    3    0    0 -0.44443173088E+03 -0.51917715598E+03  0.48085137294E+03  0.83563300890E+03  0.00000000000E+00 0. -1.
         22    1    1    2    0    0  0.58602812962E+03  0.76926130526E+03 -0.32971129061E+03  0.10217149601E+04  0.00000000000E+00 0.  1.
<mgrwt>
<rscale>  0 0.21895281E+04</rscale>
<asrwt>0</asrwt>
<pdfrwt beam="1">  1        2 0.19967823E+00 0.21895281E+04</pdfrwt>
<pdfrwt beam="2">  1       -2 0.14206387E+00 0.21895281E+04</pdfrwt>
<totfact> 0.52439446E+00</totfact>
</mgrwt>
</event>
<event>
 6    1  0.3017327E-006  0.2762516E+04  0.7818608E-02  0.8315001E-01
         -2   -1    0    0    0  501 -0.00000000000E+00  0.00000000000E+00  0.91535250779E+03  0.91535250779E+03  0.00000000000E+00 0. -1.
          2   -1    0    0  501    0  0.00000000000E+00 -0.00000000000E+00 -0.20843053368E+04  0.20843053368E+04  0.00000000000E+00 0.  1.
         23    2    1    2    0    0 -0.86009432342E+03 -0.95341062207E+02  0.58176862810E+03  0.10467426432E+04  0.91450867651E+02 0.  0.
         11    1    3    3    0    0 -0.62255136991E+03 -0.67490355532E+02  0.37031512396E+03  0.72750151017E+03  0.00000000000E+00 0. -1.
        -11    1    3    3    0    0 -0.23754295351E+03 -0.27850706675E+02  0.21145350414E+03  0.31924113306E+03  0.00000000000E+00 0.  1.
         22    1    1    2    0    0  0.86009432342E+03  0.95341062207E+02 -0.17507214571E+04  0.19529152013E+04  0.00000000000E+00 0.  1.
<mgrwt>
<rscale>  0 0.27625163E+04</rscale>
<asrwt>0</asrwt>
<pdfrwt beam="1">  1        2 0.32066236E+00 0.27625163E+04</pdfrwt>
<pdfrwt beam="2">  1       -2 0.14082346E+00 0.27625163E+04</pdfrwt>
<totfact> 0.18511386E+00</totfact>
</mgrwt>
</event>
<event>
 6    1  0.3017327E-006  0.3754889E+04  0.7818608E-02  0.8055905E-01
         -2   -1    0    0    0  501 -0.00000000000E+00  0.00000000000E+00  0.26762618501E+04  0.26762618501E+04  0.00000000000E+00 0.  1.
          2   -1    0    0  501    0  0.00000000000E+00 -0.00000000000E+00 -0.13170604192E+04  0.13170604192E+04  0.00000000000E+00 0. -1.
         23    2    1    2    0    0  0.12459047223E+04  0.11468490626E+04  0.15392782296E+04  0.22903927338E+04  0.94763165231E+02 0.  0.
         11    1    3    3    0    0  0.80137211692E+03  0.72221106020E+03  0.92030339123E+03  0.14180071993E+04  0.00000000000E+00 0.  1.
        -11    1    3    3    0    0  0.44453260535E+03  0.42463800238E+03  0.61897483842E+03  0.87238553454E+03  0.00000000000E+00 0. -1.
         22    1    1    2    0    0 -0.12459047223E+04 -0.11468490626E+04 -0.18007679869E+03  0.17029295355E+04  0.00000000000E+00 0. -1.
<mgrwt>
<rscale>  0 0.37548894E+04</rscale>
<asrwt>0</asrwt>
<pdfrwt beam="1">  1        2 0.20262468E+00 0.37548894E+04</pdfrwt>
<pdfrwt beam="2">  1       -2 0.41173259E+00 0.37548894E+04</pdfrwt>
<totfact> 0.80773325E-02</totfact>
</mgrwt>
</event>
<event>
 6    1  0.3017327E-006  0.6769139E+04  0.7818608E-02  0.7601724E-01
          2   -1    0    0  501    0  0.00000000000E+00  0.00000000000E+00  0.33546139578E+04  0.33546139578E+04  0.00000000000E+00 0. -1.
         -2   -1    0    0    0  501 -0.00000000000E+00 -0.00000000000E+00 -0.34147925789E+04  0.34147925789E+04  0.00000000000E+00 0.  1.
         23    2    1    2    0    0  0.15924302108E+04  0.28296658706E+04 -0.98325859817E+03  0.33937703656E+04  0.89648803276E+02 0.  0.
         13    1    3    3    0    0  0.79073930342E+02  0.16192623258E+03 -0.36369246587E+02  0.18383556064E+03  0.00000000000E+00 0. -1.
        -13    1    3    3    0    0  0.15133562805E+04  0.26677396380E+04 -0.94688935159E+03  0.32099348050E+04  0.00000000000E+00 0.  1.
         22    1    1    2    0    0 -0.15924302108E+04 -0.28296658706E+04  0.92307997700E+03  0.33756361711E+04  0.00000000000E+00 0.  1.
<mgrwt>
<rscale>  0 0.67691390E+04</rscale>
<asrwt>0</asrwt>
<pdfrwt beam="1">  1        2 0.51609446E+00 0.67691390E+04</pdfrwt>
<pdfrwt beam="2">  1       -2 0.52535270E+00 0.67691390E+04</pdfrwt>
<totfact> 0.76886761E-04</totfact>
</mgrwt>
</event>
<event>
 6    1  0.3017327E-006  0.2746338E+04  0.7818608E-02  0.8320125E-01
          2   -1    0    0  501    0  0.00000000000E+00  0.00000000000E+00  0.13952043227E+04  0.13952043227E+04  0.00000000000E+00 0. -1.
         -2   -1    0    0    0  501 -0.00000000000E+00 -0.00000000000E+00 -0.13514815850E+04  0.13514815850E+04  0.00000000000E+00 0.  1.
         23    2    1    2    0    0 -0.69919975718E+03  0.56408485055E+03 -0.10148941541E+04  0.13582545113E+04  0.88165494878E+02 0.  0.
         13    1    3    3    0    0 -0.53622308921E+03  0.45540857546E+03 -0.74389811215E+03  0.10238733190E+04  0.00000000000E+00 0.  1.
        -13    1    3    3    0    0 -0.16297666798E+03  0.10867627509E+03 -0.27099604193E+03  0.33438119238E+03  0.00000000000E+00 0. -1.
         22    1    1    2    0    0  0.69919975718E+03 -0.56408485055E+03  0.10586168918E+04  0.13884313964E+04  0.00000000000E+00 0. -1.
<mgrwt>
<rscale>  0 0.27463379E+04</rscale>
<asrwt>0</asrwt>
<pdfrwt beam="1">  1        2 0.21464682E+00 0.27463379E+04</pdfrwt>
<pdfrwt beam="2">  1       -2 0.20792024E+00 0.27463379E+04</pdfrwt>
<totfact> 0.15032147E+00</totfact>
</mgrwt>
</event>
<event>
 6    1  0.3017327E-006  0.2444156E+04  0.7818608E-02  0.8423155E-01
         -1   -1    0    0    0  501 -0.00000000000E+00  0.00000000000E+00  0.60497302484E+03  0.60497302484E+03  0.00000000000E+00 0.  1.
          1   -1    0    0  501    0  0.00000000000E+00 -0.00000000000E+00 -0.24686622796E+04  0.24686622796E+04  0.00000000000E+00 0. -1.
         23    2    1    2    0    0 -0.39861017780E+03  0.11155804197E+04 -0.56516557368E+03  0.13159170401E+04  0.93892407070E+02 0.  0.
         13    1    3    3    0    0 -0.15162832162E+03  0.56384997946E+03 -0.27830074066E+03  0.64681469487E+03  0.00000000000E+00 0.  1.
        -13    1    3    3    0    0 -0.24698185618E+03  0.55173044020E+03 -0.28686483302E+03  0.66910234520E+03  0.00000000000E+00 0. -1.
         22    1    1    2    0    0  0.39861017780E+03 -0.11155804197E+04 -0.12985236811E+04  0.17577182644E+04  0.00000000000E+00 0.  1.
<mgrwt>
<rscale>  0 0.24441555E+04</rscale>
<asrwt>0</asrwt>
<pdfrwt beam="1">  1        1 0.37979420E+00 0.24441555E+04</pdfrwt>
<pdfrwt beam="2">  1       -1 0.93072772E-01 0.24441555E+04</pdfrwt>
<totfact> 0.14250348E+00</totfact>
</mgrwt>
</event>
<event>
 6    1  0.3213704E-006  0.3263993E+04  0.7818608E-02  0.8172118E-01
          2   -1    0    0  501    0  0.00000000000E+00  0.00000000000E+00  0.15576713226E+04  0.15576713226E+04  0.00000000000E+00 0. -1.
         -2   -1    0    0    0  501 -0.00000000000E+00 -0.00000000000E+00 -0.17098681201E+04  0.17098681201E+04  0.00000000000E+00 0.  1.
         23    2    1    2    0    0 -0.15863862155E+04 -0.35446585810E+03  0.54620749885E+02  0.16289300422E+04  0.90345928171E+02 0.  0.
         11    1    3    3    0    0 -0.11362493225E+04 -0.21723346565E+03  0.18866052396E+02  0.11569826401E+04  0.00000000000E+00 0.  1.
        -11    1    3    3    0    0 -0.45013689302E+03 -0.13723239246E+03  0.35754697489E+02  0.47194740214E+03  0.00000000000E+00 0. -1.
         22    1    1    2    0    0  0.15863862155E+04  0.35446585810E+03 -0.20681754742E+03  0.16386094004E+04  0.00000000000E+00 0.  1.
<mgrwt>
<rscale>  0 0.32639930E+04</rscale>
<asrwt>0</asrwt>
<pdfrwt beam="1">  1        2 0.23964174E+00 0.32639930E+04</pdfrwt>
<pdfrwt beam="2">  1       -2 0.26305663E+00 0.32639930E+04</pdfrwt>
<totfact> 0.52728189E-01</totfact>
</mgrwt>
</event>
<event>
 6    1  0.3017327E-006  0.3450380E+04  0.7818608E-02  0.8125651E-01
          1   -1    0    0  501    0  0.00000000000E+00  0.00000000000E+00  0.30213386594E+04  0.30213386594E+04  0.00000000000E+00 0.  1.
         -1   -1    0    0    0  501 -0.00000000000E+00 -0.00000000000E+00 -0.98508669181E+03  0.98508669181E+03  0.00000000000E+00 0. -1.
         23    2    1    2    0    0  0.97504426488E+03  0.87340616731E+03 -0.28380013165E+03  0.13425576002E+04  0.91480837483E+02 0.  0.
         13    1    3    3    0    0  0.42250854906E+03  0.31937491340E+03 -0.10559482376E+03  0.54005932650E+03  0.00000000000E+00 0. -1.
        -13    1    3    3    0    0  0.55253571582E+03  0.55403125391E+03 -0.17820530789E+03  0.80249827372E+03  0.00000000000E+00 0.  1.
         22    1    1    2    0    0 -0.97504426488E+03 -0.87340616731E+03  0.23200520992E+04  0.26638677510E+04  0.00000000000E+00 0.  1.
<mgrwt>
<rscale>  0 0.34503800E+04</rscale>
<asrwt>0</asrwt>
<pdfrwt beam="1">  1        1 0.46482133E+00 0.34503800E+04</pdfrwt>
<pdfrwt beam="2">  1       -1 0.15155180E+00 0.34503800E+04</pdfrwt>
<totfact> 0.16016626E-01</totfact>
</mgrwt>
</event>
<event>
 6    1  0.3017327E-006  0.1106717E+04  0.7818608E-02  0.9198670E-01
         -1   -1    0    0    0  501 -0.00000000000E+00  0.00000000000E+00  0.35513966307E+03  0.35513966307E+03  0.00000000000E+00 0.  1.
          1   -1    0    0  501    0  0.00000000000E+00 -0.00000000000E+00 -0.86221139734E+03  0.86221139734E+03  0.00000000000E+00 0. -1.
         23    2    1    2    0    0  0.37433010622E+03  0.18347892707E+02 -0.69838158997E+03  0.79656710814E+03  0.79515023628E+02 0.  0.
         13    1    3    3    0    0  0.18676033654E+03  0.48837312894E+02 -0.34549872861E+03  0.39576998106E+03  0.00000000000E+00 0. -1.
        -13    1    3    3    0    0  0.18756976969E+03 -0.30489420187E+02 -0.35288286136E+03  0.40079712709E+03  0.00000000000E+00 0.  1.
         22    1    1    2    0    0 -0.37433010622E+03 -0.18347892707E+02  0.19130985570E+03  0.42078395226E+03  0.00000000000E+00 0.  1.
<mgrwt>
<rscale>  0 0.11067167E+04</rscale>
<asrwt>0</asrwt>
<pdfrwt beam="1">  1        1 0.13264791E+00 0.11067167E+04</pdfrwt>
<pdfrwt beam="2">  1       -1 0.54636871E-01 0.11067167E+04</pdfrwt>
<totfact> 0.65924461E+01</totfact>
</mgrwt>
</event>
<event>
 6    1  0.3017327E-006  0.1397578E+04  0.7818608E-02  0.8955574E-01
          1   -1    0    0  501    0  0.00000000000E+00  0.00000000000E+00  0.15437754805E+04  0.15437754805E+04  0.00000000000E+00 0. -1.
         -1   -1    0    0    0  501 -0.00000000000E+00 -0.00000000000E+00 -0.31630634364E+03  0.31630634364E+03  0.00000000000E+00 0.  1.
         23    2    1    2    0    0  0.27840211062E+03 -0.17306809271E+03  0.14333060330E+04  0.14730041475E+04  0.88964793891E+02 0.  0.
         11    1    3    3    0    0  0.93894033663E+02 -0.79554012429E+02  0.71474115243E+03  0.72525846802E+03  0.00000000000E+00 0. -1.
        -11    1    3    3    0    0  0.18450807695E+03 -0.93514080280E+02  0.71856488055E+03  0.74774567951E+03  0.00000000000E+00 0.  1.
         22    1    1    2    0    0 -0.27840211062E+03  0.17306809271E+03 -0.20583689613E+03  0.38707767659E+03  0.00000000000E+00 0.  1.
<mgrwt>
<rscale>  0 0.13975779E+04</rscale>
<asrwt>0</asrwt>
<pdfrwt beam="1">  1        1 0.23750392E+00 0.13975779E+04</pdfrwt>
<pdfrwt beam="2">  1       -1 0.48662515E-01 0.13975779E+04</pdfrwt>
<totfact> 0.25143932E+01</totfact>
</mgrwt>
</event>
<event>
 6    1  0.3017327E-006  0.1539368E+04  0.7818608E-02  0.8858688E-01
         -2   -1    0    0    0  501 -0.00000000000E+00  0.00000000000E+00  0.39801713521E+03  0.39801713521E+03  0.00000000000E+00 0.  1.
          2   -1    0    0  501    0  0.00000000000E+00 -0.00000000000E+00 -0.14884120636E+04  0.14884120636E+04  0.00000000000E+00 0. -1.
         23    2    1    2    0    0  0.48275664438E+03  0.47720198829E+03 -0.98476127325E+03  0.11994545381E+04  0.90336639057E+02 0.  0.
         13    1    3    3    0    0  0.35299775931E+03  0.32103036543E+03 -0.62455085722E+03  0.78595908727E+03  0.00000000000E+00 0. -1.
        -13    1    3    3    0    0  0.12975888507E+03  0.15617162285E+03 -0.36021041604E+03  0.41349545083E+03  0.00000000000E+00 0.  1.
         22    1    1    2    0    0 -0.48275664438E+03 -0.47720198829E+03 -0.10563365509E+03  0.68697466067E+03  0.00000000000E+00 0.  1.
<mgrwt>
<rscale>  0 0.15393681E+04</rscale>
<asrwt>0</asrwt>
<pdfrwt beam="1">  1        2 0.22898647E+00 0.15393681E+04</pdfrwt>
<pdfrwt beam="2">  1       -2 0.61233405E-01 0.15393681E+04</pdfrwt>
<totfact> 0.30790510E+01</totfact>
</mgrwt>
</event>
<event>
 6    1  0.3017327E-006  0.1752714E+04  0.7818608E-02  0.8731858E-01
         -2   -1    0    0    0  501 -0.00000000000E+00  0.00000000000E+00  0.24219450822E+03  0.24219450822E+03  0.00000000000E+00 0.  1.
          2   -1    0    0  501    0  0.00000000000E+00 -0.00000000000E+00 -0.31710123208E+04  0.31710123208E+04  0.00000000000E+00 0. -1.
         23    2    1    2    0    0  0.38850177465E+03 -0.40432242973E+03 -0.16266256413E+03  0.59079206245E+03  0.90365342897E+02 0.  0.
         13    1    3    3    0    0  0.53169570993E+02 -0.17800746001E+02 -0.11688721757E+02  0.57275614829E+02  0.00000000000E+00 0. -1.
        -13    1    3    3    0    0  0.33533220366E+03 -0.38652168373E+03 -0.15097384238E+03  0.53351644762E+03  0.00000000000E+00 0.  1.
         22    1    1    2    0    0 -0.38850177465E+03  0.40432242973E+03 -0.27661552485E+04  0.28224147666E+04  0.00000000000E+00 0. -1.
<mgrwt>
<rscale>  0 0.17527142E+04</rscale>
<asrwt>0</asrwt>
<pdfrwt beam="1">  1        2 0.48784804E+00 0.17527142E+04</pdfrwt>
<pdfrwt beam="2">  1       -2 0.37260695E-01 0.17527142E+04</pdfrwt>
<totfact> 0.87654147E+00</totfact>
</mgrwt>
</event>
<event>
 6    1  0.3017327E-006  0.5206401E+04  0.7818608E-02  0.7797433E-01
         -2   -1    0    0    0  501 -0.00000000000E+00  0.00000000000E+00  0.24952820440E+04  0.24952820440E+04  0.00000000000E+00 0.  1.
          2   -1    0    0  501    0  0.00000000000E+00 -0.00000000000E+00 -0.27157864644E+04  0.27157864644E+04  0.00000000000E+00 0. -1.
         23    2    1    2    0    0 -0.22804136873E+04 -0.96023532182E+03  0.69670502042E+03  0.25722029156E+04  0.92149309088E+02 0.  0.
         11    1    3    3    0    0 -0.44970055882E+03 -0.22562100754E+03  0.12497135208E+03  0.51841418816E+03  0.00000000000E+00 0. -1.
        -11    1    3    3    0    0 -0.18307131285E+04 -0.73461431428E+03  0.57173366835E+03  0.20537887275E+04  0.00000000000E+00 0.  1.
         22    1    1    2    0    0  0.22804136873E+04  0.96023532182E+03 -0.91720944085E+03  0.26388655928E+04  0.00000000000E+00 0. -1.
<mgrwt>
<rscale>  0 0.52064011E+04</rscale>
<asrwt>0</asrwt>
<pdfrwt beam="1">  1        2 0.41781330E+00 0.52064011E+04</pdfrwt>
<pdfrwt beam="2">  1       -2 0.38388955E+00 0.52064011E+04</pdfrwt>
<totfact> 0.17593003E-02</totfact>
</mgrwt>
</event>
<event>
 6    1  0.3017327E-006  0.3480671E+04  0.7818608E-02  0.8118386E-01
          1   -1    0    0  501    0  0.00000000000E+00  0.00000000000E+00  0.19286560374E+04  0.19286560374E+04  0.00000000000E+00 0. -1.
         -1   -1    0    0    0  501 -0.00000000000E+00 -0.00000000000E+00 -0.15704028174E+04  0.15704028174E+04  0.00000000000E+00 0.  1.
         23    2    1    2    0    0  0.23317421328E+03 -0.80640579394E+03 -0.13518660520E+04  0.15940212063E+04  0.93280573076E+02 0.  0.
         13    1    3    3    0    0  0.68519223913E+02 -0.11499155008E+03 -0.21415519857E+03  0.25254779688E+03  0.00000000000E+00 0.  1.
        -13    1    3    3    0    0  0.16465498936E+03 -0.69141424386E+03 -0.11377108534E+04  0.13414734094E+04  0.00000000000E+00 0. -1.
         22    1    1    2    0    0 -0.23317421328E+03  0.80640579394E+03  0.17101192719E+04  0.19050376485E+04  0.00000000000E+00 0. -1.
<mgrwt>
<rscale>  0 0.34806706E+04</rscale>
<asrwt>0</asrwt>
<pdfrwt beam="1">  1        1 0.29671631E+00 0.34806706E+04</pdfrwt>
<pdfrwt beam="2">  1       -1 0.24160043E+00 0.34806706E+04</pdfrwt>
<totfact> 0.21544876E-01</totfact>
</mgrwt>
</event>
<event>
 6    1  0.3017327E-006  0.2696774E+04  0.7818608E-02  0.8336053E-01
         -1   -1    0    0    0  501 -0.00000000000E+00  0.00000000000E+00  0.11096483937E+04  0.11096483937E+04  0.00000000000E+00 0. -1.
          1   -1    0    0  501    0  0.00000000000E+00 -0.00000000000E+00 -0.16384893992E+04  0.16384893992E+04  0.00000000000E+00 0.  1.
         23    2    1    2    0    0  0.19301094199E+02 -0.59676151354E+03  0.96536912559E+03  0.11390508618E+04  0.94881403972E+02 0.  0.
         11    1    3    3    0    0 -0.57449296251E+01 -0.43338726901E+03  0.62381446667E+03  0.75960648891E+03  0.00000000000E+00 0.  1.
        -11    1    3    3    0    0  0.25046023824E+02 -0.16337424453E+03  0.34155465891E+03  0.37944437288E+03  0.00000000000E+00 0. -1.
         22    1    1    2    0    0 -0.19301094199E+02  0.59676151354E+03 -0.14942101311E+04  0.16090869312E+04  0.00000000000E+00 0.  1.
<mgrwt>
<rscale>  0 0.26967737E+04</rscale>
<asrwt>0</asrwt>
<pdfrwt beam="1">  1        1 0.25207529E+00 0.26967737E+04</pdfrwt>
<pdfrwt beam="2">  1       -1 0.17071514E+00 0.26967737E+04</pdfrwt>
<totfact> 0.11149224E+00</totfact>
</mgrwt>
</event>
<event>
 6    1  0.3017327E-006  0.1022254E+04  0.7818608E-02  0.9284469E-01
          1   -1    0    0  501    0  0.00000000000E+00  0.00000000000E+00  0.18309324662E+04  0.18309324662E+04  0.00000000000E+00 0. -1.
         -1   -1    0    0    0  501 -0.00000000000E+00 -0.00000000000E+00 -0.14268718867E+03  0.14268718867E+03  0.00000000000E+00 0.  1.
         23    2    1    2    0    0  0.18233226058E+03 -0.71748499186E+02  0.17537627487E+04  0.17670151065E+04  0.90915935784E+02 0.  0.
         13    1    3    3    0    0  0.63312619053E+02 -0.28324227055E+02  0.30806184047E+03  0.31577341105E+03  0.00000000000E+00 0. -1.
        -13    1    3    3    0    0  0.11901964153E+03 -0.43424272131E+02  0.14457009083E+04  0.14512416954E+04  0.00000000000E+00 0.  1.
         22    1    1    2    0    0 -0.18233226058E+03  0.71748499186E+02 -0.65517471183E+02  0.20660454839E+03  0.00000000000E+00 0.  1.
<mgrwt>
<rscale>  0 0.10222536E+04</rscale>
<asrwt>0</asrwt>
<pdfrwt beam="1">  1        1 0.28168190E+00 0.10222536E+04</pdfrwt>
<pdfrwt beam="2">  1       -1 0.21951876E-01 0.10222536E+04</pdfrwt>
<totfact> 0.68119412E+01</totfact>
</mgrwt>
</event>
<event>
 6    1  0.3017327E-006  0.1764221E+04  0.7818608E-02  0.8725561E-01
          2   -1    0    0  501    0  0.00000000000E+00  0.00000000000E+00  0.75953996474E+03  0.75953996474E+03  0.00000000000E+00 0.  1.
         -2   -1    0    0    0  501 -0.00000000000E+00 -0.00000000000E+00 -0.10244611389E+04  0.10244611389E+04  0.00000000000E+00 0. -1.
         23    2    1    2    0    0  0.28563973745E+03 -0.73433264039E+03 -0.52843727160E+03  0.95317307097E+03  0.91969923681E+02 0.  0.
         13    1    3    3    0    0  0.87431787333E+02 -0.34731266667E+03 -0.25191867452E+03  0.43787375400E+03  0.00000000000E+00 0. -1.
        -13    1    3    3    0    0  0.19820795012E+03 -0.38701997372E+03 -0.27651859708E+03  0.51529931697E+03  0.00000000000E+00 0.  1.
         22    1    1    2    0    0 -0.28563973745E+03  0.73433264039E+03  0.26351609739E+03  0.83082803271E+03  0.00000000000E+00 0.  1.
<mgrwt>
<rscale>  0 0.17642213E+04</rscale>
<asrwt>0</asrwt>
<pdfrwt beam="1">  1        2 0.11685230E+00 0.17642213E+04</pdfrwt>
<pdfrwt beam="2">  1       -2 0.15760940E+00 0.17642213E+04</pdfrwt>
<totfact> 0.91596714E+00</totfact>
</mgrwt>
</event>
<event>
 6    1  0.3017327E-006  0.2798613E+04  0.7818608E-02  0.8303699E-01
          2   -1    0    0  501    0  0.00000000000E+00  0.00000000000E+00  0.10909789330E+04  0.10909789330E+04  0.00000000000E+00 0. -1.
         -2   -1    0    0    0  501 -0.00000000000E+00 -0.00000000000E+00 -0.17947716021E+04  0.17947716021E+04  0.00000000000E+00 0.  1.
         23    2    1    2    0    0  0.61311702727E+03 -0.82921471703E+03  0.62082132117E+03  0.12070272824E+04  0.89365605932E+02 0.  0.
         13    1    3    3    0    0  0.59262193653E+03 -0.76822771011E+03  0.57243013044E+03  0.11265215615E+04  0.00000000000E+00 0.  1.
        -13    1    3    3    0    0  0.20495090733E+02 -0.60987006929E+02  0.48391190728E+02  0.80505720905E+02  0.00000000000E+00 0. -1.
         22    1    1    2    0    0 -0.61311702727E+03  0.82921471703E+03 -0.13246139903E+04  0.16787232527E+04  0.00000000000E+00 0.  1.
<mgrwt>
<rscale>  0 0.27986125E+04</rscale>
<asrwt>0</asrwt>
<pdfrwt beam="1">  1        2 0.16784291E+00 0.27986125E+04</pdfrwt>
<pdfrwt beam="2">  1       -2 0.27611870E+00 0.27986125E+04</pdfrwt>
<totfact> 0.85406105E-01</totfact>
</mgrwt>
</event>
<event>
 6    1  0.3017327E-006  0.5553676E+04  0.7818608E-02  0.7748346E-01
         -1   -1    0    0    0  501 -0.00000000000E+00  0.00000000000E+00  0.41976918971E+04  0.41976918971E+04  0.00000000000E+00 0.  1.
          1   -1    0    0  501    0  0.00000000000E+00 -0.00000000000E+00 -0.18369214131E+04  0.18369214131E+04  0.00000000000E+00 0. -1.
         23    2    1    2    0    0 -0.25468184945E+04  0.63496448798E+03  0.19836257439E+03  0.26338086537E+04  0.90199603974E+02 0.  0.
         13    1    3    3    0    0 -0.11788340240E+04  0.31271477887E+03  0.13340182417E+03  0.12268806934E+04  0.00000000000E+00 0. -1.
        -13    1    3    3    0    0 -0.13679844704E+04  0.32224970911E+03  0.64960750225E+02  0.14069279603E+04  0.00000000000E+00 0.  1.
         22    1    1    2    0    0  0.25468184945E+04 -0.63496448798E+03  0.21624079096E+04  0.34008046566E+04  0.00000000000E+00 0.  1.
<mgrwt>
<rscale>  0 0.55536763E+04</rscale>
<asrwt>0</asrwt>
<pdfrwt beam="1">  1        1 0.28260330E+00 0.55536763E+04</pdfrwt>
<pdfrwt beam="2">  1       -1 0.64579875E+00 0.55536763E+04</pdfrwt>
<totfact> 0.81689865E-04</totfact>
</mgrwt>
</event>
<event>
 6    1  0.3017327E-006  0.1919393E+04  0.7818608E-02  0.8645263E-01
         -2   -1    0    0    0  501 -0.00000000000E+00  0.00000000000E+00  0.81850926094E+03  0.81850926094E+03  0.00000000000E+00 0.  1.
          2   -1    0    0  501    0  0.00000000000E+00 -0.00000000000E+00 -0.11252376505E+04  0.11252376505E+04  0.00000000000E+00 0. -1.
         23    2    1    2    0    0  0.94740111921E+03 -0.13134461283E+03 -0.99257242427E+02  0.96504135568E+03  0.81440346273E+02 0.  0.
         13    1    3    3    0    0  0.54666093184E+03 -0.11013978166E+03 -0.36233681856E+02  0.55882181919E+03  0.00000000000E+00 0.  1.
        -13    1    3    3    0    0  0.40074018737E+03 -0.21204831167E+02 -0.63023560571E+02  0.40621953649E+03  0.00000000000E+00 0. -1.
         22    1    1    2    0    0 -0.94740111921E+03  0.13134461283E+03 -0.20747114714E+03  0.97870555577E+03  0.00000000000E+00 0. -1.
<mgrwt>
<rscale>  0 0.19193931E+04</rscale>
<asrwt>0</asrwt>
<pdfrwt beam="1">  1        2 0.17311348E+00 0.19193931E+04</pdfrwt>
<pdfrwt beam="2">  1       -2 0.12592450E+00 0.19193931E+04</pdfrwt>
<totfact> 0.92531853E+00</totfact>
</mgrwt>
</event>
<event>
 6    1  0.3017327E-006  0.1680177E+04  0.7818608E-02  0.8772751E-01
          2   -1    0    0  501    0  0.00000000000E+00  0.00000000000E+00  0.75052406808E+03  0.75052406808E+03  0.00000000000E+00 0. -1.
         -2   -1    0    0    0  501 -0.00000000000E+00 -0.00000000000E+00 -0.94034161546E+03  0.94034161546E+03  0.00000000000E+00 0.  1.
         23    2    1    2    0    0  0.74197937913E+03  0.15708627460E+03  0.26287335482E+03  0.80761116209E+03  0.89016244302E+02 0.  0.
         13    1    3    3    0    0  0.31531764842E+03  0.75257008835E+02  0.66842736280E+02  0.33099363767E+03  0.00000000000E+00 0.  1.
        -13    1    3    3    0    0  0.42666173070E+03  0.81829265761E+02  0.19603061854E+03  0.47661752442E+03  0.00000000000E+00 0. -1.
         22    1    1    2    0    0 -0.74197937913E+03 -0.15708627460E+03 -0.45269090220E+03  0.88325452145E+03  0.00000000000E+00 0.  1.
<mgrwt>
<rscale>  0 0.16801774E+04</rscale>
<asrwt>0</asrwt>
<pdfrwt beam="1">  1        2 0.11546524E+00 0.16801774E+04</pdfrwt>
<pdfrwt beam="2">  1       -2 0.14466794E+00 0.16801774E+04</pdfrwt>
<totfact> 0.11765718E+01</totfact>
</mgrwt>
</event>
<event>
 6    1  0.3017327E-006  0.9358196E+03  0.7818608E-02  0.9381881E-01
          2   -1    0    0  501    0  0.00000000000E+00  0.00000000000E+00  0.51846647913E+03  0.51846647913E+03  0.00000000000E+00 0. -1.
         -2   -1    0    0    0  501 -0.00000000000E+00 -0.00000000000E+00 -0.42228302030E+03  0.42228302030E+03  0.00000000000E+00 0.  1.
         23    2    1    2    0    0 -0.19931450826E+01  0.12452033030E+03  0.49745079946E+03  0.52060099718E+03  0.89770903365E+02 0.  0.
         13    1    3    3    0    0  0.27560636799E+02  0.92851267049E+02  0.22843278681E+03  0.24811788444E+03  0.00000000000E+00 0. -1.
        -13    1    3    3    0    0 -0.29553781881E+02  0.31669063248E+02  0.26901801266E+03  0.27248311273E+03  0.00000000000E+00 0.  1.
         22    1    1    2    0    0  0.19931450826E+01 -0.12452033030E+03 -0.40126734064E+03  0.42014850226E+03  0.00000000000E+00 0.  1.
<mgrwt>
<rscale>  0 0.93581962E+03</rscale>
<asrwt>0</asrwt>
<pdfrwt beam="1">  1        2 0.79764073E-01 0.93581962E+03</pdfrwt>
<pdfrwt beam="2">  1       -2 0.64966619E-01 0.93581962E+03</pdfrwt>
<totfact> 0.12930397E+02</totfact>
</mgrwt>
</event>
<event>
 6    1  0.3017327E-006  0.1932256E+04  0.7818608E-02  0.8638965E-01
          2   -1    0    0  501    0  0.00000000000E+00  0.00000000000E+00  0.19516234980E+04  0.19516234980E+04  0.00000000000E+00 0. -1.
         -2   -1    0    0    0  501 -0.00000000000E+00 -0.00000000000E+00 -0.47827010940E+03  0.47827010940E+03  0.00000000000E+00 0.  1.
         23    2    1    2    0    0 -0.89509960987E+03 -0.34717025413E+03  0.62864307899E+03  0.11511184105E+04  0.90282763387E+02 0.  0.
         11    1    3    3    0    0 -0.54411974145E+03 -0.18465001737E+03  0.41929490712E+03  0.71131578155E+03  0.00000000000E+00 0.  1.
        -11    1    3    3    0    0 -0.35097986841E+03 -0.16252023676E+03  0.20934817188E+03  0.43980262898E+03  0.00000000000E+00 0. -1.
         22    1    1    2    0    0  0.89509960987E+03  0.34717025413E+03  0.84471030959E+03  0.12787751968E+04  0.00000000000E+00 0.  1.
<mgrwt>
<rscale>  0 0.19322559E+04</rscale>
<asrwt>0</asrwt>
<pdfrwt beam="1">  1        2 0.30024976E+00 0.19322559E+04</pdfrwt>
<pdfrwt beam="2">  1       -2 0.73580018E-01 0.19322559E+04</pdfrwt>
<totfact> 0.11060604E+01</totfact>
</mgrwt>
</event>
<event>
 6    1  0.3017327E-006  0.1149537E+04  0.7818608E-02  0.9158211E-01
          2   -1    0    0  501    0  0.00000000000E+00  0.00000000000E+00  0.93023399367E+03  0.93023399367E+03  0.00000000000E+00 0. -1.
         -2   -1    0    0    0  501 -0.00000000000E+00 -0.00000000000E+00 -0.35513496011E+03  0.35513496011E+03  0.00000000000E+00 0.  1.
         23    2    1    2    0    0 -0.26921275832E+03  0.44858517447E+03  0.54500772890E+03  0.76133684159E+03  0.94319636376E+02 0.  0.
         13    1    3    3    0    0 -0.10507096130E+03  0.15631944238E+03  0.26178340991E+03  0.32249996695E+03  0.00000000000E+00 0. -1.
        -13    1    3    3    0    0 -0.16414179702E+03  0.29226573209E+03  0.28322431899E+03  0.43883687464E+03  0.00000000000E+00 0.  1.
         22    1    1    2    0    0  0.26921275832E+03 -0.44858517447E+03  0.30091304657E+02  0.52403211220E+03  0.00000000000E+00 0. -1.
<mgrwt>
<rscale>  0 0.11495366E+04</rscale>
<asrwt>0</asrwt>
<pdfrwt beam="1">  1        2 0.14311292E+00 0.11495366E+04</pdfrwt>
<pdfrwt beam="2">  1       -2 0.54636148E-01 0.11495366E+04</pdfrwt>
<totfact> 0.87316115E+01</totfact>
</mgrwt>
</event>
<event>
 6    1  0.3017327E-006  0.1032278E+04  0.7818608E-02  0.9273835E-01
         -2   -1    0    0    0  501 -0.00000000000E+00  0.00000000000E+00  0.60016711900E+03  0.60016711900E+03  0.00000000000E+00 0.  1.
          2   -1    0    0  501    0  0.00000000000E+00 -0.00000000000E+00 -0.44387549326E+03  0.44387549326E+03  0.00000000000E+00 0. -1.
         23    2    1    2    0    0  0.10299414004E+03  0.21928740968E+03  0.53501953132E+03  0.59445437020E+03  0.91844098436E+02 0.  0.
         13    1    3    3    0    0  0.72492186309E+02  0.89066363251E+02  0.16520593079E+03  0.20119874181E+03  0.00000000000E+00 0. -1.
        -13    1    3    3    0    0  0.30501953736E+02  0.13022104643E+03  0.36981360053E+03  0.39325562838E+03  0.00000000000E+00 0.  1.
         22    1    1    2    0    0 -0.10299414004E+03 -0.21928740968E+03 -0.37872790559E+03  0.44958824206E+03  0.00000000000E+00 0. -1.
<mgrwt>
<rscale>  0 0.10322780E+04</rscale>
<asrwt>0</asrwt>
<pdfrwt beam="1">  1        2 0.68288537E-01 0.10322780E+04</pdfrwt>
<pdfrwt beam="2">  1       -2 0.92333404E-01 0.10322780E+04</pdfrwt>
<totfact> 0.70162703E+01</totfact>
</mgrwt>
</event>
<event>
 6    1  0.3312645E-006  0.4484026E+04  0.7818608E-02  0.7913439E-01
          2   -1    0    0  501    0  0.00000000000E+00  0.00000000000E+00  0.26310309273E+04  0.26310309273E+04  0.00000000000E+00 0. -1.
         -2   -1    0    0    0  501 -0.00000000000E+00 -0.00000000000E+00 -0.19105142489E+04  0.19105142489E+04  0.00000000000E+00 0.  1.
         23    2    1    2    0    0  0.72009405552E+03  0.96404831329E+03  0.22753282639E+04  0.25754923628E+04  0.90097742488E+02 0.  0.
         11    1    3    3    0    0  0.33521529236E+03  0.45201334849E+03  0.96864757906E+03  0.11202515306E+04  0.00000000000E+00 0.  1.
        -11    1    3    3    0    0  0.38487876316E+03  0.51203496480E+03  0.13066806848E+04  0.14552408322E+04  0.00000000000E+00 0. -1.
         22    1    1    2    0    0 -0.72009405552E+03 -0.96404831329E+03 -0.15548115854E+04  0.19660528135E+04  0.00000000000E+00 0.  1.
<mgrwt>
<rscale>  0 0.44840259E+04</rscale>
<asrwt>0</asrwt>
<pdfrwt beam="1">  1        2 0.40477399E+00 0.44840259E+04</pdfrwt>
<pdfrwt beam="2">  1       -2 0.29392527E+00 0.44840259E+04</pdfrwt>
<totfact> 0.76641621E-02</totfact>
</mgrwt>
</event>
<event>
 6    1  0.3017327E-006  0.4565900E+04  0.7818608E-02  0.7899200E-01
          1   -1    0    0  501    0  0.00000000000E+00  0.00000000000E+00  0.30488245987E+04  0.30488245987E+04  0.00000000000E+00 0. -1.
         -1   -1    0    0    0  501 -0.00000000000E+00 -0.00000000000E+00 -0.17094657595E+04  0.17094657595E+04  0.00000000000E+00 0.  1.
         23    2    1    2    0    0  0.71943046834E+03 -0.35899045291E+03 -0.15557600327E+04  0.17535994214E+04  0.90924733945E+02 0.  0.
         11    1    3    3    0    0  0.48045424433E+03 -0.20218876605E+03 -0.10634428579E+04  0.11843256689E+04  0.00000000000E+00 0.  1.
        -11    1    3    3    0    0  0.23897622401E+03 -0.15680168686E+03 -0.49231717474E+03  0.56927375242E+03  0.00000000000E+00 0. -1.
         22    1    1    2    0    0 -0.71943046834E+03  0.35899045291E+03  0.28951188719E+04  0.30046909369E+04  0.00000000000E+00 0. -1.
<mgrwt>
<rscale>  0 0.45659002E+04</rscale>
<asrwt>0</asrwt>
<pdfrwt beam="1">  1        1 0.46904994E+00 0.45659002E+04</pdfrwt>
<pdfrwt beam="2">  1       -1 0.26299473E+00 0.45659002E+04</pdfrwt>
<totfact> 0.23598407E-02</totfact>
</mgrwt>
</event>
<event>
 6    1  0.3017327E-006  0.3678696E+04  0.7818608E-02  0.8072700E-01
          2   -1    0    0  501    0  0.00000000000E+00  0.00000000000E+00  0.18350223143E+04  0.18350223143E+04  0.00000000000E+00 0. -1.
         -2   -1    0    0    0  501 -0.00000000000E+00 -0.00000000000E+00 -0.18436838206E+04  0.18436838206E+04  0.00000000000E+00 0.  1.
         23    2    1    2    0    0  0.81503089666E+02  0.14466422821E+04  0.11269158359E+04  0.18377953424E+04  0.90198522048E+02 0.  0.
         11    1    3    3    0    0  0.96199145739E+02  0.96056470161E+03  0.75800866835E+03  0.12274021195E+04  0.00000000000E+00 0. -1.
        -11    1    3    3    0    0 -0.14696056073E+02  0.48607758045E+03  0.36890716756E+03  0.61039322290E+03  0.00000000000E+00 0.  1.
         22    1    1    2    0    0 -0.81503089666E+02 -0.14466422821E+04 -0.11355773422E+04  0.18409107925E+04  0.00000000000E+00 0.  1.
<mgrwt>
<rscale>  0 0.36786959E+04</rscale>
<asrwt>0</asrwt>
<pdfrwt beam="1">  1        2 0.28231113E+00 0.36786959E+04</pdfrwt>
<pdfrwt beam="2">  1       -2 0.28364366E+00 0.36786959E+04</pdfrwt>
<totfact> 0.26735022E-01</totfact>
</mgrwt>
</event>
<event>
 6    1  0.3017327E-006  0.1013287E+04  0.7818608E-02  0.9294091E-01
         -2   -1    0    0    0  501 -0.00000000000E+00  0.00000000000E+00  0.57065397625E+02  0.57065397625E+02  0.00000000000E+00 0.  1.
          2   -1    0    0  501    0  0.00000000000E+00 -0.00000000000E+00 -0.44981328921E+04  0.44981328921E+04  0.00000000000E+00 0. -1.
         23    2    1    2    0    0  0.39764016926E+03 -0.12752502986E+03 -0.34955534662E+04  0.35215749951E+04  0.90642561142E+02 0.  0.
         13    1    3    3    0    0  0.30711980082E+02 -0.19703015802E+02 -0.56424036743E+03  0.56541898340E+03  0.00000000000E+00 0. -1.
        -13    1    3    3    0    0  0.36692818918E+03 -0.10782201406E+03 -0.29313130988E+04  0.29561560117E+04  0.00000000000E+00 0.  1.
         22    1    1    2    0    0 -0.39764016926E+03  0.12752502986E+03 -0.94551402831E+03  0.10336232946E+04  0.00000000000E+00 0.  1.
<mgrwt>
<rscale>  0 0.10132872E+04</rscale>
<asrwt>0</asrwt>
<pdfrwt beam="1">  1        2 0.69202046E+00 0.10132872E+04</pdfrwt>
<pdfrwt beam="2">  1       -2 0.87792917E-02 0.10132872E+04</pdfrwt>
<totfact> 0.11313720E+01</totfact>
</mgrwt>
</event>
<event>
 6    1  0.3017327E-006  0.9609657E+03  0.7818608E-02  0.9352424E-01
          4   -1    0    0  501    0  0.00000000000E+00  0.00000000000E+00  0.37979296095E+03  0.37979296095E+03  0.00000000000E+00 0. -1.
         -4   -1    0    0    0  501 -0.00000000000E+00 -0.00000000000E+00 -0.60786740379E+03  0.60786740379E+03  0.00000000000E+00 0.  1.
         23    2    1    2    0    0 -0.30792030896E+03  0.30702134761E+03  0.85991505168E+02  0.45127016697E+03  0.84694746442E+02 0.  0.
         13    1    3    3    0    0 -0.23912675338E+03  0.18784313271E+03  0.43037115217E+02  0.30711372482E+03  0.00000000000E+00 0.  1.
        -13    1    3    3    0    0 -0.68793555587E+02  0.11917821490E+03  0.42954389952E+02  0.14415644215E+03  0.00000000000E+00 0. -1.
         22    1    1    2    0    0  0.30792030896E+03 -0.30702134761E+03 -0.31406594801E+03  0.53639019777E+03  0.00000000000E+00 0.  1.
<mgrwt>
<rscale>  0 0.96096568E+03</rscale>
<asrwt>0</asrwt>
<pdfrwt beam="1">  1        4 0.58429687E-01 0.96096568E+03</pdfrwt>
<pdfrwt beam="2">  1       -4 0.93518061E-01 0.96096568E+03</pdfrwt>
<totfact> 0.53331520E+00</totfact>
</mgrwt>
</event>
<event>
 6    1  0.3017327E-006  0.2216311E+04  0.7818608E-02  0.8511670E-01
          2   -1    0    0  501    0  0.00000000000E+00  0.00000000000E+00  0.17218854580E+04  0.17218854580E+04  0.00000000000E+00 0. -1.
         -2   -1    0    0    0  501 -0.00000000000E+00 -0.00000000000E+00 -0.71317693281E+03  0.71317693281E+03  0.00000000000E+00 0.  1.
         23    2    1    2    0    0  0.93029236876E+03 -0.59123742505E+03  0.60813229888E+03  0.12622593821E+04  0.92023206851E+02 0.  0.
         13    1    3    3    0    0  0.70655632243E+03 -0.47951168545E+03  0.43699921892E+03  0.95922969647E+03  0.00000000000E+00 0.  1.
        -13    1    3    3    0    0  0.22373604633E+03 -0.11172573960E+03  0.17113307996E+03  0.30302968563E+03  0.00000000000E+00 0. -1.
         22    1    1    2    0    0 -0.93029236876E+03  0.59123742505E+03  0.40057622630E+03  0.11728030087E+04  0.00000000000E+00 0. -1.
<mgrwt>
<rscale>  0 0.22163113E+04</rscale>
<asrwt>0</asrwt>
<pdfrwt beam="1">  1        2 0.26490545E+00 0.22163113E+04</pdfrwt>
<pdfrwt beam="2">  1       -2 0.10971953E+00 0.22163113E+04</pdfrwt>
<totfact> 0.57548231E+00</totfact>
</mgrwt>
</event>
<event>
 6    1  0.3017327E-006  0.1641327E+04  0.7818608E-02  0.8795554E-01
          2   -1    0    0  501    0  0.00000000000E+00  0.00000000000E+00  0.11438077263E+04  0.11438077263E+04  0.00000000000E+00 0. -1.
         -2   -1    0    0    0  501 -0.00000000000E+00 -0.00000000000E+00 -0.58881293444E+03  0.58881293444E+03  0.00000000000E+00 0.  1.
         23    2    1    2    0    0  0.58281213259E+03  0.14329902864E+03  0.86531057440E+03  0.10569724694E+04  0.90685265853E+02 0.  0.
         11    1    3    3    0    0  0.56553528262E+03  0.12759210501E+03  0.80286312229E+03  0.99030252664E+03  0.00000000000E+00 0.  1.
        -11    1    3    3    0    0  0.17276849973E+02  0.15706923622E+02  0.62447452109E+02  0.66669942775E+02  0.00000000000E+00 0. -1.
         22    1    1    2    0    0 -0.58281213259E+03 -0.14329902864E+03 -0.31031578256E+03  0.67564819130E+03  0.00000000000E+00 0.  1.
<mgrwt>
<rscale>  0 0.16413272E+04</rscale>
<asrwt>0</asrwt>
<pdfrwt beam="1">  1        2 0.17597042E+00 0.16413272E+04</pdfrwt>
<pdfrwt beam="2">  1       -2 0.90586606E-01 0.16413272E+04</pdfrwt>
<totfact> 0.20383432E+01</totfact>
</mgrwt>
</event>
<event>
 6    1  0.3017327E-006  0.3414137E+04  0.7818608E-02  0.8134445E-01
         -1   -1    0    0    0  501 -0.00000000000E+00  0.00000000000E+00  0.81194289310E+03  0.81194289310E+03  0.00000000000E+00 0.  1.
          1   -1    0    0  501    0  0.00000000000E+00 -0.00000000000E+00 -0.35890233648E+04  0.35890233648E+04  0.00000000000E+00 0. -1.
         23    2    1    2    0    0  0.60881302393E+03  0.41624226378E+03 -0.33723027645E+04  0.34532318552E+04  0.92051018135E+02 0.  0.
         11    1    3    3    0    0  0.26849701465E+03  0.13815130288E+03 -0.12574025543E+04  0.12931502670E+04  0.00000000000E+00 0.  1.
        -11    1    3    3    0    0  0.34031600928E+03  0.27809096089E+03 -0.21149002102E+04  0.21600815882E+04  0.00000000000E+00 0. -1.
         22    1    1    2    0    0 -0.60881302393E+03 -0.41624226378E+03  0.59522229279E+03  0.94773440272E+03  0.00000000000E+00 0.  1.
<mgrwt>
<rscale>  0 0.34141365E+04</rscale>
<asrwt>0</asrwt>
<pdfrwt beam="1">  1        1 0.55215744E+00 0.34141365E+04</pdfrwt>
<pdfrwt beam="2">  1       -1 0.12491429E+00 0.34141365E+04</pdfrwt>
<totfact> 0.97631520E-02</totfact>
</mgrwt>
</event>
<event>
 6    1  0.3017327E-006  0.3508594E+04  0.7818608E-02  0.8111756E-01
         -2   -1    0    0    0  501 -0.00000000000E+00  0.00000000000E+00  0.14980435644E+04  0.14980435644E+04  0.00000000000E+00 0. -1.
          2   -1    0    0  501    0  0.00000000000E+00 -0.00000000000E+00 -0.20543850864E+04  0.20543850864E+04  0.00000000000E+00 0.  1.
         23    2    1    2    0    0 -0.51218319904E+03 -0.16731924512E+04 -0.16859472213E+03  0.17601529497E+04  0.88372042795E+02 0.  0.
         13    1    3    3    0    0 -0.26800511721E+03 -0.98423092572E+03 -0.12811196847E+03  0.10280807042E+04  0.00000000000E+00 0. -1.
        -13    1    3    3    0    0 -0.24417808183E+03 -0.68896152545E+03 -0.40482753666E+02  0.73207224544E+03  0.00000000000E+00 0.  1.
         22    1    1    2    0    0  0.51218319904E+03  0.16731924512E+04 -0.38774679981E+03  0.17922757011E+04  0.00000000000E+00 0.  1.
<mgrwt>
<rscale>  0 0.35085942E+04</rscale>
<asrwt>0</asrwt>
<pdfrwt beam="1">  1        2 0.31605924E+00 0.35085942E+04</pdfrwt>
<pdfrwt beam="2">  1       -2 0.23046824E+00 0.35085942E+04</pdfrwt>
<totfact> 0.43453135E-01</totfact>
</mgrwt>
</event>
<event>
 6    1  0.3017327E-006  0.1196008E+04  0.7818608E-02  0.9116358E-01
         -1   -1    0    0    0  501 -0.00000000000E+00  0.00000000000E+00  0.10893436676E+04  0.10893436676E+04  0.00000000000E+00 0.  1.
          1   -1    0    0  501    0  0.00000000000E+00 -0.00000000000E+00 -0.32827903392E+03  0.32827903392E+03  0.00000000000E+00 0. -1.
         23    2    1    2    0    0 -0.47907879142E+02 -0.49399495258E+03 -0.51527161185E+01  0.50470693037E+03  0.91522439988E+02 0.  0.
         11    1    3    3    0    0 -0.52412402461E+02 -0.16811585570E+03 -0.26588480471E+02  0.17809252697E+03  0.00000000000E+00 0. -1.
        -11    1    3    3    0    0  0.45045233185E+01 -0.32587909688E+03  0.21435764352E+02  0.32661440340E+03  0.00000000000E+00 0.  1.
         22    1    1    2    0    0  0.47907879142E+02  0.49399495258E+03  0.76621734977E+03  0.91291577112E+03  0.00000000000E+00 0.  1.
<mgrwt>
<rscale>  0 0.11960078E+04</rscale>
<asrwt>0</asrwt>
<pdfrwt beam="1">  1        1 0.50504467E-01 0.11960078E+04</pdfrwt>
<pdfrwt beam="2">  1       -1 0.16759133E+00 0.11960078E+04</pdfrwt>
<totfact> 0.19774527E+01</totfact>
</mgrwt>
</event>
<event>
 6    1  0.3017327E-006  0.6242299E+04  0.7818608E-02  0.7661065E-01
         -2   -1    0    0    0  501 -0.00000000000E+00  0.00000000000E+00  0.22270787267E+04  0.22270787267E+04  0.00000000000E+00 0. -1.
          2   -1    0    0  501    0  0.00000000000E+00 -0.00000000000E+00 -0.43741486687E+04  0.43741486687E+04  0.00000000000E+00 0.  1.
         23    2    1    2    0    0 -0.71852148003E+03 -0.13118692730E+04  0.18223447491E+04  0.23593496158E+04  0.91192755446E+02 0.  0.
         13    1    3    3    0    0 -0.14836709334E+03 -0.30273880874E+03  0.46715794996E+03  0.57610774246E+03  0.00000000000E+00 0. -1.
        -13    1    3    3    0    0 -0.57015438669E+03 -0.10091304642E+04  0.13551867991E+04  0.17832418734E+04  0.00000000000E+00 0.  1.
         22    1    1    2    0    0  0.71852148003E+03  0.13118692730E+04 -0.39694146911E+04  0.42418777796E+04  0.00000000000E+00 0.  1.
<mgrwt>
<rscale>  0 0.62422988E+04</rscale>
<asrwt>0</asrwt>
<pdfrwt beam="1">  1        2 0.67294594E+00 0.62422988E+04</pdfrwt>
<pdfrwt beam="2">  1       -2 0.34262750E+00 0.62422988E+04</pdfrwt>
<totfact> 0.18371002E-03</totfact>
</mgrwt>
</event>
<event>
 6    1  0.3017327E-006  0.5766371E+03  0.7818608E-02  0.9955098E-01
          2   -1    0    0  501    0  0.00000000000E+00  0.00000000000E+00  0.31304977974E+03  0.31304977974E+03  0.00000000000E+00 0. -1.
         -2   -1    0    0    0  501 -0.00000000000E+00 -0.00000000000E+00 -0.26554113875E+03  0.26554113875E+03  0.00000000000E+00 0.  1.
         23    2    1    2    0    0  0.27903485898E+03  0.33365987043E+02  0.35790915324E+02  0.29732405818E+03  0.90259981932E+02 0.  0.
         11    1    3    3    0    0  0.17793540096E+03  0.50528468624E+02 -0.95161765399E+01  0.18521525496E+03  0.00000000000E+00 0.  1.
        -11    1    3    3    0    0  0.10109945802E+03 -0.17162481582E+02  0.45307091863E+02  0.11210880322E+03  0.00000000000E+00 0. -1.
         22    1    1    2    0    0 -0.27903485898E+03 -0.33365987043E+02  0.11717725668E+02  0.28126686031E+03  0.00000000000E+00 0. -1.
<mgrwt>
<rscale>  0 0.57663713E+03</rscale>
<asrwt>0</asrwt>
<pdfrwt beam="1">  1        2 0.48161505E-01 0.57663713E+03</pdfrwt>
<pdfrwt beam="2">  1       -2 0.40852483E-01 0.57663713E+03</pdfrwt>
<totfact> 0.59827572E+02</totfact>
</mgrwt>
</event>
<event>
 6    1  0.3017327E-006  0.1561732E+04  0.7818608E-02  0.8844409E-01
          2   -1    0    0  501    0  0.00000000000E+00  0.00000000000E+00  0.50943219572E+03  0.50943219572E+03  0.00000000000E+00 0. -1.
         -2   -1    0    0    0  501 -0.00000000000E+00 -0.00000000000E+00 -0.11969236051E+04  0.11969236051E+04  0.00000000000E+00 0.  1.
         23    2    1    2    0    0  0.52111417474E+03 -0.53053750486E+03 -0.59599606724E+03  0.95708854224E+03  0.88188085042E+02 0.  0.
         11    1    3    3    0    0  0.29490616359E+03 -0.35903351592E+03 -0.38457789368E+03  0.60313751930E+03  0.00000000000E+00 0.  1.
        -11    1    3    3    0    0  0.22620801114E+03 -0.17150398893E+03 -0.21141817356E+03  0.35395102294E+03  0.00000000000E+00 0. -1.
         22    1    1    2    0    0 -0.52111417474E+03  0.53053750486E+03 -0.91495342162E+02  0.74926725860E+03  0.00000000000E+00 0.  1.
<mgrwt>
<rscale>  0 0.15617316E+04</rscale>
<asrwt>0</asrwt>
<pdfrwt beam="1">  1        2 0.78374185E-01 0.15617316E+04</pdfrwt>
<pdfrwt beam="2">  1       -2 0.18414209E+00 0.15617316E+04</pdfrwt>
<totfact> 0.98300287E+00</totfact>
</mgrwt>
</event>
<event>
 6    1  0.3017327E-006  0.2122195E+04  0.7818608E-02  0.8551529E-01
         -2   -1    0    0    0  501 -0.00000000000E+00  0.00000000000E+00  0.28489141180E+03  0.28489141180E+03  0.00000000000E+00 0. -1.
          2   -1    0    0  501    0  0.00000000000E+00 -0.00000000000E+00 -0.39521303189E+04  0.39521303189E+04  0.00000000000E+00 0.  1.
         23    2    1    2    0    0 -0.71400271048E+03  0.76436025216E+03 -0.15028499356E+04  0.18331444282E+04  0.88397397910E+02 0.  0.
         11    1    3    3    0    0 -0.53121088327E+03  0.57708804164E+03 -0.11904553679E+04  0.14256225283E+04  0.00000000000E+00 0.  1.
        -11    1    3    3    0    0 -0.18279182721E+03  0.18727221052E+03 -0.31239456770E+03  0.40752189985E+03  0.00000000000E+00 0. -1.
         22    1    1    2    0    0  0.71400271048E+03 -0.76436025216E+03 -0.21643889715E+04  0.24038773026E+04  0.00000000000E+00 0.  1.
<mgrwt>
<rscale>  0 0.21221951E+04</rscale>
<asrwt>0</asrwt>
<pdfrwt beam="1">  1        2 0.60802002E+00 0.21221951E+04</pdfrwt>
<pdfrwt beam="2">  1       -2 0.43829450E-01 0.21221951E+04</pdfrwt>
<totfact> 0.17111082E+00</totfact>
</mgrwt>
</event>
<event>
 6    1  0.3017327E-006  0.2569209E+04  0.7818608E-02  0.8378736E-01
          2   -1    0    0  501    0  0.00000000000E+00  0.00000000000E+00  0.22687141080E+04  0.22687141080E+04  0.00000000000E+00 0.  1.
         -2   -1    0    0    0  501 -0.00000000000E+00 -0.00000000000E+00 -0.72737637712E+03  0.72737637712E+03  0.00000000000E+00 0. -1.
         23    2    1    2    0    0 -0.54949432946E+03  0.93087710891E+03  0.15780750383E+04  0.19145056111E+04  0.80837482023E+02 0.  0.
         11    1    3    3    0    0 -0.29870775193E+03  0.56089296333E+03  0.97620894520E+03  0.11648223650E+04  0.00000000000E+00 0.  1.
        -11    1    3    3    0    0 -0.25078657752E+03  0.36998414557E+03  0.60186609309E+03  0.74968324608E+03  0.00000000000E+00 0. -1.
         22    1    1    2    0    0  0.54949432946E+03 -0.93087710891E+03 -0.36737307383E+02  0.10815848740E+04  0.00000000000E+00 0. -1.
<mgrwt>
<rscale>  0 0.25692093E+04</rscale>
<asrwt>0</asrwt>
<pdfrwt beam="1">  1        2 0.34903294E+00 0.25692093E+04</pdfrwt>
<pdfrwt beam="2">  1       -2 0.11190406E+00 0.25692093E+04</pdfrwt>
<totfact> 0.26389682E+00</totfact>
</mgrwt>
</event>
<event>
 6    1  0.3017327E-006  0.6739556E+03  0.7818608E-02  0.9762838E-01
         -2   -1    0    0    0  501 -0.00000000000E+00  0.00000000000E+00  0.80118365743E+02  0.80118365743E+02  0.00000000000E+00 0.  1.
          2   -1    0    0  501    0  0.00000000000E+00 -0.00000000000E+00 -0.14173286176E+04  0.14173286176E+04  0.00000000000E+00 0. -1.
         23    2    1    2    0    0 -0.25492602517E+03  0.65960498308E+02 -0.23526139669E+03  0.36447330975E+03  0.90303948453E+02 0.  0.
         11    1    3    3    0    0 -0.21000136601E+03  0.80996894805E+02 -0.21990255165E+03  0.31467157946E+03  0.00000000000E+00 0.  1.
        -11    1    3    3    0    0 -0.44924659152E+02 -0.15036396497E+02 -0.15358845039E+02  0.49801730296E+02  0.00000000000E+00 0. -1.
         22    1    1    2    0    0  0.25492602517E+03 -0.65960498308E+02 -0.11019488552E+04  0.11329736736E+04  0.00000000000E+00 0. -1.
<mgrwt>
<rscale>  0 0.67395564E+03</rscale>
<asrwt>0</asrwt>
<pdfrwt beam="1">  1        2 0.21805055E+00 0.67395564E+03</pdfrwt>
<pdfrwt beam="2">  1       -2 0.12325903E-01 0.67395564E+03</pdfrwt>
<totfact> 0.69844856E+02</totfact>
</mgrwt>
</event>
<event>
 6    1  0.3017327E-006  0.8848740E+03  0.7818608E-02  0.9444690E-01
         -2   -1    0    0    0  501 -0.00000000000E+00  0.00000000000E+00  0.22992062503E+03  0.22992062503E+03  0.00000000000E+00 0.  1.
          2   -1    0    0  501    0  0.00000000000E+00 -0.00000000000E+00 -0.85138298977E+03  0.85138298977E+03  0.00000000000E+00 0. -1.
         23    2    1    2    0    0 -0.35437048595E+03  0.25358409653E+03 -0.37472177516E+03  0.58053994412E+03  0.82017575018E+02 0.  0.
         11    1    3    3    0    0 -0.22199195138E+03  0.11154943145E+03 -0.19290029998E+03  0.31453811831E+03  0.00000000000E+00 0. -1.
        -11    1    3    3    0    0 -0.13237853457E+03  0.14203466508E+03 -0.18182147518E+03  0.26600182581E+03  0.00000000000E+00 0.  1.
         22    1    1    2    0    0  0.35437048595E+03 -0.25358409653E+03 -0.24674058958E+03  0.50076367068E+03  0.00000000000E+00 0.  1.
<mgrwt>
<rscale>  0 0.88487402E+03</rscale>
<asrwt>0</asrwt>
<pdfrwt beam="1">  1        2 0.13098200E+00 0.88487402E+03</pdfrwt>
<pdfrwt beam="2">  1       -2 0.35372403E-01 0.88487402E+03</pdfrwt>
<totfact> 0.23827448E+02</totfact>
</mgrwt>
</event>
<event>
 6    1  0.3017327E-006  0.3874742E+04  0.7818608E-02  0.8030303E-01
          2   -1    0    0  501    0  0.00000000000E+00  0.00000000000E+00  0.21239578788E+04  0.21239578788E+04  0.00000000000E+00 0. -1.
         -2   -1    0    0    0  501 -0.00000000000E+00 -0.00000000000E+00 -0.17671755750E+04  0.17671755750E+04  0.00000000000E+00 0.  1.
         23    2    1    2    0    0 -0.51652969608E+03 -0.13104503195E+04 -0.11557845704E+04  0.18242658926E+04  0.89582962030E+02 0.  0.
         13    1    3    3    0    0 -0.42136046733E+03 -0.98911235006E+03 -0.84909006753E+03  0.13699787689E+04  0.00000000000E+00 0.  1.
        -13    1    3    3    0    0 -0.95169228748E+02 -0.32133796939E+03 -0.30669450291E+03  0.45428712373E+03  0.00000000000E+00 0. -1.
         22    1    1    2    0    0  0.51652969608E+03  0.13104503195E+04  0.15125668742E+04  0.20668675612E+04  0.00000000000E+00 0. -1.
<mgrwt>
<rscale>  0 0.38747420E+04</rscale>
<asrwt>0</asrwt>
<pdfrwt beam="1">  1        2 0.32676275E+00 0.38747420E+04</pdfrwt>
<pdfrwt beam="2">  1       -2 0.27187316E+00 0.38747420E+04</pdfrwt>
<totfact> 0.21434682E-01</totfact>
</mgrwt>
</event>
<event>
 6    1  0.3017327E-006  0.1837922E+04  0.7818608E-02  0.8686389E-01
         -2   -1    0    0    0  501 -0.00000000000E+00  0.00000000000E+00  0.78409018539E+03  0.78409018539E+03  0.00000000000E+00 0.  1.
          2   -1    0    0  501    0  0.00000000000E+00 -0.00000000000E+00 -0.10770304718E+04  0.10770304718E+04  0.00000000000E+00 0. -1.
         23    2    1    2    0    0 -0.20915823901E+03 -0.83468032606E+03 -0.46617519245E+03  0.98336855757E+03  0.96208078100E+02 0.  0.
         13    1    3    3    0    0 -0.80902592012E+02 -0.48375243168E+03 -0.23354131062E+03  0.54323400880E+03  0.00000000000E+00 0. -1.
        -13    1    3    3    0    0 -0.12825564700E+03 -0.35092789439E+03 -0.23263388183E+03  0.44013454877E+03  0.00000000000E+00 0.  1.
         22    1    1    2    0    0  0.20915823901E+03  0.83468032606E+03  0.17323490607E+03  0.87775209960E+03  0.00000000000E+00 0.  1.
<mgrwt>
<rscale>  0 0.18379217E+04</rscale>
<asrwt>0</asrwt>
<pdfrwt beam="1">  1        2 0.16569699E+00 0.18379217E+04</pdfrwt>
<pdfrwt beam="2">  1       -2 0.12062926E+00 0.18379217E+04</pdfrwt>
<totfact> 0.11107380E+01</totfact>
</mgrwt>
</event>
<event>
 6    1  0.3017327E-006  0.2436622E+04  0.7818608E-02  0.8425919E-01
         -2   -1    0    0    0  501 -0.00000000000E+00  0.00000000000E+00  0.47949216439E+03  0.47949216439E+03  0.00000000000E+00 0. -1.
          2   -1    0    0  501    0  0.00000000000E+00 -0.00000000000E+00 -0.30955296150E+04  0.30955296150E+04  0.00000000000E+00 0.  1.
         23    2    1    2    0    0 -0.95380835120E+03 -0.65004990221E+03 -0.18742072074E+04  0.22029330957E+04  0.89142142705E+02 0.  0.
         11    1    3    3    0    0 -0.23870491124E+03 -0.19415672667E+03 -0.44410288370E+03  0.54028163070E+03  0.00000000000E+00 0. -1.
        -11    1    3    3    0    0 -0.71510343996E+03 -0.45589317554E+03 -0.14301043237E+04  0.16626514650E+04  0.00000000000E+00 0.  1.
         22    1    1    2    0    0  0.95380835120E+03  0.65004990221E+03 -0.74183024318E+03  0.13720886837E+04  0.00000000000E+00 0. -1.
<mgrwt>
<rscale>  0 0.24366224E+04</rscale>
<asrwt>0</asrwt>
<pdfrwt beam="1">  1        2 0.47623534E+00 0.24366224E+04</pdfrwt>
<pdfrwt beam="2">  1       -2 0.73768023E-01 0.24366224E+04</pdfrwt>
<totfact> 0.22508197E+00</totfact>
</mgrwt>
</event>
<event>
 6    1  0.3017327E-006  0.4505332E+04  0.7818608E-02  0.7909704E-01
          2   -1    0    0  501    0  0.00000000000E+00  0.00000000000E+00  0.14538437021E+04  0.14538437021E+04  0.00000000000E+00 0. -1.
         -2   -1    0    0    0  501 -0.00000000000E+00 -0.00000000000E+00 -0.34904060469E+04  0.34904060469E+04  0.00000000000E+00 0.  1.
         23    2    1    2    0    0 -0.12862176645E+04  0.17685215853E+04 -0.16079870754E+04  0.27158644054E+04  0.90953591486E+02 0.  0.
         13    1    3    3    0    0 -0.68023153441E+03  0.86076151090E+03 -0.79108655412E+03  0.13525691314E+04  0.00000000000E+00 0.  1.
        -13    1    3    3    0    0 -0.60598613006E+03  0.90776007442E+03 -0.81690052130E+03  0.13632952740E+04  0.00000000000E+00 0. -1.
         22    1    1    2    0    0  0.12862176645E+04 -0.17685215853E+04 -0.42857526940E+03  0.22283853436E+04  0.00000000000E+00 0. -1.
<mgrwt>
<rscale>  0 0.45053323E+04</rscale>
<asrwt>0</asrwt>
<pdfrwt beam="1">  1        2 0.22366826E+00 0.45053323E+04</pdfrwt>
<pdfrwt beam="2">  1       -2 0.53698554E+00 0.45053323E+04</pdfrwt>
<totfact> 0.10276619E-02</totfact>
</mgrwt>
</event>
<event>
 6    1  0.3017327E-006  0.1349746E+04  0.7818608E-02  0.8991020E-01
         -1   -1    0    0    0  501 -0.00000000000E+00  0.00000000000E+00  0.89441421921E+03  0.89441421921E+03  0.00000000000E+00 0.  1.
          1   -1    0    0  501    0  0.00000000000E+00 -0.00000000000E+00 -0.50922007858E+03  0.50922007858E+03  0.00000000000E+00 0. -1.
         23    2    1    2    0    0  0.42517690099E+03  0.44511071798E+03  0.47328587114E+03  0.78181511073E+03  0.91303905483E+02 0.  0.
         11    1    3    3    0    0  0.24948821989E+03  0.21352935238E+03  0.29049472906E+03  0.43843624828E+03  0.00000000000E+00 0. -1.
        -11    1    3    3    0    0  0.17568868110E+03  0.23158136560E+03  0.18279114208E+03  0.34337886245E+03  0.00000000000E+00 0.  1.
         22    1    1    2    0    0 -0.42517690099E+03 -0.44511071798E+03 -0.88091730506E+02  0.62181918705E+03  0.00000000000E+00 0. -1.
<mgrwt>
<rscale>  0 0.13497462E+04</rscale>
<asrwt>0</asrwt>
<pdfrwt beam="1">  1        1 0.78341551E-01 0.13497462E+04</pdfrwt>
<pdfrwt beam="2">  1       -1 0.13760219E+00 0.13497462E+04</pdfrwt>
<totfact> 0.18551482E+01</totfact>
</mgrwt>
</event>
<event>
 6    1  0.3017327E-006  0.1546088E+04  0.7818608E-02  0.8854370E-01
         -2   -1    0    0    0  501 -0.00000000000E+00  0.00000000000E+00  0.35067744930E+03  0.35067744930E+03  0.00000000000E+00 0.  1.
          2   -1    0    0  501    0  0.00000000000E+00 -0.00000000000E+00 -0.17041221524E+04  0.17041221524E+04  0.00000000000E+00 0. -1.
         23    2    1    2    0    0  0.37723623757E+03 -0.52865092397E+03 -0.12297855126E+04  0.13936864693E+04  0.90612303024E+02 0.  0.
         13    1    3    3    0    0  0.17070797596E+03 -0.26994697914E+03 -0.51557597142E+03  0.60649086301E+03  0.00000000000E+00 0.  1.
        -13    1    3    3    0    0  0.20652826161E+03 -0.25870394483E+03 -0.71420954118E+03  0.78719560633E+03  0.00000000000E+00 0. -1.
         22    1    1    2    0    0 -0.37723623757E+03  0.52865092397E+03 -0.12365919045E+03  0.66111313233E+03  0.00000000000E+00 0. -1.
<mgrwt>
<rscale>  0 0.15460882E+04</rscale>
<asrwt>0</asrwt>
<pdfrwt beam="1">  1        2 0.26217263E+00 0.15460882E+04</pdfrwt>
<pdfrwt beam="2">  1       -2 0.53950378E-01 0.15460882E+04</pdfrwt>
<totfact> 0.30391363E+01</totfact>
</mgrwt>
</event>
<event>
 6    1  0.3017327E-006  0.1796119E+04  0.7818608E-02  0.8708366E-01
          1   -1    0    0  501    0  0.00000000000E+00  0.00000000000E+00  0.72699011000E+03  0.72699011000E+03  0.00000000000E+00 0. -1.
         -1   -1    0    0    0  501 -0.00000000000E+00 -0.00000000000E+00 -0.11093831851E+04  0.11093831851E+04  0.00000000000E+00 0.  1.
         23    2    1    2    0    0  0.36324752010E+03  0.24939048416E+03  0.60554071058E+03  0.75463509234E+03  0.93006429808E+02 0.  0.
         11    1    3    3    0    0  0.15834535787E+03  0.15824674465E+03  0.33978946283E+03  0.40690559544E+03  0.00000000000E+00 0.  1.
        -11    1    3    3    0    0  0.20490216223E+03  0.91143739511E+02  0.26575124774E+03  0.34772949690E+03  0.00000000000E+00 0. -1.
         22    1    1    2    0    0 -0.36324752010E+03 -0.24939048416E+03 -0.98793378571E+03  0.10817382028E+04  0.00000000000E+00 0.  1.
<mgrwt>
<rscale>  0 0.17961187E+04</rscale>
<asrwt>0</asrwt>
<pdfrwt beam="1">  1        1 0.11184463E+00 0.17961187E+04</pdfrwt>
<pdfrwt beam="2">  1       -1 0.17067434E+00 0.17961187E+04</pdfrwt>
<totfact> 0.59029891E+00</totfact>
</mgrwt>
</event>
<event>
 6    1  0.3017327E-006  0.3899667E+04  0.7818608E-02  0.8025098E-01
         -2   -1    0    0    0  501 -0.00000000000E+00  0.00000000000E+00  0.21599142648E+04  0.21599142648E+04  0.00000000000E+00 0.  1.
          2   -1    0    0  501    0  0.00000000000E+00 -0.00000000000E+00 -0.17601860348E+04  0.17601860348E+04  0.00000000000E+00 0. -1.
         23    2    1    2    0    0 -0.71488543905E+03  0.39176100410E+03  0.19793157329E+04  0.21425642086E+04  0.91393337759E+02 0.  0.
         11    1    3    3    0    0 -0.44231366767E+03  0.29122375371E+03  0.12554182293E+04  0.13625445262E+04  0.00000000000E+00 0. -1.
        -11    1    3    3    0    0 -0.27257177138E+03  0.10053725039E+03  0.72389750360E+03  0.78001968243E+03  0.00000000000E+00 0.  1.
         22    1    1    2    0    0  0.71488543905E+03 -0.39176100410E+03 -0.15795875030E+04  0.17775360910E+04  0.00000000000E+00 0. -1.
<mgrwt>
<rscale>  0 0.38996671E+04</rscale>
<asrwt>0</asrwt>
<pdfrwt beam="1">  1        2 0.27079785E+00 0.38996671E+04</pdfrwt>
<pdfrwt beam="2">  1       -2 0.33229450E+00 0.38996671E+04</pdfrwt>
<totfact> 0.14502239E-01</totfact>
</mgrwt>
</event>
<event>
 6    1  0.3017327E-006  0.3304963E+04  0.7818608E-02  0.8161634E-01
         -2   -1    0    0    0  501 -0.00000000000E+00  0.00000000000E+00  0.22679070460E+04  0.22679070460E+04  0.00000000000E+00 0.  1.
          2   -1    0    0  501    0  0.00000000000E+00 -0.00000000000E+00 -0.12040597505E+04  0.12040597505E+04  0.00000000000E+00 0. -1.
         23    2    1    2    0    0  0.41440095526E+03  0.14401632902E+04  0.12607445982E+04  0.19604883805E+04  0.90770557700E+02 0.  0.
         13    1    3    3    0    0  0.32722689256E+03  0.10764173482E+04  0.89884996936E+03  0.14400288241E+04  0.00000000000E+00 0. -1.
        -13    1    3    3    0    0  0.87174062700E+02  0.36374594196E+03  0.36189462888E+03  0.52045955646E+03  0.00000000000E+00 0.  1.
         22    1    1    2    0    0 -0.41440095526E+03 -0.14401632902E+04 -0.19689730279E+03  0.15114784160E+04  0.00000000000E+00 0. -1.
<mgrwt>
<rscale>  0 0.33049633E+04</rscale>
<asrwt>0</asrwt>
<pdfrwt beam="1">  1        2 0.18523996E+00 0.33049633E+04</pdfrwt>
<pdfrwt beam="2">  1       -2 0.34890877E+00 0.33049633E+04</pdfrwt>
<totfact> 0.24845483E-01</totfact>
</mgrwt>
</event>
<event>
 6    1  0.3017327E-006  0.1479820E+04  0.7818608E-02  0.8897984E-01
         -2   -1    0    0    0  501 -0.00000000000E+00  0.00000000000E+00  0.24002959492E+03  0.24002959492E+03  0.00000000000E+00 0.  1.
          2   -1    0    0  501    0  0.00000000000E+00 -0.00000000000E+00 -0.22808306457E+04  0.22808306457E+04  0.00000000000E+00 0. -1.
         23    2    1    2    0    0  0.50569444122E+03  0.43663510068E+03 -0.49083389721E+03  0.83302871579E+03  0.81497531582E+02 0.  0.
         13    1    3    3    0    0  0.17789747748E+03  0.20592200544E+03 -0.19163182949E+03  0.33282749720E+03  0.00000000000E+00 0.  1.
        -13    1    3    3    0    0  0.32779696374E+03  0.23071309525E+03 -0.29920206772E+03  0.50020121860E+03  0.00000000000E+00 0. -1.
         22    1    1    2    0    0 -0.50569444122E+03 -0.43663510068E+03 -0.15499671536E+04  0.16878315248E+04  0.00000000000E+00 0. -1.
<mgrwt>
<rscale>  0 0.14798201E+04</rscale>
<asrwt>0</asrwt>
<pdfrwt beam="1">  1        2 0.35089703E+00 0.14798201E+04</pdfrwt>
<pdfrwt beam="2">  1       -2 0.36927629E-01 0.14798201E+04</pdfrwt>
<totfact> 0.31130522E+01</totfact>
</mgrwt>
</event>
<event>
 6    1  0.3017327E-006  0.3392827E+04  0.7818608E-02  0.8139669E-01
          2   -1    0    0  501    0  0.00000000000E+00  0.00000000000E+00  0.24285313610E+04  0.24285313610E+04  0.00000000000E+00 0. -1.
         -2   -1    0    0    0  501 -0.00000000000E+00 -0.00000000000E+00 -0.11850034836E+04  0.11850034836E+04  0.00000000000E+00 0.  1.
         23    2    1    2    0    0 -0.60551024792E+03 -0.46821247652E+03  0.22331473691E+04  0.23624503863E+04  0.91427962814E+02 0.  0.
         11    1    3    3    0    0 -0.25904771881E+03 -0.22875343409E+03  0.11288695577E+04  0.11805847418E+04  0.00000000000E+00 0. -1.
        -11    1    3    3    0    0 -0.34646252911E+03 -0.23945904243E+03  0.11042778114E+04  0.11818656446E+04  0.00000000000E+00 0.  1.
         22    1    1    2    0    0  0.60551024792E+03  0.46821247652E+03 -0.98961949167E+03  0.12510844583E+04  0.00000000000E+00 0.  1.
<mgrwt>
<rscale>  0 0.33928266E+04</rscale>
<asrwt>0</asrwt>
<pdfrwt beam="1">  1        2 0.37362021E+00 0.33928266E+04</pdfrwt>
<pdfrwt beam="2">  1       -2 0.18230823E+00 0.33928266E+04</pdfrwt>
<totfact> 0.55466955E-01</totfact>
</mgrwt>
</event>
<event>
 6    1  0.3017327E-006  0.4138592E+04  0.7818608E-02  0.7977157E-01
          2   -1    0    0  501    0  0.00000000000E+00  0.00000000000E+00  0.23381379094E+04  0.23381379094E+04  0.00000000000E+00 0. -1.
         -2   -1    0    0    0  501 -0.00000000000E+00 -0.00000000000E+00 -0.18313656236E+04  0.18313656236E+04  0.00000000000E+00 0.  1.
         23    2    1    2    0    0  0.11857696392E+04 -0.18339593843E+03  0.19507485990E+04  0.22920714303E+04  0.92128376842E+02 0.  0.
         13    1    3    3    0    0  0.34073701507E+03 -0.74560509798E+02  0.63662756938E+03  0.72591710625E+03  0.00000000000E+00 0.  1.
        -13    1    3    3    0    0  0.84503262415E+03 -0.10883542863E+03  0.13141210296E+04  0.15661543241E+04  0.00000000000E+00 0. -1.
         22    1    1    2    0    0 -0.11857696392E+04  0.18339593843E+03 -0.14439763132E+04  0.18774321028E+04  0.00000000000E+00 0.  1.
<mgrwt>
<rscale>  0 0.41385917E+04</rscale>
<asrwt>0</asrwt>
<pdfrwt beam="1">  1        2 0.35971352E+00 0.41385917E+04</pdfrwt>
<pdfrwt beam="2">  1       -2 0.28174856E+00 0.41385917E+04</pdfrwt>
<totfact> 0.13825467E-01</totfact>
</mgrwt>
</event>
<event>
 6    1  0.3017327E-006  0.3533616E+04  0.7818608E-02  0.8105869E-01
         -2   -1    0    0    0  501 -0.00000000000E+00  0.00000000000E+00  0.12196725609E+04  0.12196725609E+04  0.00000000000E+00 0.  1.
          2   -1    0    0  501    0  0.00000000000E+00 -0.00000000000E+00 -0.25593839917E+04  0.25593839917E+04  0.00000000000E+00 0. -1.
         23    2    1    2    0    0  0.11686432478E+04  0.10018713236E+04 -0.15954049312E+04  0.22186552082E+04  0.87411950245E+02 0.  0.
         11    1    3    3    0    0  0.85976868949E+03  0.76366342034E+03 -0.12367749405E+04  0.16887854430E+04  0.00000000000E+00 0.  1.
        -11    1    3    3    0    0  0.30887455827E+03  0.23820790321E+03 -0.35862999073E+03  0.52986976527E+03  0.00000000000E+00 0. -1.
         22    1    1    2    0    0 -0.11686432478E+04 -0.10018713236E+04  0.25569350042E+03  0.15604013444E+04  0.00000000000E+00 0.  1.
<mgrwt>
<rscale>  0 0.35336160E+04</rscale>
<asrwt>0</asrwt>
<pdfrwt beam="1">  1        2 0.39375138E+00 0.35336160E+04</pdfrwt>
<pdfrwt beam="2">  1       -2 0.18764194E+00 0.35336160E+04</pdfrwt>
<totfact> 0.42347059E-01</totfact>
</mgrwt>
</event>
<event>
 6    1  0.3017327E-006  0.1001025E+04  0.7818608E-02  0.9307421E-01
         -2   -1    0    0    0  501 -0.00000000000E+00  0.00000000000E+00  0.57338018999E+03  0.57338018999E+03  0.00000000000E+00 0.  1.
          2   -1    0    0  501    0  0.00000000000E+00 -0.00000000000E+00 -0.43690515504E+03  0.43690515504E+03  0.00000000000E+00 0. -1.
         23    2    1    2    0    0 -0.28528176732E+03 -0.39583951607E+03 -0.23336910436E+02  0.49685135011E+03  0.90785700804E+02 0.  0.
         11    1    3    3    0    0 -0.21157240822E+03 -0.21832602551E+03 -0.10149268325E+02  0.30419096795E+03  0.00000000000E+00 0.  1.
        -11    1    3    3    0    0 -0.73709359099E+02 -0.17751349056E+03 -0.13187642110E+02  0.19266038216E+03  0.00000000000E+00 0. -1.
         22    1    1    2    0    0  0.28528176732E+03  0.39583951607E+03  0.15981194538E+03  0.51343399491E+03  0.00000000000E+00 0.  1.
<mgrwt>
<rscale>  0 0.10010250E+04</rscale>
<asrwt>0</asrwt>
<pdfrwt beam="1">  1        2 0.67216178E-01 0.10010250E+04</pdfrwt>
<pdfrwt beam="2">  1       -2 0.88212336E-01 0.10010250E+04</pdfrwt>
<totfact> 0.79534917E+01</totfact>
</mgrwt>
</event>
<event>
 6    1  0.3017327E-006  0.2188536E+04  0.7818608E-02  0.8523215E-01
          2   -1    0    0  501    0  0.00000000000E+00  0.00000000000E+00  0.17060056218E+04  0.17060056218E+04  0.00000000000E+00 0. -1.
         -2   -1    0    0    0  501 -0.00000000000E+00 -0.00000000000E+00 -0.70188655320E+03  0.70188655320E+03  0.00000000000E+00 0.  1.
         23    2    1    2    0    0  0.84609657417E+03  0.59607622174E+03  0.88724704873E+03  0.13663330821E+04  0.92046133873E+02 0.  0.
         13    1    3    3    0    0  0.26107333915E+03  0.17468897715E+03  0.32537119997E+03  0.45226313682E+03  0.00000000000E+00 0. -1.
        -13    1    3    3    0    0  0.58502323502E+03  0.42138724459E+03  0.56187584876E+03  0.91406994526E+03  0.00000000000E+00 0.  1.
         22    1    1    2    0    0 -0.84609657417E+03 -0.59607622174E+03  0.11687201983E+03  0.10415590929E+04  0.00000000000E+00 0. -1.
<mgrwt>
<rscale>  0 0.21885360E+04</rscale>
<asrwt>0</asrwt>
<pdfrwt beam="1">  1        2 0.26246240E+00 0.21885360E+04</pdfrwt>
<pdfrwt beam="2">  1       -2 0.10798255E+00 0.21885360E+04</pdfrwt>
<totfact> 0.61182067E+00</totfact>
</mgrwt>
</event>
<event>
 6    1  0.3017327E-006  0.1195660E+04  0.7818608E-02  0.9116664E-01
         -2   -1    0    0    0  501 -0.00000000000E+00  0.00000000000E+00  0.19802001986E+03  0.19802001986E+03  0.00000000000E+00 0. -1.
          2   -1    0    0  501    0  0.00000000000E+00 -0.00000000000E+00 -0.18048722836E+04  0.18048722836E+04  0.00000000000E+00 0.  1.
         23    2    1    2    0    0 -0.20289788758E+03  0.14551299125E+03 -0.17114346384E+04  0.17321912571E+04  0.95584758889E+02 0.  0.
         13    1    3    3    0    0 -0.26314236260E+02  0.67990474018E+02 -0.38960641859E+03  0.39636890013E+03  0.00000000000E+00 0.  1.
        -13    1    3    3    0    0 -0.17658365132E+03  0.77522517237E+02 -0.13218282198E+04  0.13358223569E+04  0.00000000000E+00 0. -1.
         22    1    1    2    0    0  0.20289788758E+03 -0.14551299125E+03  0.10458237468E+03  0.27070104637E+03  0.00000000000E+00 0. -1.
<mgrwt>
<rscale>  0 0.11956602E+04</rscale>
<asrwt>0</asrwt>
<pdfrwt beam="1">  1        2 0.27767265E+00 0.11956602E+04</pdfrwt>
<pdfrwt beam="2">  1       -2 0.30464619E-01 0.11956602E+04</pdfrwt>
<totfact> 0.84355572E+01</totfact>
</mgrwt>
</event>
<event>
 6    1  0.3017327E-006  0.2923383E+04  0.7818608E-02  0.8265954E-01
         -2   -1    0    0    0  501 -0.00000000000E+00  0.00000000000E+00  0.21177322376E+04  0.21177322376E+04  0.00000000000E+00 0.  1.
          2   -1    0    0  501    0  0.00000000000E+00 -0.00000000000E+00 -0.10088822391E+04  0.10088822391E+04  0.00000000000E+00 0. -1.
         23    2    1    2    0    0  0.22578924031E+03 -0.11605606303E+04  0.14715665312E+04  0.18899071383E+04  0.91428541323E+02 0.  0.
         13    1    3    3    0    0  0.18190198523E+03 -0.70163724802E+03  0.89959867912E+03  0.11552752674E+04  0.00000000000E+00 0.  1.
        -13    1    3    3    0    0  0.43887255084E+02 -0.45892338228E+03  0.57196785206E+03  0.73463187090E+03  0.00000000000E+00 0. -1.
         22    1    1    2    0    0 -0.22578924031E+03  0.11605606303E+04 -0.36271653267E+03  0.12367073383E+04  0.00000000000E+00 0. -1.
<mgrwt>
<rscale>  0 0.29233833E+04</rscale>
<asrwt>0</asrwt>
<pdfrwt beam="1">  1        2 0.15521265E+00 0.29233833E+04</pdfrwt>
<pdfrwt beam="2">  1       -2 0.32580496E+00 0.29233833E+04</pdfrwt>
<totfact> 0.47197253E-01</totfact>
</mgrwt>
</event>
<event>
 6    1  0.3017327E-006  0.3297990E+04  0.7818608E-02  0.8163407E-01
         -1   -1    0    0    0  501 -0.00000000000E+00  0.00000000000E+00  0.10735183133E+04  0.10735183133E+04  0.00000000000E+00 0.  1.
          1   -1    0    0  501    0  0.00000000000E+00 -0.00000000000E+00 -0.25329644780E+04  0.25329644780E+04  0.00000000000E+00 0. -1.
         23    2    1    2    0    0  0.22811518500E+03  0.65469096254E+02 -0.25133398364E+04  0.25261982864E+04  0.92075560247E+02 0.  0.
         13    1    3    3    0    0  0.17293612171E+03  0.31101710663E+02 -0.14034956572E+04  0.14144519357E+04  0.00000000000E+00 0. -1.
        -13    1    3    3    0    0  0.55179063291E+02  0.34367385591E+02 -0.11098441792E+04  0.11117463507E+04  0.00000000000E+00 0.  1.
         22    1    1    2    0    0 -0.22811518500E+03 -0.65469096254E+02  0.10538936717E+04  0.10802845049E+04  0.00000000000E+00 0.  1.
<mgrwt>
<rscale>  0 0.32979895E+04</rscale>
<asrwt>0</asrwt>
<pdfrwt beam="1">  1        1 0.38968684E+00 0.32979895E+04</pdfrwt>
<pdfrwt beam="2">  1       -1 0.16515667E+00 0.32979895E+04</pdfrwt>
<totfact> 0.28490467E-01</totfact>
</mgrwt>
</event>
<event>
 6    1  0.3017327E-006  0.2811279E+04  0.7818608E-02  0.8299775E-01
         -2   -1    0    0    0  501 -0.00000000000E+00  0.00000000000E+00  0.61827505740E+03  0.61827505740E+03  0.00000000000E+00 0.  1.
          2   -1    0    0  501    0  0.00000000000E+00 -0.00000000000E+00 -0.31957023788E+04  0.31957023788E+04  0.00000000000E+00 0. -1.
         23    2    1    2    0    0 -0.74204657592E+03  0.43481915766E+03  0.21572435371E+03  0.89141056770E+03  0.91514931674E+02 0.  0.
         13    1    3    3    0    0 -0.38048790004E+03  0.24433118469E+03  0.70169444724E+02  0.45759427538E+03  0.00000000000E+00 0. -1.
        -13    1    3    3    0    0 -0.36155867588E+03  0.19048797297E+03  0.14555490899E+03  0.43381629232E+03  0.00000000000E+00 0.  1.
         22    1    1    2    0    0  0.74204657592E+03 -0.43481915766E+03 -0.27931516751E+04  0.29225668685E+04  0.00000000000E+00 0. -1.
<mgrwt>
<rscale>  0 0.28112795E+04</rscale>
<asrwt>0</asrwt>
<pdfrwt beam="1">  1        2 0.49164652E+00 0.28112795E+04</pdfrwt>
<pdfrwt beam="2">  1       -2 0.95119239E-01 0.28112795E+04</pdfrwt>
<totfact> 0.10539847E+00</totfact>
</mgrwt>
</event>
<event>
 6    1  0.3017327E-006  0.1572934E+04  0.7818608E-02  0.8837350E-01
         -2   -1    0    0    0  501 -0.00000000000E+00  0.00000000000E+00  0.59063223327E+03  0.59063223327E+03  0.00000000000E+00 0.  1.
          2   -1    0    0  501    0  0.00000000000E+00 -0.00000000000E+00 -0.10472346000E+04  0.10472346000E+04  0.00000000000E+00 0. -1.
         23    2    1    2    0    0  0.33726335082E+03  0.51389741157E+03 -0.73572613923E+03  0.96277632243E+03  0.88363893388E+02 0.  0.
         11    1    3    3    0    0  0.15814658763E+03  0.31698176918E+03 -0.44035238924E+03  0.56515308712E+03  0.00000000000E+00 0. -1.
        -11    1    3    3    0    0  0.17911676318E+03  0.19691564239E+03 -0.29537374999E+03  0.39762323531E+03  0.00000000000E+00 0.  1.
         22    1    1    2    0    0 -0.33726335082E+03 -0.51389741157E+03  0.27912377251E+03  0.67509051083E+03  0.00000000000E+00 0.  1.
<mgrwt>
<rscale>  0 0.15729342E+04</rscale>
<asrwt>0</asrwt>
<pdfrwt beam="1">  1        2 0.16111301E+00 0.15729342E+04</pdfrwt>
<pdfrwt beam="2">  1       -2 0.90866498E-01 0.15729342E+04</pdfrwt>
<totfact> 0.23348785E+01</totfact>
</mgrwt>
</event>
<event>
 6    1  0.3017327E-006  0.2303458E+04  0.7818608E-02  0.8476559E-01
          2   -1    0    0  501    0  0.00000000000E+00  0.00000000000E+00  0.21450394186E+04  0.21450394186E+04  0.00000000000E+00 0. -1.
         -2   -1    0    0    0  501 -0.00000000000E+00 -0.00000000000E+00 -0.61839431009E+03  0.61839431009E+03  0.00000000000E+00 0.  1.
         23    2    1    2    0    0  0.64248523949E+03 -0.76656786422E+03  0.14451488313E+04  0.17599123205E+04  0.91775039815E+02 0.  0.
         13    1    3    3    0    0  0.10404605453E+03 -0.13597622530E+03  0.31036849982E+03  0.35446258052E+03  0.00000000000E+00 0.  1.
        -13    1    3    3    0    0  0.53843918496E+03 -0.63059163892E+03  0.11347803314E+04  0.14054497400E+04  0.00000000000E+00 0. -1.
         22    1    1    2    0    0 -0.64248523949E+03  0.76656786422E+03  0.81496277230E+02  0.10035214082E+04  0.00000000000E+00 0.  1.
<mgrwt>
<rscale>  0 0.23034584E+04</rscale>
<asrwt>0</asrwt>
<pdfrwt beam="1">  1        2 0.33000606E+00 0.23034584E+04</pdfrwt>
<pdfrwt beam="2">  1       -2 0.95137587E-01 0.23034584E+04</pdfrwt>
<totfact> 0.46671081E+00</totfact>
</mgrwt>
</event>
<event>
 6    1  0.3017327E-006  0.2069520E+04  0.7818608E-02  0.8574790E-01
          2   -1    0    0  501    0  0.00000000000E+00  0.00000000000E+00  0.47488660204E+03  0.47488660204E+03  0.00000000000E+00 0. -1.
         -2   -1    0    0    0  501 -0.00000000000E+00 -0.00000000000E+00 -0.22547029191E+04  0.22547029191E+04  0.00000000000E+00 0.  1.
         23    2    1    2    0    0  0.77339903545E+03 -0.13170390424E+03 -0.17772650174E+04  0.19450523993E+04  0.95215058505E+02 0.  0.
         11    1    3    3    0    0  0.22571855949E+03 -0.33174010211E+01 -0.44805070860E+03  0.50170639893E+03  0.00000000000E+00 0. -1.
        -11    1    3    3    0    0  0.54768047596E+03 -0.12838650322E+03 -0.13292143088E+04  0.14433460003E+04  0.00000000000E+00 0.  1.
         22    1    1    2    0    0 -0.77339903545E+03  0.13170390424E+03 -0.25512996231E+01  0.78453712185E+03  0.00000000000E+00 0. -1.
<mgrwt>
<rscale>  0 0.20695200E+04</rscale>
<asrwt>0</asrwt>
<pdfrwt beam="1">  1        2 0.73059478E-01 0.20695200E+04</pdfrwt>
<pdfrwt beam="2">  1       -2 0.34687737E+00 0.20695200E+04</pdfrwt>
<totfact> 0.98509083E-01</totfact>
</mgrwt>
</event>
<event>
 6    1  0.3017327E-006  0.3067956E+04  0.7818608E-02  0.8224588E-01
          2   -1    0    0  501    0  0.00000000000E+00  0.00000000000E+00  0.27765408488E+04  0.27765408488E+04  0.00000000000E+00 0. -1.
         -2   -1    0    0    0  501 -0.00000000000E+00 -0.00000000000E+00 -0.84748897948E+03  0.84748897948E+03  0.00000000000E+00 0.  1.
         23    2    1    2    0    0  0.11711087064E+04  0.28803275956E+03 -0.15136976406E+03  0.12193234750E+04  0.96842442187E+02 0.  0.
         13    1    3    3    0    0  0.14991225857E+03  0.40189114921E+02 -0.52482161922E+02  0.16383902938E+03  0.00000000000E+00 0.  1.
        -13    1    3    3    0    0  0.10211964478E+04  0.24784364464E+03 -0.98887602134E+02  0.10554844457E+04  0.00000000000E+00 0. -1.
         22    1    1    2    0    0 -0.11711087064E+04 -0.28803275956E+03  0.20804216334E+04  0.24047063533E+04  0.00000000000E+00 0. -1.
<mgrwt>
<rscale>  0 0.30679555E+04</rscale>
<asrwt>0</asrwt>
<pdfrwt beam="1">  1        2 0.42716013E+00 0.30679555E+04</pdfrwt>
<pdfrwt beam="2">  1       -2 0.13038292E+00 0.30679555E+04</pdfrwt>
<totfact> 0.87632360E-01</totfact>
</mgrwt>
</event>
<event>
 6    1  0.3017327E-006  0.6579650E+04  0.7818608E-02  0.7622411E-01
         -2   -1    0    0    0  501 -0.00000000000E+00  0.00000000000E+00  0.36917607080E+04  0.36917607080E+04  0.00000000000E+00 0.  1.
          2   -1    0    0  501    0  0.00000000000E+00 -0.00000000000E+00 -0.29316491316E+04  0.29316491316E+04  0.00000000000E+00 0. -1.
         23    2    1    2    0    0 -0.12813728956E+04  0.13328915860E+04 -0.23583497236E+04  0.29980384990E+04  0.88909757516E+02 0.  0.
         13    1    3    3    0    0 -0.94735412556E+03  0.93313601905E+03 -0.17216020888E+04  0.21753474255E+04  0.00000000000E+00 0. -1.
        -13    1    3    3    0    0 -0.33401877007E+03  0.39975556693E+03 -0.63674763475E+03  0.82269107349E+03  0.00000000000E+00 0.  1.
         22    1    1    2    0    0  0.12813728956E+04 -0.13328915860E+04  0.31184613000E+04  0.36253713406E+04  0.00000000000E+00 0.  1.
<mgrwt>
<rscale>  0 0.65796496E+04</rscale>
<asrwt>0</asrwt>
<pdfrwt beam="1">  1        2 0.45102294E+00 0.65796496E+04</pdfrwt>
<pdfrwt beam="2">  1       -2 0.56796319E+00 0.65796496E+04</pdfrwt>
<totfact> 0.88212505E-04</totfact>
</mgrwt>
</event>
<event>
 6    1  0.3017327E-006  0.8727323E+03  0.7818608E-02  0.9460324E-01
         -2   -1    0    0    0  501 -0.00000000000E+00  0.00000000000E+00  0.89042775397E+02  0.89042775397E+02  0.00000000000E+00 0.  1.
          2   -1    0    0  501    0  0.00000000000E+00 -0.00000000000E+00 -0.21384713952E+04  0.21384713952E+04  0.00000000000E+00 0. -1.
         23    2    1    2    0    0 -0.33128060486E+03 -0.20849045312E+02 -0.17394858056E+04  0.17733709444E+04  0.94085688107E+02 0.  0.
         11    1    3    3    0    0 -0.33509688701E+02  0.60461380912E+01 -0.37343121815E+03  0.37498043911E+03  0.00000000000E+00 0. -1.
        -11    1    3    3    0    0 -0.29777091616E+03 -0.26895183404E+02 -0.13660545874E+04  0.13983905052E+04  0.00000000000E+00 0.  1.
         22    1    1    2    0    0  0.33128060486E+03  0.20849045312E+02 -0.30994281428E+03  0.45414322628E+03  0.00000000000E+00 0.  1.
<mgrwt>
<rscale>  0 0.87273233E+03</rscale>
<asrwt>0</asrwt>
<pdfrwt beam="1">  1        2 0.32899555E+00 0.87273233E+03</pdfrwt>
<pdfrwt beam="2">  1       -2 0.13698890E-01 0.87273233E+03</pdfrwt>
<totfact> 0.23211609E+02</totfact>
</mgrwt>
</event>
<event>
 6    1  0.3439202E-006  0.1721375E+04  0.7818608E-02  0.8749267E-01
          2   -1    0    0  501    0  0.00000000000E+00  0.00000000000E+00  0.13841763864E+04  0.13841763864E+04  0.00000000000E+00 0. -1.
         -2   -1    0    0    0  501 -0.00000000000E+00 -0.00000000000E+00 -0.53517950598E+03  0.53517950598E+03  0.00000000000E+00 0.  1.
         23    2    1    2    0    0 -0.32136575884E+02  0.26446005876E+03  0.13354955973E+04  0.13646912335E+04  0.88666737657E+02 0.  0.
         13    1    3    3    0    0 -0.49470505093E+02  0.17343994913E+03  0.71921561858E+03  0.74148489724E+03  0.00000000000E+00 0.  1.
        -13    1    3    3    0    0  0.17333929209E+02  0.91020109621E+02  0.61627997871E+03  0.62320633631E+03  0.00000000000E+00 0. -1.
         22    1    1    2    0    0  0.32136575884E+02 -0.26446005876E+03 -0.48649871689E+03  0.55466465880E+03  0.00000000000E+00 0.  1.
<mgrwt>
<rscale>  0 0.17213748E+04</rscale>
<asrwt>0</asrwt>
<pdfrwt beam="1">  1        2 0.21295021E+00 0.17213748E+04</pdfrwt>
<pdfrwt beam="2">  1       -2 0.82335309E-01 0.17213748E+04</pdfrwt>
<totfact> 0.18183409E+01</totfact>
</mgrwt>
</event>
<event>
 6    1  0.3017327E-006  0.3415709E+04  0.7818608E-02  0.8134062E-01
          2   -1    0    0  501    0  0.00000000000E+00  0.00000000000E+00  0.18727161956E+04  0.18727161956E+04  0.00000000000E+00 0. -1.
         -2   -1    0    0    0  501 -0.00000000000E+00 -0.00000000000E+00 -0.15575063205E+04  0.15575063205E+04  0.00000000000E+00 0.  1.
         23    2    1    2    0    0 -0.14151383942E+04  0.56759777447E+03 -0.61218612820E+03  0.16456084807E+04  0.92040795060E+02 0.  0.
         13    1    3    3    0    0 -0.34374816831E+03  0.17379515782E+03 -0.13087897238E+03  0.40681305966E+03  0.00000000000E+00 0.  1.
        -13    1    3    3    0    0 -0.10713902259E+04  0.39380261665E+03 -0.48130715582E+03  0.12387954211E+04  0.00000000000E+00 0. -1.
         22    1    1    2    0    0  0.14151383942E+04 -0.56759777447E+03  0.92739600325E+03  0.17846140353E+04  0.00000000000E+00 0. -1.
<mgrwt>
<rscale>  0 0.34157092E+04</rscale>
<asrwt>0</asrwt>
<pdfrwt beam="1">  1        2 0.28811018E+00 0.34157092E+04</pdfrwt>
<pdfrwt beam="2">  1       -2 0.23961636E+00 0.34157092E+04</pdfrwt>
<totfact> 0.48458440E-01</totfact>
</mgrwt>
</event>
<event>
 6    1  0.3017327E-006  0.1446662E+04  0.7818608E-02  0.8920718E-01
         -2   -1    0    0    0  501 -0.00000000000E+00  0.00000000000E+00  0.18133345912E+04  0.18133345912E+04  0.00000000000E+00 0. -1.
          2   -1    0    0  501    0  0.00000000000E+00 -0.00000000000E+00 -0.28853333403E+03  0.28853333403E+03  0.00000000000E+00 0.  1.
         23    2    1    2    0    0  0.20409460871E+03  0.33213900074E+03 -0.11499534836E+03  0.41636982894E+03  0.90382405296E+02 0.  0.
         13    1    3    3    0    0  0.12734127994E+03  0.27579301547E+03 -0.10105129919E+03  0.32013896050E+03  0.00000000000E+00 0.  1.
        -13    1    3    3    0    0  0.76753328771E+02  0.56345985266E+02 -0.13944049161E+02  0.96230868437E+02  0.00000000000E+00 0. -1.
         22    1    1    2    0    0 -0.20409460871E+03 -0.33213900074E+03  0.16397966055E+04  0.16854980963E+04  0.00000000000E+00 0. -1.
<mgrwt>
<rscale>  0 0.14466616E+04</rscale>
<asrwt>0</asrwt>
<pdfrwt beam="1">  1        2 0.44389745E-01 0.14466616E+04</pdfrwt>
<pdfrwt beam="2">  1       -2 0.27897454E+00 0.14466616E+04</pdfrwt>
<totfact> 0.47652545E+00</totfact>
</mgrwt>
</event>
<event>
 6    1  0.3017327E-006  0.2373020E+04  0.7818608E-02  0.8449674E-01
         -2   -1    0    0    0  501 -0.00000000000E+00  0.00000000000E+00  0.76046060256E+03  0.76046060256E+03  0.00000000000E+00 0.  1.
          2   -1    0    0  501    0  0.00000000000E+00 -0.00000000000E+00 -0.18512542090E+04  0.18512542090E+04  0.00000000000E+00 0. -1.
         23    2    1    2    0    0 -0.51593898934E+03  0.72802991994E+03  0.31155302692E+03  0.94954854876E+03  0.91414182783E+02 0.  0.
         13    1    3    3    0    0 -0.31382884245E+03  0.44874053394E+03  0.14382808471E+03  0.56616528250E+03  0.00000000000E+00 0.  1.
        -13    1    3    3    0    0 -0.20211014689E+03  0.27928938600E+03  0.16772494221E+03  0.38338326626E+03  0.00000000000E+00 0. -1.
         22    1    1    2    0    0  0.51593898934E+03 -0.72802991994E+03 -0.14023466333E+04  0.16621662627E+04  0.00000000000E+00 0. -1.
<mgrwt>
<rscale>  0 0.23730199E+04</rscale>
<asrwt>0</asrwt>
<pdfrwt beam="1">  1        2 0.28480834E+00 0.23730199E+04</pdfrwt>
<pdfrwt beam="2">  1       -2 0.11699394E+00 0.23730199E+04</pdfrwt>
<totfact> 0.41178410E+00</totfact>
</mgrwt>
</event>
<event>
 6    1  0.3017327E-006  0.3922129E+04  0.7818608E-02  0.8020443E-01
         -2   -1    0    0    0  501 -0.00000000000E+00  0.00000000000E+00  0.16137136134E+04  0.16137136134E+04  0.00000000000E+00 0.  1.
          2   -1    0    0  501    0  0.00000000000E+00 -0.00000000000E+00 -0.23831818910E+04  0.23831818910E+04  0.00000000000E+00 0. -1.
         23    2    1    2    0    0  0.24297522702E+03  0.53307723134E+03 -0.22910083907E+04  0.23664683790E+04  0.90801139039E+02 0.  0.
         11    1    3    3    0    0  0.22342868642E+03  0.41624454959E+03 -0.19042904785E+04  0.19620148137E+04  0.00000000000E+00 0. -1.
        -11    1    3    3    0    0  0.19546540599E+02  0.11683268175E+03 -0.38671791225E+03  0.40445356524E+03  0.00000000000E+00 0.  1.
         22    1    1    2    0    0 -0.24297522702E+03 -0.53307723134E+03  0.15215401131E+04  0.16304271254E+04  0.00000000000E+00 0.  1.
<mgrwt>
<rscale>  0 0.39221285E+04</rscale>
<asrwt>0</asrwt>
<pdfrwt beam="1">  1        2 0.36664336E+00 0.39221285E+04</pdfrwt>
<pdfrwt beam="2">  1       -2 0.24826364E+00 0.39221285E+04</pdfrwt>
<totfact> 0.21253640E-01</totfact>
</mgrwt>
</event>
<event>
 6    1  0.3017327E-006  0.2364228E+04  0.7818608E-02  0.8453019E-01
          2   -1    0    0  501    0  0.00000000000E+00  0.00000000000E+00  0.18190912043E+04  0.18190912043E+04  0.00000000000E+00 0. -1.
         -2   -1    0    0    0  501 -0.00000000000E+00 -0.00000000000E+00 -0.76818200212E+03  0.76818200212E+03  0.00000000000E+00 0.  1.
         23    2    1    2    0    0  0.25903192456E+03  0.51458926534E+03 -0.60180421697E+03  0.83702713921E+03  0.80910235861E+02 0.  0.
         13    1    3    3    0    0  0.17905265089E+03  0.28080689523E+03 -0.31416128502E+03  0.45783149433E+03  0.00000000000E+00 0. -1.
        -13    1    3    3    0    0  0.79979273664E+02  0.23378237012E+03 -0.28764293195E+03  0.37919564487E+03  0.00000000000E+00 0.  1.
         22    1    1    2    0    0 -0.25903192456E+03 -0.51458926534E+03  0.16527134192E+04  0.17502460672E+04  0.00000000000E+00 0. -1.
<mgrwt>
<rscale>  0 0.23642277E+04</rscale>
<asrwt>0</asrwt>
<pdfrwt beam="1">  1        2 0.27986018E+00 0.23642277E+04</pdfrwt>
<pdfrwt beam="2">  1       -2 0.11818185E+00 0.23642277E+04</pdfrwt>
<totfact> 0.41886273E+00</totfact>
</mgrwt>
</event>
<event>
 6    1  0.3017327E-006  0.1067303E+04  0.7818608E-02  0.9237660E-01
          2   -1    0    0  501    0  0.00000000000E+00  0.00000000000E+00  0.30626634574E+04  0.30626634574E+04  0.00000000000E+00 0. -1.
         -2   -1    0    0    0  501 -0.00000000000E+00 -0.00000000000E+00 -0.92985653710E+02  0.92985653710E+02  0.00000000000E+00 0.  1.
         23    2    1    2    0    0  0.41657144621E+03 -0.23196604298E+03  0.21788069344E+04  0.22321683334E+04  0.89642603734E+02 0.  0.
         13    1    3    3    0    0  0.49087615909E+02 -0.44022482722E+02  0.44797656616E+03  0.45280302213E+03  0.00000000000E+00 0.  1.
        -13    1    3    3    0    0  0.36748383030E+03 -0.18794356026E+03  0.17308303682E+04  0.17793653113E+04  0.00000000000E+00 0. -1.
         22    1    1    2    0    0 -0.41657144621E+03  0.23196604298E+03  0.79087086932E+03  0.92348077773E+03  0.00000000000E+00 0.  1.
<mgrwt>
<rscale>  0 0.10673027E+04</rscale>
<asrwt>0</asrwt>
<pdfrwt beam="1">  1        2 0.47117891E+00 0.10673027E+04</pdfrwt>
<pdfrwt beam="2">  1       -2 0.14305488E-01 0.10673027E+04</pdfrwt>
<totfact> 0.61492438E+01</totfact>
</mgrwt>
</event>
<event>
 6    1  0.3017327E-006  0.1186969E+04  0.7818608E-02  0.9124340E-01
          1   -1    0    0  501    0  0.00000000000E+00  0.00000000000E+00  0.13158661478E+04  0.13158661478E+04  0.00000000000E+00 0. -1.
         -1   -1    0    0    0  501 -0.00000000000E+00 -0.00000000000E+00 -0.26767453271E+03  0.26767453271E+03  0.00000000000E+00 0.  1.
         23    2    1    2    0    0 -0.16978274003E+03 -0.55799042277E+03  0.41125430161E+03  0.71990381699E+03  0.94614557078E+02 0.  0.
         13    1    3    3    0    0 -0.11859523865E+03 -0.29488793549E+03  0.26935453774E+03  0.41662404171E+03  0.00000000000E+00 0. -1.
        -13    1    3    3    0    0 -0.51187501384E+02 -0.26310248728E+03  0.14189976387E+03  0.30327977528E+03  0.00000000000E+00 0.  1.
         22    1    1    2    0    0  0.16978274003E+03  0.55799042277E+03  0.63693731346E+03  0.86363686350E+03  0.00000000000E+00 0. -1.
<mgrwt>
<rscale>  0 0.11869690E+04</rscale>
<asrwt>0</asrwt>
<pdfrwt beam="1">  1        1 0.20244094E+00 0.11869690E+04</pdfrwt>
<pdfrwt beam="2">  1       -1 0.41180698E-01 0.11869690E+04</pdfrwt>
<totfact> 0.50382978E+01</totfact>
</mgrwt>
</event>
<event>
 6    1  0.3017327E-006  0.3859143E+04  0.7818608E-02  0.8033581E-01
         -2   -1    0    0    0  501 -0.00000000000E+00  0.00000000000E+00  0.21539682177E+04  0.21539682177E+04  0.00000000000E+00 0.  1.
          2   -1    0    0  501    0  0.00000000000E+00 -0.00000000000E+00 -0.17285523283E+04  0.17285523283E+04  0.00000000000E+00 0. -1.
         23    2    1    2    0    0 -0.26546214321E+03  0.74382770358E+03  0.19826568875E+04  0.21364537294E+04  0.98774503191E+02 0.  0.
         13    1    3    3    0    0 -0.22215436444E+03  0.49273423042E+03  0.13071971063E+04  0.14145330884E+04  0.00000000000E+00 0.  1.
        -13    1    3    3    0    0 -0.43307778776E+02  0.25109347316E+03  0.67545978122E+03  0.72192064108E+03  0.00000000000E+00 0. -1.
         22    1    1    2    0    0  0.26546214321E+03 -0.74382770358E+03 -0.15572409981E+04  0.17460668166E+04  0.00000000000E+00 0. -1.
<mgrwt>
<rscale>  0 0.38591433E+04</rscale>
<asrwt>0</asrwt>
<pdfrwt beam="1">  1        2 0.26593113E+00 0.38591433E+04</pdfrwt>
<pdfrwt beam="2">  1       -2 0.33137973E+00 0.38591433E+04</pdfrwt>
<totfact> 0.15351471E-01</totfact>
</mgrwt>
</event>
<event>
 6    1  0.3017327E-006  0.2015747E+04  0.7818608E-02  0.8599294E-01
         -2   -1    0    0    0  501 -0.00000000000E+00  0.00000000000E+00  0.58345175521E+03  0.58345175521E+03  0.00000000000E+00 0.  1.
          2   -1    0    0  501    0  0.00000000000E+00 -0.00000000000E+00 -0.17410330054E+04  0.17410330054E+04  0.00000000000E+00 0. -1.
         23    2    1    2    0    0 -0.47755308297E+03 -0.43987767089E+02  0.43953611454E+03  0.65691894558E+03  0.91425567358E+02 0.  0.
         11    1    3    3    0    0 -0.24805681895E+03 -0.54559713992E+02  0.18621370992E+03  0.31493569753E+03  0.00000000000E+00 0.  1.
        -11    1    3    3    0    0 -0.22949626402E+03  0.10571946904E+02  0.25332240463E+03  0.34198324805E+03  0.00000000000E+00 0. -1.
         22    1    1    2    0    0  0.47755308297E+03  0.43987767089E+02 -0.15971173648E+04  0.16675658151E+04  0.00000000000E+00 0. -1.
<mgrwt>
<rscale>  0 0.20157468E+04</rscale>
<asrwt>0</asrwt>
<pdfrwt beam="1">  1        2 0.26785123E+00 0.20157468E+04</pdfrwt>
<pdfrwt beam="2">  1       -2 0.89761809E-01 0.20157468E+04</pdfrwt>
<totfact> 0.91800020E+00</totfact>
</mgrwt>
</event>
<event>
 6    1  0.3017327E-006  0.1401611E+04  0.7818608E-02  0.8952653E-01
         -1   -1    0    0    0  501 -0.00000000000E+00  0.00000000000E+00  0.38437286297E+03  0.38437286297E+03  0.00000000000E+00 0.  1.
          1   -1    0    0  501    0  0.00000000000E+00 -0.00000000000E+00 -0.12777396478E+04  0.12777396478E+04  0.00000000000E+00 0. -1.
         23    2    1    2    0    0 -0.22205212760E+03 -0.27657290372E+03  0.26369425276E+03  0.45191006359E+03  0.94277930549E+02 0.  0.
         11    1    3    3    0    0 -0.20618500966E+03 -0.22943922211E+03  0.18770296940E+03  0.36109142827E+03  0.00000000000E+00 0.  1.
        -11    1    3    3    0    0 -0.15867117946E+02 -0.47133681610E+02  0.75991283362E+02  0.90818635318E+02  0.00000000000E+00 0. -1.
         22    1    1    2    0    0  0.22205212760E+03  0.27657290372E+03 -0.11570610376E+04  0.12102024472E+04  0.00000000000E+00 0. -1.
<mgrwt>
<rscale>  0 0.14016111E+04</rscale>
<asrwt>0</asrwt>
<pdfrwt beam="1">  1        1 0.19657533E+00 0.14016111E+04</pdfrwt>
<pdfrwt beam="2">  1       -1 0.59134288E-01 0.14016111E+04</pdfrwt>
<totfact> 0.26519443E+01</totfact>
</mgrwt>
</event>
<event>
 6    1  0.3017327E-006  0.3778971E+04  0.7818608E-02  0.8050683E-01
         -2   -1    0    0    0  501 -0.00000000000E+00  0.00000000000E+00  0.12203530009E+04  0.12203530009E+04  0.00000000000E+00 0.  1.
          2   -1    0    0  501    0  0.00000000000E+00 -0.00000000000E+00 -0.29255105390E+04  0.29255105390E+04  0.00000000000E+00 0. -1.
         23    2    1    2    0    0  0.25832205975E+03  0.16234662828E+04 -0.18726451904E+04  0.24934637180E+04  0.90488926466E+02 0.  0.
         11    1    3    3    0    0  0.10624637405E+03  0.80833288820E+03 -0.98821289950E+03  0.12811147821E+04  0.00000000000E+00 0.  1.
        -11    1    3    3    0    0  0.15207568571E+03  0.81513339459E+03 -0.88443229089E+03  0.12123489359E+04  0.00000000000E+00 0. -1.
         22    1    1    2    0    0 -0.25832205975E+03 -0.16234662828E+04  0.16748765231E+03  0.16523998220E+04  0.00000000000E+00 0.  1.
<mgrwt>
<rscale>  0 0.37789711E+04</rscale>
<asrwt>0</asrwt>
<pdfrwt beam="1">  1        2 0.45007855E+00 0.37789711E+04</pdfrwt>
<pdfrwt beam="2">  1       -2 0.18774661E+00 0.37789711E+04</pdfrwt>
<totfact> 0.24966140E-01</totfact>
</mgrwt>
</event>
<event>
 6    1  0.7583425E-006  0.3258923E+04  0.7818608E-02  0.8173427E-01
         -2   -1    0    0    0  501 -0.00000000000E+00  0.00000000000E+00  0.14819904604E+04  0.14819904604E+04  0.00000000000E+00 0.  1.
          2   -1    0    0  501    0  0.00000000000E+00 -0.00000000000E+00 -0.17916071877E+04  0.17916071877E+04  0.00000000000E+00 0. -1.
         23    2    1    2    0    0  0.16074403050E+02  0.12956471459E+04  0.83377075303E+03  0.15455077074E+04  0.12025178596E+03 0.  0.
         11    1    3    3    0    0  0.65970319950E+02  0.59635352827E+03  0.39967368918E+03  0.72092209816E+03  0.00000000000E+00 0. -1.
        -11    1    3    3    0    0 -0.49895916900E+02  0.69929361761E+03  0.43409706384E+03  0.82458560926E+03  0.00000000000E+00 0.  1.
         22    1    1    2    0    0 -0.16074403050E+02 -0.12956471459E+04 -0.11433874803E+04  0.17280899407E+04  0.00000000000E+00 0. -1.
<mgrwt>
<rscale>  0 0.32589230E+04</rscale>
<asrwt>0</asrwt>
<pdfrwt beam="1">  1        2 0.27563187E+00 0.32589230E+04</pdfrwt>
<pdfrwt beam="2">  1       -2 0.22799853E+00 0.32589230E+04</pdfrwt>
<totfact> 0.64327118E-01</totfact>
</mgrwt>
</event>
<event>
 6    1  0.3017327E-006  0.2179748E+04  0.7818608E-02  0.8526905E-01
         -2   -1    0    0    0  501 -0.00000000000E+00  0.00000000000E+00  0.12949534279E+04  0.12949534279E+04  0.00000000000E+00 0.  1.
          2   -1    0    0  501    0  0.00000000000E+00 -0.00000000000E+00 -0.91727235218E+03  0.91727235218E+03  0.00000000000E+00 0. -1.
         23    2    1    2    0    0  0.75539728663E+02 -0.78330484338E+03 -0.57300648542E+03  0.97809468204E+03  0.95184276184E+02 0.  0.
         13    1    3    3    0    0  0.41515874199E+02 -0.98172223203E+02 -0.82624879830E+02  0.13486372376E+03  0.00000000000E+00 0. -1.
        -13    1    3    3    0    0  0.34023854464E+02 -0.68513262017E+03 -0.49038160559E+03  0.84323095828E+03  0.00000000000E+00 0.  1.
         22    1    1    2    0    0 -0.75539728663E+02  0.78330484338E+03  0.95068756111E+03  0.12341310980E+04  0.00000000000E+00 0.  1.
<mgrwt>
<rscale>  0 0.21797477E+04</rscale>
<asrwt>0</asrwt>
<pdfrwt beam="1">  1        2 0.14111882E+00 0.21797477E+04</pdfrwt>
<pdfrwt beam="2">  1       -2 0.19922361E+00 0.21797477E+04</pdfrwt>
<totfact> 0.35159282E+00</totfact>
</mgrwt>
</event>
<event>
 6    1  0.3017327E-006  0.1253093E+04  0.7818608E-02  0.9067613E-01
         -2   -1    0    0    0  501 -0.00000000000E+00  0.00000000000E+00  0.22164189110E+03  0.22164189110E+03  0.00000000000E+00 0.  1.
          2   -1    0    0  501    0  0.00000000000E+00 -0.00000000000E+00 -0.17711468303E+04  0.17711468303E+04  0.00000000000E+00 0. -1.
         23    2    1    2    0    0  0.11657856313E+03  0.61060153588E+03 -0.71076229298E+03  0.94879924655E+03  0.92801811033E+02 0.  0.
         13    1    3    3    0    0  0.10169070187E+03  0.28902163374E+03 -0.35873744684E+03  0.47177013406E+03  0.00000000000E+00 0.  1.
        -13    1    3    3    0    0  0.14887861267E+02  0.32157990214E+03 -0.35202484613E+03  0.47702911249E+03  0.00000000000E+00 0. -1.
         22    1    1    2    0    0 -0.11657856313E+03 -0.61060153588E+03 -0.83874264620E+03  0.10439894748E+04  0.00000000000E+00 0. -1.
<mgrwt>
<rscale>  0 0.12530927E+04</rscale>
<asrwt>0</asrwt>
<pdfrwt beam="1">  1        2 0.27248413E+00 0.12530927E+04</pdfrwt>
<pdfrwt beam="2">  1       -2 0.34098752E-01 0.12530927E+04</pdfrwt>
<totfact> 0.70893165E+01</totfact>
</mgrwt>
</event>
<event>
 6    1  0.3017327E-006  0.9015006E+03  0.7818608E-02  0.9423708E-01
         -2   -1    0    0    0  501 -0.00000000000E+00  0.00000000000E+00  0.67536204047E+03  0.67536204047E+03  0.00000000000E+00 0.  1.
          2   -1    0    0  501    0  0.00000000000E+00 -0.00000000000E+00 -0.30083985010E+03  0.30083985010E+03  0.00000000000E+00 0. -1.
         23    2    1    2    0    0  0.38072357260E+03 -0.85548986322E+02  0.42351916656E+03  0.58292111115E+03  0.90329782361E+02 0.  0.
         11    1    3    3    0    0  0.45010547356E+02 -0.70439889983E+00  0.97211739948E+02  0.10712874467E+03  0.00000000000E+00 0. -1.
        -11    1    3    3    0    0  0.33571302524E+03 -0.84844587423E+02  0.32630742661E+03  0.47579236647E+03  0.00000000000E+00 0.  1.
         22    1    1    2    0    0 -0.38072357260E+03  0.85548986322E+02 -0.48996976189E+02  0.39328077943E+03  0.00000000000E+00 0. -1.
<mgrwt>
<rscale>  0 0.90150056E+03</rscale>
<asrwt>0</asrwt>
<pdfrwt beam="1">  1        2 0.46283054E-01 0.90150056E+03</pdfrwt>
<pdfrwt beam="2">  1       -2 0.10390185E+00 0.90150056E+03</pdfrwt>
<totfact> 0.82774224E+01</totfact>
</mgrwt>
</event>
<event>
 6    1  0.3017327E-006  0.4494052E+04  0.7818608E-02  0.7911679E-01
         -2   -1    0    0    0  501 -0.00000000000E+00  0.00000000000E+00  0.26642612866E+04  0.26642612866E+04  0.00000000000E+00 0.  1.
          2   -1    0    0  501    0  0.00000000000E+00 -0.00000000000E+00 -0.18951315155E+04  0.18951315155E+04  0.00000000000E+00 0. -1.
         23    2    1    2    0    0  0.44427738589E+03 -0.27962003484E+03 -0.18309386736E+04  0.19068608651E+04  0.90621039472E+02 0.  0.
         13    1    3    3    0    0  0.24817830387E+03 -0.17751217096E+03 -0.12046853584E+04  0.12427267817E+04  0.00000000000E+00 0.  1.
        -13    1    3    3    0    0  0.19609908203E+03 -0.10210786388E+03 -0.62625331525E+03  0.66413408338E+03  0.00000000000E+00 0. -1.
         22    1    1    2    0    0 -0.44427738589E+03  0.27962003484E+03  0.26000684447E+04  0.26525319370E+04  0.00000000000E+00 0.  1.
<mgrwt>
<rscale>  0 0.44940519E+04</rscale>
<asrwt>0</asrwt>
<pdfrwt beam="1">  1        2 0.29155869E+00 0.44940519E+04</pdfrwt>
<pdfrwt beam="2">  1       -2 0.40988635E+00 0.44940519E+04</pdfrwt>
<totfact> 0.37038045E-02</totfact>
</mgrwt>
</event>
<event>
 6    1  0.3017327E-006  0.1697121E+04  0.7818608E-02  0.8763008E-01
          2   -1    0    0  501    0  0.00000000000E+00  0.00000000000E+00  0.93503474474E+03  0.93503474474E+03  0.00000000000E+00 0. -1.
         -2   -1    0    0    0  501 -0.00000000000E+00 -0.00000000000E+00 -0.77008353677E+03  0.77008353677E+03  0.00000000000E+00 0.  1.
         23    2    1    2    0    0 -0.42863881857E+03  0.72107326052E+03  0.19443349592E+03  0.86574524815E+03  0.89624586701E+02 0.  0.
         13    1    3    3    0    0 -0.12834825639E+03  0.30081025124E+03  0.80388586951E+02  0.33678243286E+03  0.00000000000E+00 0. -1.
        -13    1    3    3    0    0 -0.30029056218E+03  0.42026300928E+03  0.11404490897E+03  0.52896281529E+03  0.00000000000E+00 0.  1.
         22    1    1    2    0    0  0.42863881857E+03 -0.72107326052E+03 -0.29482287948E+02  0.83937303335E+03  0.00000000000E+00 0.  1.
<mgrwt>
<rscale>  0 0.16971209E+04</rscale>
<asrwt>0</asrwt>
<pdfrwt beam="1">  1        2 0.14385150E+00 0.16971209E+04</pdfrwt>
<pdfrwt beam="2">  1       -2 0.11847439E+00 0.16971209E+04</pdfrwt>
<totfact> 0.14491731E+01</totfact>
</mgrwt>
</event>
<event>
 6    1  0.3017327E-006  0.2305811E+04  0.7818608E-02  0.8475633E-01
          1   -1    0    0  501    0  0.00000000000E+00  0.00000000000E+00  0.80737953528E+03  0.80737953528E+03  0.00000000000E+00 0. -1.
         -1   -1    0    0    0  501 -0.00000000000E+00 -0.00000000000E+00 -0.16463031205E+04  0.16463031205E+04  0.00000000000E+00 0.  1.
         23    2    1    2    0    0  0.11313449748E+04  0.20956259193E+03 -0.45666707786E+03  0.12412561758E+04  0.91181916591E+02 0.  0.
         13    1    3    3    0    0  0.40201167384E+03  0.72611896364E+02 -0.11565435119E+03  0.42457249363E+03  0.00000000000E+00 0. -1.
        -13    1    3    3    0    0  0.72933330099E+03  0.13695069556E+03 -0.34101272667E+03  0.81668368216E+03  0.00000000000E+00 0.  1.
         22    1    1    2    0    0 -0.11313449748E+04 -0.20956259193E+03 -0.38225650739E+03  0.12124264800E+04  0.00000000000E+00 0. -1.
<mgrwt>
<rscale>  0 0.23058113E+04</rscale>
<asrwt>0</asrwt>
<pdfrwt beam="1">  1        1 0.12421224E+00 0.23058113E+04</pdfrwt>
<pdfrwt beam="2">  1       -1 0.25327740E+00 0.23058113E+04</pdfrwt>
<totfact> 0.13060980E+00</totfact>
</mgrwt>
</event>
<event>
 6    1  0.3017327E-006  0.9802306E+03  0.7818608E-02  0.9330497E-01
          2   -1    0    0  501    0  0.00000000000E+00  0.00000000000E+00  0.79167710462E+03  0.79167710462E+03  0.00000000000E+00 0. -1.
         -2   -1    0    0    0  501 -0.00000000000E+00 -0.00000000000E+00 -0.30342298448E+03  0.30342298448E+03  0.00000000000E+00 0.  1.
         23    2    1    2    0    0 -0.34831793387E+03 -0.17772730633E+03 -0.75968917057E+02  0.40861628436E+03  0.91014356115E+02 0.  0.
         13    1    3    3    0    0 -0.21052190888E+03 -0.10637296477E+03 -0.90779874373E+02  0.25273635936E+03  0.00000000000E+00 0. -1.
        -13    1    3    3    0    0 -0.13779602499E+03 -0.71354341561E+02  0.14810957315E+02  0.15587992500E+03  0.00000000000E+00 0.  1.
         22    1    1    2    0    0  0.34831793387E+03  0.17772730633E+03  0.56422303720E+03  0.68648380474E+03  0.00000000000E+00 0. -1.
<mgrwt>
<rscale>  0 0.98023065E+03</rscale>
<asrwt>0</asrwt>
<pdfrwt beam="1">  1        2 0.12179648E+00 0.98023065E+03</pdfrwt>
<pdfrwt beam="2">  1       -2 0.46680459E-01 0.98023065E+03</pdfrwt>
<totfact> 0.15183320E+02</totfact>
</mgrwt>
</event>
<event>
 6    1  0.3198772E-006  0.4260628E+04  0.7818608E-02  0.7953939E-01
         -2   -1    0    0    0  501 -0.00000000000E+00  0.00000000000E+00  0.26040901130E+04  0.26040901130E+04  0.00000000000E+00 0.  1.
          2   -1    0    0  501    0  0.00000000000E+00 -0.00000000000E+00 -0.17427345950E+04  0.17427345950E+04  0.00000000000E+00 0. -1.
         23    2    1    2    0    0 -0.48777891004E+03  0.12076695982E+04 -0.12876332829E+04  0.18339484694E+04  0.94727998163E+02 0.  0.
         11    1    3    3    0    0 -0.52007719928E+02  0.19254565800E+03 -0.16394623216E+03  0.25818017039E+03  0.00000000000E+00 0. -1.
        -11    1    3    3    0    0 -0.43577119011E+03  0.10151239402E+04 -0.11236870508E+04  0.15757682990E+04  0.00000000000E+00 0.  1.
         22    1    1    2    0    0  0.48777891004E+03 -0.12076695982E+04  0.21489888009E+04  0.25128762385E+04  0.00000000000E+00 0.  1.
<mgrwt>
<rscale>  0 0.42606281E+04</rscale>
<asrwt>0</asrwt>
<pdfrwt beam="1">  1        2 0.26811302E+00 0.42606281E+04</pdfrwt>
<pdfrwt beam="2">  1       -2 0.40062925E+00 0.42606281E+04</pdfrwt>
<totfact> 0.52722732E-02</totfact>
</mgrwt>
</event>
<event>
 6    1  0.3017327E-006  0.1307650E+04  0.7818608E-02  0.9023521E-01
          2   -1    0    0  501    0  0.00000000000E+00  0.00000000000E+00  0.23487301550E+04  0.23487301550E+04  0.00000000000E+00 0. -1.
         -2   -1    0    0    0  501 -0.00000000000E+00 -0.00000000000E+00 -0.18200776655E+03  0.18200776655E+03  0.00000000000E+00 0.  1.
         23    2    1    2    0    0  0.12540265413E+03 -0.19456564392E+03  0.22654623346E+04  0.22790810273E+04  0.91154398228E+02 0.  0.
         11    1    3    3    0    0  0.12299937701E+03 -0.11276167629E+03  0.15458538167E+04  0.15548337741E+04  0.00000000000E+00 0. -1.
        -11    1    3    3    0    0  0.24032771232E+01 -0.81803967629E+02  0.71960851781E+03  0.72424725320E+03  0.00000000000E+00 0.  1.
         22    1    1    2    0    0 -0.12540265413E+03  0.19456564392E+03 -0.98739946108E+02  0.25165689424E+03  0.00000000000E+00 0.  1.
<mgrwt>
<rscale>  0 0.13076500E+04</rscale>
<asrwt>0</asrwt>
<pdfrwt beam="1">  1        2 0.36134308E+00 0.13076500E+04</pdfrwt>
<pdfrwt beam="2">  1       -2 0.28001196E-01 0.13076500E+04</pdfrwt>
<totfact> 0.48724830E+01</totfact>
</mgrwt>
</event>
<event>
 6    1  0.3017327E-006  0.3399036E+04  0.7818608E-02  0.8138143E-01
          2   -1    0    0  501    0  0.00000000000E+00  0.00000000000E+00  0.28480803554E+04  0.28480803554E+04  0.00000000000E+00 0.  1.
         -2   -1    0    0    0  501 -0.00000000000E+00 -0.00000000000E+00 -0.10141434231E+04  0.10141434231E+04  0.00000000000E+00 0. -1.
         23    2    1    2    0    0 -0.10936704330E+04  0.15115541551E+03 -0.54863484061E+03  0.12362741924E+04  0.91709949902E+02 0.  0.
         11    1    3    3    0    0 -0.50135547300E+03  0.11538083496E+03 -0.25784227194E+03  0.57545867322E+03  0.00000000000E+00 0.  1.
        -11    1    3    3    0    0 -0.59231495998E+03  0.35774580548E+02 -0.29079256867E+03  0.66081551921E+03  0.00000000000E+00 0. -1.
         22    1    1    2    0    0  0.10936704330E+04 -0.15115541551E+03  0.23825717729E+04  0.26259495860E+04  0.00000000000E+00 0.  1.
<mgrwt>
<rscale>  0 0.33990363E+04</rscale>
<asrwt>0</asrwt>
<pdfrwt beam="1">  1        2 0.43816621E+00 0.33990363E+04</pdfrwt>
<pdfrwt beam="2">  1       -2 0.15602207E+00 0.33990363E+04</pdfrwt>
<totfact> 0.48282099E-01</totfact>
</mgrwt>
</event>
<event>
 6    1  0.3017327E-006  0.2773054E+04  0.7818608E-02  0.8311683E-01
         -2   -1    0    0    0  501 -0.00000000000E+00  0.00000000000E+00  0.20535876236E+04  0.20535876236E+04  0.00000000000E+00 0.  1.
          2   -1    0    0  501    0  0.00000000000E+00 -0.00000000000E+00 -0.93614548540E+03  0.93614548540E+03  0.00000000000E+00 0. -1.
         23    2    1    2    0    0 -0.10739578010E+04  0.75671931713E+03  0.10322409361E+04  0.16731964676E+04  0.89752914534E+02 0.  0.
         13    1    3    3    0    0 -0.36271608690E+03  0.29607464403E+03  0.33284538267E+03  0.57446427504E+03  0.00000000000E+00 0.  1.
        -13    1    3    3    0    0 -0.71124171415E+03  0.46064467310E+03  0.69939555345E+03  0.10987321926E+04  0.00000000000E+00 0. -1.
         22    1    1    2    0    0  0.10739578010E+04 -0.75671931713E+03  0.85201202105E+02  0.13165366414E+04  0.00000000000E+00 0. -1.
<mgrwt>
<rscale>  0 0.27730538E+04</rscale>
<asrwt>0</asrwt>
<pdfrwt beam="1">  1        2 0.14402238E+00 0.27730538E+04</pdfrwt>
<pdfrwt beam="2">  1       -2 0.31593656E+00 0.27730538E+04</pdfrwt>
<totfact> 0.61344758E-01</totfact>
</mgrwt>
</event>
<event>
 6    1  0.3017327E-006  0.1907652E+04  0.7818608E-02  0.8651057E-01
         -2   -1    0    0    0  501 -0.00000000000E+00  0.00000000000E+00  0.31346010463E+03  0.31346010463E+03  0.00000000000E+00 0.  1.
          2   -1    0    0  501    0  0.00000000000E+00 -0.00000000000E+00 -0.29023918871E+04  0.29023918871E+04  0.00000000000E+00 0. -1.
         23    2    1    2    0    0 -0.73418411775E+03 -0.13957715532E+03 -0.30553257277E+03  0.81326587426E+03  0.97688935786E+02 0.  0.
         13    1    3    3    0    0 -0.17643901913E+03 -0.20819208237E+02 -0.30895525561E+02  0.18032942190E+03  0.00000000000E+00 0.  1.
        -13    1    3    3    0    0 -0.55774509861E+03 -0.11875794708E+03 -0.27463704721E+03  0.63293645236E+03  0.00000000000E+00 0. -1.
         22    1    1    2    0    0  0.73418411775E+03  0.13957715532E+03 -0.22833992097E+04  0.24025861174E+04  0.00000000000E+00 0. -1.
<mgrwt>
<rscale>  0 0.19076520E+04</rscale>
<asrwt>0</asrwt>
<pdfrwt beam="1">  1        2 0.44652185E+00 0.19076520E+04</pdfrwt>
<pdfrwt beam="2">  1       -2 0.48224630E-01 0.19076520E+04</pdfrwt>
<totfact> 0.76526736E+00</totfact>
</mgrwt>
</event>
<event>
 6    1  0.3017327E-006  0.2975647E+04  0.7818608E-02  0.8250719E-01
         -2   -1    0    0    0  501 -0.00000000000E+00  0.00000000000E+00  0.16313619681E+04  0.16313619681E+04  0.00000000000E+00 0.  1.
          2   -1    0    0  501    0  0.00000000000E+00 -0.00000000000E+00 -0.13569143104E+04  0.13569143104E+04  0.00000000000E+00 0. -1.
         23    2    1    2    0    0 -0.56182674556E+03 -0.17208531782E+03  0.15073891404E+04  0.16224771173E+04  0.12225926148E+03 0.  0.
         13    1    3    3    0    0 -0.42189816876E+02 -0.34056157205E+02  0.23466079393E+03  0.24084329075E+03  0.00000000000E+00 0. -1.
        -13    1    3    3    0    0 -0.51963692869E+03 -0.13802916062E+03  0.12727283465E+04  0.13816338266E+04  0.00000000000E+00 0.  1.
         22    1    1    2    0    0  0.56182674556E+03  0.17208531782E+03 -0.12329414827E+04  0.13657991611E+04  0.00000000000E+00 0. -1.
<mgrwt>
<rscale>  0 0.29756468E+04</rscale>
<asrwt>0</asrwt>
<pdfrwt beam="1">  1        2 0.20875605E+00 0.29756468E+04</pdfrwt>
<pdfrwt beam="2">  1       -2 0.25097877E+00 0.29756468E+04</pdfrwt>
<totfact> 0.83282163E-01</totfact>
</mgrwt>
</event>
<event>
 6    1  0.3017327E-006  0.1415401E+04  0.7818608E-02  0.8942745E-01
         -2   -1    0    0    0  501 -0.00000000000E+00  0.00000000000E+00  0.11765183003E+03  0.11765183003E+03  0.00000000000E+00 0.  1.
          2   -1    0    0  501    0  0.00000000000E+00 -0.00000000000E+00 -0.42569683112E+04  0.42569683112E+04  0.00000000000E+00 0. -1.
         23    2    1    2    0    0  0.11531250313E+01  0.55453760422E+03 -0.34224136103E+04  0.34682741750E+04  0.92182151052E+02 0.  0.
         13    1    3    3    0    0  0.45858549020E+02  0.29363319242E+03 -0.17585302620E+04  0.17834663273E+04  0.00000000000E+00 0.  1.
        -13    1    3    3    0    0 -0.44705423988E+02  0.26090441180E+03 -0.16638833483E+04  0.16848078478E+04  0.00000000000E+00 0. -1.
         22    1    1    2    0    0 -0.11531250313E+01 -0.55453760422E+03 -0.71690287084E+03  0.90634596618E+03  0.00000000000E+00 0.  1.
<mgrwt>
<rscale>  0 0.14154012E+04</rscale>
<asrwt>0</asrwt>
<pdfrwt beam="1">  1        2 0.65491797E+00 0.14154012E+04</pdfrwt>
<pdfrwt beam="2">  1       -2 0.18100288E-01 0.14154012E+04</pdfrwt>
<totfact> 0.53045317E+00</totfact>
</mgrwt>
</event>
<event>
 6    1  0.3017327E-006  0.2817152E+04  0.7818608E-02  0.8297963E-01
         -2   -1    0    0    0  501 -0.00000000000E+00  0.00000000000E+00  0.93891980048E+03  0.93891980048E+03  0.00000000000E+00 0. -1.
          2   -1    0    0  501    0  0.00000000000E+00 -0.00000000000E+00 -0.21131584027E+04  0.21131584027E+04  0.00000000000E+00 0.  1.
         23    2    1    2    0    0 -0.10125461730E+04  0.90940691055E+03 -0.20060414328E+03  0.13786880093E+04  0.90928120863E+02 0.  0.
         13    1    3    3    0    0 -0.24382551958E+03  0.17363536794E+03 -0.27287892271E+02  0.30057404090E+03  0.00000000000E+00 0. -1.
        -13    1    3    3    0    0 -0.76872065342E+03  0.73577154262E+03 -0.17331625101E+03  0.10781139684E+04  0.00000000000E+00 0.  1.
         22    1    1    2    0    0  0.10125461730E+04 -0.90940691055E+03 -0.97363445892E+03  0.16733901939E+04  0.00000000000E+00 0.  1.
<mgrwt>
<rscale>  0 0.28171519E+04</rscale>
<asrwt>0</asrwt>
<pdfrwt beam="1">  1        2 0.32510129E+00 0.28171519E+04</pdfrwt>
<pdfrwt beam="2">  1       -2 0.14444920E+00 0.28171519E+04</pdfrwt>
<totfact> 0.16614578E+00</totfact>
</mgrwt>
</event>
<event>
 6    1  0.3017327E-006  0.4630427E+04  0.7818608E-02  0.7888193E-01
          2   -1    0    0  501    0  0.00000000000E+00  0.00000000000E+00  0.39092390704E+04  0.39092390704E+04  0.00000000000E+00 0. -1.
         -2   -1    0    0    0  501 -0.00000000000E+00 -0.00000000000E+00 -0.13711651772E+04  0.13711651772E+04  0.00000000000E+00 0.  1.
         23    2    1    2    0    0  0.22026551844E+04  0.47538645531E+03  0.66766529587E+03  0.23519045524E+04  0.89419980845E+02 0.  0.
         13    1    3    3    0    0  0.12904352721E+04  0.24639311211E+03  0.42135284474E+03  0.13796633564E+04  0.00000000000E+00 0. -1.
        -13    1    3    3    0    0  0.91221991230E+03  0.22899334320E+03  0.24631245113E+03  0.97224119601E+03  0.00000000000E+00 0.  1.
         22    1    1    2    0    0 -0.22026551844E+04 -0.47538645531E+03  0.18704085974E+04  0.29284996952E+04  0.00000000000E+00 0.  1.
<mgrwt>
<rscale>  0 0.46304265E+04</rscale>
<asrwt>0</asrwt>
<pdfrwt beam="1">  1        2 0.60142139E+00 0.46304265E+04</pdfrwt>
<pdfrwt beam="2">  1       -2 0.21094849E+00 0.46304265E+04</pdfrwt>
<totfact> 0.34092853E-02</totfact>
</mgrwt>
</event>
<event>
 6    1  0.3017327E-006  0.1638539E+04  0.7818608E-02  0.8797216E-01
         -2   -1    0    0    0  501 -0.00000000000E+00  0.00000000000E+00  0.13039965855E+03  0.13039965855E+03  0.00000000000E+00 0.  1.
          2   -1    0    0  501    0  0.00000000000E+00 -0.00000000000E+00 -0.51472697034E+04  0.51472697034E+04  0.00000000000E+00 0. -1.
         23    2    1    2    0    0  0.21302444908E+03  0.23098106990E+03 -0.49443656176E+04  0.49551967855E+04  0.92152873004E+02 0.  0.
         11    1    3    3    0    0  0.12703163127E+03  0.19283711673E+03 -0.32222245654E+04  0.32304882508E+04  0.00000000000E+00 0. -1.
        -11    1    3    3    0    0  0.85992817810E+02  0.38143953175E+02 -0.17221410522E+04  0.17247085347E+04  0.00000000000E+00 0.  1.
         22    1    1    2    0    0 -0.21302444908E+03 -0.23098106990E+03 -0.72504427195E+02  0.32247257639E+03  0.00000000000E+00 0.  1.
<mgrwt>
<rscale>  0 0.16385386E+04</rscale>
<asrwt>0</asrwt>
<pdfrwt beam="1">  1        2 0.79188768E+00 0.16385386E+04</pdfrwt>
<pdfrwt beam="2">  1       -2 0.20061485E-01 0.16385386E+04</pdfrwt>
<totfact> 0.46693109E-01</totfact>
</mgrwt>
</event>
<event>
 6    1  0.3017327E-006  0.1291476E+04  0.7818608E-02  0.9036352E-01
          2   -1    0    0  501    0  0.00000000000E+00  0.00000000000E+00  0.11040769904E+04  0.11040769904E+04  0.00000000000E+00 0. -1.
         -2   -1    0    0    0  501 -0.00000000000E+00 -0.00000000000E+00 -0.37767065786E+03  0.37767065786E+03  0.00000000000E+00 0.  1.
         23    2    1    2    0    0  0.25272297824E+03  0.31912038468E+03  0.93600639990E+03  0.10238842277E+04  0.80772565654E+02 0.  0.
         11    1    3    3    0    0  0.90920102194E+02  0.14013155902E+03  0.29561083391E+03  0.33954246265E+03  0.00000000000E+00 0. -1.
        -11    1    3    3    0    0  0.16180287605E+03  0.17898882565E+03  0.64039556599E+03  0.68434176502E+03  0.00000000000E+00 0.  1.
         22    1    1    2    0    0 -0.25272297824E+03 -0.31912038468E+03 -0.20960006738E+03  0.45786342057E+03  0.00000000000E+00 0.  1.
<mgrwt>
<rscale>  0 0.12914759E+04</rscale>
<asrwt>0</asrwt>
<pdfrwt beam="1">  1        2 0.16985800E+00 0.12914759E+04</pdfrwt>
<pdfrwt beam="2">  1       -2 0.58103179E-01 0.12914759E+04</pdfrwt>
<totfact> 0.58878168E+01</totfact>
</mgrwt>
</event>
<event>
 6    1  0.3017327E-006  0.1817189E+04  0.7818608E-02  0.8697212E-01
          2   -1    0    0  501    0  0.00000000000E+00  0.00000000000E+00  0.10210476934E+04  0.10210476934E+04  0.00000000000E+00 0. -1.
         -2   -1    0    0    0  501 -0.00000000000E+00 -0.00000000000E+00 -0.80852637503E+03  0.80852637503E+03  0.00000000000E+00 0.  1.
         23    2    1    2    0    0  0.10183754557E+03 -0.29277607624E+03  0.96395059909E+03  0.10167181891E+04  0.91795435876E+02 0.  0.
         13    1    3    3    0    0  0.89225067984E+01 -0.16527563950E+03  0.49009356776E+03  0.51728846237E+03  0.00000000000E+00 0.  1.
        -13    1    3    3    0    0  0.92915038771E+02 -0.12750043674E+03  0.47385703134E+03  0.49942972673E+03  0.00000000000E+00 0. -1.
         22    1    1    2    0    0 -0.10183754557E+03  0.29277607624E+03 -0.75142928077E+03  0.81285587929E+03  0.00000000000E+00 0.  1.
<mgrwt>
<rscale>  0 0.18171890E+04</rscale>
<asrwt>0</asrwt>
<pdfrwt beam="1">  1        2 0.15708426E+00 0.18171890E+04</pdfrwt>
<pdfrwt beam="2">  1       -2 0.12438867E+00 0.18171890E+04</pdfrwt>
<totfact> 0.11175530E+01</totfact>
</mgrwt>
</event>
<event>
 6    1  0.3017327E-006  0.2012680E+04  0.7818608E-02  0.8600715E-01
          2   -1    0    0  501    0  0.00000000000E+00  0.00000000000E+00  0.28335987817E+04  0.28335987817E+04  0.00000000000E+00 0. -1.
         -2   -1    0    0    0  501 -0.00000000000E+00 -0.00000000000E+00 -0.35739713669E+03  0.35739713669E+03  0.00000000000E+00 0.  1.
         23    2    1    2    0    0 -0.56937357937E+03 -0.82015079826E+03  0.10682256332E+04  0.14649512913E+04  0.90236787199E+02 0.  0.
         13    1    3    3    0    0 -0.16074902908E+03 -0.19589795546E+03  0.22327918585E+03  0.33774228952E+03  0.00000000000E+00 0.  1.
        -13    1    3    3    0    0 -0.40862455030E+03 -0.62425284281E+03  0.84494644733E+03  0.11272090018E+04  0.00000000000E+00 0. -1.
         22    1    1    2    0    0  0.56937357937E+03  0.82015079826E+03  0.14079760118E+04  0.17260446271E+04  0.00000000000E+00 0.  1.
<mgrwt>
<rscale>  0 0.20126799E+04</rscale>
<asrwt>0</asrwt>
<pdfrwt beam="1">  1        2 0.43593826E+00 0.20126799E+04</pdfrwt>
<pdfrwt beam="2">  1       -2 0.54984177E-01 0.20126799E+04</pdfrwt>
<totfact> 0.63800308E+00</totfact>
</mgrwt>
</event>
<event>
 6    1  0.3017327E-006  0.3345330E+04  0.7818608E-02  0.8151456E-01
          2   -1    0    0  501    0  0.00000000000E+00  0.00000000000E+00  0.25339456364E+04  0.25339456364E+04  0.00000000000E+00 0. -1.
         -2   -1    0    0    0  501 -0.00000000000E+00 -0.00000000000E+00 -0.11041311247E+04  0.11041311247E+04  0.00000000000E+00 0.  1.
         23    2    1    2    0    0  0.34045900133E+02 -0.14680387892E+04  0.15836592210E+04  0.21616062384E+04  0.90928498602E+02 0.  0.
         11    1    3    3    0    0 -0.13535731002E+02 -0.29433713231E+03  0.27444825759E+03  0.40266538163E+03  0.00000000000E+00 0.  1.
        -11    1    3    3    0    0  0.47581631135E+02 -0.11737016569E+04  0.13092109634E+04  0.17589408568E+04  0.00000000000E+00 0. -1.
         22    1    1    2    0    0 -0.34045900133E+02  0.14680387892E+04 -0.15384470927E+03  0.14764705227E+04  0.00000000000E+00 0.  1.
<mgrwt>
<rscale>  0 0.33453300E+04</rscale>
<asrwt>0</asrwt>
<pdfrwt beam="1">  1        2 0.38983779E+00 0.33453300E+04</pdfrwt>
<pdfrwt beam="2">  1       -2 0.16986633E+00 0.33453300E+04</pdfrwt>
<totfact> 0.59115299E-01</totfact>
</mgrwt>
</event>
<event>
 6    1  0.3017327E-006  0.7318280E+03  0.7818608E-02  0.9664299E-01
          2   -1    0    0  501    0  0.00000000000E+00  0.00000000000E+00  0.92763765113E+03  0.92763765113E+03  0.00000000000E+00 0. -1.
         -2   -1    0    0    0  501 -0.00000000000E+00 -0.00000000000E+00 -0.14433765267E+03  0.14433765267E+03  0.00000000000E+00 0.  1.
         23    2    1    2    0    0  0.14270963416E+03  0.63382719834E+02 -0.78477564581E+02  0.19616483515E+03  0.89098291515E+02 0.  0.
         11    1    3    3    0    0  0.57218553938E+01  0.17268231024E+02 -0.43936540691E+02  0.47553664840E+02  0.00000000000E+00 0. -1.
        -11    1    3    3    0    0  0.13698777876E+03  0.46114488810E+02 -0.34541023890E+02  0.14861117031E+03  0.00000000000E+00 0.  1.
         22    1    1    2    0    0 -0.14270963416E+03 -0.63382719834E+02  0.86177756304E+03  0.87581046866E+03  0.00000000000E+00 0. -1.
<mgrwt>
<rscale>  0 0.73182796E+03</rscale>
<asrwt>0</asrwt>
<pdfrwt beam="1">  1        2 0.14271348E+00 0.73182796E+03</pdfrwt>
<pdfrwt beam="2">  1       -2 0.22205793E-01 0.73182796E+03</pdfrwt>
<totfact> 0.50121202E+02</totfact>
</mgrwt>
</event>
<event>
 6    1  0.3017327E-006  0.3921950E+04  0.7818608E-02  0.8020479E-01
          2   -1    0    0  501    0  0.00000000000E+00  0.00000000000E+00  0.17916012328E+04  0.17916012328E+04  0.00000000000E+00 0. -1.
         -2   -1    0    0    0  501 -0.00000000000E+00 -0.00000000000E+00 -0.21463609208E+04  0.21463609208E+04  0.00000000000E+00 0.  1.
         23    2    1    2    0    0 -0.10856405004E+03  0.14959577117E+04 -0.14441889662E+04  0.20841736596E+04  0.91773880324E+02 0.  0.
         11    1    3    3    0    0 -0.29555245538E+02  0.94171812697E+03 -0.87559399177E+03  0.12862236904E+04  0.00000000000E+00 0.  1.
        -11    1    3    3    0    0 -0.79008804500E+02  0.55423958475E+03 -0.56859497442E+03  0.79794996926E+03  0.00000000000E+00 0. -1.
         22    1    1    2    0    0  0.10856405004E+03 -0.14959577117E+04  0.10894292782E+04  0.18537884940E+04  0.00000000000E+00 0. -1.
<mgrwt>
<rscale>  0 0.39219500E+04</rscale>
<asrwt>0</asrwt>
<pdfrwt beam="1">  1        2 0.27563096E+00 0.39219500E+04</pdfrwt>
<pdfrwt beam="2">  1       -2 0.33020937E+00 0.39219500E+04</pdfrwt>
<totfact> 0.14328089E-01</totfact>
</mgrwt>
</event>
<event>
 6    1  0.3017327E-006  0.2777341E+04  0.7818608E-02  0.8310338E-01
          2   -1    0    0  501    0  0.00000000000E+00  0.00000000000E+00  0.18882114236E+04  0.18882114236E+04  0.00000000000E+00 0.  1.
         -2   -1    0    0    0  501 -0.00000000000E+00 -0.00000000000E+00 -0.10212872884E+04  0.10212872884E+04  0.00000000000E+00 0. -1.
         23    2    1    2    0    0 -0.87060181642E+03  0.94772171924E+03 -0.10840462665E+03  0.12947571929E+04  0.92307343402E+02 0.  0.
         11    1    3    3    0    0 -0.55876520774E+03  0.65390335825E+03 -0.41583809903E+02  0.86112564272E+03  0.00000000000E+00 0.  1.
        -11    1    3    3    0    0 -0.31183660868E+03  0.29381836099E+03 -0.66820816743E+02  0.43363155019E+03  0.00000000000E+00 0. -1.
         22    1    1    2    0    0  0.87060181642E+03 -0.94772171924E+03  0.97532876187E+03  0.16147415191E+04  0.00000000000E+00 0.  1.
<mgrwt>
<rscale>  0 0.27773414E+04</rscale>
<asrwt>0</asrwt>
<pdfrwt beam="1">  1        2 0.29049407E+00 0.27773414E+04</pdfrwt>
<pdfrwt beam="2">  1       -2 0.15712112E+00 0.27773414E+04</pdfrwt>
<totfact> 0.17785922E+00</totfact>
</mgrwt>
</event>
<event>
 6    1  0.3017327E-006  0.2629160E+04  0.7818608E-02  0.8358363E-01
         -2   -1    0    0    0  501 -0.00000000000E+00  0.00000000000E+00  0.76313964688E+03  0.76313964688E+03  0.00000000000E+00 0.  1.
          2   -1    0    0  501    0  0.00000000000E+00 -0.00000000000E+00 -0.22644872381E+04  0.22644872381E+04  0.00000000000E+00 0. -1.
         23    2    1    2    0    0 -0.85870783912E+03  0.81955708993E+03 -0.13978151264E+04  0.18360850486E+04  0.90929651359E+02 0.  0.
         11    1    3    3    0    0 -0.19645214724E+02  0.40071835442E+02 -0.41780570248E+02  0.61133481067E+02  0.00000000000E+00 0. -1.
        -11    1    3    3    0    0 -0.83906262440E+03  0.77948525449E+03 -0.13560345561E+04  0.17749515675E+04  0.00000000000E+00 0.  1.
         22    1    1    2    0    0  0.85870783912E+03 -0.81955708993E+03 -0.10353246486E+03  0.11915418364E+04  0.00000000000E+00 0.  1.
<mgrwt>
<rscale>  0 0.26291596E+04</rscale>
<asrwt>0</asrwt>
<pdfrwt beam="1">  1        2 0.34838265E+00 0.26291596E+04</pdfrwt>
<pdfrwt beam="2">  1       -2 0.11740610E+00 0.26291596E+04</pdfrwt>
<totfact> 0.23484019E+00</totfact>
</mgrwt>
</event>
<event>
 6    1  0.3017327E-006  0.2899301E+04  0.7818608E-02  0.8273085E-01
         -2   -1    0    0    0  501 -0.00000000000E+00  0.00000000000E+00  0.12870965209E+04  0.12870965209E+04  0.00000000000E+00 0.  1.
          2   -1    0    0  501    0  0.00000000000E+00 -0.00000000000E+00 -0.16327345513E+04  0.16327345513E+04  0.00000000000E+00 0. -1.
         23    2    1    2    0    0 -0.61564687386E+03 -0.69231325886E+03  0.94802984332E+03  0.13286380326E+04  0.90552284118E+02 0.  0.
         13    1    3    3    0    0 -0.38871629819E+03 -0.49296472903E+03  0.66895352189E+03  0.91739489807E+03  0.00000000000E+00 0.  1.
        -13    1    3    3    0    0 -0.22693057567E+03 -0.19934852982E+03  0.27907632143E+03  0.41124313453E+03  0.00000000000E+00 0. -1.
         22    1    1    2    0    0  0.61564687386E+03  0.69231325886E+03 -0.12936678738E+04  0.15911930396E+04  0.00000000000E+00 0. -1.
<mgrwt>
<rscale>  0 0.28993013E+04</rscale>
<asrwt>0</asrwt>
<pdfrwt beam="1">  1        2 0.25118993E+00 0.28993013E+04</pdfrwt>
<pdfrwt beam="2">  1       -2 0.19801485E+00 0.28993013E+04</pdfrwt>
<totfact> 0.12649955E+00</totfact>
</mgrwt>
</event>
<event>
 6    1  0.3017327E-006  0.1634819E+04  0.7818608E-02  0.8799438E-01
          2   -1    0    0  501    0  0.00000000000E+00  0.00000000000E+00  0.51308213129E+03  0.51308213129E+03  0.00000000000E+00 0. -1.
         -2   -1    0    0    0  501 -0.00000000000E+00 -0.00000000000E+00 -0.13022448750E+04  0.13022448750E+04  0.00000000000E+00 0.  1.
         23    2    1    2    0    0 -0.28070205865E+03 -0.58794943938E+03  0.14796772211E+03  0.67397180349E+03  0.88686843012E+02 0.  0.
         11    1    3    3    0    0 -0.77823402746E+02 -0.15273220938E+03 -0.31503267313E+00  0.17141677002E+03  0.00000000000E+00 0. -1.
        -11    1    3    3    0    0 -0.20287865590E+03 -0.43521722999E+03  0.14828275478E+03  0.50255503347E+03  0.00000000000E+00 0.  1.
         22    1    1    2    0    0  0.28070205865E+03  0.58794943938E+03 -0.93713046580E+03  0.11413552028E+04  0.00000000000E+00 0.  1.
<mgrwt>
<rscale>  0 0.16348193E+04</rscale>
<asrwt>0</asrwt>
<pdfrwt beam="1">  1        2 0.78935715E-01 0.16348193E+04</pdfrwt>
<pdfrwt beam="2">  1       -2 0.20034536E+00 0.16348193E+04</pdfrwt>
<totfact> 0.75532147E+00</totfact>
</mgrwt>
</event>
<event>
 6    1  0.3017327E-006  0.3781463E+04  0.7818608E-02  0.8050145E-01
          2   -1    0    0  501    0  0.00000000000E+00  0.00000000000E+00  0.20762800518E+04  0.20762800518E+04  0.00000000000E+00 0. -1.
         -2   -1    0    0    0  501 -0.00000000000E+00 -0.00000000000E+00 -0.17217645356E+04  0.17217645356E+04  0.00000000000E+00 0.  1.
         23    2    1    2    0    0 -0.29639030773E+03  0.14593997159E+04 -0.99080776231E+03  0.17911590727E+04  0.94106622957E+02 0.  0.
         11    1    3    3    0    0 -0.81019799105E+02  0.63140853287E+03 -0.42875518348E+03  0.76751022832E+03  0.00000000000E+00 0. -1.
        -11    1    3    3    0    0 -0.21537050863E+03  0.82799118304E+03 -0.56205257884E+03  0.10236488444E+04  0.00000000000E+00 0.  1.
         22    1    1    2    0    0  0.29639030773E+03 -0.14593997159E+04  0.13453232786E+04  0.20068855147E+04  0.00000000000E+00 0. -1.
<mgrwt>
<rscale>  0 0.37814629E+04</rscale>
<asrwt>0</asrwt>
<pdfrwt beam="1">  1        2 0.31942770E+00 0.37814629E+04</pdfrwt>
<pdfrwt beam="2">  1       -2 0.26488685E+00 0.37814629E+04</pdfrwt>
<totfact> 0.25338865E-01</totfact>
</mgrwt>
</event>
<event>
 6    1  0.3017327E-006  0.2380855E+04  0.7818608E-02  0.8446706E-01
          2   -1    0    0  501    0  0.00000000000E+00  0.00000000000E+00  0.15160155003E+04  0.15160155003E+04  0.00000000000E+00 0. -1.
         -2   -1    0    0    0  501 -0.00000000000E+00 -0.00000000000E+00 -0.93476493978E+03  0.93476493978E+03  0.00000000000E+00 0.  1.
         23    2    1    2    0    0 -0.11130863275E+03 -0.10332634118E+04  0.88505084258E+03  0.13680443221E+04  0.90594610163E+02 0.  0.
         13    1    3    3    0    0 -0.68108371049E+02 -0.33892545248E+03  0.25646834087E+03  0.43044769998E+03  0.00000000000E+00 0.  1.
        -13    1    3    3    0    0 -0.43200261697E+02 -0.69433795929E+03  0.62858250170E+03  0.93759662210E+03  0.00000000000E+00 0. -1.
         22    1    1    2    0    0  0.11130863275E+03  0.10332634118E+04 -0.30380028207E+03  0.10827361180E+04  0.00000000000E+00 0. -1.
<mgrwt>
<rscale>  0 0.23808554E+04</rscale>
<asrwt>0</asrwt>
<pdfrwt beam="1">  1        2 0.23323315E+00 0.23808554E+04</pdfrwt>
<pdfrwt beam="2">  1       -2 0.14380999E+00 0.23808554E+04</pdfrwt>
<totfact> 0.37498509E+00</totfact>
</mgrwt>
</event>
<event>
 6    1  0.3017327E-006  0.4345843E+04  0.7818608E-02  0.7938195E-01
         -2   -1    0    0    0  501 -0.00000000000E+00  0.00000000000E+00  0.12720534567E+04  0.12720534567E+04  0.00000000000E+00 0.  1.
          2   -1    0    0  501    0  0.00000000000E+00 -0.00000000000E+00 -0.37117848278E+04  0.37117848278E+04  0.00000000000E+00 0. -1.
         23    2    1    2    0    0 -0.12864172643E+04  0.12020474654E+04 -0.26791643032E+04  0.32070108827E+04  0.84911430179E+02 0.  0.
         13    1    3    3    0    0 -0.36363688413E+03  0.35085996761E+03 -0.83849125808E+03  0.97898012760E+03  0.00000000000E+00 0. -1.
        -13    1    3    3    0    0 -0.92278038015E+03  0.85118749783E+03 -0.18406730451E+04  0.22280307551E+04  0.00000000000E+00 0.  1.
         22    1    1    2    0    0  0.12864172643E+04 -0.12020474654E+04  0.23943293210E+03  0.17768274019E+04  0.00000000000E+00 0.  1.
<mgrwt>
<rscale>  0 0.43458434E+04</rscale>
<asrwt>0</asrwt>
<pdfrwt beam="1">  1        2 0.57104380E+00 0.43458434E+04</pdfrwt>
<pdfrwt beam="2">  1       -2 0.19570054E+00 0.43458434E+04</pdfrwt>
<totfact> 0.62151742E-02</totfact>
</mgrwt>
</event>
<event>
 6    1  0.3017327E-006  0.2356835E+04  0.7818608E-02  0.8455843E-01
          1   -1    0    0  501    0  0.00000000000E+00  0.00000000000E+00  0.18424636986E+04  0.18424636986E+04  0.00000000000E+00 0. -1.
         -1   -1    0    0    0  501 -0.00000000000E+00 -0.00000000000E+00 -0.75370141818E+03  0.75370141818E+03  0.00000000000E+00 0.  1.
         23    2    1    2    0    0 -0.89326841632E+03 -0.10829855069E+03 -0.28987189227E+03  0.94986951095E+03  0.92570698570E+02 0.  0.
         13    1    3    3    0    0 -0.17804500249E+03 -0.12564185433E+02 -0.20637773895E+02  0.17967693057E+03  0.00000000000E+00 0. -1.
        -13    1    3    3    0    0 -0.71522341382E+03 -0.95734365252E+02 -0.26923411838E+03  0.77019258038E+03  0.00000000000E+00 0.  1.
         22    1    1    2    0    0  0.89326841632E+03  0.10829855069E+03  0.13786341727E+04  0.16462956058E+04  0.00000000000E+00 0. -1.
<mgrwt>
<rscale>  0 0.23568347E+04</rscale>
<asrwt>0</asrwt>
<pdfrwt beam="1">  1        1 0.28345595E+00 0.23568347E+04</pdfrwt>
<pdfrwt beam="2">  1       -1 0.11595406E+00 0.23568347E+04</pdfrwt>
<totfact> 0.23069460E+00</totfact>
</mgrwt>
</event>
<event>
 6    1  0.3017327E-006  0.1704296E+04  0.7818608E-02  0.8758918E-01
          2   -1    0    0  501    0  0.00000000000E+00  0.00000000000E+00  0.19006122876E+04  0.19006122876E+04  0.00000000000E+00 0.  1.
         -2   -1    0    0    0  501 -0.00000000000E+00 -0.00000000000E+00 -0.38206418905E+03  0.38206418905E+03  0.00000000000E+00 0. -1.
         23    2    1    2    0    0 -0.65148842147E+02  0.83072655933E+03  0.53789290501E+03  0.99580601049E+03  0.89161904744E+02 0.  0.
         13    1    3    3    0    0 -0.70755117634E+02  0.82864549840E+03  0.53641260121E+03  0.98964545542E+03  0.00000000000E+00 0.  1.
        -13    1    3    3    0    0  0.56062754869E+01  0.20810609288E+01  0.14803037924E+01  0.61605550677E+01  0.00000000000E+00 0. -1.
         22    1    1    2    0    0  0.65148842147E+02 -0.83072655933E+03  0.98065519351E+03  0.12868704661E+04  0.00000000000E+00 0.  1.
<mgrwt>
<rscale>  0 0.17042956E+04</rscale>
<asrwt>0</asrwt>
<pdfrwt beam="1">  1        2 0.29240188E+00 0.17042956E+04</pdfrwt>
<pdfrwt beam="2">  1       -2 0.58779107E-01 0.17042956E+04</pdfrwt>
<totfact> 0.19522257E+01</totfact>
</mgrwt>
</event>
<event>
 6    1  0.3017327E-006  0.1985493E+04  0.7818608E-02  0.8613433E-01
         -2   -1    0    0    0  501 -0.00000000000E+00  0.00000000000E+00  0.33402409992E+03  0.33402409992E+03  0.00000000000E+00 0.  1.
          2   -1    0    0  501    0  0.00000000000E+00 -0.00000000000E+00 -0.29505216601E+04  0.29505216601E+04  0.00000000000E+00 0. -1.
         23    2    1    2    0    0 -0.20377311975E+03  0.78075087044E+03 -0.22617005601E+04  0.24030831588E+04  0.91781472745E+02 0.  0.
         13    1    3    3    0    0 -0.16636834687E+02  0.89456578572E+02 -0.35005623270E+03  0.36168858120E+03  0.00000000000E+00 0. -1.
        -13    1    3    3    0    0 -0.18713628507E+03  0.69129429187E+03 -0.19116443274E+04  0.20413945777E+04  0.00000000000E+00 0.  1.
         22    1    1    2    0    0  0.20377311975E+03 -0.78075087044E+03 -0.35479700011E+03  0.88146260120E+03  0.00000000000E+00 0.  1.
<mgrwt>
<rscale>  0 0.19854927E+04</rscale>
<asrwt>0</asrwt>
<pdfrwt beam="1">  1        2 0.45392640E+00 0.19854927E+04</pdfrwt>
<pdfrwt beam="2">  1       -2 0.51388324E-01 0.19854927E+04</pdfrwt>
<totfact> 0.62355265E+00</totfact>
</mgrwt>
</event>
<event>
 6    1  0.3017327E-006  0.3571250E+04  0.7818608E-02  0.8097109E-01
         -2   -1    0    0    0  501 -0.00000000000E+00  0.00000000000E+00  0.10124535148E+04  0.10124535148E+04  0.00000000000E+00 0.  1.
          2   -1    0    0  501    0  0.00000000000E+00 -0.00000000000E+00 -0.31492375100E+04  0.31492375100E+04  0.00000000000E+00 0. -1.
         23    2    1    2    0    0  0.15914393748E+04 -0.10586407561E+03 -0.20015677584E+04  0.25610130695E+04  0.92886835558E+02 0.  0.
         13    1    3    3    0    0  0.62021930834E+03 -0.86660960135E+02 -0.78153453151E+03  0.10014880610E+04  0.00000000000E+00 0.  1.
        -13    1    3    3    0    0  0.97122006647E+03 -0.19203115475E+02 -0.12200332269E+04  0.15595250084E+04  0.00000000000E+00 0. -1.
         22    1    1    2    0    0 -0.15914393748E+04  0.10586407561E+03 -0.13521623680E+03  0.16006779554E+04  0.00000000000E+00 0.  1.
<mgrwt>
<rscale>  0 0.35712500E+04</rscale>
<asrwt>0</asrwt>
<pdfrwt beam="1">  1        2 0.48449808E+00 0.35712500E+04</pdfrwt>
<pdfrwt beam="2">  1       -2 0.15576208E+00 0.35712500E+04</pdfrwt>
<totfact> 0.30935563E-01</totfact>
</mgrwt>
</event>
<event>
 6    1  0.3017327E-006  0.2139838E+04  0.7818608E-02  0.8543895E-01
         -2   -1    0    0    0  501 -0.00000000000E+00  0.00000000000E+00  0.88727072426E+03  0.88727072426E+03  0.00000000000E+00 0.  1.
          2   -1    0    0  501    0  0.00000000000E+00 -0.00000000000E+00 -0.12901664829E+04  0.12901664829E+04  0.00000000000E+00 0. -1.
         23    2    1    2    0    0 -0.11712459215E+03 -0.10148640553E+04 -0.51837931127E+03  0.11493303685E+04  0.92606505189E+02 0.  0.
         13    1    3    3    0    0 -0.90638340282E+02 -0.64279571809E+03 -0.37520243780E+03  0.74978564487E+03  0.00000000000E+00 0. -1.
        -13    1    3    3    0    0 -0.26486251867E+02 -0.37206833720E+03 -0.14317687347E+03  0.39954472363E+03  0.00000000000E+00 0.  1.
         22    1    1    2    0    0  0.11712459215E+03  0.10148640553E+04  0.11548355262E+03  0.10281068387E+04  0.00000000000E+00 0.  1.
<mgrwt>
<rscale>  0 0.21398383E+04</rscale>
<asrwt>0</asrwt>
<pdfrwt beam="1">  1        2 0.19848715E+00 0.21398383E+04</pdfrwt>
<pdfrwt beam="2">  1       -2 0.13650319E+00 0.21398383E+04</pdfrwt>
<totfact> 0.59016986E+00</totfact>
</mgrwt>
</event>
<event>
 6    1  0.3017327E-006  0.3676849E+04  0.7818608E-02  0.8073112E-01
          2   -1    0    0  501    0  0.00000000000E+00  0.00000000000E+00  0.30432347982E+04  0.30432347982E+04  0.00000000000E+00 0. -1.
         -2   -1    0    0    0  501 -0.00000000000E+00 -0.00000000000E+00 -0.11105959638E+04  0.11105959638E+04  0.00000000000E+00 0.  1.
         23    2    1    2    0    0  0.17073608058E+04  0.26915395425E+03  0.26295542616E+03  0.17506313412E+04  0.89664731848E+02 0.  0.
         13    1    3    3    0    0  0.70873065090E+03  0.98271760104E+02  0.15149596123E+03  0.73137370791E+03  0.00000000000E+00 0. -1.
        -13    1    3    3    0    0  0.99863015494E+03  0.17088219415E+03  0.11145946494E+03  0.10192576333E+04  0.00000000000E+00 0.  1.
         22    1    1    2    0    0 -0.17073608058E+04 -0.26915395425E+03  0.16696834082E+04  0.24031994208E+04  0.00000000000E+00 0.  1.
<mgrwt>
<rscale>  0 0.36768488E+04</rscale>
<asrwt>0</asrwt>
<pdfrwt beam="1">  1        2 0.46818996E+00 0.36768488E+04</pdfrwt>
<pdfrwt beam="2">  1       -2 0.17086092E+00 0.36768488E+04</pdfrwt>
<totfact> 0.27813401E-01</totfact>
</mgrwt>
</event>
<event>
 6    1  0.3017327E-006  0.1297996E+04  0.7818608E-02  0.9031156E-01
          2   -1    0    0  501    0  0.00000000000E+00  0.00000000000E+00  0.67329359992E+03  0.67329359992E+03  0.00000000000E+00 0. -1.
         -2   -1    0    0    0  501 -0.00000000000E+00 -0.00000000000E+00 -0.62557872911E+03  0.62557872911E+03  0.00000000000E+00 0.  1.
         23    2    1    2    0    0 -0.14029034928E+03  0.38132961290E+03  0.52711569853E+03  0.67044666962E+03  0.80957528336E+02 0.  0.
         11    1    3    3    0    0 -0.64113317504E+02  0.75594962024E+02  0.11991356112E+03  0.15557756235E+03  0.00000000000E+00 0.  1.
        -11    1    3    3    0    0 -0.76177031778E+02  0.30573465088E+03  0.40720213740E+03  0.51486910727E+03  0.00000000000E+00 0. -1.
         22    1    1    2    0    0  0.14029034928E+03 -0.38132961290E+03 -0.47940082773E+03  0.62842565941E+03  0.00000000000E+00 0.  1.
<mgrwt>
<rscale>  0 0.12979956E+04</rscale>
<asrwt>0</asrwt>
<pdfrwt beam="1">  1        2 0.10358363E+00 0.12979956E+04</pdfrwt>
<pdfrwt beam="2">  1       -2 0.96242881E-01 0.12979956E+04</pdfrwt>
<totfact> 0.38149262E+01</totfact>
</mgrwt>
</event>
<event>
 6    1  0.3017327E-006  0.1221941E+04  0.7818608E-02  0.9093866E-01
          2   -1    0    0  501    0  0.00000000000E+00  0.00000000000E+00  0.15310473280E+04  0.15310473280E+04  0.00000000000E+00 0.  1.
         -2   -1    0    0    0  501 -0.00000000000E+00 -0.00000000000E+00 -0.24381012021E+03  0.24381012021E+03  0.00000000000E+00 0. -1.
         23    2    1    2    0    0  0.44096898497E+03  0.16968793519E+02  0.12538200547E+04  0.13322986478E+04  0.90627655090E+02 0.  0.
         13    1    3    3    0    0  0.32153556683E+03  0.30425491013E+02  0.79752492904E+03  0.86043991288E+03  0.00000000000E+00 0. -1.
        -13    1    3    3    0    0  0.11943341814E+03 -0.13456697494E+02  0.45629512563E+03  0.47185873495E+03  0.00000000000E+00 0.  1.
         22    1    1    2    0    0 -0.44096898497E+03 -0.16968793519E+02  0.33417153110E+02  0.44255880036E+03  0.00000000000E+00 0. -1.
<mgrwt>
<rscale>  0 0.12219408E+04</rscale>
<asrwt>0</asrwt>
<pdfrwt beam="1">  1        2 0.23554574E+00 0.12219408E+04</pdfrwt>
<pdfrwt beam="2">  1       -2 0.37509250E-01 0.12219408E+04</pdfrwt>
<totfact> 0.80495168E+01</totfact>
</mgrwt>
</event>
<event>
 6    1  0.3017327E-006  0.5275662E+04  0.7818608E-02  0.7787336E-01
         -2   -1    0    0    0  501 -0.00000000000E+00  0.00000000000E+00  0.27345928910E+04  0.27345928910E+04  0.00000000000E+00 0.  1.
          2   -1    0    0  501    0  0.00000000000E+00 -0.00000000000E+00 -0.25444929035E+04  0.25444929035E+04  0.00000000000E+00 0. -1.
         23    2    1    2    0    0  0.18093758087E+04  0.13267097610E+04 -0.12912931987E+04  0.25904940852E+04  0.96030586380E+02 0.  0.
         11    1    3    3    0    0  0.46243067879E+03  0.33202628033E+03 -0.37597346552E+03  0.68223136126E+03  0.00000000000E+00 0. -1.
        -11    1    3    3    0    0  0.13469451299E+04  0.99468348062E+03 -0.91531973319E+03  0.19082627239E+04  0.00000000000E+00 0.  1.
         22    1    1    2    0    0 -0.18093758087E+04 -0.13267097610E+04  0.14813931862E+04  0.26885917092E+04  0.00000000000E+00 0.  1.
<mgrwt>
<rscale>  0 0.52756619E+04</rscale>
<asrwt>0</asrwt>
<pdfrwt beam="1">  1        2 0.39146045E+00 0.52756619E+04</pdfrwt>
<pdfrwt beam="2">  1       -2 0.42070660E+00 0.52756619E+04</pdfrwt>
<totfact> 0.12693644E-02</totfact>
</mgrwt>
</event>
<event>
 6    1  0.3017327E-006  0.4598249E+04  0.7818608E-02  0.7893658E-01
         -2   -1    0    0    0  501 -0.00000000000E+00  0.00000000000E+00  0.18968421292E+04  0.18968421292E+04  0.00000000000E+00 0.  1.
          2   -1    0    0  501    0  0.00000000000E+00 -0.00000000000E+00 -0.27867234731E+04  0.27867234731E+04  0.00000000000E+00 0. -1.
         23    2    1    2    0    0 -0.10934592667E+04  0.16546407188E+04 -0.16278976145E+04  0.25673999443E+04  0.89458114696E+02 0.  0.
         11    1    3    3    0    0 -0.69290214635E+03  0.10741939708E+04 -0.11009400729E+04  0.16870314506E+04  0.00000000000E+00 0.  1.
        -11    1    3    3    0    0 -0.40055712037E+03  0.58044674805E+03 -0.52695754161E+03  0.88036849368E+03  0.00000000000E+00 0. -1.
         22    1    1    2    0    0  0.10934592667E+04 -0.16546407188E+04  0.73801627064E+03  0.21161656580E+04  0.00000000000E+00 0. -1.
<mgrwt>
<rscale>  0 0.45982494E+04</rscale>
<asrwt>0</asrwt>
<pdfrwt beam="1">  1        2 0.42872669E+00 0.45982494E+04</pdfrwt>
<pdfrwt beam="2">  1       -2 0.29182187E+00 0.45982494E+04</pdfrwt>
<totfact> 0.63138903E-02</totfact>
</mgrwt>
</event>
<event>
 6    1  0.3017327E-006  0.2946388E+04  0.7818608E-02  0.8259208E-01
          2   -1    0    0  501    0  0.00000000000E+00  0.00000000000E+00  0.32375481956E+04  0.32375481956E+04  0.00000000000E+00 0. -1.
         -2   -1    0    0    0  501 -0.00000000000E+00 -0.00000000000E+00 -0.67035308408E+03  0.67035308408E+03  0.00000000000E+00 0.  1.
         23    2    1    2    0    0 -0.31340242614E+03  0.80981186614E+03 -0.29121523972E+03  0.92050675012E+03  0.92249780111E+02 0.  0.
         13    1    3    3    0    0 -0.44612770322E+02  0.19537988303E+03 -0.40088098104E+02  0.20437870138E+03  0.00000000000E+00 0.  1.
        -13    1    3    3    0    0 -0.26878965582E+03  0.61443198311E+03 -0.25112714161E+03  0.71612804874E+03  0.00000000000E+00 0. -1.
         22    1    1    2    0    0  0.31340242614E+03 -0.80981186614E+03  0.28584103512E+04  0.29873945296E+04  0.00000000000E+00 0. -1.
<mgrwt>
<rscale>  0 0.29463879E+04</rscale>
<asrwt>0</asrwt>
<pdfrwt beam="1">  1        2 0.49808433E+00 0.29463879E+04</pdfrwt>
<pdfrwt beam="2">  1       -2 0.10313125E+00 0.29463879E+04</pdfrwt>
<totfact> 0.80795881E-01</totfact>
</mgrwt>
</event>
<event>
 6    1  0.3017327E-006  0.2058833E+04  0.7818608E-02  0.8579598E-01
          2   -1    0    0  501    0  0.00000000000E+00  0.00000000000E+00  0.16238489771E+04  0.16238489771E+04  0.00000000000E+00 0. -1.
         -2   -1    0    0    0  501 -0.00000000000E+00 -0.00000000000E+00 -0.65258431915E+03  0.65258431915E+03  0.00000000000E+00 0.  1.
         23    2    1    2    0    0  0.32050884865E+03 -0.92124137183E+03  0.13013689050E+03  0.98844746231E+03  0.93172894359E+02 0.  0.
         13    1    3    3    0    0  0.22505254612E+03 -0.65823837430E+03  0.13494566434E+03  0.70861607252E+03  0.00000000000E+00 0.  1.
        -13    1    3    3    0    0  0.95456302535E+02 -0.26300299753E+03 -0.48087738458E+01  0.27983138979E+03  0.00000000000E+00 0. -1.
         22    1    1    2    0    0 -0.32050884865E+03  0.92124137183E+03  0.84112776743E+03  0.12879858339E+04  0.00000000000E+00 0. -1.
<mgrwt>
<rscale>  0 0.20588330E+04</rscale>
<asrwt>0</asrwt>
<pdfrwt beam="1">  1        2 0.24982292E+00 0.20588330E+04</pdfrwt>
<pdfrwt beam="2">  1       -2 0.10039759E+00 0.20588330E+04</pdfrwt>
<totfact> 0.81827881E+00</totfact>
</mgrwt>
</event>
<event>
 6    1  0.3017327E-006  0.9835577E+03  0.7818608E-02  0.9326765E-01
          2   -1    0    0  501    0  0.00000000000E+00  0.00000000000E+00  0.11128884845E+04  0.11128884845E+04  0.00000000000E+00 0. -1.
         -2   -1    0    0    0  501 -0.00000000000E+00 -0.00000000000E+00 -0.21731415130E+03  0.21731415130E+03  0.00000000000E+00 0.  1.
         23    2    1    2    0    0  0.12711237580E+03 -0.45316595572E+03  0.28001441161E+03  0.55532783523E+03  0.91999969368E+02 0.  0.
         11    1    3    3    0    0  0.79213228573E+01 -0.78559476759E+02  0.86667478421E+02  0.11724159057E+03  0.00000000000E+00 0.  1.
        -11    1    3    3    0    0  0.11919105294E+03 -0.37460647896E+03  0.19334693319E+03  0.43808624465E+03  0.00000000000E+00 0. -1.
         22    1    1    2    0    0 -0.12711237580E+03  0.45316595572E+03  0.61555992154E+03  0.77487480054E+03  0.00000000000E+00 0. -1.
<mgrwt>
<rscale>  0 0.98355766E+03</rscale>
<asrwt>0</asrwt>
<pdfrwt beam="1">  1        2 0.17121361E+00 0.98355766E+03</pdfrwt>
<pdfrwt beam="2">  1       -2 0.33432947E-01 0.98355766E+03</pdfrwt>
<totfact> 0.17845049E+02</totfact>
</mgrwt>
</event>
<event>
 6    1  0.3017327E-006  0.2934041E+04  0.7818608E-02  0.8262821E-01
         -2   -1    0    0    0  501 -0.00000000000E+00  0.00000000000E+00  0.12451189333E+04  0.12451189333E+04  0.00000000000E+00 0. -1.
          2   -1    0    0  501    0  0.00000000000E+00 -0.00000000000E+00 -0.17284691860E+04  0.17284691860E+04  0.00000000000E+00 0.  1.
         23    2    1    2    0    0  0.84305914044E+03 -0.84158292346E+03  0.62330179281E+03  0.13476455369E+04  0.92913061000E+02 0.  0.
         11    1    3    3    0    0  0.67177301730E+03 -0.66489946317E+03  0.45120444587E+03  0.10473565462E+04  0.00000000000E+00 0. -1.
        -11    1    3    3    0    0  0.17128612314E+03 -0.17668346029E+03  0.17209734694E+03  0.30028899072E+03  0.00000000000E+00 0.  1.
         22    1    1    2    0    0 -0.84305914044E+03  0.84158292346E+03 -0.11066520456E+04  0.16259425824E+04  0.00000000000E+00 0.  1.
<mgrwt>
<rscale>  0 0.29340414E+04</rscale>
<asrwt>0</asrwt>
<pdfrwt beam="1">  1        2 0.26591834E+00 0.29340414E+04</pdfrwt>
<pdfrwt beam="2">  1       -2 0.19155676E+00 0.29340414E+04</pdfrwt>
<totfact> 0.12316237E+00</totfact>
</mgrwt>
</event>
<event>
 6    1  0.3017327E-006  0.2652797E+04  0.7818608E-02  0.8350485E-01
          2   -1    0    0  501    0  0.00000000000E+00  0.00000000000E+00  0.98381899919E+03  0.98381899919E+03  0.00000000000E+00 0. -1.
         -2   -1    0    0    0  501 -0.00000000000E+00 -0.00000000000E+00 -0.17882695737E+04  0.17882695737E+04  0.00000000000E+00 0.  1.
         23    2    1    2    0    0 -0.45186362264E+02  0.90154112546E+03 -0.14159549125E+04  0.16817878054E+04  0.93078998477E+02 0.  0.
         13    1    3    3    0    0  0.56704876731E+01  0.35520329124E+03 -0.62983256121E+03  0.72311173943E+03  0.00000000000E+00 0.  1.
        -13    1    3    3    0    0 -0.50856849937E+02  0.54633783422E+03 -0.78612235127E+03  0.95867606597E+03  0.00000000000E+00 0. -1.
         22    1    1    2    0    0  0.45186362264E+02 -0.90154112546E+03  0.61150433798E+03  0.10903007675E+04  0.00000000000E+00 0. -1.
<mgrwt>
<rscale>  0 0.26527975E+04</rscale>
<asrwt>0</asrwt>
<pdfrwt beam="1">  1        2 0.15135677E+00 0.26527975E+04</pdfrwt>
<pdfrwt beam="2">  1       -2 0.27511839E+00 0.26527975E+04</pdfrwt>
<totfact> 0.10248744E+00</totfact>
</mgrwt>
</event>
<event>
 6    1  0.3017327E-006  0.8062586E+03  0.7818608E-02  0.9551002E-01
         -2   -1    0    0    0  501 -0.00000000000E+00  0.00000000000E+00  0.18884756742E+03  0.18884756742E+03  0.00000000000E+00 0.  1.
          2   -1    0    0  501    0  0.00000000000E+00 -0.00000000000E+00 -0.86055252335E+03  0.86055252335E+03  0.00000000000E+00 0. -1.
         23    2    1    2    0    0  0.38131633989E+03  0.46143547494E+02 -0.47591409569E+03  0.61827894887E+03  0.90792368045E+02 0.  0.
         13    1    3    3    0    0  0.23355408562E+03  0.47126109966E+02 -0.35399511838E+03  0.42670941516E+03  0.00000000000E+00 0. -1.
        -13    1    3    3    0    0  0.14776225427E+03 -0.98256247201E+00 -0.12191897730E+03  0.19156953371E+03  0.00000000000E+00 0.  1.
         22    1    1    2    0    0 -0.38131633989E+03 -0.46143547494E+02 -0.19579086024E+03  0.43112114191E+03  0.00000000000E+00 0.  1.
<mgrwt>
<rscale>  0 0.80625865E+03</rscale>
<asrwt>0</asrwt>
<pdfrwt beam="1">  1        2 0.13239269E+00 0.80625865E+03</pdfrwt>
<pdfrwt beam="2">  1       -2 0.29053472E-01 0.80625865E+03</pdfrwt>
<totfact> 0.34105901E+02</totfact>
</mgrwt>
</event>
<event>
 6    1  0.3017327E-006  0.2306999E+04  0.7818608E-02  0.8475167E-01
         -2   -1    0    0    0  501 -0.00000000000E+00  0.00000000000E+00  0.58846626188E+03  0.58846626188E+03  0.00000000000E+00 0.  1.
          2   -1    0    0  501    0  0.00000000000E+00 -0.00000000000E+00 -0.22610661072E+04  0.22610661072E+04  0.00000000000E+00 0. -1.
         23    2    1    2    0    0  0.52363991231E+03 -0.57648591502E+03  0.21037523287E+03  0.81185479079E+03  0.91190431212E+02 0.  0.
         11    1    3    3    0    0  0.43073029776E+03 -0.42075747552E+03  0.14762666277E+03  0.61996699442E+03  0.00000000000E+00 0. -1.
        -11    1    3    3    0    0  0.92909614549E+02 -0.15572843950E+03  0.62748570100E+02  0.19188779637E+03  0.00000000000E+00 0.  1.
         22    1    1    2    0    0 -0.52363991231E+03  0.57648591502E+03 -0.18829750781E+04  0.20376775782E+04  0.00000000000E+00 0. -1.
<mgrwt>
<rscale>  0 0.23069990E+04</rscale>
<asrwt>0</asrwt>
<pdfrwt beam="1">  1        2 0.34785632E+00 0.23069990E+04</pdfrwt>
<pdfrwt beam="2">  1       -2 0.90533273E-01 0.23069990E+04</pdfrwt>
<totfact> 0.45049799E+00</totfact>
</mgrwt>
</event>
<event>
 6    1  0.3017327E-006  0.1929670E+04  0.7818608E-02  0.8640227E-01
         -1   -1    0    0    0  501 -0.00000000000E+00  0.00000000000E+00  0.57693117275E+03  0.57693117275E+03  0.00000000000E+00 0.  1.
          1   -1    0    0  501    0  0.00000000000E+00 -0.00000000000E+00 -0.16135495618E+04  0.16135495618E+04  0.00000000000E+00 0. -1.
         23    2    1    2    0    0 -0.16626156094E+03  0.68048037379E+03 -0.12690010976E+04  0.14524440357E+04  0.92376648545E+02 0.  0.
         13    1    3    3    0    0 -0.19611273958E+02  0.26117578105E+03 -0.49567750593E+03  0.56061892633E+03  0.00000000000E+00 0.  1.
        -13    1    3    3    0    0 -0.14665028698E+03  0.41930459273E+03 -0.77332359169E+03  0.89182510933E+03  0.00000000000E+00 0. -1.
         22    1    1    2    0    0  0.16626156094E+03 -0.68048037379E+03  0.23238270853E+03  0.73803669893E+03  0.00000000000E+00 0.  1.
<mgrwt>
<rscale>  0 0.19296705E+04</rscale>
<asrwt>0</asrwt>
<pdfrwt beam="1">  1        1 0.24823839E+00 0.19296705E+04</pdfrwt>
<pdfrwt beam="2">  1       -1 0.88758642E-01 0.19296705E+04</pdfrwt>
<totfact> 0.63482065E+00</totfact>
</mgrwt>
</event>
<event>
 6    1  0.3017327E-006  0.1374223E+04  0.7818608E-02  0.8972692E-01
         -2   -1    0    0    0  501 -0.00000000000E+00  0.00000000000E+00  0.18874671892E+03  0.18874671892E+03  0.00000000000E+00 0.  1.
          2   -1    0    0  501    0  0.00000000000E+00 -0.00000000000E+00 -0.25013525474E+04  0.25013525474E+04  0.00000000000E+00 0. -1.
         23    2    1    2    0    0 -0.24994389166E+03  0.11801298948E+03 -0.23863280366E+04  0.24040328778E+04  0.91725484163E+02 0.  0.
         13    1    3    3    0    0 -0.17149949405E+03  0.77263203147E+02 -0.19356080413E+04  0.19447262451E+04  0.00000000000E+00 0. -1.
        -13    1    3    3    0    0 -0.78444397614E+02  0.40749786333E+02 -0.45071999531E+03  0.45930663263E+03  0.00000000000E+00 0.  1.
         22    1    1    2    0    0  0.24994389166E+03 -0.11801298948E+03  0.73722208154E+02  0.28606638852E+03  0.00000000000E+00 0.  1.
<mgrwt>
<rscale>  0 0.13742228E+04</rscale>
<asrwt>0</asrwt>
<pdfrwt beam="1">  1        2 0.38482343E+00 0.13742228E+04</pdfrwt>
<pdfrwt beam="2">  1       -2 0.29037959E-01 0.13742228E+04</pdfrwt>
<totfact> 0.37067174E+01</totfact>
</mgrwt>
</event>
<event>
 6    1  0.3017327E-006  0.1693566E+04  0.7818608E-02  0.8765042E-01
         -2   -1    0    0    0  501 -0.00000000000E+00  0.00000000000E+00  0.34934509919E+03  0.34934509919E+03  0.00000000000E+00 0.  1.
          2   -1    0    0  501    0  0.00000000000E+00 -0.00000000000E+00 -0.20525307312E+04  0.20525307312E+04  0.00000000000E+00 0. -1.
         23    2    1    2    0    0 -0.45912085295E+03 -0.42388855490E+03 -0.49249332670E+02  0.63383206768E+03  0.94043227637E+02 0.  0.
         11    1    3    3    0    0 -0.58211976065E+02 -0.10332014628E+03 -0.78066416140E+01  0.11884708847E+03  0.00000000000E+00 0. -1.
        -11    1    3    3    0    0 -0.40090887688E+03 -0.32056840862E+03 -0.41442691056E+02  0.51498497921E+03  0.00000000000E+00 0.  1.
         22    1    1    2    0    0  0.45912085295E+03  0.42388855490E+03 -0.16539362993E+04  0.17680437627E+04  0.00000000000E+00 0. -1.
<mgrwt>
<rscale>  0 0.16935661E+04</rscale>
<asrwt>0</asrwt>
<pdfrwt beam="1">  1        2 0.31577396E+00 0.16935661E+04</pdfrwt>
<pdfrwt beam="2">  1       -2 0.53745399E-01 0.16935661E+04</pdfrwt>
<totfact> 0.19397763E+01</totfact>
</mgrwt>
</event>
<event>
 6    1  0.3017327E-006  0.4957961E+04  0.7818608E-02  0.7835025E-01
         -1   -1    0    0    0  501 -0.00000000000E+00  0.00000000000E+00  0.18002327984E+04  0.18002327984E+04  0.00000000000E+00 0.  1.
          1   -1    0    0  501    0  0.00000000000E+00 -0.00000000000E+00 -0.34136387553E+04  0.34136387553E+04  0.00000000000E+00 0. -1.
         23    2    1    2    0    0 -0.20887761897E+04  0.10229933762E+04 -0.17064378908E+04  0.28861781978E+04  0.92697874477E+02 0.  0.
         11    1    3    3    0    0 -0.13359943935E+04  0.65037384608E+03 -0.10347632763E+04  0.18106910828E+04  0.00000000000E+00 0. -1.
        -11    1    3    3    0    0 -0.75278179619E+03  0.37261953008E+03 -0.67167461445E+03  0.10754871150E+04  0.00000000000E+00 0.  1.
         22    1    1    2    0    0  0.20887761897E+04 -0.10229933762E+04  0.93031933844E+02  0.23276933559E+04  0.00000000000E+00 0.  1.
<mgrwt>
<rscale>  0 0.49579611E+04</rscale>
<asrwt>0</asrwt>
<pdfrwt beam="1">  1        1 0.52517519E+00 0.49579611E+04</pdfrwt>
<pdfrwt beam="2">  1       -1 0.27695890E+00 0.49579611E+04</pdfrwt>
<totfact> 0.98413869E-03</totfact>
</mgrwt>
</event>
<event>
 6    1  0.3017327E-006  0.7850680E+03  0.7818608E-02  0.9581886E-01
         -2   -1    0    0    0  501 -0.00000000000E+00  0.00000000000E+00  0.13971014092E+03  0.13971014092E+03  0.00000000000E+00 0.  1.
          2   -1    0    0  501    0  0.00000000000E+00 -0.00000000000E+00 -0.11028757886E+04  0.11028757886E+04  0.00000000000E+00 0. -1.
         23    2    1    2    0    0 -0.15643452587E+03  0.25824573806E+03 -0.87191844817E+03  0.92716767778E+03  0.90749657516E+02 0.  0.
         13    1    3    3    0    0 -0.15603702953E+03  0.20073886148E+03 -0.65103723561E+03  0.69892283354E+03  0.00000000000E+00 0.  1.
        -13    1    3    3    0    0 -0.39749633723E+00  0.57506876585E+02 -0.22088121256E+03  0.22824484424E+03  0.00000000000E+00 0. -1.
         22    1    1    2    0    0  0.15643452587E+03 -0.25824573806E+03 -0.91247199506E+02  0.31541825174E+03  0.00000000000E+00 0.  1.
<mgrwt>
<rscale>  0 0.78506798E+03</rscale>
<asrwt>0</asrwt>
<pdfrwt beam="1">  1        2 0.16967320E+00 0.78506798E+03</pdfrwt>
<pdfrwt beam="2">  1       -2 0.21493868E-01 0.78506798E+03</pdfrwt>
<totfact> 0.41007618E+02</totfact>
</mgrwt>
</event>
<event>
 6    1  0.3017327E-006  0.2091167E+04  0.7818608E-02  0.8565144E-01
         -2   -1    0    0    0  501 -0.00000000000E+00  0.00000000000E+00  0.34264934051E+03  0.34264934051E+03  0.00000000000E+00 0.  1.
          2   -1    0    0  501    0  0.00000000000E+00 -0.00000000000E+00 -0.31905655715E+04  0.31905655715E+04  0.00000000000E+00 0. -1.
         23    2    1    2    0    0 -0.71601495844E+03  0.71808816464E+03 -0.18419336071E+04  0.21048140326E+04  0.95888819426E+02 0.  0.
         11    1    3    3    0    0 -0.56242347933E+03  0.51498988284E+03 -0.14268917312E+04  0.16178858928E+04  0.00000000000E+00 0. -1.
        -11    1    3    3    0    0 -0.15359147911E+03  0.20309828180E+03 -0.41504187595E+03  0.48692813979E+03  0.00000000000E+00 0.  1.
         22    1    1    2    0    0  0.71601495844E+03 -0.71808816464E+03 -0.10059826239E+04  0.14284008795E+04  0.00000000000E+00 0.  1.
<mgrwt>
<rscale>  0 0.20911673E+04</rscale>
<asrwt>0</asrwt>
<pdfrwt beam="1">  1        2 0.49085622E+00 0.20911673E+04</pdfrwt>
<pdfrwt beam="2">  1       -2 0.52715286E-01 0.20911673E+04</pdfrwt>
<totfact> 0.41290684E+00</totfact>
</mgrwt>
</event>
<event>
 6    1  0.3017327E-006  0.1770081E+04  0.7818608E-02  0.8722374E-01
         -2   -1    0    0    0  501 -0.00000000000E+00  0.00000000000E+00  0.77167760579E+03  0.77167760579E+03  0.00000000000E+00 0.  1.
          2   -1    0    0  501    0  0.00000000000E+00 -0.00000000000E+00 -0.10150565468E+04  0.10150565468E+04  0.00000000000E+00 0. -1.
         23    2    1    2    0    0  0.53525427945E+03 -0.67462503495E+03 -0.31666043135E+03  0.92245048487E+03  0.94999930543E+02 0.  0.
         11    1    3    3    0    0  0.25212612844E+03 -0.38700191385E+03 -0.19012076922E+03  0.49948370629E+03  0.00000000000E+00 0.  1.
        -11    1    3    3    0    0  0.28312815101E+03 -0.28762312111E+03 -0.12653966213E+03  0.42296677858E+03  0.00000000000E+00 0. -1.
         22    1    1    2    0    0 -0.53525427945E+03  0.67462503495E+03  0.73281490348E+02  0.86428366772E+03  0.00000000000E+00 0.  1.
<mgrwt>
<rscale>  0 0.17700807E+04</rscale>
<asrwt>0</asrwt>
<pdfrwt beam="1">  1        2 0.15616255E+00 0.17700807E+04</pdfrwt>
<pdfrwt beam="2">  1       -2 0.11871963E+00 0.17700807E+04</pdfrwt>
<totfact> 0.12714108E+01</totfact>
</mgrwt>
</event>
<event>
 6    1  0.3017327E-006  0.2285613E+04  0.7818608E-02  0.8483615E-01
         -1   -1    0    0    0  501 -0.00000000000E+00  0.00000000000E+00  0.66042996428E+03  0.66042996428E+03  0.00000000000E+00 0.  1.
          1   -1    0    0  501    0  0.00000000000E+00 -0.00000000000E+00 -0.19775104938E+04  0.19775104938E+04  0.00000000000E+00 0. -1.
         23    2    1    2    0    0  0.32636396244E+03 -0.76875129784E+03 -0.15558187380E+04  0.17693278136E+04  0.11161080883E+03 0.  0.
         11    1    3    3    0    0  0.31185025469E+03 -0.63532512405E+03 -0.12818194959E+04  0.14642232803E+04  0.00000000000E+00 0.  1.
        -11    1    3    3    0    0  0.14513707753E+02 -0.13342617379E+03 -0.27399924210E+03  0.30510453330E+03  0.00000000000E+00 0. -1.
         22    1    1    2    0    0 -0.32636396244E+03  0.76875129784E+03  0.23873820848E+03  0.86861264445E+03  0.00000000000E+00 0.  1.
<mgrwt>
<rscale>  0 0.22856134E+04</rscale>
<asrwt>0</asrwt>
<pdfrwt beam="1">  1        1 0.30423238E+00 0.22856134E+04</pdfrwt>
<pdfrwt beam="2">  1       -1 0.10160461E+00 0.22856134E+04</pdfrwt>
<totfact> 0.25662232E+00</totfact>
</mgrwt>
</event>
<event>
 6    1  0.3017327E-006  0.1724500E+04  0.7818608E-02  0.8747513E-01
         -4   -1    0    0    0  501 -0.00000000000E+00  0.00000000000E+00  0.76237464250E+03  0.76237464250E+03  0.00000000000E+00 0.  1.
          4   -1    0    0  501    0  0.00000000000E+00 -0.00000000000E+00 -0.97520965640E+03  0.97520965640E+03  0.00000000000E+00 0. -1.
         23    2    1    2    0    0 -0.42318810094E+03 -0.69764858555E+03  0.16652651951E+03  0.83774159557E+03  0.90984512663E+02 0.  0.
         11    1    3    3    0    0 -0.17296998854E+03 -0.24143709592E+03  0.22512426099E+02  0.29785449057E+03  0.00000000000E+00 0.  1.
        -11    1    3    3    0    0 -0.25021811240E+03 -0.45621148963E+03  0.14401409341E+03  0.53988710500E+03  0.00000000000E+00 0. -1.
         22    1    1    2    0    0  0.42318810094E+03  0.69764858555E+03 -0.37936153342E+03  0.89984270333E+03  0.00000000000E+00 0. -1.
<mgrwt>
<rscale>  0 0.17245001E+04</rscale>
<asrwt>0</asrwt>
<pdfrwt beam="1">  1        4 0.15003225E+00 0.17245001E+04</pdfrwt>
<pdfrwt beam="2">  1       -4 0.11728841E+00 0.17245001E+04</pdfrwt>
<totfact> 0.31699878E-01</totfact>
</mgrwt>
</event>
<event>
 6    1  0.3017327E-006  0.1262052E+04  0.7818608E-02  0.9060212E-01
         -1   -1    0    0    0  501 -0.00000000000E+00  0.00000000000E+00  0.98372368571E+03  0.98372368571E+03  0.00000000000E+00 0.  1.
          1   -1    0    0  501    0  0.00000000000E+00 -0.00000000000E+00 -0.40478222162E+03  0.40478222162E+03  0.00000000000E+00 0. -1.
         23    2    1    2    0    0  0.33079224841E+03  0.26799512363E+03  0.79858383617E+03  0.90945719425E+03  0.90173981177E+02 0.  0.
         13    1    3    3    0    0  0.28233980754E+03  0.23450858466E+03  0.61016454286E+03  0.71204691739E+03  0.00000000000E+00 0.  1.
        -13    1    3    3    0    0  0.48452440868E+02  0.33486538978E+02  0.18841929331E+03  0.19741027686E+03  0.00000000000E+00 0. -1.
         22    1    1    2    0    0 -0.33079224841E+03 -0.26799512363E+03 -0.21964237208E+03  0.47904871309E+03  0.00000000000E+00 0. -1.
<mgrwt>
<rscale>  0 0.12620521E+04</rscale>
<asrwt>0</asrwt>
<pdfrwt beam="1">  1        1 0.62274188E-01 0.12620521E+04</pdfrwt>
<pdfrwt beam="2">  1       -1 0.15134210E+00 0.12620521E+04</pdfrwt>
<totfact> 0.19817703E+01</totfact>
</mgrwt>
</event>
<event>
 6    1  0.3017327E-006  0.1789025E+04  0.7818608E-02  0.8712158E-01
          2   -1    0    0  501    0  0.00000000000E+00  0.00000000000E+00  0.15319700330E+04  0.15319700330E+04  0.00000000000E+00 0. -1.
         -2   -1    0    0    0  501 -0.00000000000E+00 -0.00000000000E+00 -0.52230315003E+03  0.52230315003E+03  0.00000000000E+00 0.  1.
         23    2    1    2    0    0 -0.36404845624E+02  0.85436170081E+03  0.79888781157E+03  0.11735422107E+04  0.87865558284E+02 0.  0.
         11    1    3    3    0    0 -0.56616293768E+02  0.50537842341E+03  0.50758496680E+03  0.71850904942E+03  0.00000000000E+00 0. -1.
        -11    1    3    3    0    0  0.20211448144E+02  0.34898327740E+03  0.29130284477E+03  0.45503316133E+03  0.00000000000E+00 0.  1.
         22    1    1    2    0    0  0.36404845624E+02 -0.85436170081E+03  0.21077907141E+03  0.88073097229E+03  0.00000000000E+00 0.  1.
<mgrwt>
<rscale>  0 0.17890252E+04</rscale>
<asrwt>0</asrwt>
<pdfrwt beam="1">  1        2 0.23568770E+00 0.17890252E+04</pdfrwt>
<pdfrwt beam="2">  1       -2 0.80354331E-01 0.17890252E+04</pdfrwt>
<totfact> 0.15747281E+01</totfact>
</mgrwt>
</event>
<event>
 6    1  0.3017327E-006  0.1031282E+04  0.7818608E-02  0.9274885E-01
          1   -1    0    0  501    0  0.00000000000E+00  0.00000000000E+00  0.25005760282E+03  0.25005760282E+03  0.00000000000E+00 0. -1.
         -1   -1    0    0    0  501 -0.00000000000E+00 -0.00000000000E+00 -0.10632973228E+04  0.10632973228E+04  0.00000000000E+00 0.  1.
         23    2    1    2    0    0 -0.38724740257E+03  0.29474705954E+03 -0.20921259493E+03  0.53767126090E+03  0.92109147312E+02 0.  0.
         13    1    3    3    0    0 -0.10639386184E+03  0.13192964759E+03 -0.54318287665E+02  0.17797629653E+03  0.00000000000E+00 0. -1.
        -13    1    3    3    0    0 -0.28085354073E+03  0.16281741195E+03 -0.15489430726E+03  0.35969496437E+03  0.00000000000E+00 0.  1.
         22    1    1    2    0    0  0.38724740257E+03 -0.29474705954E+03 -0.60402712503E+03  0.77568366469E+03  0.00000000000E+00 0.  1.
<mgrwt>
<rscale>  0 0.10312819E+04</rscale>
<asrwt>0</asrwt>
<pdfrwt beam="1">  1        1 0.38470400E-01 0.10312819E+04</pdfrwt>
<pdfrwt beam="2">  1       -1 0.16358420E+00 0.10312819E+04</pdfrwt>
<totfact> 0.30563885E+01</totfact>
</mgrwt>
</event>
<event>
 6    1  0.3017327E-006  0.2381367E+04  0.7818608E-02  0.8446512E-01
         -2   -1    0    0    0  501 -0.00000000000E+00  0.00000000000E+00  0.41697631735E+03  0.41697631735E+03  0.00000000000E+00 0.  1.
          2   -1    0    0  501    0  0.00000000000E+00 -0.00000000000E+00 -0.34000193939E+04  0.34000193939E+04  0.00000000000E+00 0. -1.
         23    2    1    2    0    0 -0.45948002553E+03  0.33466601529E+03  0.17966455853E+03  0.60361076378E+03  0.94569365543E+02 0.  0.
         13    1    3    3    0    0 -0.38192615454E+03  0.29012555651E+03  0.18488090715E+03  0.51402468413E+03  0.00000000000E+00 0.  1.
        -13    1    3    3    0    0 -0.77553870988E+02  0.44540458785E+02 -0.52163486171E+01  0.89586079649E+02  0.00000000000E+00 0. -1.
         22    1    1    2    0    0  0.45948002553E+03 -0.33466601529E+03 -0.31627076350E+04  0.32133849474E+04  0.00000000000E+00 0. -1.
<mgrwt>
<rscale>  0 0.23813673E+04</rscale>
<asrwt>0</asrwt>
<pdfrwt beam="1">  1        2 0.52307991E+00 0.23813673E+04</pdfrwt>
<pdfrwt beam="2">  1       -2 0.64150202E-01 0.23813673E+04</pdfrwt>
<totfact> 0.19315275E+00</totfact>
</mgrwt>
</event>
<event>
 6    1  0.3017327E-006  0.1055594E+04  0.7818608E-02  0.9249588E-01
         -2   -1    0    0    0  501 -0.00000000000E+00  0.00000000000E+00  0.12513321541E+03  0.12513321541E+03  0.00000000000E+00 0.  1.
          2   -1    0    0  501    0  0.00000000000E+00 -0.00000000000E+00 -0.22261841846E+04  0.22261841846E+04  0.00000000000E+00 0. -1.
         23    2    1    2    0    0  0.27815242118E+03 -0.23148648263E+03 -0.19021101662E+04  0.19383619494E+04  0.90935150172E+02 0.  0.
         13    1    3    3    0    0  0.20494877220E+03 -0.11403855610E+03 -0.11657870466E+04  0.11891460085E+04  0.00000000000E+00 0.  1.
        -13    1    3    3    0    0  0.73203648973E+02 -0.11744792653E+03 -0.73632311959E+03  0.74921594091E+03  0.00000000000E+00 0. -1.
         22    1    1    2    0    0 -0.27815242118E+03  0.23148648263E+03 -0.19894080292E+03  0.41295545052E+03  0.00000000000E+00 0.  1.
<mgrwt>
<rscale>  0 0.10555938E+04</rscale>
<asrwt>0</asrwt>
<pdfrwt beam="1">  1        2 0.34248986E+00 0.10555938E+04</pdfrwt>
<pdfrwt beam="2">  1       -2 0.19251265E-01 0.10555938E+04</pdfrwt>
<totfact> 0.11419254E+02</totfact>
</mgrwt>
</event>
<event>
 6    1  0.3017327E-006  0.3310323E+04  0.7818608E-02  0.8160274E-01
         -2   -1    0    0    0  501 -0.00000000000E+00  0.00000000000E+00  0.12394935842E+04  0.12394935842E+04  0.00000000000E+00 0.  1.
          2   -1    0    0  501    0  0.00000000000E+00 -0.00000000000E+00 -0.22102254410E+04  0.22102254410E+04  0.00000000000E+00 0. -1.
         23    2    1    2    0    0  0.44272778774E+02  0.98464478367E+03  0.89906511477E+03  0.13360430463E+04  0.72163092640E+02 0.  0.
         13    1    3    3    0    0  0.37785938225E+02  0.26212455807E+03  0.21633965195E+03  0.34196477315E+03  0.00000000000E+00 0.  1.
        -13    1    3    3    0    0  0.64868405490E+01  0.72252022559E+03  0.68272546282E+03  0.99407827311E+03  0.00000000000E+00 0. -1.
         22    1    1    2    0    0 -0.44272778774E+02 -0.98464478367E+03 -0.18697969715E+04  0.21136759789E+04  0.00000000000E+00 0. -1.
<mgrwt>
<rscale>  0 0.33103234E+04</rscale>
<asrwt>0</asrwt>
<pdfrwt beam="1">  1        2 0.34003468E+00 0.33103234E+04</pdfrwt>
<pdfrwt beam="2">  1       -2 0.19069132E+00 0.33103234E+04</pdfrwt>
<totfact> 0.65214012E-01</totfact>
</mgrwt>
</event>
<event>
 6    1  0.3017327E-006  0.3453823E+04  0.7818608E-02  0.8124821E-01
         -2   -1    0    0    0  501 -0.00000000000E+00  0.00000000000E+00  0.21028123109E+04  0.21028123109E+04  0.00000000000E+00 0. -1.
          2   -1    0    0  501    0  0.00000000000E+00 -0.00000000000E+00 -0.14182073635E+04  0.14182073635E+04  0.00000000000E+00 0.  1.
         23    2    1    2    0    0 -0.46405246010E+03  0.85747942778E+03 -0.11090601780E+04  0.14794883284E+04  0.90860226941E+02 0.  0.
         11    1    3    3    0    0 -0.72050454531E+02  0.75126683529E+02 -0.12302667195E+03  0.16115473492E+03  0.00000000000E+00 0.  1.
        -11    1    3    3    0    0 -0.39200200557E+03  0.78235274425E+03 -0.98603350600E+03  0.13183335935E+04  0.00000000000E+00 0. -1.
         22    1    1    2    0    0  0.46405246010E+03 -0.85747942778E+03  0.17936651253E+04  0.20415313460E+04  0.00000000000E+00 0. -1.
<mgrwt>
<rscale>  0 0.34538233E+04</rscale>
<asrwt>0</asrwt>
<pdfrwt beam="1">  1        2 0.21818575E+00 0.34538233E+04</pdfrwt>
<pdfrwt beam="2">  1       -2 0.32350959E+00 0.34538233E+04</pdfrwt>
<totfact> 0.26534015E-01</totfact>
</mgrwt>
</event>
<event>
 6    1  0.3017327E-006  0.2959388E+04  0.7818608E-02  0.8255424E-01
         -2   -1    0    0    0  501 -0.00000000000E+00  0.00000000000E+00  0.13795125295E+04  0.13795125295E+04  0.00000000000E+00 0. -1.
          2   -1    0    0  501    0  0.00000000000E+00 -0.00000000000E+00 -0.15871503353E+04  0.15871503353E+04  0.00000000000E+00 0.  1.
         23    2    1    2    0    0 -0.13782883615E+04 -0.47527490867E+03  0.14133105248E+03  0.14675483561E+04  0.90325327124E+02 0.  0.
         13    1    3    3    0    0 -0.30018435776E+03 -0.66148229740E+02  0.19424486115E+02  0.30799926558E+03  0.00000000000E+00 0. -1.
        -13    1    3    3    0    0 -0.10781040038E+04 -0.40912667893E+03  0.12190656637E+03  0.11595490905E+04  0.00000000000E+00 0.  1.
         22    1    1    2    0    0  0.13782883615E+04  0.47527490867E+03 -0.34896885822E+03  0.14991145087E+04  0.00000000000E+00 0.  1.
<mgrwt>
<rscale>  0 0.29593876E+04</rscale>
<asrwt>0</asrwt>
<pdfrwt beam="1">  1        2 0.24417697E+00 0.29593876E+04</pdfrwt>
<pdfrwt beam="2">  1       -2 0.21223270E+00 0.29593876E+04</pdfrwt>
<totfact> 0.10789255E+00</totfact>
</mgrwt>
</event>
<event>
 6    1  0.3017327E-006  0.1252034E+04  0.7818608E-02  0.9068492E-01
         -2   -1    0    0    0  501 -0.00000000000E+00  0.00000000000E+00  0.11912488304E+03  0.11912488304E+03  0.00000000000E+00 0.  1.
          2   -1    0    0  501    0  0.00000000000E+00 -0.00000000000E+00 -0.32898021393E+04  0.32898021393E+04  0.00000000000E+00 0. -1.
         23    2    1    2    0    0 -0.13330563496E+03 -0.57045608225E+03 -0.21708926728E+04  0.22501519158E+04  0.84959481656E+02 0.  0.
         13    1    3    3    0    0 -0.54840098608E+02 -0.37316387306E+03 -0.12880942535E+04  0.13421793914E+04  0.00000000000E+00 0. -1.
        -13    1    3    3    0    0 -0.78465536348E+02 -0.19729220919E+03 -0.88279841923E+03  0.90797252447E+03  0.00000000000E+00 0.  1.
         22    1    1    2    0    0  0.13330563496E+03  0.57045608225E+03 -0.99978458348E+03  0.11587751065E+04  0.00000000000E+00 0.  1.
<mgrwt>
<rscale>  0 0.12520340E+04</rscale>
<asrwt>0</asrwt>
<pdfrwt beam="1">  1        2 0.50612339E+00 0.12520340E+04</pdfrwt>
<pdfrwt beam="2">  1       -2 0.18326906E-01 0.12520340E+04</pdfrwt>
<totfact> 0.28220051E+01</totfact>
</mgrwt>
</event>
<event>
 6    1  0.3017327E-006  0.1508408E+04  0.7818608E-02  0.8878881E-01
          2   -1    0    0  501    0  0.00000000000E+00  0.00000000000E+00  0.14402890007E+04  0.14402890007E+04  0.00000000000E+00 0. -1.
         -2   -1    0    0    0  501 -0.00000000000E+00 -0.00000000000E+00 -0.39493709785E+03  0.39493709785E+03  0.00000000000E+00 0.  1.
         23    2    1    2    0    0 -0.26576363835E+03  0.52985815804E+03 -0.36899395452E+02  0.60126991950E+03  0.93722844588E+02 0.  0.
         11    1    3    3    0    0 -0.11283290792E+03  0.13131034787E+03 -0.16224681823E+02  0.17388764438E+03  0.00000000000E+00 0. -1.
        -11    1    3    3    0    0 -0.15293073043E+03  0.39854781017E+03 -0.20674713629E+02  0.42738227512E+03  0.00000000000E+00 0.  1.
         22    1    1    2    0    0  0.26576363835E+03 -0.52985815804E+03  0.10822512983E+04  0.12339561790E+04  0.00000000000E+00 0. -1.
<mgrwt>
<rscale>  0 0.15084078E+04</rscale>
<asrwt>0</asrwt>
<pdfrwt beam="1">  1        2 0.22158292E+00 0.15084078E+04</pdfrwt>
<pdfrwt beam="2">  1       -2 0.60759554E-01 0.15084078E+04</pdfrwt>
<totfact> 0.33413389E+01</totfact>
</mgrwt>
</event>
<event>
 6    1  0.3017327E-006  0.2615465E+04  0.7818608E-02  0.8362967E-01
         -2   -1    0    0    0  501 -0.00000000000E+00  0.00000000000E+00  0.73195134182E+03  0.73195134182E+03  0.00000000000E+00 0.  1.
          2   -1    0    0  501    0  0.00000000000E+00 -0.00000000000E+00 -0.23364454800E+04  0.23364454800E+04  0.00000000000E+00 0. -1.
         23    2    1    2    0    0 -0.82303816523E+03 -0.81817400541E+03 -0.10018377497E+03  0.11684625615E+04  0.92018717455E+02 0.  0.
         13    1    3    3    0    0 -0.36640106176E+03 -0.39925803800E+03 -0.85501771991E+02  0.54860484138E+03  0.00000000000E+00 0.  1.
        -13    1    3    3    0    0 -0.45663710347E+03 -0.41891596741E+03 -0.14682002976E+02  0.61985772014E+03  0.00000000000E+00 0. -1.
         22    1    1    2    0    0  0.82303816523E+03  0.81817400541E+03 -0.15043103632E+04  0.18999342603E+04  0.00000000000E+00 0. -1.
<mgrwt>
<rscale>  0 0.26154651E+04</rscale>
<asrwt>0</asrwt>
<pdfrwt beam="1">  1        2 0.35945315E+00 0.26154651E+04</pdfrwt>
<pdfrwt beam="2">  1       -2 0.11260790E+00 0.26154651E+04</pdfrwt>
<totfact> 0.23696039E+00</totfact>
</mgrwt>
</event>
<event>
 6    1  0.3017327E-006  0.1707491E+04  0.7818608E-02  0.8757103E-01
          2   -1    0    0  501    0  0.00000000000E+00  0.00000000000E+00  0.21493795826E+04  0.21493795826E+04  0.00000000000E+00 0. -1.
         -2   -1    0    0    0  501 -0.00000000000E+00 -0.00000000000E+00 -0.33911252510E+03  0.33911252510E+03  0.00000000000E+00 0.  1.
         23    2    1    2    0    0  0.17068355996E+03 -0.83192973273E+03  0.81764940835E+03  0.11821499798E+04  0.87681593512E+02 0.  0.
         13    1    3    3    0    0  0.17865401569E+03 -0.73062752446E+03  0.72160390920E+03  0.10423272224E+04  0.00000000000E+00 0. -1.
        -13    1    3    3    0    0 -0.79704557304E+01 -0.10130220827E+03  0.96045499153E+02  0.13982275735E+03  0.00000000000E+00 0.  1.
         22    1    1    2    0    0 -0.17068355996E+03  0.83192973273E+03  0.99261764919E+03  0.13063421280E+04  0.00000000000E+00 0.  1.
<mgrwt>
<rscale>  0 0.17074912E+04</rscale>
<asrwt>0</asrwt>
<pdfrwt beam="1">  1        2 0.33067377E+00 0.17074912E+04</pdfrwt>
<pdfrwt beam="2">  1       -2 0.52171159E-01 0.17074912E+04</pdfrwt>
<totfact> 0.18191228E+01</totfact>
</mgrwt>
</event>
<event>
 6    1  0.3017327E-006  0.2489048E+04  0.7818608E-02  0.8406898E-01
         -2   -1    0    0    0  501 -0.00000000000E+00  0.00000000000E+00  0.14723329442E+04  0.14723329442E+04  0.00000000000E+00 0.  1.
          2   -1    0    0  501    0  0.00000000000E+00 -0.00000000000E+00 -0.10519634631E+04  0.10519634631E+04  0.00000000000E+00 0. -1.
         23    2    1    2    0    0  0.63657946733E+03  0.68258822187E+03 -0.62187183643E+03  0.11252156152E+04  0.90694547519E+02 0.  0.
         11    1    3    3    0    0  0.19071030632E+03  0.26643722721E+03 -0.20640024146E+03  0.38724704860E+03  0.00000000000E+00 0.  1.
        -11    1    3    3    0    0  0.44586916101E+03  0.41615099466E+03 -0.41547159498E+03  0.73796856663E+03  0.00000000000E+00 0. -1.
         22    1    1    2    0    0 -0.63657946733E+03 -0.68258822187E+03  0.10422413175E+04  0.13990807921E+04  0.00000000000E+00 0.  1.
<mgrwt>
<rscale>  0 0.24890484E+04</rscale>
<asrwt>0</asrwt>
<pdfrwt beam="1">  1        2 0.16184053E+00 0.24890484E+04</pdfrwt>
<pdfrwt beam="2">  1       -2 0.22651276E+00 0.24890484E+04</pdfrwt>
<totfact> 0.18732546E+00</totfact>
</mgrwt>
</event>
<event>
 6    1  0.3017327E-006  0.4896422E+04  0.7818608E-02  0.7844687E-01
          2   -1    0    0  501    0  0.00000000000E+00  0.00000000000E+00  0.36479641097E+04  0.36479641097E+04  0.00000000000E+00 0.  1.
         -2   -1    0    0    0  501 -0.00000000000E+00 -0.00000000000E+00 -0.16430360854E+04  0.16430360854E+04  0.00000000000E+00 0. -1.
         23    2    1    2    0    0 -0.11052416858E+04  0.11644373823E+04  0.29988577841E+04  0.34027814660E+04  0.91104854302E+02 0.  0.
         11    1    3    3    0    0 -0.58640152692E+03  0.65230276727E+03  0.15555961544E+04  0.17858457511E+04  0.00000000000E+00 0. -1.
        -11    1    3    3    0    0 -0.51884015884E+03  0.51213461506E+03  0.14432616297E+04  0.16169357149E+04  0.00000000000E+00 0.  1.
         22    1    1    2    0    0  0.11052416858E+04 -0.11644373823E+04 -0.99392975990E+03  0.18882187291E+04  0.00000000000E+00 0. -1.
<mgrwt>
<rscale>  0 0.48964218E+04</rscale>
<asrwt>0</asrwt>
<pdfrwt beam="1">  1        2 0.56122525E+00 0.48964218E+04</pdfrwt>
<pdfrwt beam="2">  1       -2 0.25277478E+00 0.48964218E+04</pdfrwt>
<totfact> 0.28830063E-02</totfact>
</mgrwt>
</event>
<event>
 6    1  0.3017327E-006  0.1016195E+04  0.7818608E-02  0.9290958E-01
          2   -1    0    0  501    0  0.00000000000E+00  0.00000000000E+00  0.29648203499E+03  0.29648203499E+03  0.00000000000E+00 0. -1.
         -2   -1    0    0    0  501 -0.00000000000E+00 -0.00000000000E+00 -0.87075535500E+03  0.87075535500E+03  0.00000000000E+00 0.  1.
         23    2    1    2    0    0  0.85373250512E+01 -0.47213256662E+03 -0.87046549617E+02  0.48873022557E+03  0.91093826395E+02 0.  0.
         11    1    3    3    0    0  0.42313224701E+02 -0.27143155545E+03 -0.24437975341E+02  0.27579469342E+03  0.00000000000E+00 0. -1.
        -11    1    3    3    0    0 -0.33775899650E+02 -0.20070101117E+03 -0.62608574275E+02  0.21293553215E+03  0.00000000000E+00 0.  1.
         22    1    1    2    0    0 -0.85373250512E+01  0.47213256662E+03 -0.48722677040E+03  0.67850716442E+03  0.00000000000E+00 0.  1.
<mgrwt>
<rscale>  0 0.10161955E+04</rscale>
<asrwt>0</asrwt>
<pdfrwt beam="1">  1        2 0.45612622E-01 0.10161955E+04</pdfrwt>
<pdfrwt beam="2">  1       -2 0.13396236E+00 0.10161955E+04</pdfrwt>
<totfact> 0.44617007E+01</totfact>
</mgrwt>
</event>
<event>
 6    1  0.3017327E-006  0.1533843E+04  0.7818608E-02  0.8862254E-01
         -2   -1    0    0    0  501 -0.00000000000E+00  0.00000000000E+00  0.39560288660E+03  0.39560288660E+03  0.00000000000E+00 0.  1.
          2   -1    0    0  501    0  0.00000000000E+00 -0.00000000000E+00 -0.14867653588E+04  0.14867653588E+04  0.00000000000E+00 0. -1.
         23    2    1    2    0    0  0.26917293573E+03  0.71519887020E+03 -0.53440804127E+03  0.93688477671E+03  0.90540802870E+02 0.  0.
         11    1    3    3    0    0  0.25356806427E+03  0.66209172661E+03 -0.46400157738E+03  0.84732501525E+03  0.00000000000E+00 0. -1.
        -11    1    3    3    0    0  0.15604871465E+02  0.53107143584E+02 -0.70406463896E+02  0.89559761452E+02  0.00000000000E+00 0.  1.
         22    1    1    2    0    0 -0.26917293573E+03 -0.71519887020E+03 -0.55675443097E+03  0.94548346874E+03  0.00000000000E+00 0. -1.
<mgrwt>
<rscale>  0 0.15338431E+04</rscale>
<asrwt>0</asrwt>
<pdfrwt beam="1">  1        2 0.22873313E+00 0.15338431E+04</pdfrwt>
<pdfrwt beam="2">  1       -2 0.60861984E-01 0.15338431E+04</pdfrwt>
<totfact> 0.31271001E+01</totfact>
</mgrwt>
</event>
<event>
 6    1  0.3017327E-006  0.1423193E+04  0.7818608E-02  0.8937199E-01
          2   -1    0    0  501    0  0.00000000000E+00  0.00000000000E+00  0.90256595587E+03  0.90256595587E+03  0.00000000000E+00 0. -1.
         -2   -1    0    0    0  501 -0.00000000000E+00 -0.00000000000E+00 -0.56103320245E+03  0.56103320245E+03  0.00000000000E+00 0.  1.
         23    2    1    2    0    0  0.28731055936E+03  0.24408989868E+03 -0.44473581069E+03  0.59162123942E+03  0.10049136018E+03 0.  0.
         11    1    3    3    0    0  0.13774253504E+03  0.55710087429E+02 -0.19110817331E+03  0.24207220763E+03  0.00000000000E+00 0. -1.
        -11    1    3    3    0    0  0.14956802431E+03  0.18837981125E+03 -0.25362763738E+03  0.34954903179E+03  0.00000000000E+00 0.  1.
         22    1    1    2    0    0 -0.28731055936E+03 -0.24408989868E+03  0.78626856411E+03  0.87197791891E+03  0.00000000000E+00 0. -1.
<mgrwt>
<rscale>  0 0.14231928E+04</rscale>
<asrwt>0</asrwt>
<pdfrwt beam="1">  1        2 0.13885630E+00 0.14231928E+04</pdfrwt>
<pdfrwt beam="2">  1       -2 0.86312800E-01 0.14231928E+04</pdfrwt>
<totfact> 0.33026139E+01</totfact>
</mgrwt>
</event>
<event>
 6    1  0.3017327E-006  0.2256079E+04  0.7818608E-02  0.8495443E-01
          2   -1    0    0  501    0  0.00000000000E+00  0.00000000000E+00  0.98940130579E+03  0.98940130579E+03  0.00000000000E+00 0. -1.
         -2   -1    0    0    0  501 -0.00000000000E+00 -0.00000000000E+00 -0.12861039853E+04  0.12861039853E+04  0.00000000000E+00 0.  1.
         23    2    1    2    0    0 -0.27761192774E+03 -0.23560554276E+03 -0.12234926764E+04  0.12797552960E+04  0.90889681607E+02 0.  0.
         11    1    3    3    0    0 -0.23292857703E+03 -0.18826983908E+03 -0.11013824054E+04  0.11413783147E+04  0.00000000000E+00 0. -1.
        -11    1    3    3    0    0 -0.44683350715E+02 -0.47335703673E+02 -0.12211027100E+03  0.13837698131E+03  0.00000000000E+00 0.  1.
         22    1    1    2    0    0  0.27761192774E+03  0.23560554276E+03  0.92678999694E+03  0.99574999504E+03  0.00000000000E+00 0. -1.
<mgrwt>
<rscale>  0 0.22560789E+04</rscale>
<asrwt>0</asrwt>
<pdfrwt beam="1">  1        2 0.15221559E+00 0.22560789E+04</pdfrwt>
<pdfrwt beam="2">  1       -2 0.19786215E+00 0.22560789E+04</pdfrwt>
<totfact> 0.31977839E+00</totfact>
</mgrwt>
</event>
<event>
 6    1  0.3017327E-006  0.1881973E+04  0.7818608E-02  0.8663882E-01
         -2   -1    0    0    0  501 -0.00000000000E+00  0.00000000000E+00  0.10558171353E+04  0.10558171353E+04  0.00000000000E+00 0.  1.
          2   -1    0    0  501    0  0.00000000000E+00 -0.00000000000E+00 -0.83864495033E+03  0.83864495033E+03  0.00000000000E+00 0. -1.
         23    2    1    2    0    0  0.47567500081E+03  0.74054954113E+03  0.43754656225E+03  0.98713348179E+03  0.91132801240E+02 0.  0.
         11    1    3    3    0    0  0.31923166714E+03  0.56798324072E+03  0.30926362675E+03  0.72121966826E+03  0.00000000000E+00 0.  1.
        -11    1    3    3    0    0  0.15644333367E+03  0.17256630040E+03  0.12828293550E+03  0.26591381353E+03  0.00000000000E+00 0. -1.
         22    1    1    2    0    0 -0.47567500081E+03 -0.74054954113E+03 -0.22037437725E+03  0.90732860387E+03  0.00000000000E+00 0. -1.
<mgrwt>
<rscale>  0 0.18819731E+04</rscale>
<asrwt>0</asrwt>
<pdfrwt beam="1">  1        2 0.12902230E+00 0.18819731E+04</pdfrwt>
<pdfrwt beam="2">  1       -2 0.16243340E+00 0.18819731E+04</pdfrwt>
<totfact> 0.73255981E+00</totfact>
</mgrwt>
</event>
<event>
 6    1  0.3017327E-006  0.3656584E+04  0.7818608E-02  0.8077652E-01
          2   -1    0    0  501    0  0.00000000000E+00  0.00000000000E+00  0.17207969465E+04  0.17207969465E+04  0.00000000000E+00 0. -1.
         -2   -1    0    0    0  501 -0.00000000000E+00 -0.00000000000E+00 -0.19425021771E+04  0.19425021771E+04  0.00000000000E+00 0.  1.
         23    2    1    2    0    0 -0.10301804272E+04 -0.79845876017E+03  0.11719394555E+04  0.17551446185E+04  0.91007912120E+02 0.  0.
         11    1    3    3    0    0 -0.98444929019E+03 -0.76131403817E+03  0.11420179465E+04  0.16890661502E+04  0.00000000000E+00 0. -1.
        -11    1    3    3    0    0 -0.45731137013E+02 -0.37144722005E+02  0.29921509001E+02  0.66078468250E+02  0.00000000000E+00 0.  1.
         22    1    1    2    0    0  0.10301804272E+04  0.79845876017E+03 -0.13936446862E+04  0.19081545052E+04  0.00000000000E+00 0.  1.
<mgrwt>
<rscale>  0 0.36565841E+04</rscale>
<asrwt>0</asrwt>
<pdfrwt beam="1">  1        2 0.26473799E+00 0.36565841E+04</pdfrwt>
<pdfrwt beam="2">  1       -2 0.29884649E+00 0.36565841E+04</pdfrwt>
<totfact> 0.25024613E-01</totfact>
</mgrwt>
</event>
<event>
 6    1  0.3017327E-006  0.3004471E+04  0.7818608E-02  0.8242455E-01
          2   -1    0    0  501    0  0.00000000000E+00  0.00000000000E+00  0.18212623679E+04  0.18212623679E+04  0.00000000000E+00 0. -1.
         -2   -1    0    0    0  501 -0.00000000000E+00 -0.00000000000E+00 -0.12390915278E+04  0.12390915278E+04  0.00000000000E+00 0.  1.
         23    2    1    2    0    0 -0.87687004826E+03 -0.46136211922E+03  0.14403783988E+04  0.17495235098E+04  0.66230603687E+02 0.  0.
         11    1    3    3    0    0 -0.11442707321E+03 -0.56776446842E+02  0.14918130799E+03  0.19639802100E+03  0.00000000000E+00 0.  1.
        -11    1    3    3    0    0 -0.76244297505E+03 -0.40458567237E+03  0.12911970909E+04  0.15531254888E+04  0.00000000000E+00 0. -1.
         22    1    1    2    0    0  0.87687004826E+03  0.46136211922E+03 -0.85820755882E+03  0.13108303859E+04  0.00000000000E+00 0.  1.
<mgrwt>
<rscale>  0 0.30044705E+04</rscale>
<asrwt>0</asrwt>
<pdfrwt beam="1">  1        2 0.28019421E+00 0.30044705E+04</pdfrwt>
<pdfrwt beam="2">  1       -2 0.19062947E+00 0.30044705E+04</pdfrwt>
<totfact> 0.11031391E+00</totfact>
</mgrwt>
</event>
<event>
 6    1  0.3017327E-006  0.3729435E+04  0.7818608E-02  0.8061470E-01
          2   -1    0    0  501    0  0.00000000000E+00  0.00000000000E+00  0.37753022190E+04  0.37753022190E+04  0.00000000000E+00 0. -1.
         -2   -1    0    0    0  501 -0.00000000000E+00 -0.00000000000E+00 -0.92103140837E+03  0.92103140837E+03  0.00000000000E+00 0.  1.
         23    2    1    2    0    0 -0.66228320650E+03  0.77385450031E+03 -0.53721385460E+03  0.11551984891E+04  0.91733256054E+02 0.  0.
         13    1    3    3    0    0 -0.50552243387E+03  0.64040075590E+03 -0.40893332798E+03  0.91262945713E+03  0.00000000000E+00 0. -1.
        -13    1    3    3    0    0 -0.15676077263E+03  0.13345374441E+03 -0.12828052662E+03  0.24256903192E+03  0.00000000000E+00 0.  1.
         22    1    1    2    0    0  0.66228320650E+03 -0.77385450031E+03  0.33914846652E+04  0.35411351383E+04  0.00000000000E+00 0. -1.
<mgrwt>
<rscale>  0 0.37294353E+04</rscale>
<asrwt>0</asrwt>
<pdfrwt beam="1">  1        2 0.58081572E+00 0.37294353E+04</pdfrwt>
<pdfrwt beam="2">  1       -2 0.14169714E+00 0.37294353E+04</pdfrwt>
<totfact> 0.14357085E-01</totfact>
</mgrwt>
</event>
<event>
 6    1  0.3017327E-006  0.6495354E+03  0.7818608E-02  0.9807651E-01
          2   -1    0    0  501    0  0.00000000000E+00  0.00000000000E+00  0.29765844309E+03  0.29765844309E+03  0.00000000000E+00 0. -1.
         -2   -1    0    0    0  501 -0.00000000000E+00 -0.00000000000E+00 -0.35434590219E+03  0.35434590219E+03  0.00000000000E+00 0.  1.
         23    2    1    2    0    0 -0.15779304146E+03  0.18696169486E+03 -0.23351748127E+03  0.35013984585E+03  0.90632104213E+02 0.  0.
         13    1    3    3    0    0 -0.74830593477E+02  0.15475517757E+03 -0.15279584863E+03  0.22998989992E+03  0.00000000000E+00 0. -1.
        -13    1    3    3    0    0 -0.82962447981E+02  0.32206517287E+02 -0.80721632640E+02  0.12014994593E+03  0.00000000000E+00 0.  1.
         22    1    1    2    0    0  0.15779304146E+03 -0.18696169486E+03  0.17683002217E+03  0.30186449943E+03  0.00000000000E+00 0. -1.
<mgrwt>
<rscale>  0 0.64953537E+03</rscale>
<asrwt>0</asrwt>
<pdfrwt beam="1">  1        2 0.45793606E-01 0.64953537E+03</pdfrwt>
<pdfrwt beam="2">  1       -2 0.54514754E-01 0.64953537E+03</pdfrwt>
<totfact> 0.35413559E+02</totfact>
</mgrwt>
</event>
<event>
 6    1  0.3017327E-006  0.1913997E+04  0.7818608E-02  0.8647921E-01
          2   -1    0    0  501    0  0.00000000000E+00  0.00000000000E+00  0.28811481568E+04  0.28811481568E+04  0.00000000000E+00 0. -1.
         -2   -1    0    0    0  501 -0.00000000000E+00 -0.00000000000E+00 -0.31787526073E+03  0.31787526073E+03  0.00000000000E+00 0.  1.
         23    2    1    2    0    0  0.19481334172E+03 -0.84952417731E+03  0.19365030421E+04  0.21254853345E+04  0.89444445940E+02 0.  0.
         13    1    3    3    0    0  0.58168531225E+02 -0.28832410822E+03  0.75749333593E+03  0.81259493192E+03  0.00000000000E+00 0. -1.
        -13    1    3    3    0    0  0.13664481050E+03 -0.56120006910E+03  0.11790097062E+04  0.13128904025E+04  0.00000000000E+00 0.  1.
         22    1    1    2    0    0 -0.19481334172E+03  0.84952417731E+03  0.62676985391E+03  0.10735380830E+04  0.00000000000E+00 0.  1.
<mgrwt>
<rscale>  0 0.19139966E+04</rscale>
<asrwt>0</asrwt>
<pdfrwt beam="1">  1        2 0.44325354E+00 0.19139966E+04</pdfrwt>
<pdfrwt beam="2">  1       -2 0.48903888E-01 0.19139966E+04</pdfrwt>
<totfact> 0.76604362E+00</totfact>
</mgrwt>
</event>
<event>
 6    1  0.3017327E-006  0.2227195E+04  0.7818608E-02  0.8507193E-01
         -2   -1    0    0    0  501 -0.00000000000E+00  0.00000000000E+00  0.80263867647E+03  0.80263867647E+03  0.00000000000E+00 0.  1.
          2   -1    0    0  501    0  0.00000000000E+00 -0.00000000000E+00 -0.15450285801E+04  0.15450285801E+04  0.00000000000E+00 0. -1.
         23    2    1    2    0    0  0.46158849616E+03  0.82904721268E+02 -0.14342979368E+04  0.15118001265E+04  0.91607415242E+02 0.  0.
         11    1    3    3    0    0  0.18109851060E+03  0.12456090153E+02 -0.68452177438E+03  0.70818209828E+03  0.00000000000E+00 0. -1.
        -11    1    3    3    0    0  0.28048998556E+03  0.70448631115E+02 -0.74977616241E+03  0.80361802826E+03  0.00000000000E+00 0.  1.
         22    1    1    2    0    0 -0.46158849616E+03 -0.82904721268E+02  0.69190803320E+03  0.83586712999E+03  0.00000000000E+00 0.  1.
<mgrwt>
<rscale>  0 0.22271953E+04</rscale>
<asrwt>0</asrwt>
<pdfrwt beam="1">  1        2 0.23769671E+00 0.22271953E+04</pdfrwt>
<pdfrwt beam="2">  1       -2 0.12348287E+00 0.22271953E+04</pdfrwt>
<totfact> 0.53993853E+00</totfact>
</mgrwt>
</event>
<event>
 6    1  0.3017327E-006  0.2190898E+04  0.7818608E-02  0.8522226E-01
         -2   -1    0    0    0  501 -0.00000000000E+00  0.00000000000E+00  0.11622179908E+04  0.11622179908E+04  0.00000000000E+00 0. -1.
          2   -1    0    0  501    0  0.00000000000E+00 -0.00000000000E+00 -0.10325157289E+04  0.10325157289E+04  0.00000000000E+00 0.  1.
         23    2    1    2    0    0  0.46997947982E+02  0.98698574569E+03 -0.40407235713E+03  0.10716731634E+04  0.94123482821E+02 0.  0.
         11    1    3    3    0    0 -0.64094445025E+01  0.73287502369E+03 -0.29610853242E+03  0.79046008394E+03  0.00000000000E+00 0.  1.
        -11    1    3    3    0    0  0.53407392484E+02  0.25411072200E+03 -0.10796382471E+03  0.28121307945E+03  0.00000000000E+00 0. -1.
         22    1    1    2    0    0 -0.46997947982E+02 -0.98698574569E+03  0.53377461904E+03  0.11230605564E+04  0.00000000000E+00 0. -1.
<mgrwt>
<rscale>  0 0.21908979E+04</rscale>
<asrwt>0</asrwt>
<pdfrwt beam="1">  1        2 0.15884857E+00 0.21908979E+04</pdfrwt>
<pdfrwt beam="2">  1       -2 0.17880277E+00 0.21908979E+04</pdfrwt>
<totfact> 0.40588475E+00</totfact>
</mgrwt>
</event>
<event>
 6    1  0.3017327E-006  0.1083814E+04  0.7818608E-02  0.9221113E-01
          2   -1    0    0  501    0  0.00000000000E+00  0.00000000000E+00  0.19233348932E+04  0.19233348932E+04  0.00000000000E+00 0. -1.
         -2   -1    0    0    0  501 -0.00000000000E+00 -0.00000000000E+00 -0.15268432516E+03  0.15268432516E+03  0.00000000000E+00 0.  1.
         23    2    1    2    0    0  0.34833374092E+03 -0.91634428788E+02  0.12556177600E+03  0.39196150044E+03  0.90193096363E+02 0.  0.
         11    1    3    3    0    0  0.11461632254E+03 -0.69358113827E+02  0.23737743680E+02  0.13605487798E+03  0.00000000000E+00 0. -1.
        -11    1    3    3    0    0  0.23371741838E+03 -0.22276314961E+02  0.10182403232E+03  0.25590662246E+03  0.00000000000E+00 0.  1.
         22    1    1    2    0    0 -0.34833374092E+03  0.91634428788E+02  0.16450887921E+04  0.16840577180E+04  0.00000000000E+00 0.  1.
<mgrwt>
<rscale>  0 0.10838138E+04</rscale>
<asrwt>0</asrwt>
<pdfrwt beam="1">  1        2 0.29589766E+00 0.10838138E+04</pdfrwt>
<pdfrwt beam="2">  1       -2 0.23489898E-01 0.10838138E+04</pdfrwt>
<totfact> 0.11779671E+02</totfact>
</mgrwt>
</event>
<event>
 6    1  0.3017327E-006  0.5338739E+03  0.7818608E-02  0.1005297E+00
         -2   -1    0    0    0  501 -0.00000000000E+00  0.00000000000E+00  0.73217421876E+02  0.73217421876E+02  0.00000000000E+00 0.  1.
          2   -1    0    0  501    0  0.00000000000E+00 -0.00000000000E+00 -0.97320173681E+03  0.97320173681E+03  0.00000000000E+00 0. -1.
         23    2    1    2    0    0  0.14164568716E+03  0.20237450999E+03 -0.61590429478E+03  0.66996145743E+03  0.92148310499E+02 0.  0.
         11    1    3    3    0    0  0.94657060820E+02  0.56148821847E+02 -0.25775347797E+03  0.28026684564E+03  0.00000000000E+00 0. -1.
        -11    1    3    3    0    0  0.46988626341E+02  0.14622568814E+03 -0.35815081681E+03  0.38969461179E+03  0.00000000000E+00 0.  1.
         22    1    1    2    0    0 -0.14164568716E+03 -0.20237450999E+03 -0.28408002016E+03  0.37645770126E+03  0.00000000000E+00 0.  1.
<mgrwt>
<rscale>  0 0.53387385E+03</rscale>
<asrwt>0</asrwt>
<pdfrwt beam="1">  1        2 0.14972333E+00 0.53387385E+03</pdfrwt>
<pdfrwt beam="2">  1       -2 0.11264220E-01 0.53387385E+03</pdfrwt>
<totfact> 0.14910257E+03</totfact>
</mgrwt>
</event>
<event>
 6    1  0.3017327E-006  0.3450839E+04  0.7818608E-02  0.8125540E-01
          2   -1    0    0  501    0  0.00000000000E+00  0.00000000000E+00  0.21304597282E+04  0.21304597282E+04  0.00000000000E+00 0. -1.
         -2   -1    0    0    0  501 -0.00000000000E+00 -0.00000000000E+00 -0.13973851693E+04  0.13973851693E+04  0.00000000000E+00 0.  1.
         23    2    1    2    0    0 -0.16800149193E+04 -0.25104676585E+03  0.64541679113E+02  0.17023556977E+04  0.91513307627E+02 0.  0.
         11    1    3    3    0    0 -0.86131959201E+03 -0.82832608696E+02  0.26956827813E+02  0.86571320379E+03  0.00000000000E+00 0. -1.
        -11    1    3    3    0    0 -0.81869532724E+03 -0.16821415715E+03  0.37584851300E+02  0.83664249388E+03  0.00000000000E+00 0.  1.
         22    1    1    2    0    0  0.16800149193E+04  0.25104676585E+03  0.66853287980E+03  0.18254891999E+04  0.00000000000E+00 0. -1.
<mgrwt>
<rscale>  0 0.34508392E+04</rscale>
<asrwt>0</asrwt>
<pdfrwt beam="1">  1        2 0.32776303E+00 0.34508392E+04</pdfrwt>
<pdfrwt beam="2">  1       -2 0.21498233E+00 0.34508392E+04</pdfrwt>
<totfact> 0.49585823E-01</totfact>
</mgrwt>
</event>
<event>
 6    1  0.3017327E-006  0.2149950E+04  0.7818608E-02  0.8539554E-01
         -2   -1    0    0    0  501 -0.00000000000E+00  0.00000000000E+00  0.17738686561E+04  0.17738686561E+04  0.00000000000E+00 0.  1.
          2   -1    0    0  501    0  0.00000000000E+00 -0.00000000000E+00 -0.65144108940E+03  0.65144108940E+03  0.00000000000E+00 0. -1.
         23    2    1    2    0    0 -0.64687325738E+03  0.82148687961E+03  0.29043576284E+03  0.10890851887E+04  0.92021255185E+02 0.  0.
         13    1    3    3    0    0 -0.17278852771E+03  0.28067821518E+03  0.70930634998E+02  0.33714580046E+03  0.00000000000E+00 0. -1.
        -13    1    3    3    0    0 -0.47408472967E+03  0.54080866443E+03  0.21950512784E+03  0.75193938823E+03  0.00000000000E+00 0.  1.
         22    1    1    2    0    0  0.64687325738E+03 -0.82148687961E+03  0.83199180382E+03  0.13362245568E+04  0.00000000000E+00 0.  1.
<mgrwt>
<rscale>  0 0.21499497E+04</rscale>
<asrwt>0</asrwt>
<pdfrwt beam="1">  1        2 0.10022171E+00 0.21499497E+04</pdfrwt>
<pdfrwt beam="2">  1       -2 0.27290287E+00 0.21499497E+04</pdfrwt>
<totfact> 0.19150503E+00</totfact>
</mgrwt>
</event>
<event>
 6    1  0.3017327E-006  0.1154387E+04  0.7818608E-02  0.9153746E-01
         -2   -1    0    0    0  501 -0.00000000000E+00  0.00000000000E+00  0.35089959535E+03  0.35089959535E+03  0.00000000000E+00 0. -1.
          2   -1    0    0  501    0  0.00000000000E+00 -0.00000000000E+00 -0.94942318476E+03  0.94942318476E+03  0.00000000000E+00 0.  1.
         23    2    1    2    0    0 -0.27898450475E+03  0.49278373008E+03 -0.40370691770E+03  0.70147246985E+03  0.91739806208E+02 0.  0.
         11    1    3    3    0    0 -0.92467079143E+02  0.17738873371E+03 -0.91040036682E+02  0.21978446681E+03  0.00000000000E+00 0. -1.
        -11    1    3    3    0    0 -0.18651742560E+03  0.31539499637E+03 -0.31266688102E+03  0.48168800305E+03  0.00000000000E+00 0.  1.
         22    1    1    2    0    0  0.27898450475E+03 -0.49278373008E+03 -0.19481667170E+03  0.59885031025E+03  0.00000000000E+00 0.  1.
<mgrwt>
<rscale>  0 0.11543868E+04</rscale>
<asrwt>0</asrwt>
<pdfrwt beam="1">  1        2 0.14606510E+00 0.11543868E+04</pdfrwt>
<pdfrwt beam="2">  1       -2 0.53984555E-01 0.11543868E+04</pdfrwt>
<totfact> 0.86904881E+01</totfact>
</mgrwt>
</event>
<event>
 6    1  0.3017327E-006  0.1636945E+04  0.7818608E-02  0.8798167E-01
         -2   -1    0    0    0  501 -0.00000000000E+00  0.00000000000E+00  0.41615679705E+03  0.41615679705E+03  0.00000000000E+00 0.  1.
          2   -1    0    0  501    0  0.00000000000E+00 -0.00000000000E+00 -0.16097239544E+04  0.16097239544E+04  0.00000000000E+00 0. -1.
         23    2    1    2    0    0  0.67738540411E+03  0.32013224404E+03 -0.19885447282E+03  0.78057397635E+03  0.91744165018E+02 0.  0.
         11    1    3    3    0    0  0.43332655187E+03  0.19234860435E+03 -0.16966854194E+03  0.50354473513E+03  0.00000000000E+00 0. -1.
        -11    1    3    3    0    0  0.24405885223E+03  0.12778363969E+03 -0.29185930878E+02  0.27702924121E+03  0.00000000000E+00 0.  1.
         22    1    1    2    0    0 -0.67738540411E+03 -0.32013224404E+03 -0.99471268454E+03  0.12453067751E+04  0.00000000000E+00 0. -1.
<mgrwt>
<rscale>  0 0.16369454E+04</rscale>
<asrwt>0</asrwt>
<pdfrwt beam="1">  1        2 0.24764984E+00 0.16369454E+04</pdfrwt>
<pdfrwt beam="2">  1       -2 0.64024122E-01 0.16369454E+04</pdfrwt>
<totfact> 0.23747375E+01</totfact>
</mgrwt>
</event>
<event>
 6    1  0.3017327E-006  0.7483580E+03  0.7818608E-02  0.9637930E-01
         -4   -1    0    0    0  501 -0.00000000000E+00  0.00000000000E+00  0.14691980411E+03  0.14691980411E+03  0.00000000000E+00 0. -1.
          4   -1    0    0  501    0  0.00000000000E+00 -0.00000000000E+00 -0.95296836795E+03  0.95296836795E+03  0.00000000000E+00 0.  1.
         23    2    1    2    0    0  0.33046299568E+03  0.15195026626E+03 -0.32141477798E+03  0.49394710123E+03  0.91551102562E+02 0.  0.
         13    1    3    3    0    0  0.27601037036E+03  0.12299278469E+03 -0.21466247038E+03  0.37066012170E+03  0.00000000000E+00 0. -1.
        -13    1    3    3    0    0  0.54452625316E+02  0.28957481576E+02 -0.10675230760E+03  0.12328697952E+03  0.00000000000E+00 0.  1.
         22    1    1    2    0    0 -0.33046299568E+03 -0.15195026626E+03 -0.48463378586E+03  0.60594107084E+03  0.00000000000E+00 0. -1.
<mgrwt>
<rscale>  0 0.74835801E+03</rscale>
<asrwt>0</asrwt>
<pdfrwt beam="1">  1        4 0.14661052E+00 0.74835801E+03</pdfrwt>
<pdfrwt beam="2">  1       -4 0.22603047E-01 0.74835801E+03</pdfrwt>
<totfact> 0.11626051E+01</totfact>
</mgrwt>
</event>
<event>
 6    1  0.3017327E-006  0.1575397E+04  0.7818608E-02  0.8835807E-01
         -2   -1    0    0    0  501 -0.00000000000E+00  0.00000000000E+00  0.55219150259E+03  0.55219150259E+03  0.00000000000E+00 0. -1.
          2   -1    0    0  501    0  0.00000000000E+00 -0.00000000000E+00 -0.11236474393E+04  0.11236474393E+04  0.00000000000E+00 0.  1.
         23    2    1    2    0    0  0.44847725310E+03 -0.25941471760E+02 -0.97160399859E+03  0.10742383451E+04  0.90381887546E+02 0.  0.
         13    1    3    3    0    0  0.32584881057E+03  0.21879388458E+02 -0.69740463945E+03  0.77008401238E+03  0.00000000000E+00 0.  1.
        -13    1    3    3    0    0  0.12262844253E+03 -0.47820860218E+02 -0.27419935914E+03  0.30415433277E+03  0.00000000000E+00 0. -1.
         22    1    1    2    0    0 -0.44847725310E+03  0.25941471760E+02  0.40014806192E+03  0.60160059671E+03  0.00000000000E+00 0. -1.
<mgrwt>
<rscale>  0 0.15753965E+04</rscale>
<asrwt>0</asrwt>
<pdfrwt beam="1">  1        2 0.17286884E+00 0.15753965E+04</pdfrwt>
<pdfrwt beam="2">  1       -2 0.84952540E-01 0.15753965E+04</pdfrwt>
<totfact> 0.24423911E+01</totfact>
</mgrwt>
</event>
<event>
 6    1  0.3017327E-006  0.4031332E+04  0.7818608E-02  0.7998256E-01
          2   -1    0    0  501    0  0.00000000000E+00  0.00000000000E+00  0.25957675874E+04  0.25957675874E+04  0.00000000000E+00 0. -1.
         -2   -1    0    0    0  501 -0.00000000000E+00 -0.00000000000E+00 -0.15652051447E+04  0.15652051447E+04  0.00000000000E+00 0.  1.
         23    2    1    2    0    0  0.64872144648E+03  0.12167557248E+04 -0.10005380659E+04  0.17060382553E+04  0.90311120326E+02 0.  0.
         11    1    3    3    0    0  0.47571363297E+03  0.96840597984E+03 -0.79417987042E+03  0.13397146222E+04  0.00000000000E+00 0. -1.
        -11    1    3    3    0    0  0.17300781350E+03  0.24834974497E+03 -0.20635819546E+03  0.36632363314E+03  0.00000000000E+00 0.  1.
         22    1    1    2    0    0 -0.64872144648E+03 -0.12167557248E+04  0.20311005086E+04  0.24549344767E+04  0.00000000000E+00 0. -1.
<mgrwt>
<rscale>  0 0.40313317E+04</rscale>
<asrwt>0</asrwt>
<pdfrwt beam="1">  1        2 0.39934886E+00 0.40313317E+04</pdfrwt>
<pdfrwt beam="2">  1       -2 0.24080079E+00 0.40313317E+04</pdfrwt>
<totfact> 0.17637035E-01</totfact>
</mgrwt>
</event>
<event>
 6    1  0.3017327E-006  0.4194460E+03  0.7818608E-02  0.1037247E+00
         -2   -1    0    0    0  501 -0.00000000000E+00  0.00000000000E+00  0.62690337220E+03  0.62690337220E+03  0.00000000000E+00 0. -1.
          2   -1    0    0  501    0  0.00000000000E+00 -0.00000000000E+00 -0.70160317648E+02  0.70160317648E+02  0.00000000000E+00 0.  1.
         23    2    1    2    0    0  0.11514340441E+03 -0.15479295787E+03  0.19761833576E+03  0.28940031519E+03  0.86490880574E+02 0.  0.
         11    1    3    3    0    0  0.33330563696E+02 -0.10609741421E+03  0.13731873227E+03  0.17670320317E+03  0.00000000000E+00 0. -1.
        -11    1    3    3    0    0  0.81812840713E+02 -0.48695543657E+02  0.60299603486E+02  0.11269711202E+03  0.00000000000E+00 0.  1.
         22    1    1    2    0    0 -0.11514340441E+03  0.15479295787E+03  0.35912471880E+03  0.40766337466E+03  0.00000000000E+00 0. -1.
<mgrwt>
<rscale>  0 0.41944601E+03</rscale>
<asrwt>0</asrwt>
<pdfrwt beam="1">  1        2 0.10793895E-01 0.41944601E+03</pdfrwt>
<pdfrwt beam="2">  1       -2 0.96446669E-01 0.41944601E+03</pdfrwt>
<totfact> 0.54652997E+02</totfact>
</mgrwt>
</event>
<event>
 6    1  0.3017327E-006  0.1221210E+04  0.7818608E-02  0.9094491E-01
          2   -1    0    0  501    0  0.00000000000E+00  0.00000000000E+00  0.11955858544E+04  0.11955858544E+04  0.00000000000E+00 0. -1.
         -2   -1    0    0    0  501 -0.00000000000E+00 -0.00000000000E+00 -0.31184598945E+03  0.31184598945E+03  0.00000000000E+00 0.  1.
         23    2    1    2    0    0 -0.18466879205E+03  0.18956622015E+03  0.11189125675E+04  0.11533921361E+04  0.91160141253E+02 0.  0.
         11    1    3    3    0    0 -0.60506464928E+02  0.11978317431E+03  0.45519893374E+03  0.47456834115E+03  0.00000000000E+00 0. -1.
        -11    1    3    3    0    0 -0.12416232713E+03  0.69783045843E+02  0.66371363376E+03  0.67882379496E+03  0.00000000000E+00 0.  1.
         22    1    1    2    0    0  0.18466879205E+03 -0.18956622015E+03 -0.23517270259E+03  0.35403970769E+03  0.00000000000E+00 0.  1.
<mgrwt>
<rscale>  0 0.12212103E+04</rscale>
<asrwt>0</asrwt>
<pdfrwt beam="1">  1        2 0.18393628E+00 0.12212103E+04</pdfrwt>
<pdfrwt beam="2">  1       -2 0.47976307E-01 0.12212103E+04</pdfrwt>
<totfact> 0.77267332E+01</totfact>
</mgrwt>
</event>
<event>
 6    1  0.3017327E-006  0.1602645E+04  0.7818608E-02  0.8818925E-01
          2   -1    0    0  501    0  0.00000000000E+00  0.00000000000E+00  0.37663009453E+03  0.37663009453E+03  0.00000000000E+00 0. -1.
         -2   -1    0    0    0  501 -0.00000000000E+00 -0.00000000000E+00 -0.17049028266E+04  0.17049028266E+04  0.00000000000E+00 0.  1.
         23    2    1    2    0    0  0.74518703883E+01  0.13972902122E+03 -0.16876618499E+04  0.16958643227E+04  0.90407696530E+02 0.  0.
         13    1    3    3    0    0 -0.12278151146E+02  0.13910596683E+02 -0.67102455616E+03  0.67128102361E+03  0.00000000000E+00 0. -1.
        -13    1    3    3    0    0  0.19730021535E+02  0.12581842454E+03 -0.10166372938E+04  0.10245832991E+04  0.00000000000E+00 0.  1.
         22    1    1    2    0    0 -0.74518703883E+01 -0.13972902122E+03  0.35938911787E+03  0.38566859840E+03  0.00000000000E+00 0. -1.
<mgrwt>
<rscale>  0 0.16026450E+04</rscale>
<asrwt>0</asrwt>
<pdfrwt beam="1">  1        2 0.57943092E-01 0.16026450E+04</pdfrwt>
<pdfrwt beam="2">  1       -2 0.26229274E+00 0.16026450E+04</pdfrwt>
<totfact> 0.44112225E+00</totfact>
</mgrwt>
</event>
<event>
 6    1  0.3017327E-006  0.5447168E+03  0.7818608E-02  0.1002724E+00
         -2   -1    0    0    0  501 -0.00000000000E+00  0.00000000000E+00  0.33712028795E+02  0.33712028795E+02  0.00000000000E+00 0.  1.
          2   -1    0    0  501    0  0.00000000000E+00 -0.00000000000E+00 -0.22003749795E+04  0.22003749795E+04  0.00000000000E+00 0. -1.
         23    2    1    2    0    0 -0.14781668729E+03 -0.21958866877E+03 -0.11541976011E+04  0.11875904528E+04  0.90166649701E+02 0.  0.
         13    1    3    3    0    0 -0.58913675719E+02 -0.53969611347E+02 -0.52067923267E+03  0.52677357894E+03  0.00000000000E+00 0. -1.
        -13    1    3    3    0    0 -0.88903011573E+02 -0.16561905742E+03 -0.63351836845E+03  0.66081687388E+03  0.00000000000E+00 0.  1.
         22    1    1    2    0    0  0.14781668729E+03  0.21958866877E+03 -0.10124653495E+04  0.10464965554E+04  0.00000000000E+00 0. -1.
<mgrwt>
<rscale>  0 0.54471682E+03</rscale>
<asrwt>0</asrwt>
<pdfrwt beam="1">  1        2 0.33851924E+00 0.54471682E+03</pdfrwt>
<pdfrwt beam="2">  1       -2 0.51864658E-02 0.54471682E+03</pdfrwt>
<totfact> 0.10498544E+03</totfact>
</mgrwt>
</event>
<event>
 6    1  0.3017327E-006  0.1509352E+04  0.7818608E-02  0.8878258E-01
         -2   -1    0    0    0  501 -0.00000000000E+00  0.00000000000E+00  0.51991077127E+03  0.51991077127E+03  0.00000000000E+00 0.  1.
          2   -1    0    0  501    0  0.00000000000E+00 -0.00000000000E+00 -0.10954495763E+04  0.10954495763E+04  0.00000000000E+00 0. -1.
         23    2    1    2    0    0  0.34150698473E+03 -0.15005633970E+03  0.40994213419E+03  0.56164472784E+03  0.90820268816E+02 0.  0.
         13    1    3    3    0    0  0.16457781010E+03 -0.69941182140E+02  0.26328447517E+03  0.31827085855E+03  0.00000000000E+00 0. -1.
        -13    1    3    3    0    0  0.17692917463E+03 -0.80115157557E+02  0.14665765902E+03  0.24337386929E+03  0.00000000000E+00 0.  1.
         22    1    1    2    0    0 -0.34150698473E+03  0.15005633970E+03 -0.98548093927E+03  0.10537156198E+04  0.00000000000E+00 0. -1.
<mgrwt>
<rscale>  0 0.15093522E+04</rscale>
<asrwt>0</asrwt>
<pdfrwt beam="1">  1        2 0.16853070E+00 0.15093522E+04</pdfrwt>
<pdfrwt beam="2">  1       -2 0.79986272E-01 0.15093522E+04</pdfrwt>
<totfact> 0.29282527E+01</totfact>
</mgrwt>
</event>
<event>
 6    1  0.3017327E-006  0.2073738E+04  0.7818608E-02  0.8572901E-01
          1   -1    0    0  501    0  0.00000000000E+00  0.00000000000E+00  0.88057228616E+03  0.88057228616E+03  0.00000000000E+00 0. -1.
         -1   -1    0    0    0  501 -0.00000000000E+00 -0.00000000000E+00 -0.12209078052E+04  0.12209078052E+04  0.00000000000E+00 0.  1.
         23    2    1    2    0    0 -0.40017713293E+03 -0.66879751277E+03  0.51930799026E+03  0.94112720801E+03  0.92778133689E+02 0.  0.
         11    1    3    3    0    0 -0.31003090751E+03 -0.45051337756E+03  0.39171776557E+03  0.67269924545E+03  0.00000000000E+00 0.  1.
        -11    1    3    3    0    0 -0.90146225417E+02 -0.21828413521E+03  0.12759022469E+03  0.26842796255E+03  0.00000000000E+00 0. -1.
         22    1    1    2    0    0  0.40017713293E+03  0.66879751277E+03 -0.85964350927E+03  0.11603528833E+04  0.00000000000E+00 0.  1.
<mgrwt>
<rscale>  0 0.20737382E+04</rscale>
<asrwt>0</asrwt>
<pdfrwt beam="1">  1        1 0.13547266E+00 0.20737382E+04</pdfrwt>
<pdfrwt beam="2">  1       -1 0.18783197E+00 0.20737382E+04</pdfrwt>
<totfact> 0.31851960E+00</totfact>
</mgrwt>
</event>
<event>
 6    1  0.3017327E-006  0.1612035E+04  0.7818608E-02  0.8813188E-01
         -2   -1    0    0    0  501 -0.00000000000E+00  0.00000000000E+00  0.13578023822E+04  0.13578023822E+04  0.00000000000E+00 0.  1.
          2   -1    0    0  501    0  0.00000000000E+00 -0.00000000000E+00 -0.47846746403E+03  0.47846746403E+03  0.00000000000E+00 0. -1.
         23    2    1    2    0    0 -0.55131899566E+03  0.35929869185E+03  0.96619220101E+03  0.11724985208E+04  0.90428021503E+02 0.  0.
         11    1    3    3    0    0 -0.43724540227E+03  0.32424735848E+03  0.81040628973E+03  0.97625726411E+03  0.00000000000E+00 0.  1.
        -11    1    3    3    0    0 -0.11407359339E+03  0.35051333371E+02  0.15578591128E+03  0.19624125671E+03  0.00000000000E+00 0. -1.
         22    1    1    2    0    0  0.55131899566E+03 -0.35929869185E+03 -0.86857282797E+02  0.66377132547E+03  0.00000000000E+00 0. -1.
<mgrwt>
<rscale>  0 0.16120351E+04</rscale>
<asrwt>0</asrwt>
<pdfrwt beam="1">  1        2 0.73610380E-01 0.16120351E+04</pdfrwt>
<pdfrwt beam="2">  1       -2 0.20889267E+00 0.16120351E+04</pdfrwt>
<totfact> 0.72211090E+00</totfact>
</mgrwt>
</event>
<event>
 6    1  0.3017327E-006  0.1620962E+04  0.7818608E-02  0.8807773E-01
          2   -1    0    0  501    0  0.00000000000E+00  0.00000000000E+00  0.12916216327E+04  0.12916216327E+04  0.00000000000E+00 0. -1.
         -2   -1    0    0    0  501 -0.00000000000E+00 -0.00000000000E+00 -0.50856978991E+03  0.50856978991E+03  0.00000000000E+00 0.  1.
         23    2    1    2    0    0 -0.60554757905E+03  0.15597581458E+03 -0.17519591132E+03  0.65596457296E+03  0.92626067644E+02 0.  0.
         13    1    3    3    0    0 -0.54571918440E+03  0.11063972621E+03 -0.16028873761E+03  0.57943339276E+03  0.00000000000E+00 0. -1.
        -13    1    3    3    0    0 -0.59828394650E+02  0.45336088370E+02 -0.14907173715E+02  0.76531180203E+02  0.00000000000E+00 0.  1.
         22    1    1    2    0    0  0.60554757905E+03 -0.15597581458E+03  0.95824775415E+03  0.11442268497E+04  0.00000000000E+00 0.  1.
<mgrwt>
<rscale>  0 0.16209624E+04</rscale>
<asrwt>0</asrwt>
<pdfrwt beam="1">  1        2 0.19871102E+00 0.16209624E+04</pdfrwt>
<pdfrwt beam="2">  1       -2 0.78241507E-01 0.16209624E+04</pdfrwt>
<totfact> 0.23259925E+01</totfact>
</mgrwt>
</event>
<event>
 6    1  0.3017327E-006  0.1792181E+04  0.7818608E-02  0.8710469E-01
          1   -1    0    0  501    0  0.00000000000E+00  0.00000000000E+00  0.16439251439E+04  0.16439251439E+04  0.00000000000E+00 0. -1.
         -1   -1    0    0    0  501 -0.00000000000E+00 -0.00000000000E+00 -0.48845186019E+03  0.48845186019E+03  0.00000000000E+00 0.  1.
         23    2    1    2    0    0  0.84978620694E+03 -0.27685148522E+03  0.57205834286E+03  0.10650643341E+04  0.91257579083E+02 0.  0.
         13    1    3    3    0    0  0.40940184935E+03 -0.17446766138E+03  0.25582782309E+03  0.51331931016E+03  0.00000000000E+00 0.  1.
        -13    1    3    3    0    0  0.44038435759E+03 -0.10238382383E+03  0.31623051977E+03  0.55174502393E+03  0.00000000000E+00 0. -1.
         22    1    1    2    0    0 -0.84978620694E+03  0.27685148522E+03  0.58341494087E+03  0.10673126700E+04  0.00000000000E+00 0.  1.
<mgrwt>
<rscale>  0 0.17921811E+04</rscale>
<asrwt>0</asrwt>
<pdfrwt beam="1">  1        1 0.25291156E+00 0.17921811E+04</pdfrwt>
<pdfrwt beam="2">  1       -1 0.75146441E-01 0.17921811E+04</pdfrwt>
<totfact> 0.87523234E+00</totfact>
</mgrwt>
</event>
<event>
 6    1  0.3017327E-006  0.1437427E+04  0.7818608E-02  0.8927164E-01
          1   -1    0    0  501    0  0.00000000000E+00  0.00000000000E+00  0.78424320606E+03  0.78424320606E+03  0.00000000000E+00 0. -1.
         -1   -1    0    0    0  501 -0.00000000000E+00 -0.00000000000E+00 -0.65865945851E+03  0.65865945851E+03  0.00000000000E+00 0.  1.
         23    2    1    2    0    0 -0.11178587594E+03  0.67622475017E+03 -0.14453045804E+03  0.70619534217E+03  0.89704031132E+02 0.  0.
         13    1    3    3    0    0 -0.16982460859E+02  0.14879930501E+03 -0.69444837506E+02  0.16508247213E+03  0.00000000000E+00 0.  1.
        -13    1    3    3    0    0 -0.94803415081E+02  0.52742544517E+03 -0.75085620531E+02  0.54111287005E+03  0.00000000000E+00 0. -1.
         22    1    1    2    0    0  0.11178587594E+03 -0.67622475017E+03  0.27011420559E+03  0.73670732239E+03  0.00000000000E+00 0.  1.
<mgrwt>
<rscale>  0 0.14374272E+04</rscale>
<asrwt>0</asrwt>
<pdfrwt beam="1">  1        1 0.12065280E+00 0.14374272E+04</pdfrwt>
<pdfrwt beam="2">  1       -1 0.10133222E+00 0.14374272E+04</pdfrwt>
<totfact> 0.20524612E+01</totfact>
</mgrwt>
</event>
<event>
 6    1  0.3017327E-006  0.2041072E+04  0.7818608E-02  0.8587655E-01
         -2   -1    0    0    0  501 -0.00000000000E+00  0.00000000000E+00  0.64445031855E+03  0.64445031855E+03  0.00000000000E+00 0.  1.
          2   -1    0    0  501    0  0.00000000000E+00 -0.00000000000E+00 -0.16160960785E+04  0.16160960785E+04  0.00000000000E+00 0. -1.
         23    2    1    2    0    0 -0.26240018866E+03 -0.60180361217E+03  0.37552358736E+03  0.76191812528E+03  0.92085929170E+02 0.  0.
         11    1    3    3    0    0 -0.23541990535E+03 -0.49966651023E+03  0.27896554786E+03  0.61879797201E+03  0.00000000000E+00 0.  1.
        -11    1    3    3    0    0 -0.26980283309E+02 -0.10213710194E+03  0.96558039502E+02  0.14312015327E+03  0.00000000000E+00 0. -1.
         22    1    1    2    0    0  0.26240018866E+03  0.60180361217E+03 -0.13471693473E+04  0.14986282718E+04  0.00000000000E+00 0. -1.
<mgrwt>
<rscale>  0 0.20410719E+04</rscale>
<asrwt>0</asrwt>
<pdfrwt beam="1">  1        2 0.24863016E+00 0.20410719E+04</pdfrwt>
<pdfrwt beam="2">  1       -2 0.99146205E-01 0.20410719E+04</pdfrwt>
<totfact> 0.85264877E+00</totfact>
</mgrwt>
</event>
<event>
 6    1  0.3017327E-006  0.7350782E+04  0.7818608E-02  0.7542303E-01
         -2   -1    0    0    0  501 -0.00000000000E+00  0.00000000000E+00  0.58098008942E+04  0.58098008942E+04  0.00000000000E+00 0. -1.
          2   -1    0    0  501    0  0.00000000000E+00 -0.00000000000E+00 -0.23251226199E+04  0.23251226199E+04  0.00000000000E+00 0.  1.
         23    2    1    2    0    0 -0.22894332576E+03 -0.36003505623E+04  0.25170070116E+04  0.43997760082E+04  0.88121552113E+02 0.  0.
         11    1    3    3    0    0 -0.29674979889E+02 -0.10587011840E+04  0.72160489951E+03  0.12815781023E+04  0.00000000000E+00 0. -1.
        -11    1    3    3    0    0 -0.19926834587E+03 -0.25416493784E+04  0.17954021121E+04  0.31181979059E+04  0.00000000000E+00 0.  1.
         22    1    1    2    0    0  0.22894332576E+03  0.36003505623E+04  0.96767126266E+03  0.37351475059E+04  0.00000000000E+00 0.  1.
<mgrwt>
<rscale>  0 0.73507821E+04</rscale>
<asrwt>0</asrwt>
<pdfrwt beam="1">  1        2 0.35771117E+00 0.73507821E+04</pdfrwt>
<pdfrwt beam="2">  1       -2 0.89381552E+00 0.73507821E+04</pdfrwt>
<totfact> 0.27918467E-05</totfact>
</mgrwt>
</event>
<event>
 6    1  0.3017327E-006  0.4317035E+04  0.7818608E-02  0.7943476E-01
         -2   -1    0    0    0  501 -0.00000000000E+00  0.00000000000E+00  0.18241297722E+04  0.18241297722E+04  0.00000000000E+00 0.  1.
          2   -1    0    0  501    0  0.00000000000E+00 -0.00000000000E+00 -0.25542030877E+04  0.25542030877E+04  0.00000000000E+00 0. -1.
         23    2    1    2    0    0 -0.78608636648E+03  0.19875477042E+04 -0.66700278930E+03  0.22400495429E+04  0.68202504010E+02 0.  0.
         11    1    3    3    0    0 -0.33560822252E+03  0.85918881273E+03 -0.32304736398E+03  0.97734226058E+03  0.00000000000E+00 0.  1.
        -11    1    3    3    0    0 -0.45047814396E+03  0.11283588915E+04 -0.34395542533E+03  0.12627072823E+04  0.00000000000E+00 0. -1.
         22    1    1    2    0    0  0.78608636648E+03 -0.19875477042E+04 -0.63070526206E+02  0.21382833169E+04  0.00000000000E+00 0. -1.
<mgrwt>
<rscale>  0 0.43170350E+04</rscale>
<asrwt>0</asrwt>
<pdfrwt beam="1">  1        2 0.39295432E+00 0.43170350E+04</pdfrwt>
<pdfrwt beam="2">  1       -2 0.28063535E+00 0.43170350E+04</pdfrwt>
<totfact> 0.10389818E-01</totfact>
</mgrwt>
</event>
<event>
 6    1  0.3017327E-006  0.3635605E+04  0.7818608E-02  0.8082384E-01
          2   -1    0    0  501    0  0.00000000000E+00  0.00000000000E+00  0.15954855041E+04  0.15954855041E+04  0.00000000000E+00 0.  1.
         -2   -1    0    0    0  501 -0.00000000000E+00 -0.00000000000E+00 -0.20710971142E+04  0.20710971142E+04  0.00000000000E+00 0. -1.
         23    2    1    2    0    0 -0.16763963575E+04 -0.69220830757E+03 -0.33963146057E+03  0.18478061918E+04  0.97883119003E+02 0.  0.
         11    1    3    3    0    0 -0.55516866672E+03 -0.18345400892E+03 -0.91751573847E+02  0.59184962043E+03  0.00000000000E+00 0.  1.
        -11    1    3    3    0    0 -0.11212276908E+04 -0.50875429865E+03 -0.24787988672E+03  0.12559565714E+04  0.00000000000E+00 0. -1.
         22    1    1    2    0    0  0.16763963575E+04  0.69220830757E+03 -0.13598014949E+03  0.18187764265E+04  0.00000000000E+00 0. -1.
<mgrwt>
<rscale>  0 0.36356047E+04</rscale>
<asrwt>0</asrwt>
<pdfrwt beam="1">  1        2 0.24545931E+00 0.36356047E+04</pdfrwt>
<pdfrwt beam="2">  1       -2 0.31863033E+00 0.36356047E+04</pdfrwt>
<totfact> 0.22252258E-01</totfact>
</mgrwt>
</event>
<event>
 6    1  0.3017327E-006  0.8681577E+03  0.7818608E-02  0.9466285E-01
          4   -1    0    0  501    0  0.00000000000E+00  0.00000000000E+00  0.39448958851E+03  0.39448958851E+03  0.00000000000E+00 0. -1.
         -4   -1    0    0    0  501 -0.00000000000E+00 -0.00000000000E+00 -0.47764111762E+03  0.47764111762E+03  0.00000000000E+00 0.  1.
         23    2    1    2    0    0  0.19285559421E+03 -0.29664856210E+03  0.20040554273E+03  0.41870126003E+03  0.99773312973E+02 0.  0.
         11    1    3    3    0    0  0.14648375530E+03 -0.22339378434E+03  0.19702783397E+03  0.33193710369E+03  0.00000000000E+00 0. -1.
        -11    1    3    3    0    0  0.46371838914E+02 -0.73254777759E+02  0.33777087561E+01  0.86764156339E+02  0.00000000000E+00 0.  1.
         22    1    1    2    0    0 -0.19285559421E+03  0.29664856210E+03 -0.28355707184E+03  0.45342944611E+03  0.00000000000E+00 0.  1.
<mgrwt>
<rscale>  0 0.86815770E+03</rscale>
<asrwt>0</asrwt>
<pdfrwt beam="1">  1        4 0.60690706E-01 0.86815770E+03</pdfrwt>
<pdfrwt beam="2">  1       -4 0.73483249E-01 0.86815770E+03</pdfrwt>
<totfact> 0.85495655E+00</totfact>
</mgrwt>
</event>
<event>
 6    1  0.3017327E-006  0.3498441E+04  0.7818608E-02  0.8114159E-01
         -1   -1    0    0    0  501 -0.00000000000E+00  0.00000000000E+00  0.20112553806E+04  0.20112553806E+04  0.00000000000E+00 0.  1.
          1   -1    0    0  501    0  0.00000000000E+00 -0.00000000000E+00 -0.15213250055E+04  0.15213250055E+04  0.00000000000E+00 0. -1.
         23    2    1    2    0    0 -0.20536826463E+03 -0.50427142650E+03  0.19224156209E+04  0.20001053374E+04  0.90960131416E+02 0.  0.
         13    1    3    3    0    0 -0.13659814710E+03 -0.23769267043E+03  0.10557423053E+04  0.10907560106E+04  0.00000000000E+00 0.  1.
        -13    1    3    3    0    0 -0.68770117539E+02 -0.26657875607E+03  0.86667331558E+03  0.90934932682E+03  0.00000000000E+00 0. -1.
         22    1    1    2    0    0  0.20536826463E+03  0.50427142650E+03 -0.14324852457E+04  0.15324750487E+04  0.00000000000E+00 0. -1.
<mgrwt>
<rscale>  0 0.34984414E+04</rscale>
<asrwt>0</asrwt>
<pdfrwt beam="1">  1        1 0.23405000E+00 0.34984414E+04</pdfrwt>
<pdfrwt beam="2">  1       -1 0.30942390E+00 0.34984414E+04</pdfrwt>
<totfact> 0.14795064E-01</totfact>
</mgrwt>
</event>
<event>
 6    1  0.3017327E-006  0.2829148E+04  0.7818608E-02  0.8294276E-01
          2   -1    0    0  501    0  0.00000000000E+00  0.00000000000E+00  0.10800106149E+04  0.10800106149E+04  0.00000000000E+00 0. -1.
         -2   -1    0    0    0  501 -0.00000000000E+00 -0.00000000000E+00 -0.18527779782E+04  0.18527779782E+04  0.00000000000E+00 0.  1.
         23    2    1    2    0    0 -0.21845329150E+03 -0.13512761650E+04 -0.19462086219E+02  0.13703744499E+04  0.62275561181E+02 0.  0.
         11    1    3    3    0    0 -0.98955151290E+02 -0.73943310132E+03 -0.34031161420E+02  0.74680087925E+03  0.00000000000E+00 0.  1.
        -11    1    3    3    0    0 -0.11949814021E+03 -0.61184306366E+03  0.14569075201E+02  0.62357357065E+03  0.00000000000E+00 0. -1.
         22    1    1    2    0    0  0.21845329150E+03  0.13512761650E+04 -0.75330527702E+03  0.15624141432E+04  0.00000000000E+00 0.  1.
<mgrwt>
<rscale>  0 0.28291482E+04</rscale>
<asrwt>0</asrwt>
<pdfrwt beam="1">  1        2 0.16615548E+00 0.28291482E+04</pdfrwt>
<pdfrwt beam="2">  1       -2 0.28504277E+00 0.28291482E+04</pdfrwt>
<totfact> 0.76343079E-01</totfact>
</mgrwt>
</event>
<event>
 6    1  0.3017327E-006  0.1096482E+04  0.7818608E-02  0.9208628E-01
         -2   -1    0    0    0  501 -0.00000000000E+00  0.00000000000E+00  0.44878200702E+03  0.44878200702E+03  0.00000000000E+00 0.  1.
          2   -1    0    0  501    0  0.00000000000E+00 -0.00000000000E+00 -0.66974200882E+03  0.66974200882E+03  0.00000000000E+00 0. -1.
         23    2    1    2    0    0 -0.11503334125E+03  0.36928978777E+03  0.27951188190E+03  0.48600546013E+03  0.92015206378E+02 0.  0.
         13    1    3    3    0    0 -0.32634864130E+02  0.19965462547E+02  0.20581259942E+02  0.43442402239E+02  0.00000000000E+00 0. -1.
        -13    1    3    3    0    0 -0.82398477124E+02  0.34932432522E+03  0.25893062196E+03  0.44256305789E+03  0.00000000000E+00 0.  1.
         22    1    1    2    0    0  0.11503334125E+03 -0.36928978777E+03 -0.50047188369E+03  0.63251855571E+03  0.00000000000E+00 0. -1.
<mgrwt>
<rscale>  0 0.10964819E+04</rscale>
<asrwt>0</asrwt>
<pdfrwt beam="1">  1        2 0.10303723E+00 0.10964819E+04</pdfrwt>
<pdfrwt beam="2">  1       -2 0.69043386E-01 0.10964819E+04</pdfrwt>
<totfact> 0.82456369E+01</totfact>
</mgrwt>
</event>
<event>
 6    1  0.3017327E-006  0.2324526E+04  0.7818608E-02  0.8468313E-01
          2   -1    0    0  501    0  0.00000000000E+00  0.00000000000E+00  0.11512309211E+04  0.11512309211E+04  0.00000000000E+00 0.  1.
         -2   -1    0    0    0  501 -0.00000000000E+00 -0.00000000000E+00 -0.11734008183E+04  0.11734008183E+04  0.00000000000E+00 0. -1.
         23    2    1    2    0    0  0.32130753682E+03 -0.93249564233E+03  0.60053405123E+03  0.11582069182E+04  0.89529114890E+02 0.  0.
         11    1    3    3    0    0  0.24941773090E+03 -0.60600300768E+03  0.37667449718E+03  0.75586541568E+03  0.00000000000E+00 0.  1.
        -11    1    3    3    0    0  0.71889805919E+02 -0.32649263465E+03  0.22385955405E+03  0.40234150248E+03  0.00000000000E+00 0. -1.
         22    1    1    2    0    0 -0.32130753682E+03  0.93249564233E+03 -0.62270394846E+03  0.11664248212E+04  0.00000000000E+00 0. -1.
<mgrwt>
<rscale>  0 0.23245260E+04</rscale>
<asrwt>0</asrwt>
<pdfrwt beam="1">  1        2 0.17711245E+00 0.23245260E+04</pdfrwt>
<pdfrwt beam="2">  1       -2 0.18052320E+00 0.23245260E+04</pdfrwt>
<totfact> 0.32974899E+00</totfact>
</mgrwt>
</event>
<event>
 6    1  0.3017327E-006  0.3042562E+04  0.7818608E-02  0.8231681E-01
         -1   -1    0    0    0  501 -0.00000000000E+00  0.00000000000E+00  0.11539523999E+04  0.11539523999E+04  0.00000000000E+00 0.  1.
          1   -1    0    0  501    0  0.00000000000E+00 -0.00000000000E+00 -0.20055379406E+04  0.20055379406E+04  0.00000000000E+00 0. -1.
         23    2    1    2    0    0  0.27493195594E+03 -0.35154426001E+03 -0.19348946890E+04  0.19878548775E+04  0.92620782013E+02 0.  0.
         13    1    3    3    0    0  0.17596924139E+03 -0.26501742690E+03 -0.12089320608E+04  0.12500864522E+04  0.00000000000E+00 0. -1.
        -13    1    3    3    0    0  0.98962714550E+02 -0.86526833110E+02 -0.72596262825E+03  0.73776842527E+03  0.00000000000E+00 0.  1.
         22    1    1    2    0    0 -0.27493195594E+03  0.35154426001E+03  0.10833091483E+04  0.11716354629E+04  0.00000000000E+00 0.  1.
<mgrwt>
<rscale>  0 0.30425616E+04</rscale>
<asrwt>0</asrwt>
<pdfrwt beam="1">  1        1 0.30854430E+00 0.30425616E+04</pdfrwt>
<pdfrwt beam="2">  1       -1 0.17753114E+00 0.30425616E+04</pdfrwt>
<totfact> 0.54316638E-01</totfact>
</mgrwt>
</event>
<event>
 6    1  0.3017327E-006  0.1694674E+04  0.7818608E-02  0.8764408E-01
          2   -1    0    0  501    0  0.00000000000E+00  0.00000000000E+00  0.99573727247E+03  0.99573727247E+03  0.00000000000E+00 0. -1.
         -2   -1    0    0    0  501 -0.00000000000E+00 -0.00000000000E+00 -0.72105382378E+03  0.72105382378E+03  0.00000000000E+00 0.  1.
         23    2    1    2    0    0  0.20143408192E+03  0.16768595188E+03 -0.67594465908E+03  0.73069370396E+03  0.91202187749E+02 0.  0.
         13    1    3    3    0    0  0.23313759625E+02  0.76798262813E+01 -0.16032976605E+03  0.16219785758E+03  0.00000000000E+00 0. -1.
        -13    1    3    3    0    0  0.17812032230E+03  0.16000612560E+03 -0.51561489302E+03  0.56849584638E+03  0.00000000000E+00 0.  1.
         22    1    1    2    0    0 -0.20143408192E+03 -0.16768595188E+03  0.95062810776E+03  0.98609739229E+03  0.00000000000E+00 0. -1.
<mgrwt>
<rscale>  0 0.16946742E+04</rscale>
<asrwt>0</asrwt>
<pdfrwt beam="1">  1        2 0.15319035E+00 0.16946742E+04</pdfrwt>
<pdfrwt beam="2">  1       -2 0.11093136E+00 0.16946742E+04</pdfrwt>
<totfact> 0.15534973E+01</totfact>
</mgrwt>
</event>
<event>
 6    1  0.3017327E-006  0.1803324E+04  0.7818608E-02  0.8704534E-01
         -2   -1    0    0    0  501 -0.00000000000E+00  0.00000000000E+00  0.33341990208E+03  0.33341990208E+03  0.00000000000E+00 0.  1.
          2   -1    0    0  501    0  0.00000000000E+00 -0.00000000000E+00 -0.24383496437E+04  0.24383496437E+04  0.00000000000E+00 0. -1.
         23    2    1    2    0    0  0.62133822021E+03 -0.56302949419E+03 -0.55534285057E+03  0.10098720096E+04  0.91500813058E+02 0.  0.
         13    1    3    3    0    0  0.56895474881E+03 -0.50491614566E+03 -0.53186761272E+03  0.92818800779E+03  0.00000000000E+00 0. -1.
        -13    1    3    3    0    0  0.52383471404E+02 -0.58113348532E+02 -0.23475237854E+02  0.81684001777E+02  0.00000000000E+00 0.  1.
         22    1    1    2    0    0 -0.62133822021E+03  0.56302949419E+03 -0.15495868910E+04  0.17618975362E+04  0.00000000000E+00 0. -1.
<mgrwt>
<rscale>  0 0.18033239E+04</rscale>
<asrwt>0</asrwt>
<pdfrwt beam="1">  1        2 0.37513070E+00 0.18033239E+04</pdfrwt>
<pdfrwt beam="2">  1       -2 0.51295371E-01 0.18033239E+04</pdfrwt>
<totfact> 0.12819685E+01</totfact>
</mgrwt>
</event>
<event>
 6    1  0.3017327E-006  0.6021720E+04  0.7818608E-02  0.7687715E-01
          2   -1    0    0  501    0  0.00000000000E+00  0.00000000000E+00  0.32330674131E+04  0.32330674131E+04  0.00000000000E+00 0. -1.
         -2   -1    0    0    0  501 -0.00000000000E+00 -0.00000000000E+00 -0.28039248507E+04  0.28039248507E+04  0.00000000000E+00 0.  1.
         23    2    1    2    0    0  0.65872671840E+03 -0.18022589308E+04 -0.21105540467E+04  0.28538936148E+04  0.90621397936E+02 0.  0.
         11    1    3    3    0    0  0.27097419982E+03 -0.83999647025E+03 -0.10146755982E+04  0.13448374090E+04  0.00000000000E+00 0.  1.
        -11    1    3    3    0    0  0.38775251858E+03 -0.96226246052E+03 -0.10958784484E+04  0.15090562058E+04  0.00000000000E+00 0. -1.
         22    1    1    2    0    0 -0.65872671840E+03  0.18022589308E+04  0.25396966091E+04  0.31830986490E+04  0.00000000000E+00 0. -1.
<mgrwt>
<rscale>  0 0.60217200E+04</rscale>
<asrwt>0</asrwt>
<pdfrwt beam="1">  1        2 0.49739498E+00 0.60217200E+04</pdfrwt>
<pdfrwt beam="2">  1       -2 0.43137306E+00 0.60217200E+04</pdfrwt>
<totfact> 0.38303904E-03</totfact>
</mgrwt>
</event>
<event>
 6    1  0.3017327E-006  0.7959306E+03  0.7818608E-02  0.9565926E-01
         -1   -1    0    0    0  501 -0.00000000000E+00  0.00000000000E+00  0.65946768671E+03  0.65946768671E+03  0.00000000000E+00 0.  1.
          1   -1    0    0  501    0  0.00000000000E+00 -0.00000000000E+00 -0.24015788646E+03  0.24015788646E+03  0.00000000000E+00 0. -1.
         23    2    1    2    0    0  0.17436842387E+03 -0.82235402586E+02 -0.17284575992E+03  0.27687745707E+03  0.98073751989E+02 0.  0.
         13    1    3    3    0    0  0.90179903103E+02 -0.13965240908E+02 -0.13320566856E+03  0.16146576421E+03  0.00000000000E+00 0.  1.
        -13    1    3    3    0    0  0.84188520768E+02 -0.68270161678E+02 -0.39640091362E+02  0.11541169286E+03  0.00000000000E+00 0. -1.
         22    1    1    2    0    0 -0.17436842387E+03  0.82235402586E+02  0.59215556016E+03  0.62274811611E+03  0.00000000000E+00 0.  1.
<mgrwt>
<rscale>  0 0.79593056E+03</rscale>
<asrwt>0</asrwt>
<pdfrwt beam="1">  1        1 0.36947367E-01 0.79593056E+03</pdfrwt>
<pdfrwt beam="2">  1       -1 0.10145657E+00 0.79593056E+03</pdfrwt>
<totfact> 0.10942766E+02</totfact>
</mgrwt>
</event>
<event>
 6    1  0.3017327E-006  0.1285481E+04  0.7818608E-02  0.9041159E-01
          2   -1    0    0  501    0  0.00000000000E+00  0.00000000000E+00  0.75865403687E+03  0.75865403687E+03  0.00000000000E+00 0. -1.
         -2   -1    0    0    0  501 -0.00000000000E+00 -0.00000000000E+00 -0.54453701923E+03  0.54453701923E+03  0.00000000000E+00 0.  1.
         23    2    1    2    0    0 -0.26388537544E+03  0.57526893272E+03  0.14440425189E+02  0.63953408304E+03  0.90694438435E+02 0.  0.
         13    1    3    3    0    0 -0.35781358070E+02  0.12306565652E+03 -0.28324728248E+02  0.13125452994E+03  0.00000000000E+00 0. -1.
        -13    1    3    3    0    0 -0.22810401737E+03  0.45220327620E+03  0.42765153436E+02  0.50827955310E+03  0.00000000000E+00 0.  1.
         22    1    1    2    0    0  0.26388537544E+03 -0.57526893272E+03  0.19967659245E+03  0.66365697307E+03  0.00000000000E+00 0. -1.
<mgrwt>
<rscale>  0 0.12854808E+04</rscale>
<asrwt>0</asrwt>
<pdfrwt beam="1">  1        2 0.11671601E+00 0.12854808E+04</pdfrwt>
<pdfrwt beam="2">  1       -2 0.83774926E-01 0.12854808E+04</pdfrwt>
<totfact> 0.45161070E+01</totfact>
</mgrwt>
</event>
<event>
 6    1  0.3017327E-006  0.7269959E+03  0.7818608E-02  0.9672148E-01
         -2   -1    0    0    0  501 -0.00000000000E+00  0.00000000000E+00  0.10502099478E+03  0.10502099478E+03  0.00000000000E+00 0. -1.
          2   -1    0    0  501    0  0.00000000000E+00 -0.00000000000E+00 -0.12581367721E+04  0.12581367721E+04  0.00000000000E+00 0.  1.
         23    2    1    2    0    0  0.11727351400E+03  0.28660849109E+03 -0.92123200449E+03  0.97628881185E+03  0.92595538779E+02 0.  0.
         11    1    3    3    0    0  0.10364178974E+03  0.18442834937E+03 -0.50584210294E+03  0.54829888723E+03  0.00000000000E+00 0.  1.
        -11    1    3    3    0    0  0.13631724258E+02  0.10218014172E+03 -0.41538990155E+03  0.42798992462E+03  0.00000000000E+00 0. -1.
         22    1    1    2    0    0 -0.11727351400E+03 -0.28660849109E+03 -0.23188377278E+03  0.38686895499E+03  0.00000000000E+00 0. -1.
<mgrwt>
<rscale>  0 0.72699594E+03</rscale>
<asrwt>0</asrwt>
<pdfrwt beam="1">  1        2 0.19355949E+00 0.72699594E+03</pdfrwt>
<pdfrwt beam="2">  1       -2 0.16157077E-01 0.72699594E+03</pdfrwt>
<totfact> 0.54520460E+02</totfact>
</mgrwt>
</event>
<event>
 6    1  0.3017327E-006  0.3668446E+04  0.7818608E-02  0.8074991E-01
         -2   -1    0    0    0  501 -0.00000000000E+00  0.00000000000E+00  0.12224614787E+04  0.12224614787E+04  0.00000000000E+00 0.  1.
          2   -1    0    0  501    0  0.00000000000E+00 -0.00000000000E+00 -0.27521313228E+04  0.27521313228E+04  0.00000000000E+00 0. -1.
         23    2    1    2    0    0  0.13219138694E+04 -0.65833298277E+03 -0.19418905274E+04  0.24413659800E+04  0.92034958699E+02 0.  0.
         13    1    3    3    0    0  0.88766305439E+03 -0.48740534012E+03 -0.13069394428E+04  0.16533603270E+04  0.00000000000E+00 0. -1.
        -13    1    3    3    0    0  0.43425081500E+03 -0.17092764265E+03 -0.63495108466E+03  0.78800565306E+03  0.00000000000E+00 0.  1.
         22    1    1    2    0    0 -0.13219138694E+04  0.65833298277E+03  0.41222068330E+03  0.15332268215E+04  0.00000000000E+00 0.  1.
<mgrwt>
<rscale>  0 0.36684463E+04</rscale>
<asrwt>0</asrwt>
<pdfrwt beam="1">  1        2 0.42340481E+00 0.36684463E+04</pdfrwt>
<pdfrwt beam="2">  1       -2 0.18807100E+00 0.36684463E+04</pdfrwt>
<totfact> 0.31979972E-01</totfact>
</mgrwt>
</event>
<event>
 6    1  0.3017327E-006  0.2708756E+04  0.7818608E-02  0.8332170E-01
         -2   -1    0    0    0  501 -0.00000000000E+00  0.00000000000E+00  0.14960022588E+04  0.14960022588E+04  0.00000000000E+00 0.  1.
          2   -1    0    0  501    0  0.00000000000E+00 -0.00000000000E+00 -0.12261611816E+04  0.12261611816E+04  0.00000000000E+00 0. -1.
         23    2    1    2    0    0  0.10323481619E+04  0.23223170508E+03  0.98223721912E+03  0.14465527807E+04  0.89725694875E+02 0.  0.
         11    1    3    3    0    0  0.44680656639E+03  0.10952747870E+03  0.48680752895E+03  0.66978649329E+03  0.00000000000E+00 0. -1.
        -11    1    3    3    0    0  0.58554159556E+03  0.12270422638E+03  0.49542969017E+03  0.77676628738E+03  0.00000000000E+00 0.  1.
         22    1    1    2    0    0 -0.10323481619E+04 -0.23223170508E+03 -0.71239614194E+03  0.12756106598E+04  0.00000000000E+00 0. -1.
<mgrwt>
<rscale>  0 0.27087561E+04</rscale>
<asrwt>0</asrwt>
<pdfrwt beam="1">  1        2 0.18864018E+00 0.27087561E+04</pdfrwt>
<pdfrwt beam="2">  1       -2 0.23015419E+00 0.27087561E+04</pdfrwt>
<totfact> 0.13665358E+00</totfact>
</mgrwt>
</event>
<event>
 6    1  0.3017327E-006  0.5044694E+04  0.7818608E-02  0.7821650E-01
          2   -1    0    0  501    0  0.00000000000E+00  0.00000000000E+00  0.27112073262E+04  0.27112073262E+04  0.00000000000E+00 0. -1.
         -2   -1    0    0    0  501 -0.00000000000E+00 -0.00000000000E+00 -0.23466422734E+04  0.23466422734E+04  0.00000000000E+00 0.  1.
         23    2    1    2    0    0  0.48903721734E+03 -0.21908776253E+04  0.13338194509E+04  0.26127409605E+04  0.90768002929E+02 0.  0.
         13    1    3    3    0    0  0.30246926115E+03 -0.13458719804E+04  0.87071772631E+03  0.16312597587E+04  0.00000000000E+00 0.  1.
        -13    1    3    3    0    0  0.18656795619E+03 -0.84500564490E+03  0.46310172455E+03  0.98148120179E+03  0.00000000000E+00 0. -1.
         22    1    1    2    0    0 -0.48903721734E+03  0.21908776253E+04 -0.96925439805E+03  0.24451086391E+04  0.00000000000E+00 0.  1.
<mgrwt>
<rscale>  0 0.50446937E+04</rscale>
<asrwt>0</asrwt>
<pdfrwt beam="1">  1        2 0.41710882E+00 0.50446937E+04</pdfrwt>
<pdfrwt beam="2">  1       -2 0.36102189E+00 0.50446937E+04</pdfrwt>
<totfact> 0.25132874E-02</totfact>
</mgrwt>
</event>
<event>
 6    1  0.3017327E-006  0.1895134E+04  0.7818608E-02  0.8657282E-01
          2   -1    0    0  501    0  0.00000000000E+00  0.00000000000E+00  0.81209548531E+03  0.81209548531E+03  0.00000000000E+00 0. -1.
         -2   -1    0    0    0  501 -0.00000000000E+00 -0.00000000000E+00 -0.11056374786E+04  0.11056374786E+04  0.00000000000E+00 0.  1.
         23    2    1    2    0    0 -0.75679139531E+03 -0.30627045366E+02 -0.71919992195E+03  0.10489085258E+04  0.96381200800E+02 0.  0.
         13    1    3    3    0    0 -0.40854739254E+03 -0.21424144908E+02 -0.32233091317E+03  0.52083316285E+03  0.00000000000E+00 0.  1.
        -13    1    3    3    0    0 -0.34824400277E+03 -0.92029004580E+01 -0.39686900878E+03  0.52807536297E+03  0.00000000000E+00 0. -1.
         22    1    1    2    0    0  0.75679139531E+03  0.30627045366E+02  0.42565792869E+03  0.86882443807E+03  0.00000000000E+00 0.  1.
<mgrwt>
<rscale>  0 0.18951340E+04</rscale>
<asrwt>0</asrwt>
<pdfrwt beam="1">  1        2 0.12493777E+00 0.18951340E+04</pdfrwt>
<pdfrwt beam="2">  1       -2 0.17009807E+00 0.18951340E+04</pdfrwt>
<totfact> 0.67278691E+00</totfact>
</mgrwt>
</event>
<event>
 6    1  0.3214618E-006  0.4474904E+04  0.7818608E-02  0.7915045E-01
          2   -1    0    0  501    0  0.00000000000E+00  0.00000000000E+00  0.21459165974E+04  0.21459165974E+04  0.00000000000E+00 0. -1.
         -2   -1    0    0    0  501 -0.00000000000E+00 -0.00000000000E+00 -0.23328920805E+04  0.23328920805E+04  0.00000000000E+00 0.  1.
         23    2    1    2    0    0 -0.21610417032E+04  0.42732904038E+03 -0.48023082583E+03  0.22564878083E+04  0.91674592615E+02 0.  0.
         11    1    3    3    0    0 -0.15994309649E+04  0.27973223914E+03 -0.33467448937E+03  0.16578409305E+04  0.00000000000E+00 0. -1.
        -11    1    3    3    0    0 -0.56161073829E+03  0.14759680124E+03 -0.14555633646E+03  0.59864687771E+03  0.00000000000E+00 0.  1.
         22    1    1    2    0    0  0.21610417032E+04 -0.42732904038E+03  0.29325534274E+03  0.22223208697E+04  0.00000000000E+00 0.  1.
<mgrwt>
<rscale>  0 0.44749042E+04</rscale>
<asrwt>0</asrwt>
<pdfrwt beam="1">  1        2 0.33014101E+00 0.44749042E+04</pdfrwt>
<pdfrwt beam="2">  1       -2 0.35890647E+00 0.44749042E+04</pdfrwt>
<totfact> 0.57453489E-02</totfact>
</mgrwt>
</event>
<event>
 6    1  0.3017327E-006  0.3004823E+04  0.7818608E-02  0.8242355E-01
         -2   -1    0    0    0  501 -0.00000000000E+00  0.00000000000E+00  0.86175720658E+03  0.86175720658E+03  0.00000000000E+00 0.  1.
          2   -1    0    0  501    0  0.00000000000E+00 -0.00000000000E+00 -0.26193457479E+04  0.26193457479E+04  0.00000000000E+00 0. -1.
         23    2    1    2    0    0  0.76071480959E+03 -0.12877392965E+04 -0.10183982415E+04  0.18127619173E+04  0.10959595419E+03 0.  0.
         13    1    3    3    0    0  0.26479474345E+03 -0.54481088003E+03 -0.38515344962E+03  0.71782890086E+03  0.00000000000E+00 0. -1.
        -13    1    3    3    0    0  0.49592006614E+03 -0.74292841643E+03 -0.63324479188E+03  0.10949330164E+04  0.00000000000E+00 0.  1.
         22    1    1    2    0    0 -0.76071480959E+03  0.12877392965E+04 -0.73919029984E+03  0.16683410372E+04  0.00000000000E+00 0.  1.
<mgrwt>
<rscale>  0 0.30048228E+04</rscale>
<asrwt>0</asrwt>
<pdfrwt beam="1">  1        2 0.40297627E+00 0.30048228E+04</pdfrwt>
<pdfrwt beam="2">  1       -2 0.13257803E+00 0.30048228E+04</pdfrwt>
<totfact> 0.10477433E+00</totfact>
</mgrwt>
</event>
<event>
 6    1  0.3017327E-006  0.4944136E+04  0.7818608E-02  0.7837183E-01
         -2   -1    0    0    0  501 -0.00000000000E+00  0.00000000000E+00  0.26921531570E+04  0.26921531570E+04  0.00000000000E+00 0.  1.
          2   -1    0    0  501    0  0.00000000000E+00 -0.00000000000E+00 -0.22699746553E+04  0.22699746553E+04  0.00000000000E+00 0. -1.
         23    2    1    2    0    0 -0.20914882456E+04  0.97735126105E+02 -0.11062972271E+04  0.23698096817E+04  0.90714588750E+02 0.  0.
         11    1    3    3    0    0 -0.10118227211E+04  0.52649368267E+02 -0.48446880824E+03  0.11230615304E+04  0.00000000000E+00 0. -1.
        -11    1    3    3    0    0 -0.10796655245E+04  0.45085757838E+02 -0.62182841886E+03  0.12467481513E+04  0.00000000000E+00 0.  1.
         22    1    1    2    0    0  0.20914882456E+04 -0.97735126105E+02  0.15284757288E+04  0.25923181305E+04  0.00000000000E+00 0.  1.
<mgrwt>
<rscale>  0 0.49441357E+04</rscale>
<asrwt>0</asrwt>
<pdfrwt beam="1">  1        2 0.34922687E+00 0.49441357E+04</pdfrwt>
<pdfrwt beam="2">  1       -2 0.41417741E+00 0.49441357E+04</pdfrwt>
<totfact> 0.20673795E-02</totfact>
</mgrwt>
</event>
<event>
 6    1  0.3017327E-006  0.1104639E+04  0.7818608E-02  0.9200682E-01
         -1   -1    0    0    0  501 -0.00000000000E+00  0.00000000000E+00  0.30575907318E+03  0.30575907318E+03  0.00000000000E+00 0.  1.
          1   -1    0    0  501    0  0.00000000000E+00 -0.00000000000E+00 -0.99770398511E+03  0.99770398511E+03  0.00000000000E+00 0. -1.
         23    2    1    2    0    0 -0.48470018712E+02 -0.18292984589E+03 -0.95567388802E+03  0.97886231266E+03  0.95111385606E+02 0.  0.
         11    1    3    3    0    0  0.20851977073E+02 -0.62830478222E+01 -0.84575949416E+02  0.87334831868E+02  0.00000000000E+00 0. -1.
        -11    1    3    3    0    0 -0.69321995786E+02 -0.17664679807E+03 -0.87109793861E+03  0.89152748080E+03  0.00000000000E+00 0.  1.
         22    1    1    2    0    0  0.48470018712E+02  0.18292984589E+03  0.26372897609E+03  0.32460074563E+03  0.00000000000E+00 0.  1.
<mgrwt>
<rscale>  0 0.11046394E+04</rscale>
<asrwt>0</asrwt>
<pdfrwt beam="1">  1        1 0.15349291E+00 0.11046394E+04</pdfrwt>
<pdfrwt beam="2">  1       -1 0.47039859E-01 0.11046394E+04</pdfrwt>
<totfact> 0.68173206E+01</totfact>
</mgrwt>
</event>
<event>
 6    1  0.3017327E-006  0.4555529E+03  0.7818608E-02  0.1026079E+00
         -2   -1    0    0    0  501 -0.00000000000E+00  0.00000000000E+00  0.16663633454E+03  0.16663633454E+03  0.00000000000E+00 0.  1.
          2   -1    0    0  501    0  0.00000000000E+00 -0.00000000000E+00 -0.31134929367E+03  0.31134929367E+03  0.00000000000E+00 0. -1.
         23    2    1    2    0    0  0.37781917916E+02 -0.15807748412E+03 -0.22963538449E+03  0.29460683271E+03  0.87434614223E+02 0.  0.
         11    1    3    3    0    0  0.31151357552E+02 -0.70818939026E+02 -0.17526525514E+03  0.19158193772E+03  0.00000000000E+00 0. -1.
        -11    1    3    3    0    0  0.66305603643E+01 -0.87258545094E+02 -0.54370129354E+02  0.10302489499E+03  0.00000000000E+00 0.  1.
         22    1    1    2    0    0 -0.37781917916E+02  0.15807748412E+03  0.84922425360E+02  0.18337879549E+03  0.00000000000E+00 0.  1.
<mgrwt>
<rscale>  0 0.45555287E+03</rscale>
<asrwt>0</asrwt>
<pdfrwt beam="1">  1        2 0.47899891E-01 0.45555287E+03</pdfrwt>
<pdfrwt beam="2">  1       -2 0.25636359E-01 0.45555287E+03</pdfrwt>
<totfact> 0.14370309E+03</totfact>
</mgrwt>
</event>
<event>
 6    1  0.3265637E-006  0.2650308E+04  0.7818608E-02  0.8351311E-01
          2   -1    0    0  501    0  0.00000000000E+00  0.00000000000E+00  0.13416003164E+04  0.13416003164E+04  0.00000000000E+00 0. -1.
         -2   -1    0    0    0  501 -0.00000000000E+00 -0.00000000000E+00 -0.13089097785E+04  0.13089097785E+04  0.00000000000E+00 0.  1.
         23    2    1    2    0    0  0.10705430301E+04  0.62372257388E+03 -0.44922224390E+03  0.13210996400E+04  0.91713718228E+02 0.  0.
         11    1    3    3    0    0  0.48662114186E+03  0.31505572265E+03 -0.24912232733E+03  0.63096923701E+03  0.00000000000E+00 0. -1.
        -11    1    3    3    0    0  0.58392188821E+03  0.30866685123E+03 -0.20009991657E+03  0.69013040303E+03  0.00000000000E+00 0.  1.
         22    1    1    2    0    0 -0.10705430301E+04 -0.62372257388E+03  0.48191278182E+03  0.13294104549E+04  0.00000000000E+00 0. -1.
<mgrwt>
<rscale>  0 0.26503085E+04</rscale>
<asrwt>0</asrwt>
<pdfrwt beam="1">  1        2 0.20640005E+00 0.26503085E+04</pdfrwt>
<pdfrwt beam="2">  1       -2 0.20137073E+00 0.26503085E+04</pdfrwt>
<totfact> 0.17944385E+00</totfact>
</mgrwt>
</event>
<event>
 6    1  0.3017327E-006  0.4301118E+04  0.7818608E-02  0.7946411E-01
         -2   -1    0    0    0  501 -0.00000000000E+00  0.00000000000E+00  0.19406721163E+04  0.19406721163E+04  0.00000000000E+00 0.  1.
          2   -1    0    0  501    0  0.00000000000E+00 -0.00000000000E+00 -0.23831449556E+04  0.23831449556E+04  0.00000000000E+00 0. -1.
         23    2    1    2    0    0 -0.82258078692E+03 -0.17909127837E+04  0.64160097619E+03  0.20745452370E+04  0.89879795237E+02 0.  0.
         13    1    3    3    0    0 -0.20754883182E+03 -0.53946432524E+03  0.16878272239E+03  0.60215104681E+03  0.00000000000E+00 0. -1.
        -13    1    3    3    0    0 -0.61503195510E+03 -0.12514484585E+04  0.47281825381E+03  0.14723941902E+04  0.00000000000E+00 0.  1.
         22    1    1    2    0    0  0.82258078692E+03  0.17909127837E+04 -0.10840738154E+04  0.22492718349E+04  0.00000000000E+00 0. -1.
<mgrwt>
<rscale>  0 0.43011175E+04</rscale>
<asrwt>0</asrwt>
<pdfrwt beam="1">  1        2 0.36663769E+00 0.43011175E+04</pdfrwt>
<pdfrwt beam="2">  1       -2 0.29856494E+00 0.43011175E+04</pdfrwt>
<totfact> 0.10151271E-01</totfact>
</mgrwt>
</event>
<event>
 6    1  0.3017327E-006  0.4615507E+04  0.7818608E-02  0.7890721E-01
          1   -1    0    0  501    0  0.00000000000E+00  0.00000000000E+00  0.32410756214E+04  0.32410756214E+04  0.00000000000E+00 0. -1.
         -1   -1    0    0    0  501 -0.00000000000E+00 -0.00000000000E+00 -0.16431973414E+04  0.16431973414E+04  0.00000000000E+00 0.  1.
         23    2    1    2    0    0  0.16767317411E+04  0.13032296919E+04 -0.15402839143E+03  0.21312720643E+04  0.93589022465E+02 0.  0.
         13    1    3    3    0    0  0.10882366728E+04  0.89078937758E+03 -0.12844579438E+03  0.14121838029E+04  0.00000000000E+00 0.  1.
        -13    1    3    3    0    0  0.58849506835E+03  0.41244031429E+03 -0.25582597058E+02  0.71908826134E+03  0.00000000000E+00 0. -1.
         22    1    1    2    0    0 -0.16767317411E+04 -0.13032296919E+04  0.17519066715E+04  0.27530008985E+04  0.00000000000E+00 0. -1.
<mgrwt>
<rscale>  0 0.46155073E+04</rscale>
<asrwt>0</asrwt>
<pdfrwt beam="1">  1        1 0.49862702E+00 0.46155073E+04</pdfrwt>
<pdfrwt beam="2">  1       -1 0.25279959E+00 0.46155073E+04</pdfrwt>
<totfact> 0.19685576E-02</totfact>
</mgrwt>
</event>
<event>
 6    1  0.3017327E-006  0.4481187E+03  0.7818608E-02  0.1028285E+00
         -1   -1    0    0    0  501 -0.00000000000E+00  0.00000000000E+00  0.27877108555E+03  0.27877108555E+03  0.00000000000E+00 0.  1.
          1   -1    0    0  501    0  0.00000000000E+00 -0.00000000000E+00 -0.18008539639E+03  0.18008539639E+03  0.00000000000E+00 0. -1.
         23    2    1    2    0    0 -0.51565090457E+02  0.19654977012E+02  0.26391174958E+03  0.28465852639E+03  0.91300538895E+02 0.  0.
         13    1    3    3    0    0 -0.40637949006E+00  0.37231060649E+02  0.41462329980E+02  0.55726491265E+02  0.00000000000E+00 0. -1.
        -13    1    3    3    0    0 -0.51158710967E+02 -0.17576083637E+02  0.22244941960E+03  0.22893203512E+03  0.00000000000E+00 0.  1.
         22    1    1    2    0    0  0.51565090457E+02 -0.19654977012E+02 -0.16522606043E+03  0.17419795556E+03  0.00000000000E+00 0. -1.
<mgrwt>
<rscale>  0 0.44811874E+03</rscale>
<asrwt>0</asrwt>
<pdfrwt beam="1">  1        1 0.27705446E-01 0.44811874E+03</pdfrwt>
<pdfrwt beam="2">  1       -1 0.42887859E-01 0.44811874E+03</pdfrwt>
<totfact> 0.91664434E+02</totfact>
</mgrwt>
</event>
<event>
 6    1  0.3017327E-006  0.1095908E+04  0.7818608E-02  0.9209189E-01
         -2   -1    0    0    0  501 -0.00000000000E+00  0.00000000000E+00  0.33956395269E+03  0.33956395269E+03  0.00000000000E+00 0.  1.
          2   -1    0    0  501    0  0.00000000000E+00 -0.00000000000E+00 -0.88423349602E+03  0.88423349602E+03  0.00000000000E+00 0. -1.
         23    2    1    2    0    0 -0.45334057284E+03  0.13444778388E+03  0.26643719558E+02  0.48218250419E+03  0.90532855847E+02 0.  0.
         13    1    3    3    0    0 -0.40299135970E+03  0.12953975734E+03 -0.34626281411E+01  0.42331380147E+03  0.00000000000E+00 0. -1.
        -13    1    3    3    0    0 -0.50349213138E+02  0.49080265365E+01  0.30106347699E+02  0.58868702720E+02  0.00000000000E+00 0.  1.
         22    1    1    2    0    0  0.45334057284E+03 -0.13444778388E+03 -0.57131326289E+03  0.74161494451E+03  0.00000000000E+00 0. -1.
<mgrwt>
<rscale>  0 0.10959084E+04</rscale>
<asrwt>0</asrwt>
<pdfrwt beam="1">  1        2 0.13603592E+00 0.10959084E+04</pdfrwt>
<pdfrwt beam="2">  1       -2 0.52240607E-01 0.10959084E+04</pdfrwt>
<totfact> 0.10323645E+02</totfact>
</mgrwt>
</event>
<event>
 6    1  0.3017327E-006  0.5472781E+04  0.7818608E-02  0.7759446E-01
          2   -1    0    0  501    0  0.00000000000E+00  0.00000000000E+00  0.32887899129E+04  0.32887899129E+04  0.00000000000E+00 0.  1.
         -2   -1    0    0    0  501 -0.00000000000E+00 -0.00000000000E+00 -0.22767746012E+04  0.22767746012E+04  0.00000000000E+00 0. -1.
         23    2    1    2    0    0 -0.98869517156E+03  0.12015290414E+04  0.27942833450E+04  0.31996250554E+04  0.91601875137E+02 0.  0.
         11    1    3    3    0    0 -0.73832157161E+03  0.91919162186E+03  0.21899753701E+04  0.24871719085E+04  0.00000000000E+00 0. -1.
        -11    1    3    3    0    0 -0.25037359995E+03  0.28233741951E+03  0.60430797493E+03  0.71245314693E+03  0.00000000000E+00 0.  1.
         22    1    1    2    0    0  0.98869517156E+03 -0.12015290414E+04 -0.17822680333E+04  0.23659394587E+04  0.00000000000E+00 0. -1.
<mgrwt>
<rscale>  0 0.54727811E+04</rscale>
<asrwt>0</asrwt>
<pdfrwt beam="1">  1        2 0.50596768E+00 0.54727811E+04</pdfrwt>
<pdfrwt beam="2">  1       -2 0.35027302E+00 0.54727811E+04</pdfrwt>
<totfact> 0.12301841E-02</totfact>
</mgrwt>
</event>
<event>
 6    1  0.3017327E-006  0.2125404E+04  0.7818608E-02  0.8550134E-01
          2   -1    0    0  501    0  0.00000000000E+00  0.00000000000E+00  0.12666516631E+04  0.12666516631E+04  0.00000000000E+00 0. -1.
         -2   -1    0    0    0  501 -0.00000000000E+00 -0.00000000000E+00 -0.89159159585E+03  0.89159159585E+03  0.00000000000E+00 0.  1.
         23    2    1    2    0    0  0.23257176806E+03 -0.43028010030E+03 -0.76791553640E+03  0.91501205659E+03  0.91226096286E+02 0.  0.
         11    1    3    3    0    0  0.14237030086E+03 -0.34566102747E+03 -0.57234221592E+03  0.68361280020E+03  0.00000000000E+00 0. -1.
        -11    1    3    3    0    0  0.90201467197E+02 -0.84619072832E+02 -0.19557332048E+03  0.23139925639E+03  0.00000000000E+00 0.  1.
         22    1    1    2    0    0 -0.23257176806E+03  0.43028010030E+03  0.11429756037E+04  0.12432312024E+04  0.00000000000E+00 0. -1.
<mgrwt>
<rscale>  0 0.21254044E+04</rscale>
<asrwt>0</asrwt>
<pdfrwt beam="1">  1        2 0.19486949E+00 0.21254044E+04</pdfrwt>
<pdfrwt beam="2">  1       -2 0.13716794E+00 0.21254044E+04</pdfrwt>
<totfact> 0.60234225E+00</totfact>
</mgrwt>
</event>
<event>
 6    1  0.3017327E-006  0.4001448E+04  0.7818608E-02  0.8004254E-01
          2   -1    0    0  501    0  0.00000000000E+00  0.00000000000E+00  0.13943959931E+04  0.13943959931E+04  0.00000000000E+00 0. -1.
         -2   -1    0    0    0  501 -0.00000000000E+00 -0.00000000000E+00 -0.28707032974E+04  0.28707032974E+04  0.00000000000E+00 0.  1.
         23    2    1    2    0    0 -0.13423401041E+04  0.11688164403E+04 -0.17101278316E+04  0.24699166076E+04  0.89118023322E+02 0.  0.
         13    1    3    3    0    0 -0.10648269383E+04  0.97193392656E+03 -0.13963420089E+04  0.20070582881E+04  0.00000000000E+00 0.  1.
        -13    1    3    3    0    0 -0.27751316581E+03  0.19688251370E+03 -0.31378582271E+03  0.46285831951E+03  0.00000000000E+00 0. -1.
         22    1    1    2    0    0  0.13423401041E+04 -0.11688164403E+04  0.23382052722E+03  0.17951826829E+04  0.00000000000E+00 0. -1.
<mgrwt>
<rscale>  0 0.40014483E+04</rscale>
<asrwt>0</asrwt>
<pdfrwt beam="1">  1        2 0.21452246E+00 0.40014483E+04</pdfrwt>
<pdfrwt beam="2">  1       -2 0.44164666E+00 0.40014483E+04</pdfrwt>
<totfact> 0.45322069E-02</totfact>
</mgrwt>
</event>
<event>
 6    1  0.3017327E-006  0.5095116E+04  0.7818608E-02  0.7814000E-01
          1   -1    0    0  501    0  0.00000000000E+00  0.00000000000E+00  0.29717313308E+04  0.29717313308E+04  0.00000000000E+00 0. -1.
         -1   -1    0    0    0  501 -0.00000000000E+00 -0.00000000000E+00 -0.21839298091E+04  0.21839298091E+04  0.00000000000E+00 0.  1.
         23    2    1    2    0    0  0.23445580653E+03 -0.21231137985E+04 -0.10093112644E+04  0.23642106043E+04  0.90558413608E+02 0.  0.
         11    1    3    3    0    0  0.20722183532E+02 -0.45085826795E+03 -0.23883717580E+03  0.51063272830E+03  0.00000000000E+00 0.  1.
        -11    1    3    3    0    0  0.21373362299E+03 -0.16722555306E+04 -0.77047408863E+03  0.18535778760E+04  0.00000000000E+00 0. -1.
         22    1    1    2    0    0 -0.23445580653E+03  0.21231137985E+04  0.17971127861E+04  0.27914505356E+04  0.00000000000E+00 0. -1.
<mgrwt>
<rscale>  0 0.50951163E+04</rscale>
<asrwt>0</asrwt>
<pdfrwt beam="1">  1        1 0.45718944E+00 0.50951163E+04</pdfrwt>
<pdfrwt beam="2">  1       -1 0.33598920E+00 0.50951163E+04</pdfrwt>
<totfact> 0.86358619E-03</totfact>
</mgrwt>
</event>
<event>
 6    1  0.3017327E-006  0.2865389E+04  0.7818608E-02  0.8283250E-01
         -2   -1    0    0    0  501 -0.00000000000E+00  0.00000000000E+00  0.14346874549E+04  0.14346874549E+04  0.00000000000E+00 0.  1.
          2   -1    0    0  501    0  0.00000000000E+00 -0.00000000000E+00 -0.14307039101E+04  0.14307039101E+04  0.00000000000E+00 0. -1.
         23    2    1    2    0    0  0.18490269235E+03  0.10106041644E+04 -0.99444556917E+03  0.14327816909E+04  0.91823749570E+02 0.  0.
         13    1    3    3    0    0  0.54375580534E+02  0.43836772929E+03 -0.37506401900E+03  0.57947906623E+03  0.00000000000E+00 0. -1.
        -13    1    3    3    0    0  0.13052711182E+03  0.57223643513E+03 -0.61938155017E+03  0.85330262469E+03  0.00000000000E+00 0.  1.
         22    1    1    2    0    0 -0.18490269235E+03 -0.10106041644E+04  0.99842911394E+03  0.14326096741E+04  0.00000000000E+00 0.  1.
<mgrwt>
<rscale>  0 0.28653886E+04</rscale>
<asrwt>0</asrwt>
<pdfrwt beam="1">  1        2 0.22010829E+00 0.28653886E+04</pdfrwt>
<pdfrwt beam="2">  1       -2 0.22072115E+00 0.28653886E+04</pdfrwt>
<totfact> 0.11764556E+00</totfact>
</mgrwt>
</event>
<event>
 6    1  0.3017327E-006  0.5020032E+04  0.7818608E-02  0.7825425E-01
         -2   -1    0    0    0  501 -0.00000000000E+00  0.00000000000E+00  0.21591434195E+04  0.21591434195E+04  0.00000000000E+00 0.  1.
          2   -1    0    0  501    0  0.00000000000E+00 -0.00000000000E+00 -0.29179073288E+04  0.29179073288E+04  0.00000000000E+00 0. -1.
         23    2    1    2    0    0 -0.37875758494E+03  0.60047103772E+03  0.20545143837E+04  0.21755756873E+04  0.89874596594E+02 0.  0.
         11    1    3    3    0    0 -0.77859619454E+02  0.68271274174E+02  0.33256102169E+03  0.34831009225E+03  0.00000000000E+00 0.  1.
        -11    1    3    3    0    0 -0.30089796548E+03  0.53219976354E+03  0.17219533620E+04  0.18272655951E+04  0.00000000000E+00 0. -1.
         22    1    1    2    0    0  0.37875758494E+03 -0.60047103772E+03 -0.28132782931E+04  0.29014750610E+04  0.00000000000E+00 0. -1.
<mgrwt>
<rscale>  0 0.50200320E+04</rscale>
<asrwt>0</asrwt>
<pdfrwt beam="1">  1        2 0.44890882E+00 0.50200320E+04</pdfrwt>
<pdfrwt beam="2">  1       -2 0.33217591E+00 0.50200320E+04</pdfrwt>
<totfact> 0.28636639E-02</totfact>
</mgrwt>
</event>
<event>
 6    1  0.3017327E-006  0.2760829E+04  0.7818608E-02  0.8315534E-01
          2   -1    0    0  501    0  0.00000000000E+00  0.00000000000E+00  0.17477780312E+04  0.17477780312E+04  0.00000000000E+00 0. -1.
         -2   -1    0    0    0  501 -0.00000000000E+00 -0.00000000000E+00 -0.10902663566E+04  0.10902663566E+04  0.00000000000E+00 0.  1.
         23    2    1    2    0    0 -0.76185908891E+03  0.10802337735E+04 -0.75313067450E+02  0.13266323397E+04  0.83348843447E+02 0.  0.
         13    1    3    3    0    0 -0.13971030664E+03  0.18032706162E+03  0.16787354782E+02  0.22873266976E+03  0.00000000000E+00 0. -1.
        -13    1    3    3    0    0 -0.62214878226E+03  0.89990671192E+03 -0.92100422231E+02  0.10978996699E+04  0.00000000000E+00 0.  1.
         22    1    1    2    0    0  0.76185908891E+03 -0.10802337735E+04  0.73282474203E+03  0.15114120482E+04  0.00000000000E+00 0. -1.
<mgrwt>
<rscale>  0 0.27608286E+04</rscale>
<asrwt>0</asrwt>
<pdfrwt beam="1">  1        2 0.26888893E+00 0.27608286E+04</pdfrwt>
<pdfrwt beam="2">  1       -2 0.16773329E+00 0.27608286E+04</pdfrwt>
<totfact> 0.17818487E+00</totfact>
</mgrwt>
</event>
<event>
 6    1  0.3017327E-006  0.3218213E+04  0.7818608E-02  0.8184024E-01
         -2   -1    0    0    0  501 -0.00000000000E+00  0.00000000000E+00  0.10152321599E+04  0.10152321599E+04  0.00000000000E+00 0.  1.
          2   -1    0    0  501    0  0.00000000000E+00 -0.00000000000E+00 -0.25503767665E+04  0.25503767665E+04  0.00000000000E+00 0. -1.
         23    2    1    2    0    0 -0.12908226097E+04  0.16557673484E+03  0.27785218611E+03  0.13338840251E+04  0.91684732376E+02 0.  0.
         11    1    3    3    0    0 -0.42279764410E+03  0.82182169965E+02  0.12578771197E+03  0.44870291441E+03  0.00000000000E+00 0.  1.
        -11    1    3    3    0    0 -0.86802496563E+03  0.83394564871E+02  0.15206447413E+03  0.88518111067E+03  0.00000000000E+00 0. -1.
         22    1    1    2    0    0  0.12908226097E+04 -0.16557673484E+03 -0.18129967927E+04  0.22317249013E+04  0.00000000000E+00 0. -1.
<mgrwt>
<rscale>  0 0.32182135E+04</rscale>
<asrwt>0</asrwt>
<pdfrwt beam="1">  1        2 0.39236565E+00 0.32182135E+04</pdfrwt>
<pdfrwt beam="2">  1       -2 0.15618957E+00 0.32182135E+04</pdfrwt>
<totfact> 0.73555939E-01</totfact>
</mgrwt>
</event>
<event>
 6    1  0.3017327E-006  0.2816311E+04  0.7818608E-02  0.8298222E-01
         -2   -1    0    0    0  501 -0.00000000000E+00  0.00000000000E+00  0.99651419776E+03  0.99651419776E+03  0.00000000000E+00 0.  1.
          2   -1    0    0  501    0  0.00000000000E+00 -0.00000000000E+00 -0.19898379856E+04  0.19898379856E+04  0.00000000000E+00 0. -1.
         23    2    1    2    0    0  0.20826994427E+03 -0.83522211785E+03  0.68249620473E+03  0.11023816413E+04  0.92042695492E+02 0.  0.
         13    1    3    3    0    0  0.75998422943E+02 -0.41341541075E+03  0.38080168162E+03  0.56718425830E+03  0.00000000000E+00 0.  1.
        -13    1    3    3    0    0  0.13227152133E+03 -0.42180670709E+03  0.30169452310E+03  0.53519738300E+03  0.00000000000E+00 0. -1.
         22    1    1    2    0    0 -0.20826994427E+03  0.83522211785E+03 -0.16758199925E+04  0.18839705420E+04  0.00000000000E+00 0. -1.
<mgrwt>
<rscale>  0 0.28163109E+04</rscale>
<asrwt>0</asrwt>
<pdfrwt beam="1">  1        2 0.30612892E+00 0.28163109E+04</pdfrwt>
<pdfrwt beam="2">  1       -2 0.15330988E+00 0.28163109E+04</pdfrwt>
<totfact> 0.16629926E+00</totfact>
</mgrwt>
</event>
<event>
 6    1  0.3017327E-006  0.2424493E+04  0.7818608E-02  0.8430390E-01
         -2   -1    0    0    0  501 -0.00000000000E+00  0.00000000000E+00  0.90360848718E+03  0.90360848718E+03  0.00000000000E+00 0.  1.
          2   -1    0    0  501    0  0.00000000000E+00 -0.00000000000E+00 -0.16263039424E+04  0.16263039424E+04  0.00000000000E+00 0. -1.
         23    2    1    2    0    0 -0.33985901993E+03  0.50107941996E+03  0.73200216485E+03  0.95424434767E+03  0.90390083465E+02 0.  0.
         13    1    3    3    0    0 -0.16337767566E+03  0.24715973093E+03  0.28812469532E+03  0.41327477246E+03  0.00000000000E+00 0. -1.
        -13    1    3    3    0    0 -0.17648134427E+03  0.25391968903E+03  0.44387746953E+03  0.54096957521E+03  0.00000000000E+00 0.  1.
         22    1    1    2    0    0  0.33985901993E+03 -0.50107941996E+03 -0.14546976200E+04  0.15756680819E+04  0.00000000000E+00 0. -1.
<mgrwt>
<rscale>  0 0.24244934E+04</rscale>
<asrwt>0</asrwt>
<pdfrwt beam="1">  1        2 0.25020061E+00 0.24244934E+04</pdfrwt>
<pdfrwt beam="2">  1       -2 0.13901669E+00 0.24244934E+04</pdfrwt>
<totfact> 0.35395448E+00</totfact>
</mgrwt>
</event>
<event>
 6    1  0.3334576E-006  0.3373789E+04  0.7818608E-02  0.8144369E-01
          2   -1    0    0  501    0  0.00000000000E+00  0.00000000000E+00  0.21768970528E+04  0.21768970528E+04  0.00000000000E+00 0. -1.
         -2   -1    0    0    0  501 -0.00000000000E+00 -0.00000000000E+00 -0.13071878288E+04  0.13071878288E+04  0.00000000000E+00 0.  1.
         23    2    1    2    0    0 -0.13393064774E+04  0.39366703976E+03 -0.54067820171E+03  0.14996685267E+04  0.89203103140E+02 0.  0.
         13    1    3    3    0    0 -0.96850050765E+03  0.31917357677E+03 -0.37090040506E+03  0.10850954409E+04  0.00000000000E+00 0.  1.
        -13    1    3    3    0    0 -0.37080596976E+03  0.74493462986E+02 -0.16977779664E+03  0.41457308580E+03  0.00000000000E+00 0. -1.
         22    1    1    2    0    0  0.13393064774E+04 -0.39366703976E+03  0.14103874257E+04  0.19844163548E+04  0.00000000000E+00 0. -1.
<mgrwt>
<rscale>  0 0.33737892E+04</rscale>
<asrwt>0</asrwt>
<pdfrwt beam="1">  1        2 0.33490724E+00 0.33737892E+04</pdfrwt>
<pdfrwt beam="2">  1       -2 0.20110582E+00 0.33737892E+04</pdfrwt>
<totfact> 0.57777277E-01</totfact>
</mgrwt>
</event>
<event>
 6    1  0.3017327E-006  0.2586351E+04  0.7818608E-02  0.8372852E-01
          2   -1    0    0  501    0  0.00000000000E+00  0.00000000000E+00  0.12787675910E+04  0.12787675910E+04  0.00000000000E+00 0. -1.
         -2   -1    0    0    0  501 -0.00000000000E+00 -0.00000000000E+00 -0.13077459285E+04  0.13077459285E+04  0.00000000000E+00 0.  1.
         23    2    1    2    0    0  0.10063795426E+04 -0.18714124575E+03  0.77302721852E+03  0.12861156799E+04  0.93278249124E+02 0.  0.
         13    1    3    3    0    0  0.64386966504E+03 -0.96529400763E+02  0.44210914355E+03  0.78698574675E+03  0.00000000000E+00 0. -1.
        -13    1    3    3    0    0  0.36250987757E+03 -0.90611844984E+02  0.33091807496E+03  0.49912993311E+03  0.00000000000E+00 0.  1.
         22    1    1    2    0    0 -0.10063795426E+04  0.18714124575E+03 -0.80200555600E+03  0.13003978397E+04  0.00000000000E+00 0.  1.
<mgrwt>
<rscale>  0 0.25863512E+04</rscale>
<asrwt>0</asrwt>
<pdfrwt beam="1">  1        2 0.19673348E+00 0.25863512E+04</pdfrwt>
<pdfrwt beam="2">  1       -2 0.20119168E+00 0.25863512E+04</pdfrwt>
<totfact> 0.19678620E+00</totfact>
</mgrwt>
</event>
<event>
 6    1  0.3017327E-006  0.3153392E+04  0.7818608E-02  0.8201236E-01
         -2   -1    0    0    0  501 -0.00000000000E+00  0.00000000000E+00  0.16557502578E+04  0.16557502578E+04  0.00000000000E+00 0.  1.
          2   -1    0    0  501    0  0.00000000000E+00 -0.00000000000E+00 -0.15014163577E+04  0.15014163577E+04  0.00000000000E+00 0. -1.
         23    2    1    2    0    0  0.33566797856E+03 -0.69043051957E+03 -0.13001184535E+04  0.15125393193E+04  0.89999473070E+02 0.  0.
         11    1    3    3    0    0  0.63775238899E+02 -0.85225885607E+02 -0.13698638489E+03  0.17348199422E+03  0.00000000000E+00 0.  1.
        -11    1    3    3    0    0  0.27189273966E+03 -0.60520463396E+03 -0.11631320686E+04  0.13390573251E+04  0.00000000000E+00 0. -1.
         22    1    1    2    0    0 -0.33566797856E+03  0.69043051957E+03  0.14544523536E+04  0.16446272961E+04  0.00000000000E+00 0.  1.
<mgrwt>
<rscale>  0 0.31533922E+04</rscale>
<asrwt>0</asrwt>
<pdfrwt beam="1">  1        2 0.23098713E+00 0.31533922E+04</pdfrwt>
<pdfrwt beam="2">  1       -2 0.25473081E+00 0.31533922E+04</pdfrwt>
<totfact> 0.64369885E-01</totfact>
</mgrwt>
</event>
<event>
 6    1  0.3017327E-006  0.1166084E+04  0.7818608E-02  0.9143072E-01
         -2   -1    0    0    0  501 -0.00000000000E+00  0.00000000000E+00  0.46042675858E+03  0.46042675858E+03  0.00000000000E+00 0.  1.
          2   -1    0    0  501    0  0.00000000000E+00 -0.00000000000E+00 -0.73831110333E+03  0.73831110333E+03  0.00000000000E+00 0. -1.
         23    2    1    2    0    0  0.11606994143E+03 -0.38622886688E+03  0.28784610481E+03  0.50397465731E+03  0.92141772524E+02 0.  0.
         11    1    3    3    0    0  0.60655431788E+02 -0.18332134746E+03  0.82372287755E+02  0.20993092109E+03  0.00000000000E+00 0. -1.
        -11    1    3    3    0    0  0.55414509637E+02 -0.20290751942E+03  0.20547381706E+03  0.29404373622E+03  0.00000000000E+00 0.  1.
         22    1    1    2    0    0 -0.11606994143E+03  0.38622886688E+03 -0.56573044955E+03  0.69476320460E+03  0.00000000000E+00 0. -1.
<mgrwt>
<rscale>  0 0.11660844E+04</rscale>
<asrwt>0</asrwt>
<pdfrwt beam="1">  1        2 0.11358632E+00 0.11660844E+04</pdfrwt>
<pdfrwt beam="2">  1       -2 0.70834887E-01 0.11660844E+04</pdfrwt>
<totfact> 0.68584354E+01</totfact>
</mgrwt>
</event>
<event>
 6    1  0.3017327E-006  0.5967159E+04  0.7818608E-02  0.7694487E-01
         -2   -1    0    0    0  501 -0.00000000000E+00  0.00000000000E+00  0.32055124081E+04  0.32055124081E+04  0.00000000000E+00 0.  1.
          2   -1    0    0  501    0  0.00000000000E+00 -0.00000000000E+00 -0.27770119652E+04  0.27770119652E+04  0.00000000000E+00 0. -1.
         23    2    1    2    0    0 -0.15809034452E+04  0.70208427448E+03 -0.22219020506E+04  0.28175897121E+04  0.98919318952E+02 0.  0.
         11    1    3    3    0    0 -0.11783717688E+04  0.53345520621E+03 -0.15913917272E+04  0.20507711018E+04  0.00000000000E+00 0.  1.
        -11    1    3    3    0    0 -0.40253167637E+03  0.16862906827E+03 -0.63051032348E+03  0.76681861033E+03  0.00000000000E+00 0. -1.
         22    1    1    2    0    0  0.15809034452E+04 -0.70208427448E+03  0.26504024936E+04  0.31649346612E+04  0.00000000000E+00 0.  1.
<mgrwt>
<rscale>  0 0.59671589E+04</rscale>
<asrwt>0</asrwt>
<pdfrwt beam="1">  1        2 0.42723261E+00 0.59671589E+04</pdfrwt>
<pdfrwt beam="2">  1       -2 0.49315575E+00 0.59671589E+04</pdfrwt>
<totfact> 0.29629314E-03</totfact>
</mgrwt>
</event>
<event>
 6    1  0.3017327E-006  0.3685735E+04  0.7818608E-02  0.8071131E-01
          2   -1    0    0  501    0  0.00000000000E+00  0.00000000000E+00  0.32012939806E+04  0.32012939806E+04  0.00000000000E+00 0. -1.
         -2   -1    0    0    0  501 -0.00000000000E+00 -0.00000000000E+00 -0.10608711372E+04  0.10608711372E+04  0.00000000000E+00 0.  1.
         23    2    1    2    0    0  0.10696610202E+04 -0.91594073453E+03 -0.30125764734E+03  0.14434906517E+04  0.98929085954E+02 0.  0.
         11    1    3    3    0    0  0.14218217856E+03 -0.16658164849E+03 -0.57934252253E+02  0.22654270039E+03  0.00000000000E+00 0. -1.
        -11    1    3    3    0    0  0.92747884166E+03 -0.74935908604E+03 -0.24332339508E+03  0.12169479513E+04  0.00000000000E+00 0.  1.
         22    1    1    2    0    0 -0.10696610202E+04  0.91594073453E+03  0.24416804908E+04  0.28186744662E+04  0.00000000000E+00 0. -1.
<mgrwt>
<rscale>  0 0.36857349E+04</rscale>
<asrwt>0</asrwt>
<pdfrwt beam="1">  1        2 0.49250676E+00 0.36857349E+04</pdfrwt>
<pdfrwt beam="2">  1       -2 0.16321095E+00 0.36857349E+04</pdfrwt>
<totfact> 0.24963205E-01</totfact>
</mgrwt>
</event>
<event>
 6    1  0.3017327E-006  0.2705932E+04  0.7818608E-02  0.8333083E-01
          2   -1    0    0  501    0  0.00000000000E+00  0.00000000000E+00  0.15500816027E+04  0.15500816027E+04  0.00000000000E+00 0. -1.
         -2   -1    0    0    0  501 -0.00000000000E+00 -0.00000000000E+00 -0.11809167443E+04  0.11809167443E+04  0.00000000000E+00 0.  1.
         23    2    1    2    0    0  0.44733660489E+03  0.27062541879E+03 -0.10729092245E+04  0.11970733763E+04  0.92207964128E+02 0.  0.
         11    1    3    3    0    0  0.18330764319E+03  0.89861317871E+02 -0.51387123123E+03  0.55293796288E+03  0.00000000000E+00 0. -1.
        -11    1    3    3    0    0  0.26402896171E+03  0.18076410092E+03 -0.55903799331E+03  0.64413541337E+03  0.00000000000E+00 0.  1.
         22    1    1    2    0    0 -0.44733660489E+03 -0.27062541879E+03  0.14420740830E+04  0.15339249708E+04  0.00000000000E+00 0. -1.
<mgrwt>
<rscale>  0 0.27059322E+04</rscale>
<asrwt>0</asrwt>
<pdfrwt beam="1">  1        2 0.23847409E+00 0.27059322E+04</pdfrwt>
<pdfrwt beam="2">  1       -2 0.18167950E+00 0.27059322E+04</pdfrwt>
<totfact> 0.18417848E+00</totfact>
</mgrwt>
</event>
<event>
 6    1  0.3017327E-006  0.2562958E+04  0.7818608E-02  0.8380894E-01
          2   -1    0    0  501    0  0.00000000000E+00  0.00000000000E+00  0.15124749231E+04  0.15124749231E+04  0.00000000000E+00 0. -1.
         -2   -1    0    0    0  501 -0.00000000000E+00 -0.00000000000E+00 -0.10857620525E+04  0.10857620525E+04  0.00000000000E+00 0.  1.
         23    2    1    2    0    0  0.11366159790E+04  0.13852228809E+03 -0.36597984989E+03  0.12055970159E+04  0.91861886074E+02 0.  0.
         11    1    3    3    0    0  0.52314161886E+03  0.17684684726E+02 -0.16801734481E+03  0.54974514969E+03  0.00000000000E+00 0.  1.
        -11    1    3    3    0    0  0.61347436019E+03  0.12083760336E+03 -0.19796250507E+03  0.65585186621E+03  0.00000000000E+00 0. -1.
         22    1    1    2    0    0 -0.11366159790E+04 -0.13852228809E+03  0.79269272057E+03  0.13926399597E+04  0.00000000000E+00 0. -1.
<mgrwt>
<rscale>  0 0.25629576E+04</rscale>
<asrwt>0</asrwt>
<pdfrwt beam="1">  1        2 0.23268845E+00 0.25629576E+04</pdfrwt>
<pdfrwt beam="2">  1       -2 0.16704032E+00 0.25629576E+04</pdfrwt>
<totfact> 0.24803258E+00</totfact>
</mgrwt>
</event>
<event>
 6    1  0.3017327E-006  0.2040927E+04  0.7818608E-02  0.8587721E-01
          2   -1    0    0  501    0  0.00000000000E+00  0.00000000000E+00  0.19641256901E+04  0.19641256901E+04  0.00000000000E+00 0. -1.
         -2   -1    0    0    0  501 -0.00000000000E+00 -0.00000000000E+00 -0.53018306456E+03  0.53018306456E+03  0.00000000000E+00 0.  1.
         23    2    1    2    0    0 -0.18416019062E+03  0.56355742237E+03  0.17304167399E+04  0.18314295465E+04  0.90995306228E+02 0.  0.
         13    1    3    3    0    0 -0.14846811447E+03  0.32950468797E+03  0.97792361905E+03  0.10425692903E+04  0.00000000000E+00 0.  1.
        -13    1    3    3    0    0 -0.35692076149E+02  0.23405273440E+03  0.75249312088E+03  0.78886025616E+03  0.00000000000E+00 0. -1.
         22    1    1    2    0    0  0.18416019062E+03 -0.56355742237E+03 -0.29647411439E+03  0.66287920817E+03  0.00000000000E+00 0.  1.
<mgrwt>
<rscale>  0 0.20409274E+04</rscale>
<asrwt>0</asrwt>
<pdfrwt beam="1">  1        2 0.30217318E+00 0.20409274E+04</pdfrwt>
<pdfrwt beam="2">  1       -2 0.81566626E-01 0.20409274E+04</pdfrwt>
<totfact> 0.85699767E+00</totfact>
</mgrwt>
</event>
<event>
 6    1  0.3017327E-006  0.2097047E+04  0.7818608E-02  0.8562545E-01
          2   -1    0    0  501    0  0.00000000000E+00  0.00000000000E+00  0.19795466571E+04  0.19795466571E+04  0.00000000000E+00 0. -1.
         -2   -1    0    0    0  501 -0.00000000000E+00 -0.00000000000E+00 -0.55538065395E+03  0.55538065395E+03  0.00000000000E+00 0.  1.
         23    2    1    2    0    0  0.95637938882E+03  0.38930898212E+03  0.50804955778E+03  0.11545315851E+04  0.92767498766E+02 0.  0.
         11    1    3    3    0    0  0.67596072191E+03  0.31252265988E+03  0.33926226771E+03  0.81834723485E+03  0.00000000000E+00 0. -1.
        -11    1    3    3    0    0  0.28041866691E+03  0.76786322239E+02  0.16878729007E+03  0.33618435021E+03  0.00000000000E+00 0.  1.
         22    1    1    2    0    0 -0.95637938882E+03 -0.38930898212E+03  0.91611644541E+03  0.13803957260E+04  0.00000000000E+00 0.  1.
<mgrwt>
<rscale>  0 0.20970474E+04</rscale>
<asrwt>0</asrwt>
<pdfrwt beam="1">  1        2 0.30454564E+00 0.20970474E+04</pdfrwt>
<pdfrwt beam="2">  1       -2 0.85443179E-01 0.20970474E+04</pdfrwt>
<totfact> 0.75270419E+00</totfact>
</mgrwt>
</event>
<event>
 6    1  0.3017327E-006  0.1965684E+04  0.7818608E-02  0.8622835E-01
         -2   -1    0    0    0  501 -0.00000000000E+00  0.00000000000E+00  0.29586930201E+03  0.29586930201E+03  0.00000000000E+00 0.  1.
          2   -1    0    0  501    0  0.00000000000E+00 -0.00000000000E+00 -0.32648829641E+04  0.32648829641E+04  0.00000000000E+00 0. -1.
         23    2    1    2    0    0 -0.88641563818E+03 -0.21463747579E+03 -0.83475359433E+03  0.12397895421E+04  0.91992476392E+02 0.  0.
         11    1    3    3    0    0 -0.33392888401E+03 -0.59436946041E+02 -0.36406738961E+03  0.49758046013E+03  0.00000000000E+00 0.  1.
        -11    1    3    3    0    0 -0.55248675417E+03 -0.15520052975E+03 -0.47068620473E+03  0.74220908192E+03  0.00000000000E+00 0. -1.
         22    1    1    2    0    0  0.88641563818E+03  0.21463747579E+03 -0.21342600678E+04  0.23209627241E+04  0.00000000000E+00 0. -1.
<mgrwt>
<rscale>  0 0.19656843E+04</rscale>
<asrwt>0</asrwt>
<pdfrwt beam="1">  1        2 0.50228966E+00 0.19656843E+04</pdfrwt>
<pdfrwt beam="2">  1       -2 0.45518356E-01 0.19656843E+04</pdfrwt>
<totfact> 0.50331359E+00</totfact>
</mgrwt>
</event>
<event>
 6    1  0.3017327E-006  0.2758689E+04  0.7818608E-02  0.8316210E-01
          2   -1    0    0  501    0  0.00000000000E+00  0.00000000000E+00  0.20517446647E+04  0.20517446647E+04  0.00000000000E+00 0. -1.
         -2   -1    0    0    0  501 -0.00000000000E+00 -0.00000000000E+00 -0.92730420853E+03  0.92730420853E+03  0.00000000000E+00 0.  1.
         23    2    1    2    0    0  0.98116219393E+03 -0.79945105197E+03  0.11506477137E+04  0.17131547008E+04  0.95433918425E+02 0.  0.
         13    1    3    3    0    0  0.34160071632E+03 -0.33324868512E+03  0.45726629828E+03  0.66093736697E+03  0.00000000000E+00 0. -1.
        -13    1    3    3    0    0  0.63956147761E+03 -0.46620236685E+03  0.69338141538E+03  0.10522173339E+04  0.00000000000E+00 0.  1.
         22    1    1    2    0    0 -0.98116219393E+03  0.79945105197E+03 -0.26207257506E+02  0.12658941724E+04  0.00000000000E+00 0.  1.
<mgrwt>
<rscale>  0 0.27586892E+04</rscale>
<asrwt>0</asrwt>
<pdfrwt beam="1">  1        2 0.31565302E+00 0.27586892E+04</pdfrwt>
<pdfrwt beam="2">  1       -2 0.14266219E+00 0.27586892E+04</pdfrwt>
<totfact> 0.18666142E+00</totfact>
</mgrwt>
</event>
<event>
 6    1  0.3017327E-006  0.3585739E+04  0.7818608E-02  0.8093766E-01
         -2   -1    0    0    0  501 -0.00000000000E+00  0.00000000000E+00  0.18520921487E+04  0.18520921487E+04  0.00000000000E+00 0.  1.
          2   -1    0    0  501    0  0.00000000000E+00 -0.00000000000E+00 -0.17355407919E+04  0.17355407919E+04  0.00000000000E+00 0. -1.
         23    2    1    2    0    0  0.58468940648E+03 -0.13158189861E+04 -0.10085305020E+04  0.17603260437E+04  0.91502461780E+02 0.  0.
         11    1    3    3    0    0  0.21295511201E+03 -0.53771182915E+03 -0.45158228436E+03  0.73376457429E+03  0.00000000000E+00 0. -1.
        -11    1    3    3    0    0  0.37173429447E+03 -0.77810715698E+03 -0.55694821760E+03  0.10265614694E+04  0.00000000000E+00 0.  1.
         22    1    1    2    0    0 -0.58468940648E+03  0.13158189861E+04  0.11250818588E+04  0.18273068969E+04  0.00000000000E+00 0.  1.
<mgrwt>
<rscale>  0 0.35857392E+04</rscale>
<asrwt>0</asrwt>
<pdfrwt beam="1">  1        2 0.26700628E+00 0.35857392E+04</pdfrwt>
<pdfrwt beam="2">  1       -2 0.28493725E+00 0.35857392E+04</pdfrwt>
<totfact> 0.30041362E-01</totfact>
</mgrwt>
</event>
<event>
 6    1  0.3017327E-006  0.4751823E+04  0.7818608E-02  0.7867974E-01
         -1   -1    0    0    0  501 -0.00000000000E+00  0.00000000000E+00  0.13352151245E+04  0.13352151245E+04  0.00000000000E+00 0.  1.
          1   -1    0    0  501    0  0.00000000000E+00 -0.00000000000E+00 -0.42277501967E+04  0.42277501967E+04  0.00000000000E+00 0. -1.
         23    2    1    2    0    0  0.44193657293E+03 -0.21133060765E+04 -0.26049414769E+04  0.33848742801E+04  0.10140654160E+03 0.  0.
         13    1    3    3    0    0  0.37218316462E+03 -0.17261635062E+04 -0.21875633748E+04  0.28113331849E+04  0.00000000000E+00 0. -1.
        -13    1    3    3    0    0  0.69753408314E+02 -0.38714257032E+03 -0.41737810210E+03  0.57354109516E+03  0.00000000000E+00 0.  1.
         22    1    1    2    0    0 -0.44193657293E+03  0.21133060765E+04 -0.28759359531E+03  0.21780910412E+04  0.00000000000E+00 0.  1.
<mgrwt>
<rscale>  0 0.47518232E+04</rscale>
<asrwt>0</asrwt>
<pdfrwt beam="1">  1        1 0.65042309E+00 0.47518232E+04</pdfrwt>
<pdfrwt beam="2">  1       -1 0.20541772E+00 0.47518232E+04</pdfrwt>
<totfact> 0.60298131E-03</totfact>
</mgrwt>
</event>
<event>
 6    1  0.3017327E-006  0.1023255E+04  0.7818608E-02  0.9283401E-01
         -2   -1    0    0    0  501 -0.00000000000E+00  0.00000000000E+00  0.70557226086E+03  0.70557226086E+03  0.00000000000E+00 0. -1.
          2   -1    0    0  501    0  0.00000000000E+00 -0.00000000000E+00 -0.37099345076E+03  0.37099345076E+03  0.00000000000E+00 0.  1.
         23    2    1    2    0    0 -0.38895373856E+03  0.29642257313E+03  0.30822085478E+03  0.58682486749E+03  0.10105432784E+03 0.  0.
         13    1    3    3    0    0 -0.17318854858E+03  0.16858610510E+03  0.10282003012E+03  0.26265472922E+03  0.00000000000E+00 0.  1.
        -13    1    3    3    0    0 -0.21576518998E+03  0.12783646804E+03  0.20540082467E+03  0.32417013827E+03  0.00000000000E+00 0. -1.
         22    1    1    2    0    0  0.38895373856E+03 -0.29642257313E+03  0.26357955323E+02  0.48974084414E+03  0.00000000000E+00 0.  1.
<mgrwt>
<rscale>  0 0.10232550E+04</rscale>
<asrwt>0</asrwt>
<pdfrwt beam="1">  1        2 0.57075916E-01 0.10232550E+04</pdfrwt>
<pdfrwt beam="2">  1       -2 0.10854958E+00 0.10232550E+04</pdfrwt>
<totfact> 0.58560341E+01</totfact>
</mgrwt>
</event>
<event>
 6    1  0.3017327E-006  0.1725085E+04  0.7818608E-02  0.8747186E-01
          2   -1    0    0  501    0  0.00000000000E+00  0.00000000000E+00  0.10040106177E+04  0.10040106177E+04  0.00000000000E+00 0. -1.
         -2   -1    0    0    0  501 -0.00000000000E+00 -0.00000000000E+00 -0.74100726036E+03  0.74100726036E+03  0.00000000000E+00 0.  1.
         23    2    1    2    0    0 -0.59416845309E+03 -0.46439569771E+03  0.55050010422E+03  0.93795289045E+03  0.89474830367E+02 0.  0.
         13    1    3    3    0    0 -0.52039752732E+03 -0.43807546290E+03  0.47966492988E+03  0.83234736895E+03  0.00000000000E+00 0. -1.
        -13    1    3    3    0    0 -0.73770925766E+02 -0.26320234810E+02  0.70835174340E+02  0.10560552151E+03  0.00000000000E+00 0.  1.
         22    1    1    2    0    0  0.59416845309E+03  0.46439569771E+03 -0.28749674690E+03  0.80706498758E+03  0.00000000000E+00 0.  1.
<mgrwt>
<rscale>  0 0.17250845E+04</rscale>
<asrwt>0</asrwt>
<pdfrwt beam="1">  1        2 0.15446317E+00 0.17250845E+04</pdfrwt>
<pdfrwt beam="2">  1       -2 0.11400112E+00 0.17250845E+04</pdfrwt>
<totfact> 0.14324920E+01</totfact>
</mgrwt>
</event>
<event>
 6    1  0.3017327E-006  0.2449058E+04  0.7818608E-02  0.8421362E-01
         -1   -1    0    0    0  501 -0.00000000000E+00  0.00000000000E+00  0.63580593667E+03  0.63580593667E+03  0.00000000000E+00 0.  1.
          1   -1    0    0  501    0  0.00000000000E+00 -0.00000000000E+00 -0.23583791501E+04  0.23583791501E+04  0.00000000000E+00 0. -1.
         23    2    1    2    0    0 -0.10729324494E+03 -0.79075362875E+03  0.27005716406E+03  0.84770448749E+03  0.94174754888E+02 0.  0.
         11    1    3    3    0    0 -0.97508218394E+02 -0.43143289089E+03  0.12096517569E+03  0.45855726548E+03  0.00000000000E+00 0. -1.
        -11    1    3    3    0    0 -0.97850265470E+01 -0.35932073785E+03  0.14909198836E+03  0.38914722200E+03  0.00000000000E+00 0.  1.
         22    1    1    2    0    0  0.10729324494E+03  0.79075362875E+03 -0.19926303775E+04  0.21464805993E+04  0.00000000000E+00 0. -1.
<mgrwt>
<rscale>  0 0.24490582E+04</rscale>
<asrwt>0</asrwt>
<pdfrwt beam="1">  1        1 0.36282756E+00 0.24490582E+04</pdfrwt>
<pdfrwt beam="2">  1       -1 0.97816298E-01 0.24490582E+04</pdfrwt>
<totfact> 0.15174613E+00</totfact>
</mgrwt>
</event>
<event>
 6    1  0.3017327E-006  0.7096135E+03  0.7818608E-02  0.9700932E-01
         -2   -1    0    0    0  501 -0.00000000000E+00  0.00000000000E+00  0.38761322734E+02  0.38761322734E+02  0.00000000000E+00 0.  1.
          2   -1    0    0  501    0  0.00000000000E+00 -0.00000000000E+00 -0.32477691543E+04  0.32477691543E+04  0.00000000000E+00 0. -1.
         23    2    1    2    0    0  0.14922322212E+03  0.25468764410E+03 -0.24940936109E+04  0.25130734911E+04  0.88893565469E+02 0.  0.
         13    1    3    3    0    0  0.50492322313E+02  0.14165333343E+03 -0.96713620903E+03  0.97875818683E+03  0.00000000000E+00 0.  1.
        -13    1    3    3    0    0  0.98730899811E+02  0.11303431067E+03 -0.15269574019E+04  0.15343153043E+04  0.00000000000E+00 0. -1.
         22    1    1    2    0    0 -0.14922322212E+03 -0.25468764410E+03 -0.71491422067E+03  0.77345698587E+03  0.00000000000E+00 0.  1.
<mgrwt>
<rscale>  0 0.70961350E+03</rscale>
<asrwt>0</asrwt>
<pdfrwt beam="1">  1        2 0.49965681E+00 0.70961350E+03</pdfrwt>
<pdfrwt beam="2">  1       -2 0.59632802E-02 0.70961350E+03</pdfrwt>
<totfact> 0.20245785E+02</totfact>
</mgrwt>
</event>
<event>
 6    1  0.3017327E-006  0.2799656E+04  0.7818608E-02  0.8303375E-01
          2   -1    0    0  501    0  0.00000000000E+00  0.00000000000E+00  0.17638660059E+04  0.17638660059E+04  0.00000000000E+00 0.  1.
         -2   -1    0    0    0  501 -0.00000000000E+00 -0.00000000000E+00 -0.11109228034E+04  0.11109228034E+04  0.00000000000E+00 0. -1.
         23    2    1    2    0    0 -0.36206678530E+03  0.13452285228E+04  0.45050911358E+03  0.14670559881E+04  0.92534724723E+02 0.  0.
         11    1    3    3    0    0 -0.66529346537E+02  0.40791391058E+03  0.12690644840E+03  0.43234842319E+03  0.00000000000E+00 0.  1.
        -11    1    3    3    0    0 -0.29553743876E+03  0.93731461222E+03  0.32360266518E+03  0.10347075649E+04  0.00000000000E+00 0. -1.
         22    1    1    2    0    0  0.36206678530E+03 -0.13452285228E+04  0.20243408891E+03  0.14077328212E+04  0.00000000000E+00 0. -1.
<mgrwt>
<rscale>  0 0.27996564E+04</rscale>
<asrwt>0</asrwt>
<pdfrwt beam="1">  1        2 0.27136400E+00 0.27996564E+04</pdfrwt>
<pdfrwt beam="2">  1       -2 0.17091120E+00 0.27996564E+04</pdfrwt>
<totfact> 0.16514498E+00</totfact>
</mgrwt>
</event>
<event>
 6    1  0.3017327E-006  0.5312887E+03  0.7818608E-02  0.1005920E+00
         -2   -1    0    0    0  501 -0.00000000000E+00  0.00000000000E+00  0.23651541892E+02  0.23651541892E+02  0.00000000000E+00 0.  1.
          2   -1    0    0  501    0  0.00000000000E+00 -0.00000000000E+00 -0.29836071451E+04  0.29836071451E+04  0.00000000000E+00 0. -1.
         23    2    1    2    0    0  0.34903629491E+01 -0.24156600700E+03 -0.20337729908E+04  0.20500854791E+04  0.90838181103E+02 0.  0.
         11    1    3    3    0    0  0.16660000975E+02 -0.12644116158E+03 -0.14007884727E+04  0.14065821228E+04  0.00000000000E+00 0. -1.
        -11    1    3    3    0    0 -0.13169638026E+02 -0.11512484542E+03 -0.63298451817E+03  0.64350335635E+03  0.00000000000E+00 0.  1.
         22    1    1    2    0    0 -0.34903629491E+01  0.24156600700E+03 -0.92618261240E+03  0.95717320788E+03  0.00000000000E+00 0.  1.
<mgrwt>
<rscale>  0 0.53128866E+03</rscale>
<asrwt>0</asrwt>
<pdfrwt beam="1">  1        2 0.45901625E+00 0.53128866E+03</pdfrwt>
<pdfrwt beam="2">  1       -2 0.36387006E-02 0.53128866E+03</pdfrwt>
<totfact> 0.64869256E+02</totfact>
</mgrwt>
</event>
<event>
 6    1  0.3017327E-006  0.3700273E+04  0.7818608E-02  0.8067901E-01
          2   -1    0    0  501    0  0.00000000000E+00  0.00000000000E+00  0.39731326482E+04  0.39731326482E+04  0.00000000000E+00 0. -1.
         -2   -1    0    0    0  501 -0.00000000000E+00 -0.00000000000E+00 -0.86153829724E+03  0.86153829724E+03  0.00000000000E+00 0.  1.
         23    2    1    2    0    0  0.35936319373E+03  0.13607328730E+04 -0.10098141958E+02  0.14103900170E+04  0.91444906104E+02 0.  0.
         11    1    3    3    0    0  0.16375757322E+03  0.54518741577E+03 -0.44690140736E+02  0.57100181242E+03  0.00000000000E+00 0. -1.
        -11    1    3    3    0    0  0.19560562051E+03  0.81554545723E+03  0.34591998778E+02  0.83938820456E+03  0.00000000000E+00 0.  1.
         22    1    1    2    0    0 -0.35936319373E+03 -0.13607328730E+04  0.31216924929E+04  0.34242809285E+04  0.00000000000E+00 0. -1.
<mgrwt>
<rscale>  0 0.37002735E+04</rscale>
<asrwt>0</asrwt>
<pdfrwt beam="1">  1        2 0.61125117E+00 0.37002735E+04</pdfrwt>
<pdfrwt beam="2">  1       -2 0.13254436E+00 0.37002735E+04</pdfrwt>
<totfact> 0.11982527E-01</totfact>
</mgrwt>
</event>
<event>
 6    1  0.3017327E-006  0.4192842E+04  0.7818608E-02  0.7966735E-01
          2   -1    0    0  501    0  0.00000000000E+00  0.00000000000E+00  0.20572847458E+04  0.20572847458E+04  0.00000000000E+00 0. -1.
         -2   -1    0    0    0  501 -0.00000000000E+00 -0.00000000000E+00 -0.21363014562E+04  0.21363014562E+04  0.00000000000E+00 0.  1.
         23    2    1    2    0    0  0.45053939493E+03 -0.20537214915E+03  0.19969069433E+04  0.20594300498E+04  0.91931083344E+02 0.  0.
         13    1    3    3    0    0  0.23294854872E+03 -0.11335171070E+03  0.85706481083E+03  0.89536234377E+03  0.00000000000E+00 0.  1.
        -13    1    3    3    0    0  0.21759084621E+03 -0.92020438444E+02  0.11398421324E+04  0.11640677061E+04  0.00000000000E+00 0. -1.
         22    1    1    2    0    0 -0.45053939493E+03  0.20537214915E+03 -0.20759236537E+04  0.21341561522E+04  0.00000000000E+00 0.  1.
<mgrwt>
<rscale>  0 0.41928417E+04</rscale>
<asrwt>0</asrwt>
<pdfrwt beam="1">  1        2 0.31650535E+00 0.41928417E+04</pdfrwt>
<pdfrwt beam="2">  1       -2 0.32866176E+00 0.41928417E+04</pdfrwt>
<totfact> 0.10202024E-01</totfact>
</mgrwt>
</event>
<event>
 6    1  0.3017327E-006  0.1556958E+04  0.7818608E-02  0.8847435E-01
          2   -1    0    0  501    0  0.00000000000E+00  0.00000000000E+00  0.38310042811E+04  0.38310042811E+04  0.00000000000E+00 0.  1.
         -2   -1    0    0    0  501 -0.00000000000E+00 -0.00000000000E+00 -0.15819087479E+03  0.15819087479E+03  0.00000000000E+00 0. -1.
         23    2    1    2    0    0  0.27935314258E+03 -0.52239772393E+03  0.31264068912E+04  0.31832809917E+04  0.88995858552E+02 0.  0.
         11    1    3    3    0    0  0.14208810736E+03 -0.18604436961E+03  0.13428662186E+04  0.13631181969E+04  0.00000000000E+00 0. -1.
        -11    1    3    3    0    0  0.13726503522E+03 -0.33635335432E+03  0.17835406726E+04  0.18201627948E+04  0.00000000000E+00 0.  1.
         22    1    1    2    0    0 -0.27935314258E+03  0.52239772393E+03  0.54640651519E+03  0.80591416421E+03  0.00000000000E+00 0. -1.
<mgrwt>
<rscale>  0 0.15569585E+04</rscale>
<asrwt>0</asrwt>
<pdfrwt beam="1">  1        2 0.58938520E+00 0.15569585E+04</pdfrwt>
<pdfrwt beam="2">  1       -2 0.24337061E-01 0.15569585E+04</pdfrwt>
<totfact> 0.68635367E+00</totfact>
</mgrwt>
</event>
<event>
 6    1  0.3017327E-006  0.5552999E+03  0.7818608E-02  0.1000275E+00
          2   -1    0    0  501    0  0.00000000000E+00  0.00000000000E+00  0.63461392135E+03  0.63461392135E+03  0.00000000000E+00 0. -1.
         -2   -1    0    0    0  501 -0.00000000000E+00 -0.00000000000E+00 -0.12147464592E+03  0.12147464592E+03  0.00000000000E+00 0.  1.
         23    2    1    2    0    0 -0.26886049661E+03  0.14679721511E+02  0.22588962410E+03  0.36237061866E+03  0.88231979074E+02 0.  0.
         11    1    3    3    0    0 -0.13600537629E+03  0.26725429051E+02  0.64195888277E+02  0.15275085273E+03  0.00000000000E+00 0.  1.
        -11    1    3    3    0    0 -0.13285512033E+03 -0.12045707540E+02  0.16169373582E+03  0.20961976593E+03  0.00000000000E+00 0. -1.
         22    1    1    2    0    0  0.26886049661E+03 -0.14679721511E+02  0.28724965133E+03  0.39371794861E+03  0.00000000000E+00 0.  1.
<mgrwt>
<rscale>  0 0.55529992E+03</rscale>
<asrwt>0</asrwt>
<pdfrwt beam="1">  1        2 0.97632909E-01 0.55529992E+03</pdfrwt>
<pdfrwt beam="2">  1       -2 0.18688407E-01 0.55529992E+03</pdfrwt>
<totfact> 0.11160871E+03</totfact>
</mgrwt>
</event>
<event>
 6    1  0.3017327E-006  0.2109893E+04  0.7818608E-02  0.8556898E-01
         -2   -1    0    0    0  501 -0.00000000000E+00  0.00000000000E+00  0.70958348807E+03  0.70958348807E+03  0.00000000000E+00 0.  1.
          2   -1    0    0  501    0  0.00000000000E+00 -0.00000000000E+00 -0.15684023162E+04  0.15684023162E+04  0.00000000000E+00 0. -1.
         23    2    1    2    0    0 -0.10396123676E+04 -0.17806050698E+01 -0.61078448896E+03  0.12091929905E+04  0.91065640056E+02 0.  0.
         11    1    3    3    0    0 -0.74181688317E+03  0.39517070413E+02 -0.42798307250E+03  0.85733505548E+03  0.00000000000E+00 0. -1.
        -11    1    3    3    0    0 -0.29779548446E+03 -0.41297675483E+02 -0.18280141646E+03  0.35185793500E+03  0.00000000000E+00 0.  1.
         22    1    1    2    0    0  0.10396123676E+04  0.17806050698E+01 -0.24803433921E+03  0.10687928138E+04  0.00000000000E+00 0.  1.
<mgrwt>
<rscale>  0 0.21098933E+04</rscale>
<asrwt>0</asrwt>
<pdfrwt beam="1">  1        2 0.24129266E+00 0.21098933E+04</pdfrwt>
<pdfrwt beam="2">  1       -2 0.10916669E+00 0.21098933E+04</pdfrwt>
<totfact> 0.71591772E+00</totfact>
</mgrwt>
</event>
<event>
 6    1  0.3017327E-006  0.2538523E+04  0.7818608E-02  0.8389389E-01
         -1   -1    0    0    0  501 -0.00000000000E+00  0.00000000000E+00  0.75568736921E+03  0.75568736921E+03  0.00000000000E+00 0.  1.
          1   -1    0    0  501    0  0.00000000000E+00 -0.00000000000E+00 -0.21318661228E+04  0.21318661228E+04  0.00000000000E+00 0. -1.
         23    2    1    2    0    0 -0.87143348062E+03 -0.41255269989E+03 -0.16248267801E+04  0.18918517885E+04  0.97185816773E+02 0.  0.
         11    1    3    3    0    0 -0.74695862470E+03 -0.32112964804E+03 -0.14027678559E+04  0.16213664285E+04  0.00000000000E+00 0. -1.
        -11    1    3    3    0    0 -0.12447485592E+03 -0.91423051851E+02 -0.22205892420E+03  0.27048536002E+03  0.00000000000E+00 0.  1.
         22    1    1    2    0    0  0.87143348062E+03  0.41255269989E+03  0.24864802650E+03  0.99570170353E+03  0.00000000000E+00 0.  1.
<mgrwt>
<rscale>  0 0.25385226E+04</rscale>
<asrwt>0</asrwt>
<pdfrwt beam="1">  1        1 0.32797940E+00 0.25385226E+04</pdfrwt>
<pdfrwt beam="2">  1       -1 0.11625960E+00 0.25385226E+04</pdfrwt>
<totfact> 0.14349784E+00</totfact>
</mgrwt>
</event>
<event>
 6    1  0.3017327E-006  0.1530756E+04  0.7818608E-02  0.8864254E-01
         -2   -1    0    0    0  501 -0.00000000000E+00  0.00000000000E+00  0.35270187949E+03  0.35270187949E+03  0.00000000000E+00 0. -1.
          2   -1    0    0  501    0  0.00000000000E+00 -0.00000000000E+00 -0.16609030866E+04  0.16609030866E+04  0.00000000000E+00 0.  1.
         23    2    1    2    0    0 -0.53987896161E+03  0.40636593710E+03 -0.19107082902E+03  0.70800822526E+03  0.90360485338E+02 0.  0.
         13    1    3    3    0    0 -0.37211321206E+03  0.32072752624E+03 -0.11285126632E+03  0.50405336720E+03  0.00000000000E+00 0. -1.
        -13    1    3    3    0    0 -0.16776574955E+03  0.85638410860E+02 -0.78219562704E+02  0.20395485806E+03  0.00000000000E+00 0.  1.
         22    1    1    2    0    0  0.53987896161E+03 -0.40636593710E+03 -0.11171303781E+04  0.13055967408E+04  0.00000000000E+00 0.  1.
<mgrwt>
<rscale>  0 0.15307562E+04</rscale>
<asrwt>0</asrwt>
<pdfrwt beam="1">  1        2 0.25552356E+00 0.15307562E+04</pdfrwt>
<pdfrwt beam="2">  1       -2 0.54261826E-01 0.15307562E+04</pdfrwt>
<totfact> 0.31778476E+01</totfact>
</mgrwt>
</event>
<event>
 6    1  0.3017327E-006  0.5300493E+04  0.7818608E-02  0.7783754E-01
         -2   -1    0    0    0  501 -0.00000000000E+00  0.00000000000E+00  0.30934435392E+04  0.30934435392E+04  0.00000000000E+00 0.  1.
          2   -1    0    0  501    0  0.00000000000E+00 -0.00000000000E+00 -0.22705463864E+04  0.22705463864E+04  0.00000000000E+00 0. -1.
         23    2    1    2    0    0  0.15899098385E+04 -0.36168065068E+03  0.25249089337E+04  0.30069854092E+04  0.90387721218E+02 0.  0.
         13    1    3    3    0    0  0.56309693634E+03 -0.84727890806E+02  0.86548239893E+03  0.10360100183E+04  0.00000000000E+00 0.  1.
        -13    1    3    3    0    0  0.10268129021E+04 -0.27695275987E+03  0.16594265348E+04  0.19709753909E+04  0.00000000000E+00 0. -1.
         22    1    1    2    0    0 -0.15899098385E+04  0.36168065068E+03 -0.17020117809E+04  0.23570045163E+04  0.00000000000E+00 0. -1.
<mgrwt>
<rscale>  0 0.53004932E+04</rscale>
<asrwt>0</asrwt>
<pdfrwt beam="1">  1        2 0.34931483E+00 0.53004932E+04</pdfrwt>
<pdfrwt beam="2">  1       -2 0.47591439E+00 0.53004932E+04</pdfrwt>
<totfact> 0.79054462E-03</totfact>
</mgrwt>
</event>
<event>
 6    1  0.3017327E-006  0.2418170E+04  0.7818608E-02  0.8432732E-01
         -1   -1    0    0    0  501 -0.00000000000E+00  0.00000000000E+00  0.11419630235E+04  0.11419630235E+04  0.00000000000E+00 0.  1.
          1   -1    0    0  501    0  0.00000000000E+00 -0.00000000000E+00 -0.12801524957E+04  0.12801524957E+04  0.00000000000E+00 0. -1.
         23    2    1    2    0    0 -0.32512722924E+03  0.17425878162E+03  0.10823092369E+04  0.11470896618E+04  0.91365035931E+02 0.  0.
         11    1    3    3    0    0 -0.27056943605E+03  0.17977030550E+03  0.90807007575E+03  0.96442544809E+03  0.00000000000E+00 0.  1.
        -11    1    3    3    0    0 -0.54557793189E+02 -0.55115238863E+01  0.17423916117E+03  0.18266421373E+03  0.00000000000E+00 0. -1.
         22    1    1    2    0    0  0.32512722924E+03 -0.17425878162E+03 -0.12204987091E+04  0.12750258574E+04  0.00000000000E+00 0. -1.
<mgrwt>
<rscale>  0 0.24181702E+04</rscale>
<asrwt>0</asrwt>
<pdfrwt beam="1">  1        1 0.19694654E+00 0.24181702E+04</pdfrwt>
<pdfrwt beam="2">  1       -1 0.17568662E+00 0.24181702E+04</pdfrwt>
<totfact> 0.18700741E+00</totfact>
</mgrwt>
</event>
<event>
 6    1  0.3017327E-006  0.1891846E+04  0.7818608E-02  0.8658926E-01
          2   -1    0    0  501    0  0.00000000000E+00  0.00000000000E+00  0.22851500990E+04  0.22851500990E+04  0.00000000000E+00 0. -1.
         -2   -1    0    0    0  501 -0.00000000000E+00 -0.00000000000E+00 -0.39155868520E+03  0.39155868520E+03  0.00000000000E+00 0.  1.
         23    2    1    2    0    0 -0.21506580812E+02  0.82167321362E+03  0.16053240720E+04  0.18056706316E+04  0.88156965272E+02 0.  0.
         13    1    3    3    0    0 -0.52194923695E+02  0.45578190129E+03  0.85376059950E+03  0.96921030373E+03  0.00000000000E+00 0. -1.
        -13    1    3    3    0    0  0.30688342884E+02  0.36589131233E+03  0.75156347250E+03  0.83646032782E+03  0.00000000000E+00 0.  1.
         22    1    1    2    0    0  0.21506580812E+02 -0.82167321362E+03  0.28826734180E+03  0.87103815264E+03  0.00000000000E+00 0. -1.
<mgrwt>
<rscale>  0 0.18918460E+04</rscale>
<asrwt>0</asrwt>
<pdfrwt beam="1">  1        2 0.35156155E+00 0.18918460E+04</pdfrwt>
<pdfrwt beam="2">  1       -2 0.60239799E-01 0.18918460E+04</pdfrwt>
<totfact> 0.11128583E+01</totfact>
</mgrwt>
</event>
<event>
 6    1  0.3017327E-006  0.2952118E+04  0.7818608E-02  0.8257538E-01
         -2   -1    0    0    0  501 -0.00000000000E+00  0.00000000000E+00  0.14747366203E+04  0.14747366203E+04  0.00000000000E+00 0.  1.
          2   -1    0    0  501    0  0.00000000000E+00 -0.00000000000E+00 -0.14773827622E+04  0.14773827622E+04  0.00000000000E+00 0. -1.
         23    2    1    2    0    0 -0.80500677481E+03  0.29776790237E+03 -0.12004134401E+04  0.14785698816E+04  0.92058875121E+02 0.  0.
         13    1    3    3    0    0 -0.54461916224E+03  0.24229784113E+03 -0.86084040891E+03  0.10470742501E+04  0.00000000000E+00 0. -1.
        -13    1    3    3    0    0 -0.26038761257E+03  0.55470061235E+02 -0.33957303119E+03  0.43149563147E+03  0.00000000000E+00 0.  1.
         22    1    1    2    0    0  0.80500677481E+03 -0.29776790237E+03  0.11977672981E+04  0.14735495009E+04  0.00000000000E+00 0.  1.
<mgrwt>
<rscale>  0 0.29521182E+04</rscale>
<asrwt>0</asrwt>
<pdfrwt beam="1">  1        2 0.22728966E+00 0.29521182E+04</pdfrwt>
<pdfrwt beam="2">  1       -2 0.22688256E+00 0.29521182E+04</pdfrwt>
<totfact> 0.10048722E+00</totfact>
</mgrwt>
</event>
<event>
 6    1  0.3017327E-006  0.3257680E+04  0.7818608E-02  0.8173748E-01
          2   -1    0    0  501    0  0.00000000000E+00  0.00000000000E+00  0.16228056801E+04  0.16228056801E+04  0.00000000000E+00 0. -1.
         -2   -1    0    0    0  501 -0.00000000000E+00 -0.00000000000E+00 -0.16348964343E+04  0.16348964343E+04  0.00000000000E+00 0.  1.
         23    2    1    2    0    0  0.37482331068E+02  0.15799929602E+04  0.38285986060E+03  0.16286629290E+04  0.90435524689E+02 0.  0.
         13    1    3    3    0    0  0.43802813504E+02  0.39170000784E+03  0.11435527082E+03  0.41039579747E+03  0.00000000000E+00 0.  1.
        -13    1    3    3    0    0 -0.63204824363E+01  0.11882929523E+04  0.26850458977E+03  0.12182671316E+04  0.00000000000E+00 0. -1.
         22    1    1    2    0    0 -0.37482331068E+02 -0.15799929602E+04 -0.39495061473E+03  0.16290391854E+04  0.00000000000E+00 0.  1.
<mgrwt>
<rscale>  0 0.32576797E+04</rscale>
<asrwt>0</asrwt>
<pdfrwt beam="1">  1        2 0.24966241E+00 0.32576797E+04</pdfrwt>
<pdfrwt beam="2">  1       -2 0.25152253E+00 0.32576797E+04</pdfrwt>
<totfact> 0.57079273E-01</totfact>
</mgrwt>
</event>
<event>
 6    1  0.3017327E-006  0.3589623E+04  0.7818608E-02  0.8092873E-01
         -2   -1    0    0    0  501 -0.00000000000E+00  0.00000000000E+00  0.19271373172E+04  0.19271373172E+04  0.00000000000E+00 0.  1.
          2   -1    0    0  501    0  0.00000000000E+00 -0.00000000000E+00 -0.16715719018E+04  0.16715719018E+04  0.00000000000E+00 0. -1.
         23    2    1    2    0    0  0.57042116562E+03 -0.66867533777E+02  0.18314572992E+04  0.19214236731E+04  0.88212920911E+02 0.  0.
         11    1    3    3    0    0  0.40336471905E+03 -0.84945083575E+02  0.13462537492E+04  0.14079481244E+04  0.00000000000E+00 0. -1.
        -11    1    3    3    0    0  0.16705644658E+03  0.18077549798E+02  0.48520355001E+03  0.51347554868E+03  0.00000000000E+00 0.  1.
         22    1    1    2    0    0 -0.57042116562E+03  0.66867533777E+02 -0.15758918838E+04  0.16772855460E+04  0.00000000000E+00 0. -1.
<mgrwt>
<rscale>  0 0.35896232E+04</rscale>
<asrwt>0</asrwt>
<pdfrwt beam="1">  1        2 0.25716491E+00 0.35896232E+04</pdfrwt>
<pdfrwt beam="2">  1       -2 0.29648266E+00 0.35896232E+04</pdfrwt>
<totfact> 0.27708579E-01</totfact>
</mgrwt>
</event>
<event>
 6    1  0.3017327E-006  0.1704121E+04  0.7818608E-02  0.8759017E-01
         -2   -1    0    0    0  501 -0.00000000000E+00  0.00000000000E+00  0.26099029959E+03  0.26099029959E+03  0.00000000000E+00 0.  1.
          2   -1    0    0  501    0  0.00000000000E+00 -0.00000000000E+00 -0.27817399696E+04  0.27817399696E+04  0.00000000000E+00 0. -1.
         23    2    1    2    0    0  0.10074363821E+03 -0.27633807491E+03 -0.26872194712E+04  0.27047595501E+04  0.89798248479E+02 0.  0.
         13    1    3    3    0    0  0.64885734317E+02 -0.62961632027E+02 -0.88083390075E+03  0.88546184917E+03  0.00000000000E+00 0.  1.
        -13    1    3    3    0    0  0.35857903891E+02 -0.21337644289E+03 -0.18063855704E+04  0.18192977009E+04  0.00000000000E+00 0. -1.
         22    1    1    2    0    0 -0.10074363821E+03  0.27633807491E+03  0.16646980113E+03  0.33797071911E+03  0.00000000000E+00 0.  1.
<mgrwt>
<rscale>  0 0.17041211E+04</rscale>
<asrwt>0</asrwt>
<pdfrwt beam="1">  1        2 0.42796001E+00 0.17041211E+04</pdfrwt>
<pdfrwt beam="2">  1       -2 0.40152352E-01 0.17041211E+04</pdfrwt>
<totfact> 0.13287715E+01</totfact>
</mgrwt>
</event>
<event>
 6    1  0.3017327E-006  0.1376657E+04  0.7818608E-02  0.8970891E-01
         -1   -1    0    0    0  501 -0.00000000000E+00  0.00000000000E+00  0.44536565347E+03  0.44536565347E+03  0.00000000000E+00 0.  1.
          1   -1    0    0  501    0  0.00000000000E+00 -0.00000000000E+00 -0.10638368541E+04  0.10638368541E+04  0.00000000000E+00 0. -1.
         23    2    1    2    0    0  0.61435657244E+02  0.67075979173E+03 -0.44877868823E+03  0.81458852343E+03  0.91973438076E+02 0.  0.
         11    1    3    3    0    0  0.84697758369E+02  0.46441097609E+03 -0.30552771927E+03  0.56231526053E+03  0.00000000000E+00 0. -1.
        -11    1    3    3    0    0 -0.23262101125E+02  0.20634881564E+03 -0.14325096896E+03  0.25227326290E+03  0.00000000000E+00 0.  1.
         22    1    1    2    0    0 -0.61435657244E+02 -0.67075979173E+03 -0.16969251237E+03  0.69461398412E+03  0.00000000000E+00 0.  1.
<mgrwt>
<rscale>  0 0.13766574E+04</rscale>
<asrwt>0</asrwt>
<pdfrwt beam="1">  1        1 0.16366721E+00 0.13766574E+04</pdfrwt>
<pdfrwt beam="2">  1       -1 0.68517793E-01 0.13766574E+04</pdfrwt>
<totfact> 0.28444868E+01</totfact>
</mgrwt>
</event>
<event>
 6    1  0.3017327E-006  0.1935249E+04  0.7818608E-02  0.8637507E-01
         -2   -1    0    0    0  501 -0.00000000000E+00  0.00000000000E+00  0.43606593084E+03  0.43606593084E+03  0.00000000000E+00 0. -1.
          2   -1    0    0  501    0  0.00000000000E+00 -0.00000000000E+00 -0.21471469898E+04  0.21471469898E+04  0.00000000000E+00 0.  1.
         23    2    1    2    0    0 -0.68918615388E+03 -0.50751621396E+02 -0.17574401500E+04  0.18906073713E+04  0.90813378805E+02 0.  0.
         13    1    3    3    0    0 -0.86464602571E+02 -0.35389681843E+02 -0.20914221522E+03  0.22906117799E+03  0.00000000000E+00 0. -1.
        -13    1    3    3    0    0 -0.60272155131E+03 -0.15361939553E+02 -0.15482979348E+04  0.16615461933E+04  0.00000000000E+00 0.  1.
         22    1    1    2    0    0  0.68918615388E+03  0.50751621396E+02  0.46359090961E+02  0.69260554942E+03  0.00000000000E+00 0. -1.
<mgrwt>
<rscale>  0 0.19352495E+04</rscale>
<asrwt>0</asrwt>
<pdfrwt beam="1">  1        2 0.33033031E+00 0.19352495E+04</pdfrwt>
<pdfrwt beam="2">  1       -2 0.67087066E-01 0.19352495E+04</pdfrwt>
<totfact> 0.10530144E+01</totfact>
</mgrwt>
</event>
<event>
 6    1  0.3017327E-006  0.6903579E+03  0.7818608E-02  0.9733865E-01
         -1   -1    0    0    0  501 -0.00000000000E+00  0.00000000000E+00  0.45624128424E+02  0.45624128424E+02  0.00000000000E+00 0.  1.
          1   -1    0    0  501    0  0.00000000000E+00 -0.00000000000E+00 -0.26115239848E+04  0.26115239848E+04  0.00000000000E+00 0. -1.
         23    2    1    2    0    0  0.30424262698E+02  0.23999986683E+03 -0.22201277781E+04  0.22351482294E+04  0.91622510641E+02 0.  0.
         13    1    3    3    0    0  0.23706793011E+02  0.17086086431E+03 -0.11609657845E+04  0.11737107820E+04  0.00000000000E+00 0.  1.
        -13    1    3    3    0    0  0.67174696871E+01  0.69139002519E+02 -0.10591619936E+04  0.10614374474E+04  0.00000000000E+00 0. -1.
         22    1    1    2    0    0 -0.30424262698E+02 -0.23999986683E+03 -0.34577207833E+03  0.42199988388E+03  0.00000000000E+00 0.  1.
<mgrwt>
<rscale>  0 0.69035789E+03</rscale>
<asrwt>0</asrwt>
<pdfrwt beam="1">  1        1 0.40177302E+00 0.69035789E+03</pdfrwt>
<pdfrwt beam="2">  1       -1 0.70190949E-02 0.69035789E+03</pdfrwt>
<totfact> 0.13108487E+02</totfact>
</mgrwt>
</event>
<event>
 6    1  0.3017327E-006  0.1237253E+04  0.7818608E-02  0.9080860E-01
          2   -1    0    0  501    0  0.00000000000E+00  0.00000000000E+00  0.19800090003E+04  0.19800090003E+04  0.00000000000E+00 0. -1.
         -2   -1    0    0    0  501 -0.00000000000E+00 -0.00000000000E+00 -0.19328129185E+03  0.19328129185E+03  0.00000000000E+00 0.  1.
         23    2    1    2    0    0 -0.46332664618E+03  0.20037037282E+03  0.28028201145E+03  0.58451765096E+03  0.91011048684E+02 0.  0.
         13    1    3    3    0    0 -0.12850317305E+03  0.65579012260E+02  0.12765051664E+03  0.19263521675E+03  0.00000000000E+00 0. -1.
        -13    1    3    3    0    0 -0.33482347313E+03  0.13479136056E+03  0.15263149481E+03  0.39188243422E+03  0.00000000000E+00 0.  1.
         22    1    1    2    0    0  0.46332664618E+03 -0.20037037282E+03  0.15064456970E+04  0.15887726412E+04  0.00000000000E+00 0. -1.
<mgrwt>
<rscale>  0 0.12372529E+04</rscale>
<asrwt>0</asrwt>
<pdfrwt beam="1">  1        2 0.30461675E+00 0.12372529E+04</pdfrwt>
<pdfrwt beam="2">  1       -2 0.29735585E-01 0.12372529E+04</pdfrwt>
<totfact> 0.70414434E+01</totfact>
</mgrwt>
</event>
<event>
 6    1  0.3017327E-006  0.2674163E+04  0.7818608E-02  0.8343437E-01
          2   -1    0    0  501    0  0.00000000000E+00  0.00000000000E+00  0.74974391108E+03  0.74974391108E+03  0.00000000000E+00 0. -1.
         -2   -1    0    0    0  501 -0.00000000000E+00 -0.00000000000E+00 -0.23845305899E+04  0.23845305899E+04  0.00000000000E+00 0.  1.
         23    2    1    2    0    0  0.93213090711E+03  0.62615207111E+03 -0.16657111269E+04  0.20109353867E+04  0.91285962849E+02 0.  0.
         13    1    3    3    0    0  0.43221299279E+03  0.32446117905E+03 -0.73699714667E+03  0.91391899096E+03  0.00000000000E+00 0. -1.
        -13    1    3    3    0    0  0.49991791432E+03  0.30169089206E+03 -0.92871398027E+03  0.10970163958E+04  0.00000000000E+00 0.  1.
         22    1    1    2    0    0 -0.93213090711E+03 -0.62615207111E+03  0.30924448109E+02  0.11233391143E+04  0.00000000000E+00 0. -1.
<mgrwt>
<rscale>  0 0.26741633E+04</rscale>
<asrwt>0</asrwt>
<pdfrwt beam="1">  1        2 0.11534522E+00 0.26741633E+04</pdfrwt>
<pdfrwt beam="2">  1       -2 0.36685086E+00 0.26741633E+04</pdfrwt>
<totfact> 0.40114550E-01</totfact>
</mgrwt>
</event>
<event>
 6    1  0.3017327E-006  0.3118392E+04  0.7818608E-02  0.8210709E-01
          1   -1    0    0  501    0  0.00000000000E+00  0.00000000000E+00  0.17571229663E+04  0.17571229663E+04  0.00000000000E+00 0. -1.
         -1   -1    0    0    0  501 -0.00000000000E+00 -0.00000000000E+00 -0.13835636948E+04  0.13835636948E+04  0.00000000000E+00 0.  1.
         23    2    1    2    0    0  0.12044759112E+04  0.22379723593E+03 -0.78303858024E+03  0.14558822173E+04  0.74807680131E+02 0.  0.
         13    1    3    3    0    0  0.52940970156E+03  0.10711717682E+03 -0.38822586272E+03  0.66518271336E+03  0.00000000000E+00 0.  1.
        -13    1    3    3    0    0  0.67506620963E+03  0.11668005911E+03 -0.39481271752E+03  0.79069950392E+03  0.00000000000E+00 0. -1.
         22    1    1    2    0    0 -0.12044759112E+04 -0.22379723593E+03  0.11565978517E+04  0.16848044439E+04  0.00000000000E+00 0. -1.
<mgrwt>
<rscale>  0 0.31183916E+04</rscale>
<asrwt>0</asrwt>
<pdfrwt beam="1">  1        1 0.27032661E+00 0.31183916E+04</pdfrwt>
<pdfrwt beam="2">  1       -1 0.21285595E+00 0.31183916E+04</pdfrwt>
<totfact> 0.45136455E-01</totfact>
</mgrwt>
</event>
<event>
 6    1  0.3017327E-006  0.8103734E+03  0.7818608E-02  0.9545122E-01
         -1   -1    0    0    0  501 -0.00000000000E+00  0.00000000000E+00  0.30395315262E+03  0.30395315262E+03  0.00000000000E+00 0.  1.
          1   -1    0    0  501    0  0.00000000000E+00 -0.00000000000E+00 -0.54013675657E+03  0.54013675657E+03  0.00000000000E+00 0. -1.
         23    2    1    2    0    0  0.37184677657E+03  0.12127999664E+03 -0.20384150799E+03  0.45162988066E+03  0.97156193281E+02 0.  0.
         13    1    3    3    0    0  0.86444287516E+02  0.65219343917E+02 -0.84016039521E+02  0.13705791682E+03  0.00000000000E+00 0.  1.
        -13    1    3    3    0    0  0.28540248905E+03  0.56060652727E+02 -0.11982546847E+03  0.31457196384E+03  0.00000000000E+00 0. -1.
         22    1    1    2    0    0 -0.37184677657E+03 -0.12127999664E+03 -0.32342095952E+02  0.39246002854E+03  0.00000000000E+00 0.  1.
<mgrwt>
<rscale>  0 0.81037342E+03</rscale>
<asrwt>0</asrwt>
<pdfrwt beam="1">  1        1 0.83097961E-01 0.81037342E+03</pdfrwt>
<pdfrwt beam="2">  1       -1 0.46762024E-01 0.81037342E+03</pdfrwt>
<totfact> 0.18331834E+02</totfact>
</mgrwt>
</event>
<event>
 6    1  0.3017327E-006  0.2511370E+04  0.7818608E-02  0.8398946E-01
          2   -1    0    0  501    0  0.00000000000E+00  0.00000000000E+00  0.17563411036E+04  0.17563411036E+04  0.00000000000E+00 0. -1.
         -2   -1    0    0    0  501 -0.00000000000E+00 -0.00000000000E+00 -0.89774423511E+03  0.89774423511E+03  0.00000000000E+00 0.  1.
         23    2    1    2    0    0  0.53919297889E+03  0.11134179158E+04  0.21362195565E+03  0.12589433525E+04  0.94209878032E+02 0.  0.
         11    1    3    3    0    0  0.52066959570E+03  0.10903140874E+04  0.22129276611E+03  0.12283534204E+04  0.00000000000E+00 0. -1.
        -11    1    3    3    0    0  0.18523383194E+02  0.23103828352E+02 -0.76708104589E+01  0.30589932046E+02  0.00000000000E+00 0.  1.
         22    1    1    2    0    0 -0.53919297889E+03 -0.11134179158E+04  0.64497491287E+03  0.13951419863E+04  0.00000000000E+00 0.  1.
<mgrwt>
<rscale>  0 0.25113702E+04</rscale>
<asrwt>0</asrwt>
<pdfrwt beam="1">  1        2 0.27020632E+00 0.25113702E+04</pdfrwt>
<pdfrwt beam="2">  1       -2 0.13811450E+00 0.25113702E+04</pdfrwt>
<totfact> 0.30250551E+00</totfact>
</mgrwt>
</event>
<event>
 6    1  0.3017327E-006  0.1123834E+04  0.7818608E-02  0.9182268E-01
         -1   -1    0    0    0  501 -0.00000000000E+00  0.00000000000E+00  0.42688678214E+03  0.42688678214E+03  0.00000000000E+00 0.  1.
          1   -1    0    0  501    0  0.00000000000E+00 -0.00000000000E+00 -0.73965931289E+03  0.73965931289E+03  0.00000000000E+00 0. -1.
         23    2    1    2    0    0 -0.53847020319E+03  0.13690864881E+03 -0.10612991280E+03  0.57376003801E+03  0.96139923999E+02 0.  0.
         11    1    3    3    0    0 -0.15048185440E+03  0.43391948415E+02  0.13292810402E+02  0.15717617027E+03  0.00000000000E+00 0. -1.
        -11    1    3    3    0    0 -0.38798834879E+03  0.93516700394E+02 -0.11942272321E+03  0.41658386774E+03  0.00000000000E+00 0.  1.
         22    1    1    2    0    0  0.53847020319E+03 -0.13690864881E+03 -0.20664261794E+03  0.59278605702E+03  0.00000000000E+00 0. -1.
<mgrwt>
<rscale>  0 0.11238341E+04</rscale>
<asrwt>0</asrwt>
<pdfrwt beam="1">  1        1 0.11379374E+00 0.11238341E+04</pdfrwt>
<pdfrwt beam="2">  1       -1 0.65674890E-01 0.11238341E+04</pdfrwt>
<totfact> 0.58535655E+01</totfact>
</mgrwt>
</event>
<event>
 6    1  0.3017327E-006  0.8005452E+03  0.7818608E-02  0.9559228E-01
          2   -1    0    0  501    0  0.00000000000E+00  0.00000000000E+00  0.11532691683E+04  0.11532691683E+04  0.00000000000E+00 0. -1.
         -2   -1    0    0    0  501 -0.00000000000E+00 -0.00000000000E+00 -0.13892520304E+03  0.13892520304E+03  0.00000000000E+00 0.  1.
         23    2    1    2    0    0 -0.25782838231E+03  0.14289054461E+02  0.30465446195E+02  0.27499400166E+03  0.89520420774E+02 0.  0.
         13    1    3    3    0    0 -0.11282253273E+03  0.50542224773E+02  0.84800114037E+01  0.12391670981E+03  0.00000000000E+00 0. -1.
        -13    1    3    3    0    0 -0.14500584958E+03 -0.36253170312E+02  0.21985434791E+02  0.15107729185E+03  0.00000000000E+00 0.  1.
         22    1    1    2    0    0  0.25782838231E+03 -0.14289054461E+02  0.98387851907E+03  0.10172003697E+04  0.00000000000E+00 0. -1.
<mgrwt>
<rscale>  0 0.80054520E+03</rscale>
<asrwt>0</asrwt>
<pdfrwt beam="1">  1        2 0.17742602E+00 0.80054520E+03</pdfrwt>
<pdfrwt beam="2">  1       -2 0.21373109E-01 0.80054520E+03</pdfrwt>
<totfact> 0.38574200E+02</totfact>
</mgrwt>
</event>
<event>
 6    1  0.3017327E-006  0.2011852E+04  0.7818608E-02  0.8601100E-01
          1   -1    0    0  501    0  0.00000000000E+00  0.00000000000E+00  0.19022087650E+04  0.19022087650E+04  0.00000000000E+00 0. -1.
         -1   -1    0    0    0  501 -0.00000000000E+00 -0.00000000000E+00 -0.53195350704E+03  0.53195350704E+03  0.00000000000E+00 0.  1.
         23    2    1    2    0    0 -0.26446592017E+03  0.11838320060E+03  0.18493847885E+04  0.18742319978E+04  0.92545559064E+02 0.  0.
         11    1    3    3    0    0 -0.21417645756E+03  0.12168007396E+03  0.13480906371E+04  0.13704108732E+04  0.00000000000E+00 0. -1.
        -11    1    3    3    0    0 -0.50289462604E+02 -0.32968733642E+01  0.50129415136E+03  0.50382112461E+03  0.00000000000E+00 0.  1.
         22    1    1    2    0    0  0.26446592017E+03 -0.11838320060E+03 -0.47912953047E+03  0.55993027431E+03  0.00000000000E+00 0.  1.
<mgrwt>
<rscale>  0 0.20118515E+04</rscale>
<asrwt>0</asrwt>
<pdfrwt beam="1">  1        1 0.29264750E+00 0.20118515E+04</pdfrwt>
<pdfrwt beam="2">  1       -1 0.81839002E-01 0.20118515E+04</pdfrwt>
<totfact> 0.47803581E+00</totfact>
</mgrwt>
</event>
<event>
 6    1  0.3017327E-006  0.3114520E+04  0.7818608E-02  0.8211764E-01
         -2   -1    0    0    0  501 -0.00000000000E+00  0.00000000000E+00  0.16275257823E+04  0.16275257823E+04  0.00000000000E+00 0.  1.
          2   -1    0    0  501    0  0.00000000000E+00 -0.00000000000E+00 -0.14900274885E+04  0.14900274885E+04  0.00000000000E+00 0. -1.
         23    2    1    2    0    0 -0.12684773341E+04  0.32202979070E+03  0.91109540908E+03  0.15972932831E+04  0.92266214764E+02 0.  0.
         11    1    3    3    0    0 -0.71678238829E+03  0.19444449542E+03  0.46299460580E+03  0.87518549974E+03  0.00000000000E+00 0. -1.
        -11    1    3    3    0    0 -0.55169494583E+03  0.12758529528E+03  0.44810080328E+03  0.72210778332E+03  0.00000000000E+00 0.  1.
         22    1    1    2    0    0  0.12684773341E+04 -0.32202979070E+03 -0.77359711528E+03  0.15202599877E+04  0.00000000000E+00 0. -1.
<mgrwt>
<rscale>  0 0.31145196E+04</rscale>
<asrwt>0</asrwt>
<pdfrwt beam="1">  1        2 0.22923500E+00 0.31145196E+04</pdfrwt>
<pdfrwt beam="2">  1       -2 0.25038858E+00 0.31145196E+04</pdfrwt>
<totfact> 0.69694968E-01</totfact>
</mgrwt>
</event>
<event>
 6    1  0.3017327E-006  0.1382600E+04  0.7818608E-02  0.8966511E-01
          2   -1    0    0  501    0  0.00000000000E+00  0.00000000000E+00  0.95622099382E+03  0.95622099382E+03  0.00000000000E+00 0. -1.
         -2   -1    0    0    0  501 -0.00000000000E+00 -0.00000000000E+00 -0.49977502907E+03  0.49977502907E+03  0.00000000000E+00 0.  1.
         23    2    1    2    0    0  0.22059721898E+03  0.35229272556E+03  0.80696866625E+03  0.91226864472E+03  0.90897493444E+02 0.  0.
         11    1    3    3    0    0  0.77328210910E+02  0.13396189374E+03  0.39840813836E+03  0.42738096107E+03  0.00000000000E+00 0.  1.
        -11    1    3    3    0    0  0.14326900807E+03  0.21833083182E+03  0.40856052790E+03  0.48488768364E+03  0.00000000000E+00 0. -1.
         22    1    1    2    0    0 -0.22059721898E+03 -0.35229272556E+03 -0.35052270151E+03  0.54372737817E+03  0.00000000000E+00 0.  1.
<mgrwt>
<rscale>  0 0.13825995E+04</rscale>
<asrwt>0</asrwt>
<pdfrwt beam="1">  1        2 0.14711092E+00 0.13825995E+04</pdfrwt>
<pdfrwt beam="2">  1       -2 0.76888466E-01 0.13825995E+04</pdfrwt>
<totfact> 0.39610314E+01</totfact>
</mgrwt>
</event>
<event>
 6    1  0.3017327E-006  0.7400125E+03  0.7818608E-02  0.9651151E-01
         -2   -1    0    0    0  501 -0.00000000000E+00  0.00000000000E+00  0.11069283161E+03  0.11069283161E+03  0.00000000000E+00 0.  1.
          2   -1    0    0  501    0  0.00000000000E+00 -0.00000000000E+00 -0.12367976226E+04  0.12367976226E+04  0.00000000000E+00 0. -1.
         23    2    1    2    0    0  0.25726903072E+03  0.12406738046E+03 -0.98349294852E+03  0.10282441439E+04  0.91910666073E+02 0.  0.
         11    1    3    3    0    0  0.12937780291E+03  0.20882806527E+02 -0.34829125021E+03  0.37213102863E+03  0.00000000000E+00 0.  1.
        -11    1    3    3    0    0  0.12789122781E+03  0.10318457393E+03 -0.63520169831E+03  0.65611311524E+03  0.00000000000E+00 0. -1.
         22    1    1    2    0    0 -0.25726903072E+03 -0.12406738046E+03 -0.14261184249E+03  0.31924631036E+03  0.00000000000E+00 0.  1.
<mgrwt>
<rscale>  0 0.74001252E+03</rscale>
<asrwt>0</asrwt>
<pdfrwt beam="1">  1        2 0.19027655E+00 0.74001252E+03</pdfrwt>
<pdfrwt beam="2">  1       -2 0.17029667E-01 0.74001252E+03</pdfrwt>
<totfact> 0.51250219E+02</totfact>
</mgrwt>
</event>
<event>
 6    1  0.3017327E-006  0.3321422E+04  0.7818608E-02  0.8157466E-01
          1   -1    0    0  501    0  0.00000000000E+00  0.00000000000E+00  0.92364867536E+03  0.92364867536E+03  0.00000000000E+00 0. -1.
         -1   -1    0    0    0  501 -0.00000000000E+00 -0.00000000000E+00 -0.29859423592E+04  0.29859423592E+04  0.00000000000E+00 0.  1.
         23    2    1    2    0    0  0.10248580905E+04 -0.84792403590E+03  0.13600731273E+03  0.13401871061E+04  0.91072575070E+02 0.  0.
         11    1    3    3    0    0  0.71885969738E+03 -0.58131443887E+03  0.13526054650E+03  0.93433460644E+03  0.00000000000E+00 0.  1.
        -11    1    3    3    0    0  0.30599839308E+03 -0.26660959703E+03  0.74676622324E+00  0.40585249963E+03  0.00000000000E+00 0. -1.
         22    1    1    2    0    0 -0.10248580905E+04  0.84792403590E+03 -0.21983009966E+04  0.25694039285E+04  0.00000000000E+00 0.  1.
<mgrwt>
<rscale>  0 0.33214224E+04</rscale>
<asrwt>0</asrwt>
<pdfrwt beam="1">  1        1 0.14209980E+00 0.33214224E+04</pdfrwt>
<pdfrwt beam="2">  1       -1 0.45937574E+00 0.33214224E+04</pdfrwt>
<totfact> 0.40159833E-02</totfact>
</mgrwt>
</event>
<event>
 6    1  0.3017327E-006  0.2943560E+04  0.7818608E-02  0.8260034E-01
          2   -1    0    0  501    0  0.00000000000E+00  0.00000000000E+00  0.14609748743E+04  0.14609748743E+04  0.00000000000E+00 0. -1.
         -2   -1    0    0    0  501 -0.00000000000E+00 -0.00000000000E+00 -0.14826650434E+04  0.14826650434E+04  0.00000000000E+00 0.  1.
         23    2    1    2    0    0 -0.13197749509E+04 -0.59064545379E+03 -0.27787405069E+03  0.14752060056E+04  0.91382699983E+02 0.  0.
         13    1    3    3    0    0 -0.10061144779E+04 -0.49031063403E+03 -0.20310008959E+03  0.11375062667E+04  0.00000000000E+00 0.  1.
        -13    1    3    3    0    0 -0.31366047297E+03 -0.10033481975E+03 -0.74773961101E+02  0.33769973884E+03  0.00000000000E+00 0. -1.
         22    1    1    2    0    0  0.13197749509E+04  0.59064545379E+03  0.25618388167E+03  0.14684339121E+04  0.00000000000E+00 0.  1.
<mgrwt>
<rscale>  0 0.29435600E+04</rscale>
<asrwt>0</asrwt>
<pdfrwt beam="1">  1        2 0.22476536E+00 0.29435600E+04</pdfrwt>
<pdfrwt beam="2">  1       -2 0.22810232E+00 0.29435600E+04</pdfrwt>
<totfact> 0.10094264E+00</totfact>
</mgrwt>
</event>
<event>
 6    1  0.3017327E-006  0.1394824E+04  0.7818608E-02  0.8957574E-01
          2   -1    0    0  501    0  0.00000000000E+00  0.00000000000E+00  0.92293175714E+03  0.92293175714E+03  0.00000000000E+00 0. -1.
         -2   -1    0    0    0  501 -0.00000000000E+00 -0.00000000000E+00 -0.52699834301E+03  0.52699834301E+03  0.00000000000E+00 0.  1.
         23    2    1    2    0    0  0.67559142435E+03 -0.13401477710E+03  0.10622525962E+03  0.70272561146E+03  0.90309169464E+02 0.  0.
         11    1    3    3    0    0  0.44267097498E+03 -0.11526741721E+03  0.36572462103E+02  0.45889183317E+03  0.00000000000E+00 0.  1.
        -11    1    3    3    0    0  0.23292044937E+03 -0.18747359885E+02  0.69652797520E+02  0.24383377830E+03  0.00000000000E+00 0. -1.
         22    1    1    2    0    0 -0.67559142435E+03  0.13401477710E+03  0.28970815451E+03  0.74720448869E+03  0.00000000000E+00 0.  1.
<mgrwt>
<rscale>  0 0.13948240E+04</rscale>
<asrwt>0</asrwt>
<pdfrwt beam="1">  1        2 0.14198950E+00 0.13948240E+04</pdfrwt>
<pdfrwt beam="2">  1       -2 0.81076668E-01 0.13948240E+04</pdfrwt>
<totfact> 0.36966260E+01</totfact>
</mgrwt>
</event>
<event>
 6    1  0.3017327E-006  0.2289899E+04  0.7818608E-02  0.8481914E-01
          2   -1    0    0  501    0  0.00000000000E+00  0.00000000000E+00  0.18550827446E+04  0.18550827446E+04  0.00000000000E+00 0. -1.
         -2   -1    0    0    0  501 -0.00000000000E+00 -0.00000000000E+00 -0.70665817088E+03  0.70665817088E+03  0.00000000000E+00 0.  1.
         23    2    1    2    0    0  0.95011526130E+03 -0.45717883780E+03  0.81677170795E+02  0.10618470789E+04  0.95480674180E+02 0.  0.
         11    1    3    3    0    0  0.68820920678E+03 -0.36690668829E+03  0.87201048604E+02  0.78476522163E+03  0.00000000000E+00 0. -1.
        -11    1    3    3    0    0  0.26190605453E+03 -0.90272149517E+02 -0.55238778093E+01  0.27708185722E+03  0.00000000000E+00 0.  1.
         22    1    1    2    0    0 -0.95011526130E+03  0.45717883780E+03  0.10667474029E+04  0.14998938366E+04  0.00000000000E+00 0. -1.
<mgrwt>
<rscale>  0 0.22898990E+04</rscale>
<asrwt>0</asrwt>
<pdfrwt beam="1">  1        2 0.28539734E+00 0.22898990E+04</pdfrwt>
<pdfrwt beam="2">  1       -2 0.10871664E+00 0.22898990E+04</pdfrwt>
<totfact> 0.49326283E+00</totfact>
</mgrwt>
</event>
<event>
 6    1  0.3017327E-006  0.3078178E+04  0.7818608E-02  0.8221752E-01
         -2   -1    0    0    0  501 -0.00000000000E+00  0.00000000000E+00  0.87623640079E+03  0.87623640079E+03  0.00000000000E+00 0.  1.
          2   -1    0    0  501    0  0.00000000000E+00 -0.00000000000E+00 -0.27033739223E+04  0.27033739223E+04  0.00000000000E+00 0. -1.
         23    2    1    2    0    0  0.34936065004E+03 -0.62694983998E+03  0.66714746480E+03  0.98411873987E+03  0.91021913405E+02 0.  0.
         11    1    3    3    0    0  0.16372058263E+03 -0.34668815892E+03  0.30434179646E+03  0.48951101906E+03  0.00000000000E+00 0. -1.
        -11    1    3    3    0    0  0.18564006741E+03 -0.28026168107E+03  0.36280566834E+03  0.49460772081E+03  0.00000000000E+00 0.  1.
         22    1    1    2    0    0 -0.34936065004E+03  0.62694983998E+03 -0.24942849864E+04  0.25954915833E+04  0.00000000000E+00 0. -1.
<mgrwt>
<rscale>  0 0.30781778E+04</rscale>
<asrwt>0</asrwt>
<pdfrwt beam="1">  1        2 0.41590368E+00 0.30781778E+04</pdfrwt>
<pdfrwt beam="2">  1       -2 0.13480560E+00 0.30781778E+04</pdfrwt>
<totfact> 0.88987745E-01</totfact>
</mgrwt>
</event>
<event>
 6    1  0.3017327E-006  0.2801370E+04  0.7818608E-02  0.8302843E-01
         -2   -1    0    0    0  501 -0.00000000000E+00  0.00000000000E+00  0.10304252733E+04  0.10304252733E+04  0.00000000000E+00 0.  1.
          2   -1    0    0  501    0  0.00000000000E+00 -0.00000000000E+00 -0.19039896757E+04  0.19039896757E+04  0.00000000000E+00 0. -1.
         23    2    1    2    0    0  0.52127575918E+03  0.36621976352E+03  0.86766655252E+03  0.10803031481E+04  0.91456618464E+02 0.  0.
         13    1    3    3    0    0  0.16452751662E+03  0.13088960826E+03  0.21970123321E+03  0.30408884417E+03  0.00000000000E+00 0. -1.
        -13    1    3    3    0    0  0.35674824257E+03  0.23533015527E+03  0.64796531931E+03  0.77621430390E+03  0.00000000000E+00 0.  1.
         22    1    1    2    0    0 -0.52127575918E+03 -0.36621976352E+03 -0.17412309548E+04  0.18541118009E+04  0.00000000000E+00 0. -1.
<mgrwt>
<rscale>  0 0.28013704E+04</rscale>
<asrwt>0</asrwt>
<pdfrwt beam="1">  1        2 0.29292149E+00 0.28013704E+04</pdfrwt>
<pdfrwt beam="2">  1       -2 0.15852697E+00 0.28013704E+04</pdfrwt>
<totfact> 0.16981156E+00</totfact>
</mgrwt>
</event>
<event>
 6    1  0.3017327E-006  0.6944501E+04  0.7818608E-02  0.7583186E-01
          1   -1    0    0  501    0  0.00000000000E+00  0.00000000000E+00  0.33709809759E+04  0.33709809759E+04  0.00000000000E+00 0. -1.
         -1   -1    0    0    0  501 -0.00000000000E+00 -0.00000000000E+00 -0.35765625811E+04  0.35765625811E+04  0.00000000000E+00 0.  1.
         23    2    1    2    0    0  0.12984823360E+04  0.22894256718E+04 -0.23675798100E+04  0.35414075466E+04  0.92773758853E+02 0.  0.
         13    1    3    3    0    0  0.86585083032E+03  0.14518145456E+04 -0.15531591994E+04  0.22955972282E+04  0.00000000000E+00 0.  1.
        -13    1    3    3    0    0  0.43263150570E+03  0.83761112620E+03 -0.81442061061E+03  0.12458103184E+04  0.00000000000E+00 0. -1.
         22    1    1    2    0    0 -0.12984823360E+04 -0.22894256718E+04  0.21619982048E+04  0.34061360104E+04  0.00000000000E+00 0. -1.
<mgrwt>
<rscale>  0 0.69445013E+04</rscale>
<asrwt>0</asrwt>
<pdfrwt beam="1">  1        1 0.51861246E+00 0.69445013E+04</pdfrwt>
<pdfrwt beam="2">  1       -1 0.55024039E+00 0.69445013E+04</pdfrwt>
<totfact> 0.15009628E-04</totfact>
</mgrwt>
</event>
<event>
 6    1  0.3017327E-006  0.2838880E+04  0.7818608E-02  0.8291298E-01
         -2   -1    0    0    0  501 -0.00000000000E+00  0.00000000000E+00  0.53054774635E+03  0.53054774635E+03  0.00000000000E+00 0.  1.
          2   -1    0    0  501    0  0.00000000000E+00 -0.00000000000E+00 -0.37976024616E+04  0.37976024616E+04  0.00000000000E+00 0. -1.
         23    2    1    2    0    0 -0.11340306423E+04  0.46124038041E+02 -0.29311974387E+04  0.31445315891E+04  0.89485004643E+02 0.  0.
         11    1    3    3    0    0 -0.81411757845E+03 -0.68684258417E+01 -0.21120913618E+04  0.22635733978E+04  0.00000000000E+00 0. -1.
        -11    1    3    3    0    0 -0.31991306383E+03  0.52992463882E+02 -0.81910607692E+03  0.88095819134E+03  0.00000000000E+00 0.  1.
         22    1    1    2    0    0  0.11340306423E+04 -0.46124038041E+02 -0.33585727654E+03  0.11836186188E+04  0.00000000000E+00 0.  1.
<mgrwt>
<rscale>  0 0.28388797E+04</rscale>
<asrwt>0</asrwt>
<pdfrwt beam="1">  1        2 0.58424652E+00 0.28388797E+04</pdfrwt>
<pdfrwt beam="2">  1       -2 0.81622732E-01 0.28388797E+04</pdfrwt>
<totfact> 0.56517964E-01</totfact>
</mgrwt>
</event>
<event>
 6    1  0.3017327E-006  0.7817722E+03  0.7818608E-02  0.9586782E-01
          2   -1    0    0  501    0  0.00000000000E+00  0.00000000000E+00  0.12083448870E+04  0.12083448870E+04  0.00000000000E+00 0. -1.
         -2   -1    0    0    0  501 -0.00000000000E+00 -0.00000000000E+00 -0.12644729966E+03  0.12644729966E+03  0.00000000000E+00 0.  1.
         23    2    1    2    0    0 -0.37562009204E+03 -0.77193900868E+02  0.48238326811E+03  0.62312739841E+03  0.92438008517E+02 0.  0.
         13    1    3    3    0    0 -0.13247266182E+03 -0.34908176341E+02  0.24497425174E+03  0.28067769936E+03  0.00000000000E+00 0.  1.
        -13    1    3    3    0    0 -0.24314743022E+03 -0.42285724527E+02  0.23740901638E+03  0.34244969905E+03  0.00000000000E+00 0. -1.
         22    1    1    2    0    0  0.37562009204E+03  0.77193900868E+02  0.59951431918E+03  0.71166478821E+03  0.00000000000E+00 0. -1.
<mgrwt>
<rscale>  0 0.78177221E+03</rscale>
<asrwt>0</asrwt>
<pdfrwt beam="1">  1        2 0.18589921E+00 0.78177221E+03</pdfrwt>
<pdfrwt beam="2">  1       -2 0.19453432E-01 0.78177221E+03</pdfrwt>
<totfact> 0.42229510E+02</totfact>
</mgrwt>
</event>
<event>
 6    1  0.3017327E-006  0.1502214E+04  0.7818608E-02  0.8882982E-01
         -2   -1    0    0    0  501 -0.00000000000E+00  0.00000000000E+00  0.46658399529E+03  0.46658399529E+03  0.00000000000E+00 0.  1.
          2   -1    0    0  501    0  0.00000000000E+00 -0.00000000000E+00 -0.12091314547E+04  0.12091314547E+04  0.00000000000E+00 0. -1.
         23    2    1    2    0    0 -0.25301002100E+03  0.44289649221E+03 -0.98352591986E+03  0.11115860394E+04  0.90160492402E+02 0.  0.
         13    1    3    3    0    0 -0.13899250622E+03  0.15498796549E+03 -0.38319410426E+03  0.43609392082E+03  0.00000000000E+00 0. -1.
        -13    1    3    3    0    0 -0.11401751478E+03  0.28790852672E+03 -0.60033181559E+03  0.67549211857E+03  0.00000000000E+00 0.  1.
         22    1    1    2    0    0  0.25301002100E+03 -0.44289649221E+03  0.24097846043E+03  0.56412941063E+03  0.00000000000E+00 0.  1.
<mgrwt>
<rscale>  0 0.15022135E+04</rscale>
<asrwt>0</asrwt>
<pdfrwt beam="1">  1        2 0.18602022E+00 0.15022135E+04</pdfrwt>
<pdfrwt beam="2">  1       -2 0.71782154E-01 0.15022135E+04</pdfrwt>
<totfact> 0.31790225E+01</totfact>
</mgrwt>
</event>
<event>
 6    1  0.3017327E-006  0.5447424E+03  0.7818608E-02  0.1002718E+00
         -2   -1    0    0    0  501 -0.00000000000E+00  0.00000000000E+00  0.64802340411E+03  0.64802340411E+03  0.00000000000E+00 0.  1.
          2   -1    0    0  501    0  0.00000000000E+00 -0.00000000000E+00 -0.11448054865E+03  0.11448054865E+03  0.00000000000E+00 0. -1.
         23    2    1    2    0    0  0.11713075271E+02 -0.11342992060E+03  0.60843386087E+03  0.62607739483E+03  0.93688837323E+02 0.  0.
         13    1    3    3    0    0  0.11068708464E+01 -0.12699931496E+03  0.48098937762E+03  0.49747445416E+03  0.00000000000E+00 0.  1.
        -13    1    3    3    0    0  0.10606204425E+02  0.13569394361E+02  0.12744448325E+03  0.12860294067E+03  0.00000000000E+00 0. -1.
         22    1    1    2    0    0 -0.11713075271E+02  0.11342992060E+03 -0.74891005409E+02  0.13642655794E+03  0.00000000000E+00 0. -1.
<mgrwt>
<rscale>  0 0.54474242E+03</rscale>
<asrwt>0</asrwt>
<pdfrwt beam="1">  1        2 0.17612392E-01 0.54474242E+03</pdfrwt>
<pdfrwt beam="2">  1       -2 0.99695906E-01 0.54474242E+03</pdfrwt>
<totfact> 0.27823954E+02</totfact>
</mgrwt>
</event>
<event>
 6    1  0.3017327E-006  0.4203654E+04  0.7818608E-02  0.7964678E-01
         -2   -1    0    0    0  501 -0.00000000000E+00  0.00000000000E+00  0.13356694813E+04  0.13356694813E+04  0.00000000000E+00 0.  1.
          2   -1    0    0  501    0  0.00000000000E+00 -0.00000000000E+00 -0.33074622182E+04  0.33074622182E+04  0.00000000000E+00 0. -1.
         23    2    1    2    0    0  0.21485182824E+03 -0.19789414825E+04 -0.17282720818E+04  0.26377207669E+04  0.90971180211E+02 0.  0.
         11    1    3    3    0    0  0.10528591621E+03 -0.12424707941E+04 -0.11251781557E+04  0.16795370435E+04  0.00000000000E+00 0.  1.
        -11    1    3    3    0    0  0.10956591203E+03 -0.73647068842E+03 -0.60309392617E+03  0.95818372339E+03  0.00000000000E+00 0. -1.
         22    1    1    2    0    0 -0.21485182824E+03  0.19789414825E+04 -0.24352065511E+03  0.20054109327E+04  0.00000000000E+00 0.  1.
<mgrwt>
<rscale>  0 0.42036538E+04</rscale>
<asrwt>0</asrwt>
<pdfrwt beam="1">  1        2 0.50884033E+00 0.42036538E+04</pdfrwt>
<pdfrwt beam="2">  1       -2 0.20548762E+00 0.42036538E+04</pdfrwt>
<totfact> 0.10451482E-01</totfact>
</mgrwt>
</event>
<event>
 6    1  0.3017327E-006  0.1531908E+04  0.7818608E-02  0.8863507E-01
          2   -1    0    0  501    0  0.00000000000E+00  0.00000000000E+00  0.16534835585E+04  0.16534835585E+04  0.00000000000E+00 0. -1.
         -2   -1    0    0    0  501 -0.00000000000E+00 -0.00000000000E+00 -0.35481809860E+03  0.35481809860E+03  0.00000000000E+00 0.  1.
         23    2    1    2    0    0 -0.32699725736E+03  0.67485148857E+03  0.46834750708E+03  0.88947207190E+03  0.97259659488E+02 0.  0.
         13    1    3    3    0    0 -0.25117007840E+03  0.53386646753E+03  0.31986124474E+03  0.67112668650E+03  0.00000000000E+00 0.  1.
        -13    1    3    3    0    0 -0.75827178956E+02  0.14098502103E+03  0.14848626233E+03  0.21834538540E+03  0.00000000000E+00 0. -1.
         22    1    1    2    0    0  0.32699725736E+03 -0.67485148857E+03  0.83031795282E+03  0.11188295852E+04  0.00000000000E+00 0. -1.
<mgrwt>
<rscale>  0 0.15319085E+04</rscale>
<asrwt>0</asrwt>
<pdfrwt beam="1">  1        2 0.25438208E+00 0.15319085E+04</pdfrwt>
<pdfrwt beam="2">  1       -2 0.54587400E-01 0.15319085E+04</pdfrwt>
<totfact> 0.31683783E+01</totfact>
</mgrwt>
</event>
<event>
 6    1  0.3017327E-006  0.2565475E+04  0.7818608E-02  0.8380024E-01
         -2   -1    0    0    0  501 -0.00000000000E+00  0.00000000000E+00  0.66793552757E+03  0.66793552757E+03  0.00000000000E+00 0.  1.
          2   -1    0    0  501    0  0.00000000000E+00 -0.00000000000E+00 -0.24634346633E+04  0.24634346633E+04  0.00000000000E+00 0. -1.
         23    2    1    2    0    0 -0.91812845055E+03 -0.89036473669E+03 -0.99073020608E+03  0.16202903630E+04  0.89918313549E+02 0.  0.
         11    1    3    3    0    0 -0.61153639494E+03 -0.62576632415E+03 -0.63291243111E+03  0.10798788822E+04  0.00000000000E+00 0.  1.
        -11    1    3    3    0    0 -0.30659205562E+03 -0.26459841255E+03 -0.35781777498E+03  0.54041148080E+03  0.00000000000E+00 0. -1.
         22    1    1    2    0    0  0.91812845055E+03  0.89036473669E+03 -0.80476892965E+03  0.15110798279E+04  0.00000000000E+00 0. -1.
<mgrwt>
<rscale>  0 0.25654750E+04</rscale>
<asrwt>0</asrwt>
<pdfrwt beam="1">  1        2 0.37898995E+00 0.25654750E+04</pdfrwt>
<pdfrwt beam="2">  1       -2 0.10275931E+00 0.25654750E+04</pdfrwt>
<totfact> 0.25093333E+00</totfact>
</mgrwt>
</event>
<event>
 6    1  0.3017327E-006  0.1887773E+04  0.7818608E-02  0.8660967E-01
         -2   -1    0    0    0  501 -0.00000000000E+00  0.00000000000E+00  0.45762574234E+03  0.45762574234E+03  0.00000000000E+00 0. -1.
          2   -1    0    0  501    0  0.00000000000E+00 -0.00000000000E+00 -0.19468346219E+04  0.19468346219E+04  0.00000000000E+00 0.  1.
         23    2    1    2    0    0  0.28328614741E+03 -0.26778228230E+03  0.34553872871E+03  0.52875858143E+03  0.90720628143E+02 0.  0.
         11    1    3    3    0    0  0.96084794705E+02 -0.36789716283E+02  0.91369480583E+02  0.13760142797E+03  0.00000000000E+00 0. -1.
        -11    1    3    3    0    0  0.18720135270E+03 -0.23099256601E+03  0.25416924812E+03  0.39115715345E+03  0.00000000000E+00 0.  1.
         22    1    1    2    0    0 -0.28328614741E+03  0.26778228230E+03 -0.18347476083E+04  0.18757017829E+04  0.00000000000E+00 0.  1.
<mgrwt>
<rscale>  0 0.18877729E+04</rscale>
<asrwt>0</asrwt>
<pdfrwt beam="1">  1        2 0.29951302E+00 0.18877729E+04</pdfrwt>
<pdfrwt beam="2">  1       -2 0.70403960E-01 0.18877729E+04</pdfrwt>
<totfact> 0.12306729E+01</totfact>
</mgrwt>
</event>
<event>
 6    1  0.3017327E-006  0.2426599E+04  0.7818608E-02  0.8429612E-01
         -2   -1    0    0    0  501 -0.00000000000E+00  0.00000000000E+00  0.55773862233E+03  0.55773862233E+03  0.00000000000E+00 0. -1.
          2   -1    0    0  501    0  0.00000000000E+00 -0.00000000000E+00 -0.26394004764E+04  0.26394004764E+04  0.00000000000E+00 0.  1.
         23    2    1    2    0    0  0.68688489813E+03 -0.49384966013E+03  0.10057230870E+03  0.85665959845E+03  0.89735880490E+02 0.  0.
         13    1    3    3    0    0  0.48482721822E+03 -0.37427585268E+03  0.37934510591E+02  0.61366022563E+03  0.00000000000E+00 0.  1.
        -13    1    3    3    0    0  0.20205767991E+03 -0.11957380745E+03  0.62637798110E+02  0.24299937282E+03  0.00000000000E+00 0. -1.
         22    1    1    2    0    0 -0.68688489813E+03  0.49384966013E+03 -0.21822341628E+04  0.23404795003E+04  0.00000000000E+00 0.  1.
<mgrwt>
<rscale>  0 0.24265989E+04</rscale>
<asrwt>0</asrwt>
<pdfrwt beam="1">  1        2 0.40606161E+00 0.24265989E+04</pdfrwt>
<pdfrwt beam="2">  1       -2 0.85805943E-01 0.24265989E+04</pdfrwt>
<totfact> 0.30522208E+00</totfact>
</mgrwt>
</event>
<event>
 6    1  0.3017327E-006  0.2671425E+03  0.7818608E-02  0.1102926E+00
          2   -1    0    0  501    0  0.00000000000E+00  0.00000000000E+00  0.47589348712E+03  0.47589348712E+03  0.00000000000E+00 0. -1.
         -2   -1    0    0    0  501 -0.00000000000E+00 -0.00000000000E+00 -0.37490066319E+02  0.37490066319E+02  0.00000000000E+00 0.  1.
         23    2    1    2    0    0 -0.84413120015E+02  0.23145475834E+02  0.39840509170E+03  0.41714866261E+03  0.87321828532E+02 0.  0.
         13    1    3    3    0    0 -0.65258107640E+02  0.12997093441E+02  0.11459924284E+03  0.13251615566E+03  0.00000000000E+00 0. -1.
        -13    1    3    3    0    0 -0.19155012375E+02  0.10148382393E+02  0.28380584886E+03  0.28463250695E+03  0.00000000000E+00 0.  1.
         22    1    1    2    0    0  0.84413120015E+02 -0.23145475834E+02  0.39998329096E+02  0.96234890828E+02  0.00000000000E+00 0.  1.
<mgrwt>
<rscale>  0 0.26714250E+03</rscale>
<asrwt>0</asrwt>
<pdfrwt beam="1">  1        2 0.73214379E-01 0.26714250E+03</pdfrwt>
<pdfrwt beam="2">  1       -2 0.57677028E-02 0.26714250E+03</pdfrwt>
<totfact> 0.10273489E+04</totfact>
</mgrwt>
</event>
<event>
 6    1  0.3017327E-006  0.4458749E+04  0.7818608E-02  0.7917899E-01
         -2   -1    0    0    0  501 -0.00000000000E+00  0.00000000000E+00  0.21248826765E+04  0.21248826765E+04  0.00000000000E+00 0.  1.
          2   -1    0    0  501    0  0.00000000000E+00 -0.00000000000E+00 -0.23390042948E+04  0.23390042948E+04  0.00000000000E+00 0. -1.
         23    2    1    2    0    0 -0.20724254787E+04 -0.65686367379E+02  0.71025460875E+03  0.21937033944E+04  0.92794988029E+02 0.  0.
         11    1    3    3    0    0 -0.28347330438E+03 -0.12357742628E+02  0.64147544717E+02  0.29090330969E+03  0.00000000000E+00 0.  1.
        -11    1    3    3    0    0 -0.17889521743E+04 -0.53328624751E+02  0.64610706404E+03  0.19028000847E+04  0.00000000000E+00 0. -1.
         22    1    1    2    0    0  0.20724254787E+04  0.65686367379E+02 -0.92437622702E+03  0.22701835769E+04  0.00000000000E+00 0. -1.
<mgrwt>
<rscale>  0 0.44587486E+04</rscale>
<asrwt>0</asrwt>
<pdfrwt beam="1">  1        2 0.35984682E+00 0.44587486E+04</pdfrwt>
<pdfrwt beam="2">  1       -2 0.32690503E+00 0.44587486E+04</pdfrwt>
<totfact> 0.71061608E-02</totfact>
</mgrwt>
</event>
<event>
 6    1  0.3017327E-006  0.3170406E+04  0.7818608E-02  0.8196677E-01
          2   -1    0    0  501    0  0.00000000000E+00  0.00000000000E+00  0.15386507570E+04  0.15386507570E+04  0.00000000000E+00 0. -1.
         -2   -1    0    0    0  501 -0.00000000000E+00 -0.00000000000E+00 -0.16331639593E+04  0.16331639593E+04  0.00000000000E+00 0.  1.
         23    2    1    2    0    0 -0.13169067890E+04  0.11824167600E+03  0.82522831183E+03  0.15611784950E+04  0.89732612387E+02 0.  0.
         13    1    3    3    0    0 -0.87453268256E+03  0.95247568140E+02  0.50244855889E+03  0.10130814708E+04  0.00000000000E+00 0. -1.
        -13    1    3    3    0    0 -0.44237410642E+03  0.22994107863E+02  0.32277975294E+03  0.54809702420E+03  0.00000000000E+00 0.  1.
         22    1    1    2    0    0  0.13169067890E+04 -0.11824167600E+03 -0.91974151413E+03  0.16106362214E+04  0.00000000000E+00 0.  1.
<mgrwt>
<rscale>  0 0.31704063E+04</rscale>
<asrwt>0</asrwt>
<pdfrwt beam="1">  1        2 0.23671550E+00 0.31704063E+04</pdfrwt>
<pdfrwt beam="2">  1       -2 0.25125599E+00 0.31704063E+04</pdfrwt>
<totfact> 0.64332055E-01</totfact>
</mgrwt>
</event>
<event>
 6    1  0.3017327E-006  0.1232920E+04  0.7818608E-02  0.9084520E-01
          2   -1    0    0  501    0  0.00000000000E+00  0.00000000000E+00  0.18165332277E+04  0.18165332277E+04  0.00000000000E+00 0. -1.
         -2   -1    0    0    0  501 -0.00000000000E+00 -0.00000000000E+00 -0.20920222545E+03  0.20920222545E+03  0.00000000000E+00 0.  1.
         23    2    1    2    0    0 -0.14273042311E+03 -0.40650722761E+03  0.91936117248E+02  0.45028575315E+03  0.93192864813E+02 0.  0.
         11    1    3    3    0    0 -0.39869747780E+02 -0.22830405261E+03  0.76035899925E+02  0.24391349963E+03  0.00000000000E+00 0. -1.
        -11    1    3    3    0    0 -0.10286067533E+03 -0.17820317500E+03  0.15900217323E+02  0.20637225351E+03  0.00000000000E+00 0.  1.
         22    1    1    2    0    0  0.14273042311E+03  0.40650722761E+03  0.15153948850E+04  0.15754497000E+04  0.00000000000E+00 0. -1.
<mgrwt>
<rscale>  0 0.12329198E+04</rscale>
<asrwt>0</asrwt>
<pdfrwt beam="1">  1        2 0.27946664E+00 0.12329198E+04</pdfrwt>
<pdfrwt beam="2">  1       -2 0.32184959E-01 0.12329198E+04</pdfrwt>
<totfact> 0.74764175E+01</totfact>
</mgrwt>
</event>
<event>
 6    1  0.3017327E-006  0.2736531E+04  0.7818608E-02  0.8323248E-01
         -2   -1    0    0    0  501 -0.00000000000E+00  0.00000000000E+00  0.75038973175E+03  0.75038973175E+03  0.00000000000E+00 0.  1.
          2   -1    0    0  501    0  0.00000000000E+00 -0.00000000000E+00 -0.24949042934E+04  0.24949042934E+04  0.00000000000E+00 0. -1.
         23    2    1    2    0    0 -0.73309135112E+03 -0.42019102269E+03  0.40043077513E+03  0.93991468056E+03  0.95453530173E+02 0.  0.
         13    1    3    3    0    0 -0.34157064336E+03 -0.20106168760E+03  0.24038386749E+03  0.46355227361E+03  0.00000000000E+00 0. -1.
        -13    1    3    3    0    0 -0.39152070776E+03 -0.21912933510E+03  0.16004690764E+03  0.47636240695E+03  0.00000000000E+00 0.  1.
         22    1    1    2    0    0  0.73309135112E+03  0.42019102269E+03 -0.21449453368E+04  0.23053793446E+04  0.00000000000E+00 0. -1.
<mgrwt>
<rscale>  0 0.27365311E+04</rscale>
<asrwt>0</asrwt>
<pdfrwt beam="1">  1        2 0.38383142E+00 0.27365311E+04</pdfrwt>
<pdfrwt beam="2">  1       -2 0.11544458E+00 0.27365311E+04</pdfrwt>
<totfact> 0.17902787E+00</totfact>
</mgrwt>
</event>
<event>
 6    1  0.3017327E-006  0.2549388E+04  0.7818608E-02  0.8385599E-01
          1   -1    0    0  501    0  0.00000000000E+00  0.00000000000E+00  0.11405116569E+04  0.11405116569E+04  0.00000000000E+00 0. -1.
         -1   -1    0    0    0  501 -0.00000000000E+00 -0.00000000000E+00 -0.14246627611E+04  0.14246627611E+04  0.00000000000E+00 0.  1.
         23    2    1    2    0    0 -0.10246240154E+04  0.57362730199E+03 -0.63694000750E+03  0.13390575130E+04  0.92085804944E+02 0.  0.
         13    1    3    3    0    0 -0.15952167036E+02  0.23497155751E+02 -0.94375991574E+01  0.29927516425E+02  0.00000000000E+00 0. -1.
        -13    1    3    3    0    0 -0.10086718483E+04  0.55013014624E+03 -0.62750240834E+03  0.13091299966E+04  0.00000000000E+00 0.  1.
         22    1    1    2    0    0  0.10246240154E+04 -0.57362730199E+03  0.35278890332E+03  0.12261169050E+04  0.00000000000E+00 0. -1.
<mgrwt>
<rscale>  0 0.25493878E+04</rscale>
<asrwt>0</asrwt>
<pdfrwt beam="1">  1        1 0.17546333E+00 0.25493878E+04</pdfrwt>
<pdfrwt beam="2">  1       -1 0.21917889E+00 0.25493878E+04</pdfrwt>
<totfact> 0.11656567E+00</totfact>
</mgrwt>
</event>
<event>
 6    1  0.3017327E-006  0.2782298E+04  0.7818608E-02  0.8308785E-01
          2   -1    0    0  501    0  0.00000000000E+00  0.00000000000E+00  0.36289127073E+04  0.36289127073E+04  0.00000000000E+00 0. -1.
         -2   -1    0    0    0  501 -0.00000000000E+00 -0.00000000000E+00 -0.53329908042E+03  0.53329908042E+03  0.00000000000E+00 0.  1.
         23    2    1    2    0    0  0.17106484771E+02  0.42597820071E+03  0.35280999517E+04  0.35549272741E+04  0.90931818825E+02 0.  0.
         11    1    3    3    0    0  0.14483274980E+02  0.36430309503E+03  0.26960308098E+04  0.27205713808E+04  0.00000000000E+00 0.  1.
        -11    1    3    3    0    0  0.26232097910E+01  0.61675105679E+02  0.83206914186E+03  0.83435589332E+03  0.00000000000E+00 0. -1.
         22    1    1    2    0    0 -0.17106484771E+02 -0.42597820071E+03 -0.43248632483E+03  0.60728451361E+03  0.00000000000E+00 0.  1.
<mgrwt>
<rscale>  0 0.27822982E+04</rscale>
<asrwt>0</asrwt>
<pdfrwt beam="1">  1        2 0.55829425E+00 0.27822982E+04</pdfrwt>
<pdfrwt beam="2">  1       -2 0.82046014E-01 0.27822982E+04</pdfrwt>
<totfact> 0.74873081E-01</totfact>
</mgrwt>
</event>
<event>
 6    1  0.3017327E-006  0.2588584E+04  0.7818608E-02  0.8372089E-01
         -2   -1    0    0    0  501 -0.00000000000E+00  0.00000000000E+00  0.14027419538E+04  0.14027419538E+04  0.00000000000E+00 0. -1.
          2   -1    0    0  501    0  0.00000000000E+00 -0.00000000000E+00 -0.11942261781E+04  0.11942261781E+04  0.00000000000E+00 0.  1.
         23    2    1    2    0    0 -0.69693700348E+03 -0.10832407273E+04  0.21527104460E+03  0.13088775707E+04  0.87676748722E+02 0.  0.
         11    1    3    3    0    0 -0.34645147738E+03 -0.46447831357E+03  0.79151962545E+02  0.58483652684E+03  0.00000000000E+00 0.  1.
        -11    1    3    3    0    0 -0.35048552610E+03 -0.61876241373E+03  0.13611908206E+03  0.72404104383E+03  0.00000000000E+00 0. -1.
         22    1    1    2    0    0  0.69693700348E+03  0.10832407273E+04 -0.67552689449E+01  0.12880905612E+04  0.00000000000E+00 0. -1.
<mgrwt>
<rscale>  0 0.25885835E+04</rscale>
<asrwt>0</asrwt>
<pdfrwt beam="1">  1        2 0.18372710E+00 0.25885835E+04</pdfrwt>
<pdfrwt beam="2">  1       -2 0.21580646E+00 0.25885835E+04</pdfrwt>
<totfact> 0.17765112E+00</totfact>
</mgrwt>
</event>
<event>
 6    1  0.3017327E-006  0.1091188E+04  0.7818608E-02  0.9213823E-01
         -2   -1    0    0    0  501 -0.00000000000E+00  0.00000000000E+00  0.50253670549E+03  0.50253670549E+03  0.00000000000E+00 0.  1.
          2   -1    0    0  501    0  0.00000000000E+00 -0.00000000000E+00 -0.59234051733E+03  0.59234051733E+03  0.00000000000E+00 0. -1.
         23    2    1    2    0    0  0.29672779283E+02  0.45765748161E+03  0.24456419879E+03  0.52730977234E+03  0.88955631459E+02 0.  0.
         11    1    3    3    0    0  0.61329239180E+02  0.28111303352E+03  0.15540150179E+03  0.32700984688E+03  0.00000000000E+00 0. -1.
        -11    1    3    3    0    0 -0.31656459897E+02  0.17654444809E+03  0.89162696999E+02  0.20029992546E+03  0.00000000000E+00 0.  1.
         22    1    1    2    0    0 -0.29672779283E+02 -0.45765748161E+03 -0.33436801064E+03  0.56756745048E+03  0.00000000000E+00 0. -1.
<mgrwt>
<rscale>  0 0.10911881E+04</rscale>
<asrwt>0</asrwt>
<pdfrwt beam="1">  1        2 0.91129310E-01 0.10911881E+04</pdfrwt>
<pdfrwt beam="2">  1       -2 0.77313340E-01 0.10911881E+04</pdfrwt>
<totfact> 0.74726416E+01</totfact>
</mgrwt>
</event>
<event>
 6    1  0.3017327E-006  0.8956455E+03  0.7818608E-02  0.9431041E-01
          2   -1    0    0  501    0  0.00000000000E+00  0.00000000000E+00  0.80450578166E+03  0.80450578166E+03  0.00000000000E+00 0. -1.
         -2   -1    0    0    0  501 -0.00000000000E+00 -0.00000000000E+00 -0.24927755789E+03  0.24927755789E+03  0.00000000000E+00 0.  1.
         23    2    1    2    0    0 -0.23071391428E+03  0.35434347193E+03  0.43583790696E+03  0.61441759886E+03  0.93627444192E+02 0.  0.
         13    1    3    3    0    0 -0.56113414207E+01  0.67556984213E+02  0.56042699086E+02  0.87955769506E+02  0.00000000000E+00 0.  1.
        -13    1    3    3    0    0 -0.22510257285E+03  0.28678648772E+03  0.37979520788E+03  0.52646182936E+03  0.00000000000E+00 0. -1.
         22    1    1    2    0    0  0.23071391428E+03 -0.35434347193E+03  0.11939031681E+03  0.43936574069E+03  0.00000000000E+00 0.  1.
<mgrwt>
<rscale>  0 0.89564555E+03</rscale>
<asrwt>0</asrwt>
<pdfrwt beam="1">  1        2 0.12377012E+00 0.89564555E+03</pdfrwt>
<pdfrwt beam="2">  1       -2 0.38350394E-01 0.89564555E+03</pdfrwt>
<totfact> 0.22003035E+02</totfact>
</mgrwt>
</event>
<event>
 6    1  0.3017327E-006  0.3828041E+04  0.7818608E-02  0.8040164E-01
         -2   -1    0    0    0  501 -0.00000000000E+00  0.00000000000E+00  0.12418539085E+04  0.12418539085E+04  0.00000000000E+00 0.  1.
          2   -1    0    0  501    0  0.00000000000E+00 -0.00000000000E+00 -0.29500050203E+04  0.29500050203E+04  0.00000000000E+00 0. -1.
         23    2    1    2    0    0  0.66680958178E+03  0.62439932507E+03 -0.26950079176E+04  0.28470928188E+04  0.91434716304E+02 0.  0.
         11    1    3    3    0    0  0.26453903632E+03  0.30763480289E+03 -0.11537422460E+04  0.12230050056E+04  0.00000000000E+00 0.  1.
        -11    1    3    3    0    0  0.40227054547E+03  0.31676452218E+03 -0.15412656716E+04  0.16240878131E+04  0.00000000000E+00 0. -1.
         22    1    1    2    0    0 -0.66680958178E+03 -0.62439932507E+03  0.98685680576E+03  0.13447661100E+04  0.00000000000E+00 0.  1.
<mgrwt>
<rscale>  0 0.38280414E+04</rscale>
<asrwt>0</asrwt>
<pdfrwt beam="1">  1        2 0.45384692E+00 0.38280414E+04</pdfrwt>
<pdfrwt beam="2">  1       -2 0.19105445E+00 0.38280414E+04</pdfrwt>
<totfact> 0.22811437E-01</totfact>
</mgrwt>
</event>
<event>
 6    1  0.3017327E-006  0.1750834E+04  0.7818608E-02  0.8732891E-01
          1   -1    0    0  501    0  0.00000000000E+00  0.00000000000E+00  0.68927832317E+03  0.68927832317E+03  0.00000000000E+00 0. -1.
         -1   -1    0    0    0  501 -0.00000000000E+00 -0.00000000000E+00 -0.11118220557E+04  0.11118220557E+04  0.00000000000E+00 0.  1.
         23    2    1    2    0    0 -0.22781332527E+03  0.15746325873E+03  0.63974871713E+03  0.70330311269E+03  0.93076625521E+02 0.  0.
         11    1    3    3    0    0 -0.22040264264E+03  0.16806890448E+03  0.58941139692E+03  0.65132962190E+03  0.00000000000E+00 0. -1.
        -11    1    3    3    0    0 -0.74106826301E+01 -0.10605645752E+02  0.50337320212E+02  0.51973490790E+02  0.00000000000E+00 0.  1.
         22    1    1    2    0    0  0.22781332527E+03 -0.15746325873E+03 -0.10622924497E+04  0.10977972662E+04  0.00000000000E+00 0.  1.
<mgrwt>
<rscale>  0 0.17508339E+04</rscale>
<asrwt>0</asrwt>
<pdfrwt beam="1">  1        1 0.10604282E+00 0.17508339E+04</pdfrwt>
<pdfrwt beam="2">  1       -1 0.17104954E+00 0.17508339E+04</pdfrwt>
<totfact> 0.63880586E+00</totfact>
</mgrwt>
</event>
<event>
 6    1  0.3017327E-006  0.1127029E+04  0.7818608E-02  0.9179241E-01
          2   -1    0    0  501    0  0.00000000000E+00  0.00000000000E+00  0.16655290654E+04  0.16655290654E+04  0.00000000000E+00 0. -1.
         -2   -1    0    0    0  501 -0.00000000000E+00 -0.00000000000E+00 -0.19065921660E+03  0.19065921660E+03  0.00000000000E+00 0.  1.
         23    2    1    2    0    0  0.19091044832E+03  0.45567832904E+03  0.30686198389E+03  0.58798801732E+03  0.86464400297E+02 0.  0.
         13    1    3    3    0    0  0.77264036551E+01  0.29220428214E+02  0.47499780045E+02  0.56300620270E+02  0.00000000000E+00 0. -1.
        -13    1    3    3    0    0  0.18318404467E+03  0.42645790083E+03  0.25936220384E+03  0.53168739705E+03  0.00000000000E+00 0.  1.
         22    1    1    2    0    0 -0.19091044832E+03 -0.45567832904E+03  0.11680078649E+04  0.12682002646E+04  0.00000000000E+00 0. -1.
<mgrwt>
<rscale>  0 0.11270288E+04</rscale>
<asrwt>0</asrwt>
<pdfrwt beam="1">  1        2 0.25623523E+00 0.11270288E+04</pdfrwt>
<pdfrwt beam="2">  1       -2 0.29332188E-01 0.11270288E+04</pdfrwt>
<totfact> 0.10863597E+02</totfact>
</mgrwt>
</event>
<event>
 6    1  0.3017327E-006  0.1768771E+04  0.7818608E-02  0.8723085E-01
          2   -1    0    0  501    0  0.00000000000E+00  0.00000000000E+00  0.13790394770E+04  0.13790394770E+04  0.00000000000E+00 0. -1.
         -2   -1    0    0    0  501 -0.00000000000E+00 -0.00000000000E+00 -0.56716126232E+03  0.56716126232E+03  0.00000000000E+00 0.  1.
         23    2    1    2    0    0  0.24783887558E+02  0.17346408309E+03  0.13583147137E+04  0.13723567913E+04  0.87408649908E+02 0.  0.
         11    1    3    3    0    0 -0.92827297685E+01  0.11861729540E+03  0.62638288548E+03  0.63758274056E+03  0.00000000000E+00 0. -1.
        -11    1    3    3    0    0  0.34066617327E+02  0.54846787690E+02  0.73193182819E+03  0.73477405075E+03  0.00000000000E+00 0.  1.
         22    1    1    2    0    0 -0.24783887558E+02 -0.17346408309E+03 -0.54643649901E+03  0.57384394800E+03  0.00000000000E+00 0.  1.
<mgrwt>
<rscale>  0 0.17687711E+04</rscale>
<asrwt>0</asrwt>
<pdfrwt beam="1">  1        2 0.21215992E+00 0.17687711E+04</pdfrwt>
<pdfrwt beam="2">  1       -2 0.87255579E-01 0.17687711E+04</pdfrwt>
<totfact> 0.15980274E+01</totfact>
</mgrwt>
</event>
<event>
 6    1  0.3017327E-006  0.1719828E+04  0.7818608E-02  0.8750136E-01
         -2   -1    0    0    0  501 -0.00000000000E+00  0.00000000000E+00  0.10733657277E+04  0.10733657277E+04  0.00000000000E+00 0.  1.
          2   -1    0    0  501    0  0.00000000000E+00 -0.00000000000E+00 -0.68890990272E+03  0.68890990272E+03  0.00000000000E+00 0. -1.
         23    2    1    2    0    0 -0.30506511799E+03  0.49227547544E+03 -0.45521844172E+03  0.74224977579E+03  0.91164850890E+02 0.  0.
         11    1    3    3    0    0 -0.17715219114E+03  0.27082374113E+03 -0.31008815644E+03  0.44819980182E+03  0.00000000000E+00 0. -1.
        -11    1    3    3    0    0 -0.12791292685E+03  0.22145173431E+03 -0.14513028528E+03  0.29404997397E+03  0.00000000000E+00 0.  1.
         22    1    1    2    0    0  0.30506511799E+03 -0.49227547544E+03  0.83967426670E+03  0.10200258546E+04  0.00000000000E+00 0.  1.
<mgrwt>
<rscale>  0 0.17198282E+04</rscale>
<asrwt>0</asrwt>
<pdfrwt beam="1">  1        2 0.10598614E+00 0.17198282E+04</pdfrwt>
<pdfrwt beam="2">  1       -2 0.16513319E+00 0.17198282E+04</pdfrwt>
<totfact> 0.91695406E+00</totfact>
</mgrwt>
</event>
<event>
 6    1  0.3017327E-006  0.3710762E+04  0.7818608E-02  0.8065581E-01
          2   -1    0    0  501    0  0.00000000000E+00  0.00000000000E+00  0.21537714393E+04  0.21537714393E+04  0.00000000000E+00 0. -1.
         -2   -1    0    0    0  501 -0.00000000000E+00 -0.00000000000E+00 -0.15983302777E+04  0.15983302777E+04  0.00000000000E+00 0.  1.
         23    2    1    2    0    0 -0.12579396909E+04 -0.13287118883E+04 -0.26350905818E+02  0.18321096447E+04  0.89687411404E+02 0.  0.
         13    1    3    3    0    0 -0.11357451645E+03 -0.15917509546E+03 -0.89456939378E+01  0.19574449479E+03  0.00000000000E+00 0. -1.
        -13    1    3    3    0    0 -0.11443651744E+04 -0.11695367929E+04 -0.17405211880E+02  0.16363651499E+04  0.00000000000E+00 0.  1.
         22    1    1    2    0    0  0.12579396909E+04  0.13287118883E+04  0.58179206746E+03  0.19199920724E+04  0.00000000000E+00 0.  1.
<mgrwt>
<rscale>  0 0.37107617E+04</rscale>
<asrwt>0</asrwt>
<pdfrwt beam="1">  1        2 0.33134945E+00 0.37107617E+04</pdfrwt>
<pdfrwt beam="2">  1       -2 0.24589697E+00 0.37107617E+04</pdfrwt>
<totfact> 0.30161995E-01</totfact>
</mgrwt>
</event>
<event>
 6    1  0.3017327E-006  0.1652680E+04  0.7818608E-02  0.8788823E-01
         -2   -1    0    0    0  501 -0.00000000000E+00  0.00000000000E+00  0.62172273342E+03  0.62172273342E+03  0.00000000000E+00 0.  1.
          2   -1    0    0  501    0  0.00000000000E+00 -0.00000000000E+00 -0.10982992776E+04  0.10982992776E+04  0.00000000000E+00 0. -1.
         23    2    1    2    0    0 -0.28063729826E+03  0.67129179170E+03 -0.64076056953E+03  0.97413572143E+03  0.94743514467E+02 0.  0.
         11    1    3    3    0    0 -0.63408641320E+02  0.24747252772E+03 -0.25869364695E+03  0.36357352866E+03  0.00000000000E+00 0. -1.
        -11    1    3    3    0    0 -0.21722865694E+03  0.42381926398E+03 -0.38206692257E+03  0.61056219277E+03  0.00000000000E+00 0.  1.
         22    1    1    2    0    0  0.28063729826E+03 -0.67129179170E+03  0.16418402537E+03  0.74588628957E+03  0.00000000000E+00 0.  1.
<mgrwt>
<rscale>  0 0.16526798E+04</rscale>
<asrwt>0</asrwt>
<pdfrwt beam="1">  1        2 0.16896912E+00 0.16526798E+04</pdfrwt>
<pdfrwt beam="2">  1       -2 0.95649651E-01 0.16526798E+04</pdfrwt>
<totfact> 0.19135280E+01</totfact>
</mgrwt>
</event>
<event>
 6    1  0.3017327E-006  0.2610924E+04  0.7818608E-02  0.8364500E-01
         -2   -1    0    0    0  501 -0.00000000000E+00  0.00000000000E+00  0.68988106480E+03  0.68988106480E+03  0.00000000000E+00 0.  1.
          2   -1    0    0  501    0  0.00000000000E+00 -0.00000000000E+00 -0.24703267843E+04  0.24703267843E+04  0.00000000000E+00 0. -1.
         23    2    1    2    0    0 -0.12091284643E+04 -0.26748444396E+03 -0.39734923674E+03  0.13037339194E+04  0.91083180012E+02 0.  0.
         13    1    3    3    0    0 -0.96722256873E+03 -0.18589254465E+03 -0.28946753486E+03  0.10265802401E+04  0.00000000000E+00 0.  1.
        -13    1    3    3    0    0 -0.24190589559E+03 -0.81591899313E+02 -0.10788170188E+03  0.27715367931E+03  0.00000000000E+00 0. -1.
         22    1    1    2    0    0  0.12091284643E+04  0.26748444396E+03 -0.13830964828E+04  0.18564739297E+04  0.00000000000E+00 0. -1.
<mgrwt>
<rscale>  0 0.26109245E+04</rscale>
<asrwt>0</asrwt>
<pdfrwt beam="1">  1        2 0.38005027E+00 0.26109245E+04</pdfrwt>
<pdfrwt beam="2">  1       -2 0.10613555E+00 0.26109245E+04</pdfrwt>
<totfact> 0.22921592E+00</totfact>
</mgrwt>
</event>
<event>
 6    1  0.3017327E-006  0.4661405E+04  0.7818608E-02  0.7882973E-01
          2   -1    0    0  501    0  0.00000000000E+00  0.00000000000E+00  0.28959654470E+04  0.28959654470E+04  0.00000000000E+00 0. -1.
         -2   -1    0    0    0  501 -0.00000000000E+00 -0.00000000000E+00 -0.18757731868E+04  0.18757731868E+04  0.00000000000E+00 0.  1.
         23    2    1    2    0    0 -0.14601977596E+04 -0.33808053377E+03  0.23362083323E+04  0.27771523994E+04  0.90720080274E+02 0.  0.
         13    1    3    3    0    0 -0.60541547481E+03 -0.16238017176E+03  0.10495712825E+04  0.12224954374E+04  0.00000000000E+00 0. -1.
        -13    1    3    3    0    0 -0.85478228480E+03 -0.17570036201E+03  0.12866370498E+04  0.15546569620E+04  0.00000000000E+00 0.  1.
         22    1    1    2    0    0  0.14601977596E+04  0.33808053377E+03 -0.13160160721E+04  0.19945862344E+04  0.00000000000E+00 0.  1.
<mgrwt>
<rscale>  0 0.46614051E+04</rscale>
<asrwt>0</asrwt>
<pdfrwt beam="1">  1        2 0.44553314E+00 0.46614051E+04</pdfrwt>
<pdfrwt beam="2">  1       -2 0.28858049E+00 0.46614051E+04</pdfrwt>
<totfact> 0.56390743E-02</totfact>
</mgrwt>
</event>
<event>
 6    1  0.4312013E-006  0.2264616E+04  0.7818608E-02  0.8492005E-01
          2   -1    0    0  501    0  0.00000000000E+00  0.00000000000E+00  0.16402665078E+04  0.16402665078E+04  0.00000000000E+00 0. -1.
         -2   -1    0    0    0  501 -0.00000000000E+00 -0.00000000000E+00 -0.78165405447E+03  0.78165405447E+03  0.00000000000E+00 0.  1.
         23    2    1    2    0    0  0.36603346892E+02 -0.89229750282E+03 -0.31113827145E+03  0.95023737738E+03  0.92786911129E+02 0.  0.
         13    1    3    3    0    0  0.13801823058E+02 -0.48457853170E+03 -0.21723851688E+03  0.53122445061E+03  0.00000000000E+00 0. -1.
        -13    1    3    3    0    0  0.22801523834E+02 -0.40771897112E+03 -0.93899754565E+02  0.41901292677E+03  0.00000000000E+00 0.  1.
         22    1    1    2    0    0 -0.36603346892E+02  0.89229750282E+03  0.11697507248E+04  0.14716831849E+04  0.00000000000E+00 0. -1.
<mgrwt>
<rscale>  0 0.22646156E+04</rscale>
<asrwt>0</asrwt>
<pdfrwt beam="1">  1        2 0.25234869E+00 0.22646156E+04</pdfrwt>
<pdfrwt beam="2">  1       -2 0.12025447E+00 0.22646156E+04</pdfrwt>
<totfact> 0.50859666E+00</totfact>
</mgrwt>
</event>
<event>
 6    1  0.3017327E-006  0.1343773E+04  0.7818608E-02  0.8995555E-01
          2   -1    0    0  501    0  0.00000000000E+00  0.00000000000E+00  0.23958000029E+04  0.23958000029E+04  0.00000000000E+00 0. -1.
         -2   -1    0    0    0  501 -0.00000000000E+00 -0.00000000000E+00 -0.18842623364E+03  0.18842623364E+03  0.00000000000E+00 0.  1.
         23    2    1    2    0    0  0.23077839752E+03  0.53340086823E+03  0.47145892623E+03  0.75360462156E+03  0.88720074029E+02 0.  0.
         11    1    3    3    0    0  0.19454559302E+03  0.36743659320E+03  0.36406512680E+03  0.55263102911E+03  0.00000000000E+00 0. -1.
        -11    1    3    3    0    0  0.36232804496E+02  0.16596427503E+03  0.10739379943E+03  0.20097359245E+03  0.00000000000E+00 0.  1.
         22    1    1    2    0    0 -0.23077839752E+03 -0.53340086823E+03  0.17359148430E+04  0.18306216150E+04  0.00000000000E+00 0. -1.
<mgrwt>
<rscale>  0 0.13437732E+04</rscale>
<asrwt>0</asrwt>
<pdfrwt beam="1">  1        2 0.36858459E+00 0.13437732E+04</pdfrwt>
<pdfrwt beam="2">  1       -2 0.28988653E-01 0.13437732E+04</pdfrwt>
<totfact> 0.42843637E+01</totfact>
</mgrwt>
</event>
<event>
 6    1  0.3017327E-006  0.1983904E+04  0.7818608E-02  0.8614183E-01
         -2   -1    0    0    0  501 -0.00000000000E+00  0.00000000000E+00  0.42474208375E+03  0.42474208375E+03  0.00000000000E+00 0. -1.
          2   -1    0    0  501    0  0.00000000000E+00 -0.00000000000E+00 -0.23166260916E+04  0.23166260916E+04  0.00000000000E+00 0.  1.
         23    2    1    2    0    0  0.43617839048E+03 -0.88172718191E+03 -0.11003892865E+04  0.14787683553E+04  0.90580655602E+02 0.  0.
         11    1    3    3    0    0  0.34941976260E+03 -0.70993150639E+03 -0.82842543399E+03  0.11455940005E+04  0.00000000000E+00 0.  1.
        -11    1    3    3    0    0  0.86758627885E+02 -0.17179567552E+03 -0.27196385253E+03  0.33317435484E+03  0.00000000000E+00 0. -1.
         22    1    1    2    0    0 -0.43617839048E+03  0.88172718191E+03 -0.79149472132E+03  0.12625998200E+04  0.00000000000E+00 0. -1.
<mgrwt>
<rscale>  0 0.19839038E+04</rscale>
<asrwt>0</asrwt>
<pdfrwt beam="1">  1        2 0.35640402E+00 0.19839038E+04</pdfrwt>
<pdfrwt beam="2">  1       -2 0.65344934E-01 0.19839038E+04</pdfrwt>
<totfact> 0.89089642E+00</totfact>
</mgrwt>
</event>
<event>
 6    1  0.3017327E-006  0.8551641E+03  0.7818608E-02  0.9483432E-01
         -2   -1    0    0    0  501 -0.00000000000E+00  0.00000000000E+00  0.33397622021E+03  0.33397622021E+03  0.00000000000E+00 0.  1.
          2   -1    0    0  501    0  0.00000000000E+00 -0.00000000000E+00 -0.54742347522E+03  0.54742347522E+03  0.00000000000E+00 0. -1.
         23    2    1    2    0    0 -0.81776483325E+02  0.12760299293E+02 -0.53513098185E+03  0.54923913399E+03  0.91914308468E+02 0.  0.
         11    1    3    3    0    0 -0.29814099856E+02  0.29050468799E+02 -0.74006971906E+02  0.84910789529E+02  0.00000000000E+00 0. -1.
        -11    1    3    3    0    0 -0.51962383469E+02 -0.16290169506E+02 -0.46112400994E+03  0.46432834446E+03  0.00000000000E+00 0.  1.
         22    1    1    2    0    0  0.81776483325E+02 -0.12760299293E+02  0.32168372684E+03  0.33216056144E+03  0.00000000000E+00 0.  1.
<mgrwt>
<rscale>  0 0.85516413E+03</rscale>
<asrwt>0</asrwt>
<pdfrwt beam="1">  1        2 0.84218995E-01 0.85516413E+03</pdfrwt>
<pdfrwt beam="2">  1       -2 0.51380957E-01 0.85516413E+03</pdfrwt>
<totfact> 0.19916757E+02</totfact>
</mgrwt>
</event>
<event>
 6    1  0.4209649E-006  0.1693514E+04  0.7818608E-02  0.8765072E-01
         -2   -1    0    0    0  501 -0.00000000000E+00  0.00000000000E+00  0.56863772071E+03  0.56863772071E+03  0.00000000000E+00 0.  1.
          2   -1    0    0  501    0  0.00000000000E+00 -0.00000000000E+00 -0.12609040468E+04  0.12609040468E+04  0.00000000000E+00 0. -1.
         23    2    1    2    0    0 -0.22403557159E+03  0.41988989470E+02 -0.12247753316E+04  0.12503001482E+04  0.10592844240E+03 0.  0.
         11    1    3    3    0    0 -0.87548647866E+02  0.13265355521E+02 -0.24228185156E+03  0.25795587025E+03  0.00000000000E+00 0. -1.
        -11    1    3    3    0    0 -0.13648692372E+03  0.28723633949E+02 -0.98249348009E+03  0.99234427791E+03  0.00000000000E+00 0.  1.
         22    1    1    2    0    0  0.22403557159E+03 -0.41988989470E+02  0.53250900556E+03  0.57924161934E+03  0.00000000000E+00 0.  1.
<mgrwt>
<rscale>  0 0.16935142E+04</rscale>
<asrwt>0</asrwt>
<pdfrwt beam="1">  1        2 0.19398524E+00 0.16935142E+04</pdfrwt>
<pdfrwt beam="2">  1       -2 0.87482727E-01 0.16935142E+04</pdfrwt>
<totfact> 0.18719966E+01</totfact>
</mgrwt>
</event>
<event>
 6    1  0.3017327E-006  0.2381172E+04  0.7818608E-02  0.8446586E-01
         -2   -1    0    0    0  501 -0.00000000000E+00  0.00000000000E+00  0.19813442482E+04  0.19813442482E+04  0.00000000000E+00 0.  1.
          2   -1    0    0  501    0  0.00000000000E+00 -0.00000000000E+00 -0.71542099289E+03  0.71542099289E+03  0.00000000000E+00 0. -1.
         23    2    1    2    0    0 -0.34581317427E+03 -0.79741485094E+03 -0.28459377090E+03  0.91925005281E+03  0.92573479803E+02 0.  0.
         11    1    3    3    0    0 -0.63842941034E+02 -0.24928859561E+03 -0.95757718874E+02  0.27457287875E+03  0.00000000000E+00 0. -1.
        -11    1    3    3    0    0 -0.28197023323E+03 -0.54812625533E+03 -0.18883605202E+03  0.64467717406E+03  0.00000000000E+00 0.  1.
         22    1    1    2    0    0  0.34581317427E+03  0.79741485094E+03  0.15505170262E+04  0.17775151883E+04  0.00000000000E+00 0.  1.
<mgrwt>
<rscale>  0 0.23811722E+04</rscale>
<asrwt>0</asrwt>
<pdfrwt beam="1">  1        2 0.11006477E+00 0.23811722E+04</pdfrwt>
<pdfrwt beam="2">  1       -2 0.30482219E+00 0.23811722E+04</pdfrwt>
<totfact> 0.10660705E+00</totfact>
</mgrwt>
</event>
<event>
 6    1  0.3374322E-006  0.2035111E+04  0.7818608E-02  0.8590379E-01
         -2   -1    0    0    0  501 -0.00000000000E+00  0.00000000000E+00  0.68559804301E+03  0.68559804301E+03  0.00000000000E+00 0.  1.
          2   -1    0    0  501    0  0.00000000000E+00 -0.00000000000E+00 -0.15102422578E+04  0.15102422578E+04  0.00000000000E+00 0. -1.
         23    2    1    2    0    0 -0.71538367955E+03 -0.53221402490E+03  0.11137052823E+03  0.90311094924E+03  0.90445645554E+02 0.  0.
         11    1    3    3    0    0 -0.50166501163E+03 -0.33604298386E+03  0.10542005533E+03  0.61294865932E+03  0.00000000000E+00 0.  1.
        -11    1    3    3    0    0 -0.21371866792E+03 -0.19617104104E+03  0.59504728965E+01  0.29016228992E+03  0.00000000000E+00 0. -1.
         22    1    1    2    0    0  0.71538367955E+03  0.53221402490E+03 -0.93601474302E+03  0.12927293516E+04  0.00000000000E+00 0. -1.
<mgrwt>
<rscale>  0 0.20351109E+04</rscale>
<asrwt>0</asrwt>
<pdfrwt beam="1">  1        2 0.23234496E+00 0.20351109E+04</pdfrwt>
<pdfrwt beam="2">  1       -2 0.10547662E+00 0.20351109E+04</pdfrwt>
<totfact> 0.84387706E+00</totfact>
</mgrwt>
</event>
<event>
 6    1  0.3017327E-006  0.4249143E+04  0.7818608E-02  0.7956090E-01
          2   -1    0    0  501    0  0.00000000000E+00  0.00000000000E+00  0.17543696274E+04  0.17543696274E+04  0.00000000000E+00 0. -1.
         -2   -1    0    0    0  501 -0.00000000000E+00 -0.00000000000E+00 -0.25728918551E+04  0.25728918551E+04  0.00000000000E+00 0.  1.
         23    2    1    2    0    0  0.33591825841E+03  0.12957523587E+04  0.12694466404E+04  0.18470539820E+04  0.91095489149E+02 0.  0.
         13    1    3    3    0    0  0.24601474115E+03  0.82884271428E+03  0.86191448011E+03  0.12208194252E+04  0.00000000000E+00 0. -1.
        -13    1    3    3    0    0  0.89903517267E+02  0.46690964440E+03  0.40753216029E+03  0.62623455679E+03  0.00000000000E+00 0.  1.
         22    1    1    2    0    0 -0.33591825841E+03 -0.12957523587E+04 -0.20879688682E+04  0.24802075005E+04  0.00000000000E+00 0.  1.
<mgrwt>
<rscale>  0 0.42491427E+04</rscale>
<asrwt>0</asrwt>
<pdfrwt beam="1">  1        2 0.26990302E+00 0.42491427E+04</pdfrwt>
<pdfrwt beam="2">  1       -2 0.39582952E+00 0.42491427E+04</pdfrwt>
<totfact> 0.55884316E-02</totfact>
</mgrwt>
</event>
<event>
 6    1  0.3017327E-006  0.1603836E+04  0.7818608E-02  0.8818195E-01
          1   -1    0    0  501    0  0.00000000000E+00  0.00000000000E+00  0.14261004592E+04  0.14261004592E+04  0.00000000000E+00 0.  1.
         -1   -1    0    0    0  501 -0.00000000000E+00 -0.00000000000E+00 -0.45093048825E+03  0.45093048825E+03  0.00000000000E+00 0. -1.
         23    2    1    2    0    0 -0.48596992441E+02 -0.34960552868E+03  0.13284866616E+04  0.13776129088E+04  0.91404721349E+02 0.  0.
         13    1    3    3    0    0  0.85183639472E+01 -0.23024969962E+03  0.90939243511E+03  0.93812690386E+03  0.00000000000E+00 0.  1.
        -13    1    3    3    0    0 -0.57115356388E+02 -0.11935582906E+03  0.41909422649E+03  0.43948600495E+03  0.00000000000E+00 0. -1.
         22    1    1    2    0    0  0.48596992441E+02  0.34960552868E+03 -0.35331669070E+03  0.49941803860E+03  0.00000000000E+00 0. -1.
<mgrwt>
<rscale>  0 0.16038356E+04</rscale>
<asrwt>0</asrwt>
<pdfrwt beam="1">  1        1 0.21940007E+00 0.16038356E+04</pdfrwt>
<pdfrwt beam="2">  1       -1 0.69373922E-01 0.16038356E+04</pdfrwt>
<totfact> 0.14848395E+01</totfact>
</mgrwt>
</event>
<event>
 6    1  0.3017327E-006  0.3091969E+04  0.7818608E-02  0.8217945E-01
         -2   -1    0    0    0  501 -0.00000000000E+00  0.00000000000E+00  0.33677716497E+04  0.33677716497E+04  0.00000000000E+00 0.  1.
          2   -1    0    0  501    0  0.00000000000E+00 -0.00000000000E+00 -0.70968828994E+03  0.70968828994E+03  0.00000000000E+00 0. -1.
         23    2    1    2    0    0 -0.12447910087E+04 -0.81146487225E+03  0.18868540750E+04  0.24033110502E+04  0.87782739552E+02 0.  0.
         13    1    3    3    0    0 -0.81511607395E+03 -0.48305082028E+03  0.11817701542E+04  0.15147055841E+04  0.00000000000E+00 0.  1.
        -13    1    3    3    0    0 -0.42967493480E+03 -0.32841405197E+03  0.70508392081E+03  0.88860546617E+03  0.00000000000E+00 0. -1.
         22    1    1    2    0    0  0.12447910087E+04  0.81146487225E+03  0.77122928476E+03  0.16741488894E+04  0.00000000000E+00 0. -1.
<mgrwt>
<rscale>  0 0.30919690E+04</rscale>
<asrwt>0</asrwt>
<pdfrwt beam="1">  1        2 0.10918282E+00 0.30919690E+04</pdfrwt>
<pdfrwt beam="2">  1       -2 0.51811871E+00 0.30919690E+04</pdfrwt>
<totfact> 0.43655485E-02</totfact>
</mgrwt>
</event>
<event>
 6    1  0.3017327E-006  0.2220101E+04  0.7818608E-02  0.8510108E-01
          2   -1    0    0  501    0  0.00000000000E+00  0.00000000000E+00  0.10289697372E+04  0.10289697372E+04  0.00000000000E+00 0. -1.
         -2   -1    0    0    0  501 -0.00000000000E+00 -0.00000000000E+00 -0.11975197679E+04  0.11975197679E+04  0.00000000000E+00 0.  1.
         23    2    1    2    0    0  0.12224561125E+03  0.66828327145E+03  0.79363402249E+03  0.10486335409E+04  0.90723872822E+02 0.  0.
         11    1    3    3    0    0  0.85148644121E+02  0.28426996567E+03  0.29808558332E+03  0.42061231551E+03  0.00000000000E+00 0.  1.
        -11    1    3    3    0    0  0.37096967126E+02  0.38401330577E+03  0.49554843917E+03  0.62802122539E+03  0.00000000000E+00 0. -1.
         22    1    1    2    0    0 -0.12224561125E+03 -0.66828327145E+03 -0.96218405320E+03  0.11778559643E+04  0.00000000000E+00 0.  1.
<mgrwt>
<rscale>  0 0.22201005E+04</rscale>
<asrwt>0</asrwt>
<pdfrwt beam="1">  1        2 0.15830304E+00 0.22201005E+04</pdfrwt>
<pdfrwt beam="2">  1       -2 0.18423381E+00 0.22201005E+04</pdfrwt>
<totfact> 0.37344141E+00</totfact>
</mgrwt>
</event>
<event>
 6    1  0.3017327E-006  0.1514048E+04  0.7818608E-02  0.8875165E-01
         -1   -1    0    0    0  501 -0.00000000000E+00  0.00000000000E+00  0.44293349213E+03  0.44293349213E+03  0.00000000000E+00 0.  1.
          1   -1    0    0  501    0  0.00000000000E+00 -0.00000000000E+00 -0.12938399301E+04  0.12938399301E+04  0.00000000000E+00 0. -1.
         23    2    1    2    0    0 -0.40439316487E+03 -0.14673101778E+03  0.28390845340E+03  0.52315541766E+03  0.89575430449E+02 0.  0.
         11    1    3    3    0    0 -0.37343764813E+03 -0.15780290987E+03  0.27193914712E+03  0.48816834713E+03  0.00000000000E+00 0.  1.
        -11    1    3    3    0    0 -0.30955516738E+02  0.11071892093E+02  0.11969306281E+02  0.34987070525E+02  0.00000000000E+00 0. -1.
         22    1    1    2    0    0  0.40439316487E+03  0.14673101778E+03 -0.11348148914E+04  0.12136180046E+04  0.00000000000E+00 0. -1.
<mgrwt>
<rscale>  0 0.15140476E+04</rscale>
<asrwt>0</asrwt>
<pdfrwt beam="1">  1        1 0.19905230E+00 0.15140476E+04</pdfrwt>
<pdfrwt beam="2">  1       -1 0.68143614E-01 0.15140476E+04</pdfrwt>
<totfact> 0.19249622E+01</totfact>
</mgrwt>
</event>
<event>
 6    1  0.3017327E-006  0.1443895E+04  0.7818608E-02  0.8922644E-01
          4   -1    0    0  501    0  0.00000000000E+00  0.00000000000E+00  0.23420429812E+04  0.23420429812E+04  0.00000000000E+00 0. -1.
         -4   -1    0    0    0  501 -0.00000000000E+00 -0.00000000000E+00 -0.22254417009E+03  0.22254417009E+03  0.00000000000E+00 0.  1.
         23    2    1    2    0    0 -0.22968088870E+03 -0.39465954907E+03  0.77286900482E+02  0.47194791859E+03  0.90841084126E+02 0.  0.
         13    1    3    3    0    0 -0.72493930658E+02 -0.18699757698E+03  0.66445103375E+02  0.21127805267E+03  0.00000000000E+00 0. -1.
        -13    1    3    3    0    0 -0.15718695804E+03 -0.20766197209E+03  0.10841797107E+02  0.26066986592E+03  0.00000000000E+00 0.  1.
         22    1    1    2    0    0  0.22968088870E+03  0.39465954907E+03  0.20422119106E+04  0.20926392327E+04  0.00000000000E+00 0. -1.
<mgrwt>
<rscale>  0 0.14438947E+04</rscale>
<asrwt>0</asrwt>
<pdfrwt beam="1">  1        4 0.36031429E+00 0.14438947E+04</pdfrwt>
<pdfrwt beam="2">  1       -4 0.34237566E-01 0.14438947E+04</pdfrwt>
<totfact> 0.20742643E-01</totfact>
</mgrwt>
</event>
<event>
 6    1  0.3017327E-006  0.2057270E+04  0.7818608E-02  0.8580303E-01
          2   -1    0    0  501    0  0.00000000000E+00  0.00000000000E+00  0.25874441777E+04  0.25874441777E+04  0.00000000000E+00 0. -1.
         -2   -1    0    0    0  501 -0.00000000000E+00 -0.00000000000E+00 -0.40893253333E+03  0.40893253333E+03  0.00000000000E+00 0.  1.
         23    2    1    2    0    0  0.46362816289E+03  0.59212420438E+03  0.21092479275E+04  0.22411551480E+04  0.91035325835E+02 0.  0.
         11    1    3    3    0    0  0.25872119764E+03  0.34848705325E+03  0.10856329659E+04  0.11691786950E+04  0.00000000000E+00 0. -1.
        -11    1    3    3    0    0  0.20490696526E+03  0.24363715113E+03  0.10236149617E+04  0.10719764529E+04  0.00000000000E+00 0.  1.
         22    1    1    2    0    0 -0.46362816289E+03 -0.59212420438E+03  0.69263716821E+02  0.75522156306E+03  0.00000000000E+00 0.  1.
<mgrwt>
<rscale>  0 0.20572701E+04</rscale>
<asrwt>0</asrwt>
<pdfrwt beam="1">  1        2 0.39806832E+00 0.20572701E+04</pdfrwt>
<pdfrwt beam="2">  1       -2 0.62912699E-01 0.20572701E+04</pdfrwt>
<totfact> 0.67064307E+00</totfact>
</mgrwt>
</event>
<event>
 6    1  0.3017327E-006  0.2354778E+04  0.7818608E-02  0.8456631E-01
         -2   -1    0    0    0  501 -0.00000000000E+00  0.00000000000E+00  0.13161569421E+04  0.13161569421E+04  0.00000000000E+00 0.  1.
          2   -1    0    0  501    0  0.00000000000E+00 -0.00000000000E+00 -0.10532521101E+04  0.10532521101E+04  0.00000000000E+00 0. -1.
         23    2    1    2    0    0 -0.29849475262E+03  0.11354491885E+04  0.19290175949E+03  0.11932949391E+04  0.91639214969E+02 0.  0.
         11    1    3    3    0    0 -0.97176584451E+02  0.22471036541E+03  0.35497458915E+02  0.24738251045E+03  0.00000000000E+00 0.  1.
        -11    1    3    3    0    0 -0.20131816817E+03  0.91073882312E+03  0.15740430057E+03  0.94591242862E+03  0.00000000000E+00 0. -1.
         22    1    1    2    0    0  0.29849475262E+03 -0.11354491885E+04  0.70003072554E+02  0.11761141132E+04  0.00000000000E+00 0.  1.
<mgrwt>
<rscale>  0 0.23547782E+04</rscale>
<asrwt>0</asrwt>
<pdfrwt beam="1">  1        2 0.16203879E+00 0.23547782E+04</pdfrwt>
<pdfrwt beam="2">  1       -2 0.20248568E+00 0.23547782E+04</pdfrwt>
<totfact> 0.26933401E+00</totfact>
</mgrwt>
</event>
<event>
 6    1  0.3017327E-006  0.4393225E+04  0.7818608E-02  0.7929601E-01
         -2   -1    0    0    0  501 -0.00000000000E+00  0.00000000000E+00  0.22744568425E+04  0.22744568425E+04  0.00000000000E+00 0.  1.
          2   -1    0    0  501    0  0.00000000000E+00 -0.00000000000E+00 -0.21214324731E+04  0.21214324731E+04  0.00000000000E+00 0. -1.
         23    2    1    2    0    0 -0.90440865716E+03  0.17127037377E+04  0.11113980116E+04  0.22349198225E+04  0.91389062655E+02 0.  0.
         11    1    3    3    0    0 -0.89952662209E+02  0.20021842924E+03  0.97358197202E+02  0.24011980220E+03  0.00000000000E+00 0. -1.
        -11    1    3    3    0    0 -0.81445599495E+03  0.15124853084E+04  0.10140398144E+04  0.19948000203E+04  0.00000000000E+00 0.  1.
         22    1    1    2    0    0  0.90440865716E+03 -0.17127037377E+04 -0.95837364217E+03  0.21609694931E+04  0.00000000000E+00 0. -1.
<mgrwt>
<rscale>  0 0.43932251E+04</rscale>
<asrwt>0</asrwt>
<pdfrwt beam="1">  1        2 0.32637423E+00 0.43932251E+04</pdfrwt>
<pdfrwt beam="2">  1       -2 0.34991644E+00 0.43932251E+04</pdfrwt>
<totfact> 0.68042532E-02</totfact>
</mgrwt>
</event>
<event>
 6    1  0.3017327E-006  0.3320083E+04  0.7818608E-02  0.8157804E-01
          1   -1    0    0  501    0  0.00000000000E+00  0.00000000000E+00  0.11000881622E+04  0.11000881622E+04  0.00000000000E+00 0. -1.
         -1   -1    0    0    0  501 -0.00000000000E+00 -0.00000000000E+00 -0.25050153169E+04  0.25050153169E+04  0.00000000000E+00 0.  1.
         23    2    1    2    0    0 -0.11427210533E+04 -0.63154002689E+03  0.40800996845E+03  0.13709604166E+04  0.91684886989E+02 0.  0.
         11    1    3    3    0    0 -0.27952389050E+03 -0.12429530234E+03  0.65980956957E+02  0.31294794172E+03  0.00000000000E+00 0. -1.
        -11    1    3    3    0    0 -0.86319716275E+03 -0.50724472455E+03  0.34202901150E+03  0.10580124749E+04  0.00000000000E+00 0.  1.
         22    1    1    2    0    0  0.11427210533E+04  0.63154002689E+03 -0.18129371231E+04  0.22341430624E+04  0.00000000000E+00 0.  1.
<mgrwt>
<rscale>  0 0.33200829E+04</rscale>
<asrwt>0</asrwt>
<pdfrwt beam="1">  1        1 0.16924434E+00 0.33200829E+04</pdfrwt>
<pdfrwt beam="2">  1       -1 0.38538697E+00 0.33200829E+04</pdfrwt>
<totfact> 0.94379848E-02</totfact>
</mgrwt>
</event>
<event>
 6    1  0.3017327E-006  0.2984899E+04  0.7818608E-02  0.8248056E-01
         -2   -1    0    0    0  501 -0.00000000000E+00  0.00000000000E+00  0.84114315244E+03  0.84114315244E+03  0.00000000000E+00 0.  1.
          2   -1    0    0  501    0  0.00000000000E+00 -0.00000000000E+00 -0.26480696949E+04  0.26480696949E+04  0.00000000000E+00 0. -1.
         23    2    1    2    0    0 -0.27158386899E+02  0.76387367808E+03  0.59224463057E+03  0.97122498169E+03  0.91014771255E+02 0.  0.
         11    1    3    3    0    0 -0.39303275091E+02  0.47736012265E+03  0.41761121253E+03  0.63546562374E+03  0.00000000000E+00 0. -1.
        -11    1    3    3    0    0  0.12144888192E+02  0.28651355544E+03  0.17463341803E+03  0.33575935795E+03  0.00000000000E+00 0.  1.
         22    1    1    2    0    0  0.27158386899E+02 -0.76387367808E+03 -0.23991711730E+04  0.25179878656E+04  0.00000000000E+00 0. -1.
<mgrwt>
<rscale>  0 0.29848991E+04</rscale>
<asrwt>0</asrwt>
<pdfrwt beam="1">  1        2 0.40739533E+00 0.29848991E+04</pdfrwt>
<pdfrwt beam="2">  1       -2 0.12940664E+00 0.29848991E+04</pdfrwt>
<totfact> 0.10732278E+00</totfact>
</mgrwt>
</event>
<event>
 6    1  0.3017327E-006  0.1753748E+04  0.7818608E-02  0.8731290E-01
         -2   -1    0    0    0  501 -0.00000000000E+00  0.00000000000E+00  0.86480265509E+03  0.86480265509E+03  0.00000000000E+00 0.  1.
          2   -1    0    0  501    0  0.00000000000E+00 -0.00000000000E+00 -0.88911397648E+03  0.88911397648E+03  0.00000000000E+00 0. -1.
         23    2    1    2    0    0 -0.75557906688E+03 -0.19372345811E+03  0.38318218505E+03  0.87387148368E+03  0.91620295295E+02 0.  0.
         13    1    3    3    0    0 -0.59093459343E+03 -0.18984497901E+03  0.30106939595E+03  0.68984606323E+03  0.00000000000E+00 0. -1.
        -13    1    3    3    0    0 -0.16464447345E+03 -0.38784790944E+01  0.82112789101E+02  0.18402542045E+03  0.00000000000E+00 0.  1.
         22    1    1    2    0    0  0.75557906688E+03  0.19372345811E+03 -0.40749350644E+03  0.88004514789E+03  0.00000000000E+00 0. -1.
<mgrwt>
<rscale>  0 0.17537481E+04</rscale>
<asrwt>0</asrwt>
<pdfrwt beam="1">  1        2 0.13678677E+00 0.17537481E+04</pdfrwt>
<pdfrwt beam="2">  1       -2 0.13304656E+00 0.17537481E+04</pdfrwt>
<totfact> 0.11570571E+01</totfact>
</mgrwt>
</event>
<event>
 6    1  0.3017327E-006  0.3120557E+04  0.7818608E-02  0.8210119E-01
         -1   -1    0    0    0  501 -0.00000000000E+00  0.00000000000E+00  0.76660587517E+03  0.76660587517E+03  0.00000000000E+00 0.  1.
          1   -1    0    0  501    0  0.00000000000E+00 -0.00000000000E+00 -0.31756469681E+04  0.31756469681E+04  0.00000000000E+00 0. -1.
         23    2    1    2    0    0  0.73147997303E+03 -0.31638936003E+03  0.48705173430E+03  0.93850204768E+03  0.91659825015E+02 0.  0.
         11    1    3    3    0    0  0.65853796089E+03 -0.30507996322E+03  0.41862110381E+03  0.83784823115E+03  0.00000000000E+00 0. -1.
        -11    1    3    3    0    0  0.72942012139E+02 -0.11309396815E+02  0.68430630494E+02  0.10065381652E+03  0.00000000000E+00 0.  1.
         22    1    1    2    0    0 -0.73147997303E+03  0.31638936003E+03 -0.28960928272E+04  0.30037507956E+04  0.00000000000E+00 0. -1.
<mgrwt>
<rscale>  0 0.31205574E+04</rscale>
<asrwt>0</asrwt>
<pdfrwt beam="1">  1        1 0.48856107E+00 0.31205574E+04</pdfrwt>
<pdfrwt beam="2">  1       -1 0.11793937E+00 0.31205574E+04</pdfrwt>
<totfact> 0.24095002E-01</totfact>
</mgrwt>
</event>
<event>
 6    1  0.3017327E-006  0.5452457E+03  0.7818608E-02  0.1002600E+00
          2   -1    0    0  501    0  0.00000000000E+00  0.00000000000E+00  0.37088937828E+04  0.37088937828E+04  0.00000000000E+00 0. -1.
         -2   -1    0    0    0  501 -0.00000000000E+00 -0.00000000000E+00 -0.20039185884E+02  0.20039185884E+02  0.00000000000E+00 0.  1.
         23    2    1    2    0    0 -0.12711944792E+03  0.23002243063E+03  0.21363573183E+04  0.21543481114E+04  0.90130577859E+02 0.  0.
         11    1    3    3    0    0 -0.27048889933E+02  0.13065459414E+03  0.87171168970E+03  0.88186367165E+03  0.00000000000E+00 0.  1.
        -11    1    3    3    0    0 -0.10007055798E+03  0.99367836496E+02  0.12646456286E+04  0.12724844397E+04  0.00000000000E+00 0. -1.
         22    1    1    2    0    0  0.12711944792E+03 -0.23002243063E+03  0.15524972786E+04  0.15745848573E+04  0.00000000000E+00 0.  1.
<mgrwt>
<rscale>  0 0.54524568E+03</rscale>
<asrwt>0</asrwt>
<pdfrwt beam="1">  1        2 0.57059850E+00 0.54524568E+03</pdfrwt>
<pdfrwt beam="2">  1       -2 0.30829546E-02 0.54524568E+03</pdfrwt>
<totfact> 0.27950603E+02</totfact>
</mgrwt>
</event>
<event>
 6    1  0.3017327E-006  0.1772959E+04  0.7818608E-02  0.8720813E-01
         -2   -1    0    0    0  501 -0.00000000000E+00  0.00000000000E+00  0.86384079997E+03  0.86384079997E+03  0.00000000000E+00 0.  1.
          2   -1    0    0  501    0  0.00000000000E+00 -0.00000000000E+00 -0.90971138349E+03  0.90971138349E+03  0.00000000000E+00 0. -1.
         23    2    1    2    0    0  0.82243958735E+02  0.64927353508E+03 -0.61766409323E+03  0.90449061497E+03  0.90962346051E+02 0.  0.
         13    1    3    3    0    0  0.25044586539E+01  0.36029581274E+03 -0.35738229044E+03  0.50748541507E+03  0.00000000000E+00 0. -1.
        -13    1    3    3    0    0  0.79739500081E+02  0.28897772233E+03 -0.26028180279E+03  0.39700519989E+03  0.00000000000E+00 0.  1.
         22    1    1    2    0    0 -0.82243958735E+02 -0.64927353508E+03  0.57179350970E+03  0.86906156850E+03  0.00000000000E+00 0.  1.
<mgrwt>
<rscale>  0 0.17729589E+04</rscale>
<asrwt>0</asrwt>
<pdfrwt beam="1">  1        2 0.13995560E+00 0.17729589E+04</pdfrwt>
<pdfrwt beam="2">  1       -2 0.13289858E+00 0.17729589E+04</pdfrwt>
<totfact> 0.11219443E+01</totfact>
</mgrwt>
</event>
<event>
 6    1  0.3017327E-006  0.3140329E+04  0.7818608E-02  0.8204756E-01
          2   -1    0    0  501    0  0.00000000000E+00  0.00000000000E+00  0.28326552337E+04  0.28326552337E+04  0.00000000000E+00 0. -1.
         -2   -1    0    0    0  501 -0.00000000000E+00 -0.00000000000E+00 -0.87035514738E+03  0.87035514738E+03  0.00000000000E+00 0.  1.
         23    2    1    2    0    0  0.14595782401E+04  0.26664165450E+03  0.15837032332E+04  0.21717357525E+04  0.82787902838E+02 0.  0.
         13    1    3    3    0    0  0.59719893578E+03  0.12517973599E+03  0.70636851425E+03  0.93342006252E+03  0.00000000000E+00 0. -1.
        -13    1    3    3    0    0  0.86237930434E+03  0.14146191850E+03  0.87733471892E+03  0.12383156899E+04  0.00000000000E+00 0.  1.
         22    1    1    2    0    0 -0.14595782401E+04 -0.26664165450E+03  0.37859685310E+03  0.15312746286E+04  0.00000000000E+00 0. -1.
<mgrwt>
<rscale>  0 0.31403287E+04</rscale>
<asrwt>0</asrwt>
<pdfrwt beam="1">  1        2 0.43579311E+00 0.31403287E+04</pdfrwt>
<pdfrwt beam="2">  1       -2 0.13390079E+00 0.31403287E+04</pdfrwt>
<totfact> 0.75270575E-01</totfact>
</mgrwt>
</event>
<event>
 6    1  0.3017327E-006  0.2511347E+04  0.7818608E-02  0.8398954E-01
         -2   -1    0    0    0  501 -0.00000000000E+00  0.00000000000E+00  0.21757273281E+04  0.21757273281E+04  0.00000000000E+00 0.  1.
          2   -1    0    0  501    0  0.00000000000E+00 -0.00000000000E+00 -0.72468473842E+03  0.72468473842E+03  0.00000000000E+00 0. -1.
         23    2    1    2    0    0  0.17427490176E+03 -0.82932006726E+03 -0.34167485912E+03  0.91749014002E+03  0.83083887362E+02 0.  0.
         11    1    3    3    0    0  0.83512678671E+02 -0.22079653425E+03 -0.86349224797E+02  0.25135963411E+03  0.00000000000E+00 0.  1.
        -11    1    3    3    0    0  0.90762223087E+02 -0.60852353302E+03 -0.25532563432E+03  0.66613050592E+03  0.00000000000E+00 0. -1.
         22    1    1    2    0    0 -0.17427490176E+03  0.82932006726E+03  0.17927174487E+04  0.19829219264E+04  0.00000000000E+00 0.  1.
<mgrwt>
<rscale>  0 0.25113474E+04</rscale>
<asrwt>0</asrwt>
<pdfrwt beam="1">  1        2 0.11148996E+00 0.25113474E+04</pdfrwt>
<pdfrwt beam="2">  1       -2 0.33472728E+00 0.25113474E+04</pdfrwt>
<totfact> 0.67783944E-01</totfact>
</mgrwt>
</event>
<event>
 6    1  0.5429129E-006  0.3870683E+04  0.7818608E-02  0.8031154E-01
         -1   -1    0    0    0  501 -0.00000000000E+00  0.00000000000E+00  0.18512302386E+04  0.18512302386E+04  0.00000000000E+00 0.  1.
          1   -1    0    0  501    0  0.00000000000E+00 -0.00000000000E+00 -0.20232741909E+04  0.20232741909E+04  0.00000000000E+00 0. -1.
         23    2    1    2    0    0 -0.17411930879E+04 -0.32915486541E+03 -0.86223117199E+03  0.19728065847E+04  0.91798320325E+02 0.  0.
         13    1    3    3    0    0 -0.11540494168E+04 -0.25949421480E+03 -0.55824491411E+03  0.13079773270E+04  0.00000000000E+00 0.  1.
        -13    1    3    3    0    0 -0.58714367117E+03 -0.69660650613E+02 -0.30398625788E+03  0.66482925764E+03  0.00000000000E+00 0. -1.
         22    1    1    2    0    0  0.17411930879E+04  0.32915486541E+03  0.69018721972E+03  0.19016978449E+04  0.00000000000E+00 0.  1.
<mgrwt>
<rscale>  0 0.38706828E+04</rscale>
<asrwt>0</asrwt>
<pdfrwt beam="1">  1        1 0.31127295E+00 0.38706828E+04</pdfrwt>
<pdfrwt beam="2">  1       -1 0.28480465E+00 0.38706828E+04</pdfrwt>
<totfact> 0.94171848E-02</totfact>
</mgrwt>
</event>
<event>
 6    1  0.3017327E-006  0.4663569E+04  0.7818608E-02  0.7882610E-01
         -2   -1    0    0    0  501 -0.00000000000E+00  0.00000000000E+00  0.13840271726E+04  0.13840271726E+04  0.00000000000E+00 0.  1.
          2   -1    0    0  501    0  0.00000000000E+00 -0.00000000000E+00 -0.39285500575E+04  0.39285500575E+04  0.00000000000E+00 0. -1.
         23    2    1    2    0    0  0.97456757410E+03  0.17677883410E+04  0.54809097555E+02  0.20214703752E+04  0.92091614922E+02 0.  0.
         13    1    3    3    0    0  0.16904118819E+03  0.28686195996E+03  0.41930231111E+02  0.33559328310E+03  0.00000000000E+00 0.  1.
        -13    1    3    3    0    0  0.80552638591E+03  0.14809263811E+04  0.12878866444E+02  0.16858770921E+04  0.00000000000E+00 0. -1.
         22    1    1    2    0    0 -0.97456757410E+03 -0.17677883410E+04 -0.25993319824E+04  0.32911068548E+04  0.00000000000E+00 0. -1.
<mgrwt>
<rscale>  0 0.46635695E+04</rscale>
<asrwt>0</asrwt>
<pdfrwt beam="1">  1        2 0.60439232E+00 0.46635695E+04</pdfrwt>
<pdfrwt beam="2">  1       -2 0.21292726E+00 0.46635695E+04</pdfrwt>
<totfact> 0.31877125E-02</totfact>
</mgrwt>
</event>
<event>
 6    1  0.3017327E-006  0.4397283E+04  0.7818608E-02  0.7928870E-01
         -2   -1    0    0    0  501 -0.00000000000E+00  0.00000000000E+00  0.20949135107E+04  0.20949135107E+04  0.00000000000E+00 0.  1.
          2   -1    0    0  501    0  0.00000000000E+00 -0.00000000000E+00 -0.23075052434E+04  0.23075052434E+04  0.00000000000E+00 0. -1.
         23    2    1    2    0    0  0.18804356944E+04 -0.24750808799E+03 -0.12176784539E+04  0.22559104332E+04  0.95354133704E+02 0.  0.
         13    1    3    3    0    0  0.13771932868E+04 -0.14307243112E+03 -0.86535357318E+03  0.16327791879E+04  0.00000000000E+00 0. -1.
        -13    1    3    3    0    0  0.50324240762E+03 -0.10443565688E+03 -0.35232488074E+03  0.62313124528E+03  0.00000000000E+00 0.  1.
         22    1    1    2    0    0 -0.18804356944E+04  0.24750808799E+03  0.10050867213E+04  0.21465083209E+04  0.00000000000E+00 0.  1.
<mgrwt>
<rscale>  0 0.43972828E+04</rscale>
<asrwt>0</asrwt>
<pdfrwt beam="1">  1        2 0.35500081E+00 0.43972828E+04</pdfrwt>
<pdfrwt beam="2">  1       -2 0.32229439E+00 0.43972828E+04</pdfrwt>
<totfact> 0.79486318E-02</totfact>
</mgrwt>
</event>
<event>
 6    1  0.3017327E-006  0.1079957E+04  0.7818608E-02  0.9224950E-01
         -1   -1    0    0    0  501 -0.00000000000E+00  0.00000000000E+00  0.54533060040E+03  0.54533060040E+03  0.00000000000E+00 0.  1.
          1   -1    0    0  501    0  0.00000000000E+00 -0.00000000000E+00 -0.53467887720E+03  0.53467887720E+03  0.00000000000E+00 0. -1.
         23    2    1    2    0    0 -0.21567234346E+03  0.71966617678E+02  0.49086147939E+03  0.54869491566E+03  0.91800679345E+02 0.  0.
         11    1    3    3    0    0 -0.13573790709E+03 -0.27602941001E+01  0.26988126722E+03  0.30210643330E+03  0.00000000000E+00 0. -1.
        -11    1    3    3    0    0 -0.79934436365E+02  0.74726911778E+02  0.22098021217E+03  0.24658848236E+03  0.00000000000E+00 0.  1.
         22    1    1    2    0    0  0.21567234346E+03 -0.71966617678E+02 -0.48020975619E+03  0.53131456194E+03  0.00000000000E+00 0. -1.
<mgrwt>
<rscale>  0 0.10799569E+04</rscale>
<asrwt>0</asrwt>
<pdfrwt beam="1">  1        1 0.82258289E-01 0.10799569E+04</pdfrwt>
<pdfrwt beam="2">  1       -1 0.83897015E-01 0.10799569E+04</pdfrwt>
<totfact> 0.56760106E+01</totfact>
</mgrwt>
</event>
<event>
 6    1  0.3017327E-006  0.3536049E+04  0.7818608E-02  0.8105300E-01
         -2   -1    0    0    0  501 -0.00000000000E+00  0.00000000000E+00  0.15196045558E+04  0.15196045558E+04  0.00000000000E+00 0.  1.
          2   -1    0    0  501    0  0.00000000000E+00 -0.00000000000E+00 -0.20570548761E+04  0.20570548761E+04  0.00000000000E+00 0. -1.
         23    2    1    2    0    0  0.72408850903E+03 -0.13298247053E+04  0.65209350065E+03  0.16511069351E+04  0.90500065851E+02 0.  0.
         13    1    3    3    0    0  0.36174260832E+03 -0.57079863199E+03  0.28547701291E+03  0.73359792657E+03  0.00000000000E+00 0. -1.
        -13    1    3    3    0    0  0.36234590071E+03 -0.75902607332E+03  0.36661648774E+03  0.91750900858E+03  0.00000000000E+00 0.  1.
         22    1    1    2    0    0 -0.72408850903E+03  0.13298247053E+04 -0.11895438210E+04  0.19255524968E+04  0.00000000000E+00 0. -1.
<mgrwt>
<rscale>  0 0.35360486E+04</rscale>
<asrwt>0</asrwt>
<pdfrwt beam="1">  1        2 0.31646998E+00 0.35360486E+04</pdfrwt>
<pdfrwt beam="2">  1       -2 0.23378532E+00 0.35360486E+04</pdfrwt>
<totfact> 0.41193924E-01</totfact>
</mgrwt>
</event>
<event>
 6    1  0.5176895E-006  0.2355831E+04  0.7818608E-02  0.8456227E-01
          1   -1    0    0  501    0  0.00000000000E+00  0.00000000000E+00  0.14058380850E+04  0.14058380850E+04  0.00000000000E+00 0. -1.
         -1   -1    0    0    0  501 -0.00000000000E+00 -0.00000000000E+00 -0.98694515102E+03  0.98694515102E+03  0.00000000000E+00 0.  1.
         23    2    1    2    0    0 -0.61263886596E+03  0.46031807636E+03  0.11160506481E+04  0.13568064072E+04  0.90196818423E+02 0.  0.
         11    1    3    3    0    0 -0.27627731157E+03  0.19601234721E+03  0.41698331903E+03  0.53723838424E+03  0.00000000000E+00 0. -1.
        -11    1    3    3    0    0 -0.33636155439E+03  0.26430572915E+03  0.69906732908E+03  0.81956802300E+03  0.00000000000E+00 0.  1.
         22    1    1    2    0    0  0.61263886596E+03 -0.46031807636E+03 -0.69715771410E+03  0.10359768288E+04  0.00000000000E+00 0.  1.
<mgrwt>
<rscale>  0 0.23558311E+04</rscale>
<asrwt>0</asrwt>
<pdfrwt beam="1">  1        1 0.21628278E+00 0.23558311E+04</pdfrwt>
<pdfrwt beam="2">  1       -1 0.15183772E+00 0.23558311E+04</pdfrwt>
<totfact> 0.23112731E+00</totfact>
</mgrwt>
</event>
<event>
 6    1  0.3017327E-006  0.1548523E+04  0.7818608E-02  0.8852812E-01
         -2   -1    0    0    0  501 -0.00000000000E+00  0.00000000000E+00  0.24383276605E+03  0.24383276605E+03  0.00000000000E+00 0.  1.
          2   -1    0    0  501    0  0.00000000000E+00 -0.00000000000E+00 -0.24585728304E+04  0.24585728304E+04  0.00000000000E+00 0. -1.
         23    2    1    2    0    0 -0.19871807172E+03  0.73975865112E+03 -0.94918048281E+03  0.12230906238E+04  0.90968956845E+02 0.  0.
         13    1    3    3    0    0 -0.15104434093E+03  0.49371840112E+03 -0.57557570511E+03  0.77321384160E+03  0.00000000000E+00 0.  1.
        -13    1    3    3    0    0 -0.47673730789E+02  0.24604025000E+03 -0.37360477770E+03  0.44987678218E+03  0.00000000000E+00 0. -1.
         22    1    1    2    0    0  0.19871807172E+03 -0.73975865112E+03 -0.12655595816E+04  0.14793149727E+04  0.00000000000E+00 0. -1.
<mgrwt>
<rscale>  0 0.15485227E+04</rscale>
<asrwt>0</asrwt>
<pdfrwt beam="1">  1        2 0.37824200E+00 0.15485227E+04</pdfrwt>
<pdfrwt beam="2">  1       -2 0.37512731E-01 0.15485227E+04</pdfrwt>
<totfact> 0.23789204E+01</totfact>
</mgrwt>
</event>
<event>
 6    1  0.3017327E-006  0.2062006E+04  0.7818608E-02  0.8578167E-01
          2   -1    0    0  501    0  0.00000000000E+00  0.00000000000E+00  0.18604932903E+04  0.18604932903E+04  0.00000000000E+00 0. -1.
         -2   -1    0    0    0  501 -0.00000000000E+00 -0.00000000000E+00 -0.57133598727E+03  0.57133598727E+03  0.00000000000E+00 0.  1.
         23    2    1    2    0    0 -0.86143608009E+02 -0.16865383739E+03  0.18386281291E+04  0.18506382361E+04  0.91889313767E+02 0.  0.
         11    1    3    3    0    0 -0.69547000259E+02 -0.11296026249E+03  0.84856189808E+03  0.85886791826E+03  0.00000000000E+00 0.  1.
        -11    1    3    3    0    0 -0.16596607749E+02 -0.55693574895E+02  0.99006623098E+03  0.99177031786E+03  0.00000000000E+00 0. -1.
         22    1    1    2    0    0  0.86143608009E+02  0.16865383739E+03 -0.54947082599E+03  0.58119104147E+03  0.00000000000E+00 0.  1.
<mgrwt>
<rscale>  0 0.20620056E+04</rscale>
<asrwt>0</asrwt>
<pdfrwt beam="1">  1        2 0.28622973E+00 0.20620056E+04</pdfrwt>
<pdfrwt beam="2">  1       -2 0.87897845E-01 0.20620056E+04</pdfrwt>
<totfact> 0.82384447E+00</totfact>
</mgrwt>
</event>
<event>
 6    1  0.3017327E-006  0.4656446E+04  0.7818608E-02  0.7883806E-01
          2   -1    0    0  501    0  0.00000000000E+00  0.00000000000E+00  0.38654674257E+04  0.38654674257E+04  0.00000000000E+00 0.  1.
         -2   -1    0    0    0  501 -0.00000000000E+00 -0.00000000000E+00 -0.14023202627E+04  0.14023202627E+04  0.00000000000E+00 0. -1.
         23    2    1    2    0    0 -0.54130166125E+03 -0.15409149335E+04 -0.64321754435E+03  0.17582395672E+04  0.10124843443E+03 0.  0.
         13    1    3    3    0    0 -0.33531126687E+03 -0.10812983493E+04 -0.46704921269E+03  0.12246529031E+04  0.00000000000E+00 0.  1.
        -13    1    3    3    0    0 -0.20599039438E+03 -0.45961658416E+03 -0.17616833166E+03  0.53358666409E+03  0.00000000000E+00 0. -1.
         22    1    1    2    0    0  0.54130166125E+03  0.15409149335E+04  0.31063647073E+04  0.35095481212E+04  0.00000000000E+00 0.  1.
<mgrwt>
<rscale>  0 0.46564464E+04</rscale>
<asrwt>0</asrwt>
<pdfrwt beam="1">  1        2 0.59468729E+00 0.46564464E+04</pdfrwt>
<pdfrwt beam="2">  1       -2 0.21574158E+00 0.46564464E+04</pdfrwt>
<totfact> 0.34302892E-02</totfact>
</mgrwt>
</event>
<event>
 6    1  0.3017327E-006  0.1662117E+04  0.7818608E-02  0.8783270E-01
          2   -1    0    0  501    0  0.00000000000E+00  0.00000000000E+00  0.23553476125E+04  0.23553476125E+04  0.00000000000E+00 0. -1.
         -2   -1    0    0    0  501 -0.00000000000E+00 -0.00000000000E+00 -0.29322998787E+03  0.29322998787E+03  0.00000000000E+00 0.  1.
         23    2    1    2    0    0  0.26561970072E+03 -0.47512712473E+03  0.38629359097E+02  0.55315297255E+03  0.90478580845E+02 0.  0.
         13    1    3    3    0    0  0.17866562868E+02 -0.10158822693E+03 -0.11938760653E+01  0.10315428861E+03  0.00000000000E+00 0.  1.
        -13    1    3    3    0    0  0.24775313785E+03 -0.37353889781E+03  0.39823235163E+02  0.44999868394E+03  0.00000000000E+00 0. -1.
         22    1    1    2    0    0 -0.26561970072E+03  0.47512712473E+03  0.20234882655E+04  0.20954246278E+04  0.00000000000E+00 0. -1.
<mgrwt>
<rscale>  0 0.16621174E+04</rscale>
<asrwt>0</asrwt>
<pdfrwt beam="1">  1        2 0.36236116E+00 0.16621174E+04</pdfrwt>
<pdfrwt beam="2">  1       -2 0.45112307E-01 0.16621174E+04</pdfrwt>
<totfact> 0.18772624E+01</totfact>
</mgrwt>
</event>
<event>
 6    1  0.3017327E-006  0.3350312E+04  0.7818608E-02  0.8150210E-01
         -2   -1    0    0    0  501 -0.00000000000E+00  0.00000000000E+00  0.17331757941E+04  0.17331757941E+04  0.00000000000E+00 0.  1.
          2   -1    0    0  501    0  0.00000000000E+00 -0.00000000000E+00 -0.16190784116E+04  0.16190784116E+04  0.00000000000E+00 0. -1.
         23    2    1    2    0    0  0.14302298137E+04 -0.50770846075E+03  0.76371257598E+03  0.17013983366E+04  0.90411280980E+02 0.  0.
         11    1    3    3    0    0  0.12763362893E+04 -0.46241916227E+03  0.71162381652E+03  0.15327342435E+04  0.00000000000E+00 0. -1.
        -11    1    3    3    0    0  0.15389352441E+03 -0.45289298477E+02  0.52088759458E+02  0.16866409302E+03  0.00000000000E+00 0.  1.
         22    1    1    2    0    0 -0.14302298137E+04  0.50770846075E+03 -0.64961519352E+03  0.16508558692E+04  0.00000000000E+00 0. -1.
<mgrwt>
<rscale>  0 0.33503119E+04</rscale>
<asrwt>0</asrwt>
<pdfrwt beam="1">  1        2 0.24908899E+00 0.33503119E+04</pdfrwt>
<pdfrwt beam="2">  1       -2 0.26664243E+00 0.33503119E+04</pdfrwt>
<totfact> 0.45989245E-01</totfact>
</mgrwt>
</event>
<event>
 6    1  0.3017327E-006  0.1083969E+04  0.7818608E-02  0.9220959E-01
          2   -1    0    0  501    0  0.00000000000E+00  0.00000000000E+00  0.50786914654E+03  0.50786914654E+03  0.00000000000E+00 0. -1.
         -2   -1    0    0    0  501 -0.00000000000E+00 -0.00000000000E+00 -0.57839135784E+03  0.57839135784E+03  0.00000000000E+00 0.  1.
         23    2    1    2    0    0 -0.19696400298E+03 -0.44481226459E+03  0.19489185346E+03  0.53209681469E+03  0.92148882073E+02 0.  0.
         11    1    3    3    0    0 -0.12148310970E+03 -0.17537660323E+03  0.10790507939E+03  0.23907865873E+03  0.00000000000E+00 0.  1.
        -11    1    3    3    0    0 -0.75480893280E+02 -0.26943566136E+03  0.86986774065E+02  0.29301815596E+03  0.00000000000E+00 0. -1.
         22    1    1    2    0    0  0.19696400298E+03  0.44481226459E+03 -0.26541406476E+03  0.55416368969E+03  0.00000000000E+00 0.  1.
<mgrwt>
<rscale>  0 0.10839689E+04</rscale>
<asrwt>0</asrwt>
<pdfrwt beam="1">  1        2 0.78133715E-01 0.10839689E+04</pdfrwt>
<pdfrwt beam="2">  1       -2 0.88983286E-01 0.10839689E+04</pdfrwt>
<totfact> 0.65226766E+01</totfact>
</mgrwt>
</event>
<event>
 6    1  0.3017327E-006  0.1576128E+04  0.7818608E-02  0.8835349E-01
          2   -1    0    0  501    0  0.00000000000E+00  0.00000000000E+00  0.75979534835E+03  0.75979534835E+03  0.00000000000E+00 0. -1.
         -2   -1    0    0    0  501 -0.00000000000E+00 -0.00000000000E+00 -0.81738427409E+03  0.81738427409E+03  0.00000000000E+00 0.  1.
         23    2    1    2    0    0  0.27629662681E+03 -0.36953845662E+03  0.60708544273E+03  0.76805014392E+03  0.91922749553E+02 0.  0.
         11    1    3    3    0    0  0.64064316807E+02 -0.15518839642E+03  0.24070630095E+03  0.29347435729E+03  0.00000000000E+00 0.  1.
        -11    1    3    3    0    0  0.21223231000E+03 -0.21435006020E+03  0.36637914179E+03  0.47457578663E+03  0.00000000000E+00 0. -1.
         22    1    1    2    0    0 -0.27629662681E+03  0.36953845662E+03 -0.66467436847E+03  0.80912947852E+03  0.00000000000E+00 0.  1.
<mgrwt>
<rscale>  0 0.15761279E+04</rscale>
<asrwt>0</asrwt>
<pdfrwt beam="1">  1        2 0.11689159E+00 0.15761279E+04</pdfrwt>
<pdfrwt beam="2">  1       -2 0.12575143E+00 0.15761279E+04</pdfrwt>
<totfact> 0.16727119E+01</totfact>
</mgrwt>
</event>
<event>
 6    1  0.3017327E-006  0.2178921E+04  0.7818608E-02  0.8527253E-01
         -2   -1    0    0    0  501 -0.00000000000E+00  0.00000000000E+00  0.59651613092E+03  0.59651613092E+03  0.00000000000E+00 0.  1.
          2   -1    0    0  501    0  0.00000000000E+00 -0.00000000000E+00 -0.19897605346E+04  0.19897605346E+04  0.00000000000E+00 0. -1.
         23    2    1    2    0    0  0.92874368228E+02 -0.36786598585E+03  0.51187176163E+03  0.64374773776E+03  0.91909834629E+02 0.  0.
         11    1    3    3    0    0  0.68305305279E+02 -0.23084925013E+03  0.24933824468E+03  0.34659277441E+03  0.00000000000E+00 0. -1.
        -11    1    3    3    0    0  0.24569062949E+02 -0.13701673572E+03  0.26253351695E+03  0.29715496335E+03  0.00000000000E+00 0.  1.
         22    1    1    2    0    0 -0.92874368228E+02  0.36786598585E+03 -0.19051161653E+04  0.19425289277E+04  0.00000000000E+00 0. -1.
<mgrwt>
<rscale>  0 0.21789211E+04</rscale>
<asrwt>0</asrwt>
<pdfrwt beam="1">  1        2 0.30611701E+00 0.21789211E+04</pdfrwt>
<pdfrwt beam="2">  1       -2 0.91771712E-01 0.21789211E+04</pdfrwt>
<totfact> 0.62608372E+00</totfact>
</mgrwt>
</event>
<event>
 6    1  0.3017327E-006  0.3511568E+04  0.7818608E-02  0.8111054E-01
         -2   -1    0    0    0  501 -0.00000000000E+00  0.00000000000E+00  0.14002930802E+04  0.14002930802E+04  0.00000000000E+00 0.  1.
          2   -1    0    0  501    0  0.00000000000E+00 -0.00000000000E+00 -0.22015227232E+04  0.22015227232E+04  0.00000000000E+00 0. -1.
         23    2    1    2    0    0  0.17358147719E+04  0.24779395593E+03 -0.46716443771E+03  0.18168636112E+04  0.91082394721E+02 0.  0.
         13    1    3    3    0    0  0.14939231870E+04  0.23062469413E+03 -0.42952451337E+03  0.15714596863E+04  0.00000000000E+00 0.  1.
        -13    1    3    3    0    0  0.24189158495E+03  0.17169261808E+02 -0.37639924340E+02  0.24540392484E+03  0.00000000000E+00 0. -1.
         22    1    1    2    0    0 -0.17358147719E+04 -0.24779395593E+03 -0.33406520530E+03  0.17849521922E+04  0.00000000000E+00 0.  1.
<mgrwt>
<rscale>  0 0.35115678E+04</rscale>
<asrwt>0</asrwt>
<pdfrwt beam="1">  1        2 0.33869580E+00 0.35115678E+04</pdfrwt>
<pdfrwt beam="2">  1       -2 0.21542971E+00 0.35115678E+04</pdfrwt>
<totfact> 0.44712848E-01</totfact>
</mgrwt>
</event>
<event>
 6    1  0.3017327E-006  0.1445527E+04  0.7818608E-02  0.8921507E-01
          2   -1    0    0  501    0  0.00000000000E+00  0.00000000000E+00  0.22270162655E+03  0.22270162655E+03  0.00000000000E+00 0. -1.
         -2   -1    0    0    0  501 -0.00000000000E+00 -0.00000000000E+00 -0.23456823195E+04  0.23456823195E+04  0.00000000000E+00 0.  1.
         23    2    1    2    0    0 -0.41782633478E+03 -0.28198261400E+03 -0.15319046501E+03  0.53511894052E+03  0.93765245710E+02 0.  0.
         13    1    3    3    0    0 -0.19774928237E+03 -0.17535285276E+03 -0.11233999063E+03  0.28718230298E+03  0.00000000000E+00 0. -1.
        -13    1    3    3    0    0 -0.22007705242E+03 -0.10662976123E+03 -0.40850474383E+02  0.24793663755E+03  0.00000000000E+00 0.  1.
         22    1    1    2    0    0  0.41782633478E+03  0.28198261400E+03 -0.19697902279E+04  0.20332650055E+04  0.00000000000E+00 0.  1.
<mgrwt>
<rscale>  0 0.14455273E+04</rscale>
<asrwt>0</asrwt>
<pdfrwt beam="1">  1        2 0.34261792E-01 0.14455273E+04</pdfrwt>
<pdfrwt beam="2">  1       -2 0.36087417E+00 0.14455273E+04</pdfrwt>
<totfact> 0.19914131E+00</totfact>
</mgrwt>
</event>
<event>
 6    1  0.3017327E-006  0.2747695E+04  0.7818608E-02  0.8319693E-01
         -2   -1    0    0    0  501 -0.00000000000E+00  0.00000000000E+00  0.15323503207E+04  0.15323503207E+04  0.00000000000E+00 0. -1.
          2   -1    0    0  501    0  0.00000000000E+00 -0.00000000000E+00 -0.12317397825E+04  0.12317397825E+04  0.00000000000E+00 0.  1.
         23    2    1    2    0    0  0.32775946752E+03  0.80110333930E+03  0.12217937856E+04  0.15000602760E+04  0.90597729030E+02 0.  0.
         13    1    3    3    0    0  0.85560040750E+02  0.23682751892E+03  0.42655488985E+03  0.49533510712E+03  0.00000000000E+00 0.  1.
        -13    1    3    3    0    0  0.24219942677E+03  0.56427582037E+03  0.79523889571E+03  0.10047251689E+04  0.00000000000E+00 0. -1.
         22    1    1    2    0    0 -0.32775946752E+03 -0.80110333930E+03 -0.92118324739E+03  0.12640298272E+04  0.00000000000E+00 0.  1.
<mgrwt>
<rscale>  0 0.27476949E+04</rscale>
<asrwt>0</asrwt>
<pdfrwt beam="1">  1        2 0.18949843E+00 0.27476949E+04</pdfrwt>
<pdfrwt beam="2">  1       -2 0.23574620E+00 0.27476949E+04</pdfrwt>
<totfact> 0.12474399E+00</totfact>
</mgrwt>
</event>
<event>
 6    1  0.3017327E-006  0.3899787E+04  0.7818608E-02  0.8025074E-01
         -2   -1    0    0    0  501 -0.00000000000E+00  0.00000000000E+00  0.22857093696E+04  0.22857093696E+04  0.00000000000E+00 0.  1.
          2   -1    0    0  501    0  0.00000000000E+00 -0.00000000000E+00 -0.16634152458E+04  0.16634152458E+04  0.00000000000E+00 0. -1.
         23    2    1    2    0    0 -0.12005490674E+04 -0.45347698544E+03 -0.11738757597E+04  0.17415952973E+04  0.90611482974E+02 0.  0.
         11    1    3    3    0    0 -0.57729887586E+03 -0.19483581780E+03 -0.61084318123E+03  0.86276554174E+03  0.00000000000E+00 0. -1.
        -11    1    3    3    0    0 -0.62325019151E+03 -0.25864116764E+03 -0.56303257849E+03  0.87882975556E+03  0.00000000000E+00 0.  1.
         22    1    1    2    0    0  0.12005490674E+04  0.45347698544E+03  0.17961698835E+04  0.22075293181E+04  0.00000000000E+00 0.  1.
<mgrwt>
<rscale>  0 0.38997866E+04</rscale>
<asrwt>0</asrwt>
<pdfrwt beam="1">  1        2 0.25591004E+00 0.38997866E+04</pdfrwt>
<pdfrwt beam="2">  1       -2 0.35164760E+00 0.38997866E+04</pdfrwt>
<totfact> 0.12412661E-01</totfact>
</mgrwt>
</event>
<event>
 6    1  0.3017327E-006  0.7452420E+03  0.7818608E-02  0.9642845E-01
          2   -1    0    0  501    0  0.00000000000E+00  0.00000000000E+00  0.11387930867E+04  0.11387930867E+04  0.00000000000E+00 0. -1.
         -2   -1    0    0    0  501 -0.00000000000E+00 -0.00000000000E+00 -0.12192416828E+03  0.12192416828E+03  0.00000000000E+00 0.  1.
         23    2    1    2    0    0 -0.28896211023E+03 -0.11928454866E+03  0.19216432278E+03  0.37875037649E+03  0.93791343134E+02 0.  0.
         13    1    3    3    0    0 -0.13105456402E+03 -0.33306945799E+02  0.13248804359E+03  0.18930856579E+03  0.00000000000E+00 0. -1.
        -13    1    3    3    0    0 -0.15790754621E+03 -0.85977602858E+02  0.59676279198E+02  0.18944181070E+03  0.00000000000E+00 0.  1.
         22    1    1    2    0    0  0.28896211023E+03  0.11928454866E+03  0.82470459562E+03  0.88196687848E+03  0.00000000000E+00 0. -1.
<mgrwt>
<rscale>  0 0.74524197E+03</rscale>
<asrwt>0</asrwt>
<pdfrwt beam="1">  1        2 0.17519893E+00 0.74524197E+03</pdfrwt>
<pdfrwt beam="2">  1       -2 0.18757565E-01 0.74524197E+03</pdfrwt>
<totfact> 0.49592139E+02</totfact>
</mgrwt>
</event>
<event>
 6    1  0.3017327E-006  0.1634037E+04  0.7818608E-02  0.8799907E-01
          2   -1    0    0  501    0  0.00000000000E+00  0.00000000000E+00  0.16147998335E+04  0.16147998335E+04  0.00000000000E+00 0. -1.
         -2   -1    0    0    0  501 -0.00000000000E+00 -0.00000000000E+00 -0.41337559279E+03  0.41337559279E+03  0.00000000000E+00 0.  1.
         23    2    1    2    0    0  0.38512576612E+03 -0.68255612394E+03  0.32707408243E+03  0.85399787697E+03  0.90167623951E+02 0.  0.
         11    1    3    3    0    0  0.13428643144E+03 -0.31762428929E+03  0.16671676447E+03  0.38303069638E+03  0.00000000000E+00 0.  1.
        -11    1    3    3    0    0  0.25083933469E+03 -0.36493183465E+03  0.16035731796E+03  0.47096718059E+03  0.00000000000E+00 0. -1.
         22    1    1    2    0    0 -0.38512576612E+03  0.68255612394E+03  0.87435015832E+03  0.11741775494E+04  0.00000000000E+00 0.  1.
<mgrwt>
<rscale>  0 0.16340365E+04</rscale>
<asrwt>0</asrwt>
<pdfrwt beam="1">  1        2 0.24843074E+00 0.16340365E+04</pdfrwt>
<pdfrwt beam="2">  1       -2 0.63596246E-01 0.16340365E+04</pdfrwt>
<totfact> 0.23939597E+01</totfact>
</mgrwt>
</event>
<event>
 6    1  0.3017327E-006  0.8833065E+03  0.7818608E-02  0.9446693E-01
          2   -1    0    0  501    0  0.00000000000E+00  0.00000000000E+00  0.84798459235E+03  0.84798459235E+03  0.00000000000E+00 0.  1.
         -2   -1    0    0    0  501 -0.00000000000E+00 -0.00000000000E+00 -0.23002493480E+03  0.23002493480E+03  0.00000000000E+00 0. -1.
         23    2    1    2    0    0  0.96021897157E+02  0.23848809042E+02  0.83173697736E+03  0.84244698154E+03  0.90230520222E+02 0.  0.
         11    1    3    3    0    0  0.37115429653E+02  0.19315693426E+02  0.10097351925E+03  0.10929914328E+03  0.00000000000E+00 0. -1.
        -11    1    3    3    0    0  0.58906467503E+02  0.45331156161E+01  0.73076345811E+03  0.73314783827E+03  0.00000000000E+00 0.  1.
         22    1    1    2    0    0 -0.96021897157E+02 -0.23848809042E+02 -0.21377731981E+03  0.23556254560E+03  0.00000000000E+00 0. -1.
<mgrwt>
<rscale>  0 0.88330652E+03</rscale>
<asrwt>0</asrwt>
<pdfrwt beam="1">  1        2 0.13045917E+00 0.88330652E+03</pdfrwt>
<pdfrwt beam="2">  1       -2 0.35388452E-01 0.88330652E+03</pdfrwt>
<totfact> 0.23938836E+02</totfact>
</mgrwt>
</event>
<event>
 6    1  0.3017327E-006  0.3217164E+04  0.7818608E-02  0.8184299E-01
         -2   -1    0    0    0  501 -0.00000000000E+00  0.00000000000E+00  0.52958535715E+03  0.52958535715E+03  0.00000000000E+00 0. -1.
          2   -1    0    0  501    0  0.00000000000E+00 -0.00000000000E+00 -0.48859670350E+04  0.48859670350E+04  0.00000000000E+00 0.  1.
         23    2    1    2    0    0  0.15267604719E+03 -0.52307736240E+03 -0.47253256524E+04  0.47574949792E+04  0.90200072478E+02 0.  0.
         13    1    3    3    0    0  0.29350103096E+02 -0.14622865459E+03 -0.16464933161E+04  0.16532345532E+04  0.00000000000E+00 0. -1.
        -13    1    3    3    0    0  0.12332594409E+03 -0.37684870781E+03 -0.30788323364E+04  0.31042604260E+04  0.00000000000E+00 0.  1.
         22    1    1    2    0    0 -0.15267604719E+03  0.52307736240E+03  0.36894397455E+03  0.65805741299E+03  0.00000000000E+00 0. -1.
<mgrwt>
<rscale>  0 0.32171643E+04</rscale>
<asrwt>0</asrwt>
<pdfrwt beam="1">  1        2 0.75168722E+00 0.32171643E+04</pdfrwt>
<pdfrwt beam="2">  1       -2 0.81474672E-01 0.32171643E+04</pdfrwt>
<totfact> 0.52602437E-02</totfact>
</mgrwt>
</event>
<event>
 6    1  0.3017327E-006  0.5487606E+04  0.7818608E-02  0.7757397E-01
         -2   -1    0    0    0  501 -0.00000000000E+00  0.00000000000E+00  0.17283761444E+04  0.17283761444E+04  0.00000000000E+00 0.  1.
          2   -1    0    0  501    0  0.00000000000E+00 -0.00000000000E+00 -0.43557970372E+04  0.43557970372E+04  0.00000000000E+00 0. -1.
         23    2    1    2    0    0  0.14945472701E+04  0.70699363003E+02 -0.38631668871E+04  0.41436222019E+04  0.82925340659E+02 0.  0.
         11    1    3    3    0    0  0.92620809044E+03  0.95675878994E+01 -0.23297019597E+04  0.25070828041E+04  0.00000000000E+00 0.  1.
        -11    1    3    3    0    0  0.56833917962E+03  0.61131775104E+02 -0.15334649274E+04  0.16365393978E+04  0.00000000000E+00 0. -1.
         22    1    1    2    0    0 -0.14945472701E+04 -0.70699363003E+02  0.12357459943E+04  0.19405509797E+04  0.00000000000E+00 0.  1.
<mgrwt>
<rscale>  0 0.54876063E+04</rscale>
<asrwt>0</asrwt>
<pdfrwt beam="1">  1        2 0.67012261E+00 0.54876063E+04</pdfrwt>
<pdfrwt beam="2">  1       -2 0.26590402E+00 0.54876063E+04</pdfrwt>
<totfact> 0.60146424E-03</totfact>
</mgrwt>
</event>
<event>
 6    1  0.3017327E-006  0.2615067E+04  0.7818608E-02  0.8363101E-01
          2   -1    0    0  501    0  0.00000000000E+00  0.00000000000E+00  0.11010484487E+04  0.11010484487E+04  0.00000000000E+00 0. -1.
         -2   -1    0    0    0  501 -0.00000000000E+00 -0.00000000000E+00 -0.15527422732E+04  0.15527422732E+04  0.00000000000E+00 0.  1.
         23    2    1    2    0    0  0.41097276457E+03  0.11108717846E+03  0.10265088661E+04  0.11155052578E+04  0.96915187224E+02 0.  0.
         11    1    3    3    0    0  0.12257965721E+03  0.67374594342E+02  0.41617635772E+03  0.43905337836E+03  0.00000000000E+00 0. -1.
        -11    1    3    3    0    0  0.28839310737E+03  0.43712584117E+02  0.61033250837E+03  0.67645187941E+03  0.00000000000E+00 0.  1.
         22    1    1    2    0    0 -0.41097276457E+03 -0.11108717846E+03 -0.14782026906E+04  0.15382854641E+04  0.00000000000E+00 0.  1.
<mgrwt>
<rscale>  0 0.26150675E+04</rscale>
<asrwt>0</asrwt>
<pdfrwt beam="1">  1        2 0.16939207E+00 0.26150675E+04</pdfrwt>
<pdfrwt beam="2">  1       -2 0.23888343E+00 0.26150675E+04</pdfrwt>
<totfact> 0.14463841E+00</totfact>
</mgrwt>
</event>
<event>
 6    1  0.3017327E-006  0.2091361E+04  0.7818608E-02  0.8565058E-01
          2   -1    0    0  501    0  0.00000000000E+00  0.00000000000E+00  0.26966259326E+04  0.26966259326E+04  0.00000000000E+00 0. -1.
         -2   -1    0    0    0  501 -0.00000000000E+00 -0.00000000000E+00 -0.40548735473E+03  0.40548735473E+03  0.00000000000E+00 0.  1.
         23    2    1    2    0    0  0.86985881088E+01  0.76456552906E+03  0.93867108593E+02  0.77560559911E+03  0.90093826829E+02 0.  0.
         13    1    3    3    0    0  0.30382396307E+02  0.66213095508E+03  0.10180657493E+03  0.67060052966E+03  0.00000000000E+00 0.  1.
        -13    1    3    3    0    0 -0.21683808198E+02  0.10243457398E+03 -0.79394663387E+01  0.10500506945E+03  0.00000000000E+00 0. -1.
         22    1    1    2    0    0 -0.86985881088E+01 -0.76456552906E+03  0.21972714693E+04  0.23265076882E+04  0.00000000000E+00 0. -1.
<mgrwt>
<rscale>  0 0.20913610E+04</rscale>
<asrwt>0</asrwt>
<pdfrwt beam="1">  1        2 0.41486552E+00 0.20913610E+04</pdfrwt>
<pdfrwt beam="2">  1       -2 0.62382672E-01 0.20913610E+04</pdfrwt>
<totfact> 0.58703357E+00</totfact>
</mgrwt>
</event>
<event>
 6    1  0.3017327E-006  0.2880679E+04  0.7818608E-02  0.8278649E-01
          2   -1    0    0  501    0  0.00000000000E+00  0.00000000000E+00  0.23004267084E+04  0.23004267084E+04  0.00000000000E+00 0. -1.
         -2   -1    0    0    0  501 -0.00000000000E+00 -0.00000000000E+00 -0.90182325472E+03  0.90182325472E+03  0.00000000000E+00 0.  1.
         23    2    1    2    0    0 -0.37337814053E+03  0.49547511018E+03  0.21432553226E+04  0.22330166442E+04  0.88955803315E+02 0.  0.
         13    1    3    3    0    0 -0.32405054385E+03  0.37488421188E+03  0.17447749446E+04  0.18137768701E+04  0.00000000000E+00 0.  1.
        -13    1    3    3    0    0 -0.49327596686E+02  0.12059089830E+03  0.39848037797E+03  0.41923977408E+03  0.00000000000E+00 0. -1.
         22    1    1    2    0    0  0.37337814053E+03 -0.49547511018E+03 -0.74465186889E+03  0.96923331891E+03  0.00000000000E+00 0.  1.
<mgrwt>
<rscale>  0 0.28806793E+04</rscale>
<asrwt>0</asrwt>
<pdfrwt beam="1">  1        2 0.35391180E+00 0.28806793E+04</pdfrwt>
<pdfrwt beam="2">  1       -2 0.13874204E+00 0.28806793E+04</pdfrwt>
<totfact> 0.14399974E+00</totfact>
</mgrwt>
</event>
<event>
 6    1  0.3017327E-006  0.2666369E+04  0.7818608E-02  0.8346000E-01
          2   -1    0    0  501    0  0.00000000000E+00  0.00000000000E+00  0.11358992933E+04  0.11358992933E+04  0.00000000000E+00 0. -1.
         -2   -1    0    0    0  501 -0.00000000000E+00 -0.00000000000E+00 -0.15647349122E+04  0.15647349122E+04  0.00000000000E+00 0.  1.
         23    2    1    2    0    0 -0.92392120668E+03  0.95322521384E+03 -0.31919249524E+03  0.13686093112E+04  0.94545720292E+02 0.  0.
         13    1    3    3    0    0 -0.70505524665E+03  0.75125755430E+03 -0.21043218267E+03  0.10515571869E+04  0.00000000000E+00 0. -1.
        -13    1    3    3    0    0 -0.21886596003E+03  0.20196765954E+03 -0.10876031257E+03  0.31705212434E+03  0.00000000000E+00 0.  1.
         22    1    1    2    0    0  0.92392120668E+03 -0.95322521384E+03 -0.10964312373E+03  0.13320248943E+04  0.00000000000E+00 0. -1.
<mgrwt>
<rscale>  0 0.26663693E+04</rscale>
<asrwt>0</asrwt>
<pdfrwt beam="1">  1        2 0.17475374E+00 0.26663693E+04</pdfrwt>
<pdfrwt beam="2">  1       -2 0.24072845E+00 0.26663693E+04</pdfrwt>
<totfact> 0.13354285E+00</totfact>
</mgrwt>
</event>
<event>
 6    1  0.3017327E-006  0.3592123E+04  0.7818608E-02  0.8092298E-01
          2   -1    0    0  501    0  0.00000000000E+00  0.00000000000E+00  0.22546826271E+04  0.22546826271E+04  0.00000000000E+00 0.  1.
         -2   -1    0    0    0  501 -0.00000000000E+00 -0.00000000000E+00 -0.14307273916E+04  0.14307273916E+04  0.00000000000E+00 0. -1.
         23    2    1    2    0    0 -0.52139104001E+03 -0.17241895110E+03  0.21653819315E+04  0.22359264927E+04  0.94400530078E+02 0.  0.
         11    1    3    3    0    0 -0.33482324743E+03 -0.15715019225E+03  0.14624251988E+04  0.15084728211E+04  0.00000000000E+00 0.  1.
        -11    1    3    3    0    0 -0.18656779258E+03 -0.15268758851E+02  0.70295673276E+03  0.72745367162E+03  0.00000000000E+00 0. -1.
         22    1    1    2    0    0  0.52139104001E+03  0.17241895110E+03 -0.13414266960E+04  0.14494835260E+04  0.00000000000E+00 0. -1.
<mgrwt>
<rscale>  0 0.35921226E+04</rscale>
<asrwt>0</asrwt>
<pdfrwt beam="1">  1        2 0.34687425E+00 0.35921226E+04</pdfrwt>
<pdfrwt beam="2">  1       -2 0.22011191E+00 0.35921226E+04</pdfrwt>
<totfact> 0.38706958E-01</totfact>
</mgrwt>
</event>
<event>
 6    1  0.3017327E-006  0.2124462E+04  0.7818608E-02  0.8550544E-01
         -2   -1    0    0    0  501 -0.00000000000E+00  0.00000000000E+00  0.52454876105E+03  0.52454876105E+03  0.00000000000E+00 0.  1.
          2   -1    0    0  501    0  0.00000000000E+00 -0.00000000000E+00 -0.21510575974E+04  0.21510575974E+04  0.00000000000E+00 0. -1.
         23    2    1    2    0    0 -0.51819795905E+03  0.92493918321E+03 -0.80746344748E+03  0.13358761743E+04  0.92338055734E+02 0.  0.
         11    1    3    3    0    0 -0.37242859430E+03  0.73010454429E+03 -0.59450022995E+03  0.10125148033E+04  0.00000000000E+00 0. -1.
        -11    1    3    3    0    0 -0.14576936475E+03  0.19483463892E+03 -0.21296321753E+03  0.32336137098E+03  0.00000000000E+00 0.  1.
         22    1    1    2    0    0  0.51819795905E+03 -0.92493918321E+03 -0.81904538884E+03  0.13397301842E+04  0.00000000000E+00 0. -1.
<mgrwt>
<rscale>  0 0.21244619E+04</rscale>
<asrwt>0</asrwt>
<pdfrwt beam="1">  1        2 0.33093194E+00 0.21244619E+04</pdfrwt>
<pdfrwt beam="2">  1       -2 0.80699808E-01 0.21244619E+04</pdfrwt>
<totfact> 0.68575080E+00</totfact>
</mgrwt>
</event>
<event>
 6    1  0.3017327E-006  0.2512091E+04  0.7818608E-02  0.8398691E-01
          2   -1    0    0  501    0  0.00000000000E+00  0.00000000000E+00  0.13627715405E+04  0.13627715405E+04  0.00000000000E+00 0. -1.
         -2   -1    0    0    0  501 -0.00000000000E+00 -0.00000000000E+00 -0.11576777869E+04  0.11576777869E+04  0.00000000000E+00 0.  1.
         23    2    1    2    0    0  0.11085617523E+04  0.89041044365E+02 -0.47932646929E+03  0.12145900287E+04  0.92938729567E+02 0.  0.
         13    1    3    3    0    0  0.54467013843E+03  0.30817634833E+01 -0.25884260104E+03  0.60305435001E+03  0.00000000000E+00 0. -1.
        -13    1    3    3    0    0  0.56389161390E+03  0.85959280882E+02 -0.22048386825E+03  0.61153567872E+03  0.00000000000E+00 0.  1.
         22    1    1    2    0    0 -0.11085617523E+04 -0.89041044365E+02  0.68442022288E+03  0.13058592986E+04  0.00000000000E+00 0. -1.
<mgrwt>
<rscale>  0 0.25120910E+04</rscale>
<asrwt>0</asrwt>
<pdfrwt beam="1">  1        2 0.20965716E+00 0.25120910E+04</pdfrwt>
<pdfrwt beam="2">  1       -2 0.17810427E+00 0.25120910E+04</pdfrwt>
<totfact> 0.25317381E+00</totfact>
</mgrwt>
</event>
<event>
 6    1  0.3017327E-006  0.2108943E+04  0.7818608E-02  0.8557314E-01
         -2   -1    0    0    0  501 -0.00000000000E+00  0.00000000000E+00  0.13012490793E+04  0.13012490793E+04  0.00000000000E+00 0.  1.
          2   -1    0    0  501    0  0.00000000000E+00 -0.00000000000E+00 -0.85449444191E+03  0.85449444191E+03  0.00000000000E+00 0. -1.
         23    2    1    2    0    0  0.47738102642E+03  0.37611639717E+03 -0.65482847196E+03  0.89763321785E+03  0.87114163564E+02 0.  0.
         13    1    3    3    0    0  0.14368435122E+03  0.13546107408E+03 -0.16033446162E+03  0.25436594693E+03  0.00000000000E+00 0.  1.
        -13    1    3    3    0    0  0.33369667520E+03  0.24065532309E+03 -0.49449401035E+03  0.64326727092E+03  0.00000000000E+00 0. -1.
         22    1    1    2    0    0 -0.47738102642E+03 -0.37611639717E+03  0.11015831094E+04  0.12581103034E+04  0.00000000000E+00 0.  1.
<mgrwt>
<rscale>  0 0.21089430E+04</rscale>
<asrwt>0</asrwt>
<pdfrwt beam="1">  1        2 0.13146068E+00 0.21089430E+04</pdfrwt>
<pdfrwt beam="2">  1       -2 0.20019217E+00 0.21089430E+04</pdfrwt>
<totfact> 0.38464517E+00</totfact>
</mgrwt>
</event>
<event>
 6    1  0.3017327E-006  0.2496569E+04  0.7818608E-02  0.8404209E-01
         -2   -1    0    0    0  501 -0.00000000000E+00  0.00000000000E+00  0.74133286349E+03  0.74133286349E+03  0.00000000000E+00 0.  1.
          2   -1    0    0  501    0  0.00000000000E+00 -0.00000000000E+00 -0.21019083795E+04  0.21019083795E+04  0.00000000000E+00 0. -1.
         23    2    1    2    0    0 -0.42419170184E+03 -0.49160486160E+03 -0.18931879743E+04  0.20034258045E+04  0.89108408336E+02 0.  0.
         11    1    3    3    0    0 -0.14606717880E+03 -0.12623730187E+03 -0.65394993195E+03  0.68185188319E+03  0.00000000000E+00 0.  1.
        -11    1    3    3    0    0 -0.27812452304E+03 -0.36536755972E+03 -0.12392380423E+04  0.13215739213E+04  0.00000000000E+00 0. -1.
         22    1    1    2    0    0  0.42419170184E+03  0.49160486160E+03  0.53261245831E+03  0.83981543842E+03  0.00000000000E+00 0.  1.
<mgrwt>
<rscale>  0 0.24965687E+04</rscale>
<asrwt>0</asrwt>
<pdfrwt beam="1">  1        2 0.32337051E+00 0.24965687E+04</pdfrwt>
<pdfrwt beam="2">  1       -2 0.11405121E+00 0.24965687E+04</pdfrwt>
<totfact> 0.31461881E+00</totfact>
</mgrwt>
</event>
<event>
 6    1  0.3017327E-006  0.5231435E+04  0.7818608E-02  0.7793765E-01
          2   -1    0    0  501    0  0.00000000000E+00  0.00000000000E+00  0.21425004766E+04  0.21425004766E+04  0.00000000000E+00 0. -1.
         -2   -1    0    0    0  501 -0.00000000000E+00 -0.00000000000E+00 -0.31934548627E+04  0.31934548627E+04  0.00000000000E+00 0.  1.
         23    2    1    2    0    0 -0.21713423269E+04 -0.65960708964E+03 -0.18510130639E+04  0.29297336328E+04  0.85327505248E+02 0.  0.
         11    1    3    3    0    0 -0.14876202493E+04 -0.42502589719E+03 -0.12222068953E+04  0.19716619169E+04  0.00000000000E+00 0.  1.
        -11    1    3    3    0    0 -0.68372207757E+03 -0.23458119244E+03 -0.62880616859E+03  0.95807171593E+03  0.00000000000E+00 0. -1.
         22    1    1    2    0    0  0.21713423269E+04  0.65960708964E+03  0.80005867775E+03  0.24062217066E+04  0.00000000000E+00 0. -1.
<mgrwt>
<rscale>  0 0.52314352E+04</rscale>
<asrwt>0</asrwt>
<pdfrwt beam="1">  1        2 0.32961546E+00 0.52314352E+04</pdfrwt>
<pdfrwt beam="2">  1       -2 0.49130075E+00 0.52314352E+04</pdfrwt>
<totfact> 0.74887367E-03</totfact>
</mgrwt>
</event>
<event>
 6    1  0.3017327E-006  0.1961307E+04  0.7818608E-02  0.8624928E-01
          2   -1    0    0  501    0  0.00000000000E+00  0.00000000000E+00  0.15718685172E+04  0.15718685172E+04  0.00000000000E+00 0. -1.
         -2   -1    0    0    0  501 -0.00000000000E+00 -0.00000000000E+00 -0.61180768112E+03  0.61180768112E+03  0.00000000000E+00 0.  1.
         23    2    1    2    0    0 -0.49720257753E+03  0.62254995665E+03 -0.15125886067E+03  0.81626612082E+03  0.92910093216E+02 0.  0.
         13    1    3    3    0    0 -0.16798982925E+03  0.26537888395E+03 -0.29323516204E+02  0.31544635579E+03  0.00000000000E+00 0.  1.
        -13    1    3    3    0    0 -0.32921274828E+03  0.35717107270E+03 -0.12193534447E+03  0.50081976502E+03  0.00000000000E+00 0. -1.
         22    1    1    2    0    0  0.49720257753E+03 -0.62254995665E+03  0.11113196967E+04  0.13674100775E+04  0.00000000000E+00 0. -1.
<mgrwt>
<rscale>  0 0.19613069E+04</rscale>
<asrwt>0</asrwt>
<pdfrwt beam="1">  1        2 0.24182592E+00 0.19613069E+04</pdfrwt>
<pdfrwt beam="2">  1       -2 0.94124259E-01 0.19613069E+04</pdfrwt>
<totfact> 0.10265042E+01</totfact>
</mgrwt>
</event>
<event>
 6    1  0.3017327E-006  0.4973998E+04  0.7818608E-02  0.7832531E-01
         -2   -1    0    0    0  501 -0.00000000000E+00  0.00000000000E+00  0.43279014113E+04  0.43279014113E+04  0.00000000000E+00 0.  1.
          2   -1    0    0  501    0  0.00000000000E+00 -0.00000000000E+00 -0.14291368404E+04  0.14291368404E+04  0.00000000000E+00 0. -1.
         23    2    1    2    0    0 -0.15765002241E+04 -0.17883303395E+04  0.22662386705E+04  0.32905493759E+04  0.91646733489E+02 0.  0.
         13    1    3    3    0    0 -0.10965769329E+04 -0.13024559995E+04  0.15970312986E+04  0.23343910489E+04  0.00000000000E+00 0.  1.
        -13    1    3    3    0    0 -0.47992329117E+03 -0.48587434002E+03  0.66920737194E+03  0.95615832704E+03  0.00000000000E+00 0. -1.
         22    1    1    2    0    0  0.15765002241E+04  0.17883303395E+04  0.63252590032E+03  0.24664888758E+04  0.00000000000E+00 0. -1.
<mgrwt>
<rscale>  0 0.49739977E+04</rscale>
<asrwt>0</asrwt>
<pdfrwt beam="1">  1        2 0.21986721E+00 0.49739977E+04</pdfrwt>
<pdfrwt beam="2">  1       -2 0.66583098E+00 0.49739977E+04</pdfrwt>
<totfact> 0.30525948E-03</totfact>
</mgrwt>
</event>
<event>
 6    1  0.3017327E-006  0.4033402E+04  0.7818608E-02  0.7997842E-01
          2   -1    0    0  501    0  0.00000000000E+00  0.00000000000E+00  0.40799213025E+04  0.40799213025E+04  0.00000000000E+00 0. -1.
         -2   -1    0    0    0  501 -0.00000000000E+00 -0.00000000000E+00 -0.99685317497E+03  0.99685317497E+03  0.00000000000E+00 0.  1.
         23    2    1    2    0    0 -0.18695686285E+04 -0.38177546234E+03  0.23598039277E+04  0.30361494597E+04  0.92139046074E+02 0.  0.
         11    1    3    3    0    0 -0.11811147124E+04 -0.28077770772E+03  0.15340152798E+04  0.19562901022E+04  0.00000000000E+00 0. -1.
        -11    1    3    3    0    0 -0.68845391613E+03 -0.10099775462E+03  0.82578864785E+03  0.10798593575E+04  0.00000000000E+00 0.  1.
         22    1    1    2    0    0  0.18695686285E+04  0.38177546234E+03  0.72326419979E+03  0.20406250178E+04  0.00000000000E+00 0.  1.
<mgrwt>
<rscale>  0 0.40334018E+04</rscale>
<asrwt>0</asrwt>
<pdfrwt beam="1">  1        2 0.62768019E+00 0.40334018E+04</pdfrwt>
<pdfrwt beam="2">  1       -2 0.15336203E+00 0.40334018E+04</pdfrwt>
<totfact> 0.65092119E-02</totfact>
</mgrwt>
</event>
<event>
 6    1  0.3017327E-006  0.3549597E+04  0.7818608E-02  0.8102136E-01
          1   -1    0    0  501    0  0.00000000000E+00  0.00000000000E+00  0.10549647493E+04  0.10549647493E+04  0.00000000000E+00 0.  1.
         -1   -1    0    0    0  501 -0.00000000000E+00 -0.00000000000E+00 -0.29857962182E+04  0.29857962182E+04  0.00000000000E+00 0. -1.
         23    2    1    2    0    0 -0.27761443112E+03  0.17451423830E+04 -0.11399628826E+04  0.21047690176E+04  0.89137726290E+02 0.  0.
         13    1    3    3    0    0 -0.40510571910E+02  0.39921341251E+03 -0.29449762952E+03  0.49773618409E+03  0.00000000000E+00 0.  1.
        -13    1    3    3    0    0 -0.23710385921E+03  0.13459289705E+04 -0.84546525312E+03  0.16070328335E+04  0.00000000000E+00 0. -1.
         22    1    1    2    0    0  0.27761443112E+03 -0.17451423830E+04 -0.79086858628E+03  0.19359919499E+04  0.00000000000E+00 0. -1.
<mgrwt>
<rscale>  0 0.35495970E+04</rscale>
<asrwt>0</asrwt>
<pdfrwt beam="1">  1        1 0.16230227E+00 0.35495970E+04</pdfrwt>
<pdfrwt beam="2">  1       -1 0.45935327E+00 0.35495970E+04</pdfrwt>
<totfact> 0.31075254E-02</totfact>
</mgrwt>
</event>
<event>
 6    1  0.3017327E-006  0.4465647E+04  0.7818608E-02  0.7916679E-01
          2   -1    0    0  501    0  0.00000000000E+00  0.00000000000E+00  0.28929265881E+04  0.28929265881E+04  0.00000000000E+00 0.  1.
         -2   -1    0    0    0  501 -0.00000000000E+00 -0.00000000000E+00 -0.17233413057E+04  0.17233413057E+04  0.00000000000E+00 0. -1.
         23    2    1    2    0    0 -0.51644575059E+03 -0.34472479889E+03 -0.16310185676E+04  0.17476561521E+04  0.92352897419E+02 0.  0.
         11    1    3    3    0    0 -0.32291355264E+03 -0.17512399372E+03 -0.87255837305E+03  0.94673105475E+03  0.00000000000E+00 0.  1.
        -11    1    3    3    0    0 -0.19353219795E+03 -0.16960080517E+03 -0.75846019458E+03  0.80092509732E+03  0.00000000000E+00 0. -1.
         22    1    1    2    0    0  0.51644575059E+03  0.34472479889E+03  0.28006038500E+04  0.28686117418E+04  0.00000000000E+00 0.  1.
<mgrwt>
<rscale>  0 0.44656466E+04</rscale>
<asrwt>0</asrwt>
<pdfrwt beam="1">  1        2 0.44506563E+00 0.44656466E+04</pdfrwt>
<pdfrwt beam="2">  1       -2 0.26512943E+00 0.44656466E+04</pdfrwt>
<totfact> 0.80004701E-02</totfact>
</mgrwt>
</event>
<event>
 6    1  0.3017327E-006  0.2388304E+04  0.7818608E-02  0.8443895E-01
         -2   -1    0    0    0  501 -0.00000000000E+00  0.00000000000E+00  0.79218976732E+03  0.79218976732E+03  0.00000000000E+00 0.  1.
          2   -1    0    0  501    0  0.00000000000E+00 -0.00000000000E+00 -0.18000725870E+04  0.18000725870E+04  0.00000000000E+00 0. -1.
         23    2    1    2    0    0 -0.51088256468E+03 -0.10772554929E+04 -0.52447078081E+03  0.13057291868E+04  0.91535333528E+02 0.  0.
         13    1    3    3    0    0 -0.27628336338E+03 -0.67867386190E+03 -0.30283452867E+03  0.79286787011E+03  0.00000000000E+00 0. -1.
        -13    1    3    3    0    0 -0.23459920130E+03 -0.39858163104E+03 -0.22163625214E+03  0.51286131665E+03  0.00000000000E+00 0.  1.
         22    1    1    2    0    0  0.51088256468E+03  0.10772554929E+04 -0.48341203891E+03  0.12865331676E+04  0.00000000000E+00 0.  1.
<mgrwt>
<rscale>  0 0.23883041E+04</rscale>
<asrwt>0</asrwt>
<pdfrwt beam="1">  1        2 0.27693424E+00 0.23883041E+04</pdfrwt>
<pdfrwt beam="2">  1       -2 0.12187535E+00 0.23883041E+04</pdfrwt>
<totfact> 0.39677442E+00</totfact>
</mgrwt>
</event>
<event>
 6    1  0.3017327E-006  0.7238656E+03  0.7818608E-02  0.9677267E-01
          2   -1    0    0  501    0  0.00000000000E+00  0.00000000000E+00  0.46679226226E+03  0.46679226226E+03  0.00000000000E+00 0. -1.
         -2   -1    0    0    0  501 -0.00000000000E+00 -0.00000000000E+00 -0.28062882980E+03  0.28062882980E+03  0.00000000000E+00 0.  1.
         23    2    1    2    0    0 -0.24849792432E+03 -0.19132128253E+03  0.26882644536E+03  0.42309374933E+03  0.91572984322E+02 0.  0.
         13    1    3    3    0    0 -0.14417512947E+03 -0.60821879085E+02  0.10076218117E+03  0.18611498082E+03  0.00000000000E+00 0.  1.
        -13    1    3    3    0    0 -0.10432279485E+03 -0.13049940345E+03  0.16806426420E+03  0.23697876851E+03  0.00000000000E+00 0. -1.
         22    1    1    2    0    0  0.24849792432E+03  0.19132128253E+03 -0.82663012901E+02  0.32432734273E+03  0.00000000000E+00 0. -1.
<mgrwt>
<rscale>  0 0.72386564E+03</rscale>
<asrwt>0</asrwt>
<pdfrwt beam="1">  1        2 0.71814194E-01 0.72386564E+03</pdfrwt>
<pdfrwt beam="2">  1       -2 0.43173666E-01 0.72386564E+03</pdfrwt>
<totfact> 0.34195940E+02</totfact>
</mgrwt>
</event>
<event>
 6    1  0.3017327E-006  0.2895733E+04  0.7818608E-02  0.8274148E-01
          2   -1    0    0  501    0  0.00000000000E+00  0.00000000000E+00  0.25174240321E+04  0.25174240321E+04  0.00000000000E+00 0. -1.
         -2   -1    0    0    0  501 -0.00000000000E+00 -0.00000000000E+00 -0.83272329369E+03  0.83272329369E+03  0.00000000000E+00 0.  1.
         23    2    1    2    0    0 -0.85051371225E+03 -0.23556332260E+03  0.21690389464E+04  0.23434462017E+04  0.90257939814E+02 0.  0.
         13    1    3    3    0    0 -0.50262911079E+03 -0.17659219038E+03  0.13716459489E+04  0.14714732189E+04  0.00000000000E+00 0. -1.
        -13    1    3    3    0    0 -0.34788460145E+03 -0.58971132223E+02  0.79739299748E+03  0.87197298284E+03  0.00000000000E+00 0.  1.
         22    1    1    2    0    0  0.85051371225E+03  0.23556332260E+03 -0.48433820792E+03  0.10067011241E+04  0.00000000000E+00 0.  1.
<mgrwt>
<rscale>  0 0.28957332E+04</rscale>
<asrwt>0</asrwt>
<pdfrwt beam="1">  1        2 0.38729600E+00 0.28957332E+04</pdfrwt>
<pdfrwt beam="2">  1       -2 0.12811128E+00 0.28957332E+04</pdfrwt>
<totfact> 0.13230189E+00</totfact>
</mgrwt>
</event>
<event>
 6    1  0.3017327E-006  0.2144793E+04  0.7818608E-02  0.8541765E-01
         -2   -1    0    0    0  501 -0.00000000000E+00  0.00000000000E+00  0.19475103534E+04  0.19475103534E+04  0.00000000000E+00 0.  1.
          2   -1    0    0  501    0  0.00000000000E+00 -0.00000000000E+00 -0.59051489920E+03  0.59051489920E+03  0.00000000000E+00 0. -1.
         23    2    1    2    0    0 -0.44496924614E+03 -0.96633670141E+03  0.53789694100E+03  0.11953686975E+04  0.88141666436E+02 0.  0.
         11    1    3    3    0    0 -0.25952646023E+03 -0.50003205216E+03  0.24517091654E+03  0.61440606691E+03  0.00000000000E+00 0.  1.
        -11    1    3    3    0    0 -0.18544278592E+03 -0.46630464925E+03  0.29272602446E+03  0.58096263060E+03  0.00000000000E+00 0. -1.
         22    1    1    2    0    0  0.44496924614E+03  0.96633670141E+03  0.81909851316E+03  0.13426565550E+04  0.00000000000E+00 0. -1.
<mgrwt>
<rscale>  0 0.21447927E+04</rscale>
<asrwt>0</asrwt>
<pdfrwt beam="1">  1        2 0.90848448E-01 0.21447927E+04</pdfrwt>
<pdfrwt beam="2">  1       -2 0.29961697E+00 0.21447927E+04</pdfrwt>
<totfact> 0.14845299E+00</totfact>
</mgrwt>
</event>
<event>
 6    1  0.3017327E-006  0.3462951E+04  0.7818608E-02  0.8122627E-01
         -1   -1    0    0    0  501 -0.00000000000E+00  0.00000000000E+00  0.10900333125E+04  0.10900333125E+04  0.00000000000E+00 0.  1.
          1   -1    0    0  501    0  0.00000000000E+00 -0.00000000000E+00 -0.27503814492E+04  0.27503814492E+04  0.00000000000E+00 0. -1.
         23    2    1    2    0    0 -0.77338839944E+03  0.11075542096E+04  0.36818637805E+03  0.14032528424E+04  0.93548849351E+02 0.  0.
         13    1    3    3    0    0 -0.65262183723E+03  0.98194816182E+03  0.30442368091E+03  0.12177073673E+04  0.00000000000E+00 0.  1.
        -13    1    3    3    0    0 -0.12076656221E+03  0.12560604779E+03  0.63762697141E+02  0.18554547512E+03  0.00000000000E+00 0. -1.
         22    1    1    2    0    0  0.77338839944E+03 -0.11075542096E+04 -0.20285345147E+04  0.24371619193E+04  0.00000000000E+00 0. -1.
<mgrwt>
<rscale>  0 0.34629510E+04</rscale>
<asrwt>0</asrwt>
<pdfrwt beam="1">  1        1 0.42313561E+00 0.34629510E+04</pdfrwt>
<pdfrwt beam="2">  1       -1 0.16769743E+00 0.34629510E+04</pdfrwt>
<totfact> 0.18921972E-01</totfact>
</mgrwt>
</event>
<event>
 6    1  0.3017327E-006  0.2200846E+04  0.7818608E-02  0.8518076E-01
         -2   -1    0    0    0  501 -0.00000000000E+00  0.00000000000E+00  0.35465207610E+03  0.35465207610E+03  0.00000000000E+00 0.  1.
          2   -1    0    0  501    0  0.00000000000E+00 -0.00000000000E+00 -0.34144176593E+04  0.34144176593E+04  0.00000000000E+00 0. -1.
         23    2    1    2    0    0 -0.28375444706E+03 -0.10410910997E+04 -0.18856017179E+04  0.21743760198E+04  0.89610115565E+02 0.  0.
         11    1    3    3    0    0 -0.20182900943E+03 -0.70063494446E+03 -0.13533099859E+04  0.15372287378E+04  0.00000000000E+00 0. -1.
        -11    1    3    3    0    0 -0.81925437624E+02 -0.34045615522E+03 -0.53229173197E+03  0.63714728194E+03  0.00000000000E+00 0.  1.
         22    1    1    2    0    0  0.28375444706E+03  0.10410910997E+04 -0.11741638654E+04  0.15946937157E+04  0.00000000000E+00 0.  1.
<mgrwt>
<rscale>  0 0.22008456E+04</rscale>
<asrwt>0</asrwt>
<pdfrwt beam="1">  1        2 0.52529505E+00 0.22008456E+04</pdfrwt>
<pdfrwt beam="2">  1       -2 0.54561855E-01 0.22008456E+04</pdfrwt>
<totfact> 0.27008339E+00</totfact>
</mgrwt>
</event>
<event>
 6    1  0.3017327E-006  0.1351195E+04  0.7818608E-02  0.8989924E-01
         -1   -1    0    0    0  501 -0.00000000000E+00  0.00000000000E+00  0.47445391974E+03  0.47445391974E+03  0.00000000000E+00 0.  1.
          1   -1    0    0  501    0  0.00000000000E+00 -0.00000000000E+00 -0.96201545624E+03  0.96201545624E+03  0.00000000000E+00 0. -1.
         23    2    1    2    0    0 -0.63991593443E+03  0.20036376358E+03 -0.19060423192E+03  0.70310610881E+03  0.91597959193E+02 0.  0.
         11    1    3    3    0    0 -0.23300893810E+03  0.10970618757E+03 -0.44490169797E+02  0.26135796914E+03  0.00000000000E+00 0. -1.
        -11    1    3    3    0    0 -0.40690699633E+03  0.90657576007E+02 -0.14611406212E+03  0.44174813967E+03  0.00000000000E+00 0.  1.
         22    1    1    2    0    0  0.63991593443E+03 -0.20036376358E+03 -0.29695730458E+03  0.73336326717E+03  0.00000000000E+00 0.  1.
<mgrwt>
<rscale>  0 0.13511950E+04</rscale>
<asrwt>0</asrwt>
<pdfrwt beam="1">  1        1 0.14800238E+00 0.13511950E+04</pdfrwt>
<pdfrwt beam="2">  1       -1 0.72992911E-01 0.13511950E+04</pdfrwt>
<totfact> 0.30029834E+01</totfact>
</mgrwt>
</event>
<event>
 6    1  0.3017327E-006  0.1756905E+04  0.7818608E-02  0.8729559E-01
          2   -1    0    0  501    0  0.00000000000E+00  0.00000000000E+00  0.26485280618E+03  0.26485280618E+03  0.00000000000E+00 0. -1.
         -2   -1    0    0    0  501 -0.00000000000E+00 -0.00000000000E+00 -0.29136128394E+04  0.29136128394E+04  0.00000000000E+00 0.  1.
         23    2    1    2    0    0 -0.48560930769E+03  0.72908642964E+03 -0.13138379839E+04  0.15817814879E+04  0.92081517772E+02 0.  0.
         13    1    3    3    0    0 -0.70612156368E+02  0.11007843680E+03 -0.14205229982E+03  0.19308597763E+03  0.00000000000E+00 0. -1.
        -13    1    3    3    0    0 -0.41499715132E+03  0.61900799284E+03 -0.11717856841E+04  0.13886955103E+04  0.00000000000E+00 0.  1.
         22    1    1    2    0    0  0.48560930769E+03 -0.72908642964E+03 -0.13349220493E+04  0.15966841577E+04  0.00000000000E+00 0. -1.
<mgrwt>
<rscale>  0 0.17569047E+04</rscale>
<asrwt>0</asrwt>
<pdfrwt beam="1">  1        2 0.40746587E-01 0.17569047E+04</pdfrwt>
<pdfrwt beam="2">  1       -2 0.44824811E+00 0.17569047E+04</pdfrwt>
<totfact> 0.42787639E-01</totfact>
</mgrwt>
</event>
<event>
 6    1  0.3017327E-006  0.1277951E+04  0.7818608E-02  0.9047235E-01
         -2   -1    0    0    0  501 -0.00000000000E+00  0.00000000000E+00  0.20598967050E+04  0.20598967050E+04  0.00000000000E+00 0.  1.
          2   -1    0    0  501    0  0.00000000000E+00 -0.00000000000E+00 -0.19820885709E+03  0.19820885709E+03  0.00000000000E+00 0. -1.
         23    2    1    2    0    0  0.18025601555E+03 -0.41199193618E+03  0.14115297878E+03  0.47977212245E+03  0.89596536975E+02 0.  0.
         11    1    3    3    0    0  0.14733640133E+03 -0.38020189691E+03  0.14741678400E+03  0.43358183285E+03  0.00000000000E+00 0.  1.
        -11    1    3    3    0    0  0.32919614222E+02 -0.31790039268E+02 -0.62638052197E+01  0.46190289596E+02  0.00000000000E+00 0. -1.
         22    1    1    2    0    0 -0.18025601555E+03  0.41199193618E+03  0.17205348691E+04  0.17783334396E+04  0.00000000000E+00 0.  1.
<mgrwt>
<rscale>  0 0.12779511E+04</rscale>
<asrwt>0</asrwt>
<pdfrwt beam="1">  1        2 0.30493672E-01 0.12779511E+04</pdfrwt>
<pdfrwt beam="2">  1       -2 0.31690717E+00 0.12779511E+04</pdfrwt>
<totfact> 0.43304470E+00</totfact>
</mgrwt>
</event>
<event>
 6    1  0.3017327E-006  0.3406420E+04  0.7818608E-02  0.8136333E-01
         -2   -1    0    0    0  501 -0.00000000000E+00  0.00000000000E+00  0.15394875010E+04  0.15394875010E+04  0.00000000000E+00 0.  1.
          2   -1    0    0  501    0  0.00000000000E+00 -0.00000000000E+00 -0.18843436437E+04  0.18843436437E+04  0.00000000000E+00 0. -1.
         23    2    1    2    0    0  0.16246707894E+04  0.18852259514E+03  0.30065687125E+03  0.16654844798E+04  0.91367693781E+02 0.  0.
         11    1    3    3    0    0  0.18112164481E+03  0.27702220775E+01  0.56092740888E+02  0.18962890056E+03  0.00000000000E+00 0. -1.
        -11    1    3    3    0    0  0.14435491446E+04  0.18575237306E+03  0.24456413037E+03  0.14758555792E+04  0.00000000000E+00 0.  1.
         22    1    1    2    0    0 -0.16246707894E+04 -0.18852259514E+03 -0.64551301396E+03  0.17583466649E+04  0.00000000000E+00 0.  1.
<mgrwt>
<rscale>  0 0.34064195E+04</rscale>
<asrwt>0</asrwt>
<pdfrwt beam="1">  1        2 0.28989902E+00 0.34064195E+04</pdfrwt>
<pdfrwt beam="2">  1       -2 0.23684423E+00 0.34064195E+04</pdfrwt>
<totfact> 0.49710798E-01</totfact>
</mgrwt>
</event>
<event>
 6    1  0.3017327E-006  0.3130422E+04  0.7818608E-02  0.8207438E-01
          2   -1    0    0  501    0  0.00000000000E+00  0.00000000000E+00  0.15104974297E+04  0.15104974297E+04  0.00000000000E+00 0. -1.
         -2   -1    0    0    0  501 -0.00000000000E+00 -0.00000000000E+00 -0.16219062621E+04  0.16219062621E+04  0.00000000000E+00 0.  1.
         23    2    1    2    0    0  0.12594765546E+04 -0.72867743394E+03 -0.62885479537E+03  0.15880584199E+04  0.96016649460E+02 0.  0.
         13    1    3    3    0    0  0.10483852938E+04 -0.56653777591E+03 -0.52827147543E+03  0.13035135318E+04  0.00000000000E+00 0. -1.
        -13    1    3    3    0    0  0.21109126079E+03 -0.16213965803E+03 -0.10058331994E+03  0.28454488809E+03  0.00000000000E+00 0.  1.
         22    1    1    2    0    0 -0.12594765546E+04  0.72867743394E+03  0.51744596299E+03  0.15443452719E+04  0.00000000000E+00 0.  1.
<mgrwt>
<rscale>  0 0.31304219E+04</rscale>
<asrwt>0</asrwt>
<pdfrwt beam="1">  1        2 0.23238422E+00 0.31304219E+04</pdfrwt>
<pdfrwt beam="2">  1       -2 0.24952404E+00 0.31304219E+04</pdfrwt>
<totfact> 0.68609867E-01</totfact>
</mgrwt>
</event>
<event>
 6    1  0.3017327E-006  0.1125796E+04  0.7818608E-02  0.9180408E-01
          2   -1    0    0  501    0  0.00000000000E+00  0.00000000000E+00  0.15223223552E+04  0.15223223552E+04  0.00000000000E+00 0. -1.
         -2   -1    0    0    0  501 -0.00000000000E+00 -0.00000000000E+00 -0.20813870622E+03  0.20813870622E+03  0.00000000000E+00 0.  1.
         23    2    1    2    0    0  0.21324702551E+03 -0.32150398434E+03  0.37472118445E+02  0.39673266401E+03  0.84578609591E+02 0.  0.
         13    1    3    3    0    0  0.20535846081E+03 -0.29451559222E+03  0.55536401714E+02  0.36331229459E+03  0.00000000000E+00 0. -1.
        -13    1    3    3    0    0  0.78885646996E+01 -0.26988392120E+02 -0.18064283270E+02  0.33420369422E+02  0.00000000000E+00 0.  1.
         22    1    1    2    0    0 -0.21324702551E+03  0.32150398434E+03  0.12767115306E+04  0.13337283974E+04  0.00000000000E+00 0. -1.
<mgrwt>
<rscale>  0 0.11257961E+04</rscale>
<asrwt>0</asrwt>
<pdfrwt beam="1">  1        2 0.23420343E+00 0.11257961E+04</pdfrwt>
<pdfrwt beam="2">  1       -2 0.32021340E-01 0.11257961E+04</pdfrwt>
<totfact> 0.11082864E+02</totfact>
</mgrwt>
</event>
<event>
 6    1  0.3017327E-006  0.5924327E+04  0.7818608E-02  0.7699856E-01
         -2   -1    0    0    0  501 -0.00000000000E+00  0.00000000000E+00  0.25658456995E+04  0.25658456995E+04  0.00000000000E+00 0.  1.
          2   -1    0    0  501    0  0.00000000000E+00 -0.00000000000E+00 -0.34196958156E+04  0.34196958156E+04  0.00000000000E+00 0. -1.
         23    2    1    2    0    0  0.10522033296E+04  0.21894701858E+04 -0.21385992750E+04  0.32375437090E+04  0.84680973239E+02 0.  0.
         11    1    3    3    0    0  0.74423660105E+03  0.14759838001E+04 -0.14227558604E+04  0.21809746754E+04  0.00000000000E+00 0.  1.
        -11    1    3    3    0    0  0.30796672858E+03  0.71348638566E+03 -0.71584341462E+03  0.10565690336E+04  0.00000000000E+00 0. -1.
         22    1    1    2    0    0 -0.10522033296E+04 -0.21894701858E+04  0.12847491588E+04  0.27479978061E+04  0.00000000000E+00 0.  1.
<mgrwt>
<rscale>  0 0.59243267E+04</rscale>
<asrwt>0</asrwt>
<pdfrwt beam="1">  1        2 0.52610705E+00 0.59243267E+04</pdfrwt>
<pdfrwt beam="2">  1       -2 0.39474549E+00 0.59243267E+04</pdfrwt>
<totfact> 0.50230037E-03</totfact>
</mgrwt>
</event>
<event>
 6    1  0.3017327E-006  0.3438884E+04  0.7818608E-02  0.8128428E-01
         -2   -1    0    0    0  501 -0.00000000000E+00  0.00000000000E+00  0.20398219417E+04  0.20398219417E+04  0.00000000000E+00 0.  1.
          2   -1    0    0  501    0  0.00000000000E+00 -0.00000000000E+00 -0.14493815335E+04  0.14493815335E+04  0.00000000000E+00 0. -1.
         23    2    1    2    0    0  0.87004372984E+03 -0.11861096214E+04 -0.60549799112E+03  0.15933920972E+04  0.91860939339E+02 0.  0.
         13    1    3    3    0    0  0.24326952565E+03 -0.33136864482E+03 -0.21431292462E+03  0.46358954964E+03  0.00000000000E+00 0. -1.
        -13    1    3    3    0    0  0.62677420419E+03 -0.85474097663E+03 -0.39118506651E+03  0.11298025475E+04  0.00000000000E+00 0.  1.
         22    1    1    2    0    0 -0.87004372984E+03  0.11861096214E+04  0.11959383994E+04  0.18958113780E+04  0.00000000000E+00 0.  1.
<mgrwt>
<rscale>  0 0.34388837E+04</rscale>
<asrwt>0</asrwt>
<pdfrwt beam="1">  1        2 0.22298177E+00 0.34388837E+04</pdfrwt>
<pdfrwt beam="2">  1       -2 0.31381876E+00 0.34388837E+04</pdfrwt>
<totfact> 0.29270608E-01</totfact>
</mgrwt>
</event>
<event>
 6    1  0.3017327E-006  0.2691575E+04  0.7818608E-02  0.8337744E-01
         -2   -1    0    0    0  501 -0.00000000000E+00  0.00000000000E+00  0.18426137483E+04  0.18426137483E+04  0.00000000000E+00 0.  1.
          2   -1    0    0  501    0  0.00000000000E+00 -0.00000000000E+00 -0.98292093636E+03  0.98292093636E+03  0.00000000000E+00 0. -1.
         23    2    1    2    0    0 -0.15996784353E+03  0.12400254304E+04  0.94847536557E+03  0.15720853953E+04  0.92704864846E+02 0.  0.
         11    1    3    3    0    0 -0.56369070048E+02  0.71690386386E+03  0.50858727900E+03  0.88078921567E+03  0.00000000000E+00 0. -1.
        -11    1    3    3    0    0 -0.10359877348E+03  0.52312156657E+03  0.43988808657E+03  0.69129617964E+03  0.00000000000E+00 0.  1.
         22    1    1    2    0    0  0.15996784353E+03 -0.12400254304E+04 -0.88782553659E+02  0.12534492893E+04  0.00000000000E+00 0. -1.
<mgrwt>
<rscale>  0 0.26915747E+04</rscale>
<asrwt>0</asrwt>
<pdfrwt beam="1">  1        2 0.15121861E+00 0.26915747E+04</pdfrwt>
<pdfrwt beam="2">  1       -2 0.28347904E+00 0.26915747E+04</pdfrwt>
<totfact> 0.90963216E-01</totfact>
</mgrwt>
</event>
<event>
 6    1  0.3017327E-006  0.2297862E+04  0.7818608E-02  0.8478764E-01
         -2   -1    0    0    0  501 -0.00000000000E+00  0.00000000000E+00  0.51612651102E+03  0.51612651102E+03  0.00000000000E+00 0.  1.
          2   -1    0    0  501    0  0.00000000000E+00 -0.00000000000E+00 -0.25575954912E+04  0.25575954912E+04  0.00000000000E+00 0. -1.
         23    2    1    2    0    0  0.50218742443E+03 -0.10288966852E+04 -0.92614386555E+03  0.14753569909E+04  0.90084365584E+02 0.  0.
         11    1    3    3    0    0  0.22650779986E+03 -0.36584158356E+03 -0.35556137741E+03  0.55818432508E+03  0.00000000000E+00 0. -1.
        -11    1    3    3    0    0  0.27567962457E+03 -0.66305510162E+03 -0.57058248813E+03  0.91717266584E+03  0.00000000000E+00 0.  1.
         22    1    1    2    0    0 -0.50218742443E+03  0.10288966852E+04 -0.11153251147E+04  0.15983650113E+04  0.00000000000E+00 0.  1.
<mgrwt>
<rscale>  0 0.22978623E+04</rscale>
<asrwt>0</asrwt>
<pdfrwt beam="1">  1        2 0.39347624E+00 0.22978623E+04</pdfrwt>
<pdfrwt beam="2">  1       -2 0.79404077E-01 0.22978623E+04</pdfrwt>
<totfact> 0.41077157E+00</totfact>
</mgrwt>
</event>
<event>
 6    1  0.3017327E-006  0.1565491E+04  0.7818608E-02  0.8842033E-01
         -2   -1    0    0    0  501 -0.00000000000E+00  0.00000000000E+00  0.22782334478E+03  0.22782334478E+03  0.00000000000E+00 0.  1.
          2   -1    0    0  501    0  0.00000000000E+00 -0.00000000000E+00 -0.26893242921E+04  0.26893242921E+04  0.00000000000E+00 0. -1.
         23    2    1    2    0    0  0.20278188962E+03  0.74652552190E+03 -0.10435430589E+04  0.13018998470E+04  0.86834590342E+02 0.  0.
         11    1    3    3    0    0  0.14664136612E+03  0.37968482535E+03 -0.56402030056E+03  0.69554522233E+03  0.00000000000E+00 0.  1.
        -11    1    3    3    0    0  0.56140523496E+02  0.36684069654E+03 -0.47952275838E+03  0.60635462464E+03  0.00000000000E+00 0. -1.
         22    1    1    2    0    0 -0.20278188962E+03 -0.74652552190E+03 -0.14179578883E+04  0.16152477899E+04  0.00000000000E+00 0. -1.
<mgrwt>
<rscale>  0 0.15654914E+04</rscale>
<asrwt>0</asrwt>
<pdfrwt beam="1">  1        2 0.41374219E+00 0.15654914E+04</pdfrwt>
<pdfrwt beam="2">  1       -2 0.35049746E-01 0.15654914E+04</pdfrwt>
<totfact> 0.19866038E+01</totfact>
</mgrwt>
</event>
<event>
 6    1  0.3017327E-006  0.1188911E+04  0.7818608E-02  0.9122618E-01
         -2   -1    0    0    0  501 -0.00000000000E+00  0.00000000000E+00  0.40881719565E+03  0.40881719565E+03  0.00000000000E+00 0.  1.
          2   -1    0    0  501    0  0.00000000000E+00 -0.00000000000E+00 -0.86439011839E+03  0.86439011839E+03  0.00000000000E+00 0. -1.
         23    2    1    2    0    0 -0.24135595894E+03 -0.49954123299E+03 -0.11238765374E+02  0.56241410516E+03  0.91592431221E+02 0.  0.
         13    1    3    3    0    0 -0.11859557568E+03 -0.17984891850E+03  0.29915488258E+02  0.21749823102E+03  0.00000000000E+00 0.  1.
        -13    1    3    3    0    0 -0.12276038326E+03 -0.31969231449E+03 -0.41154253632E+02  0.34491587414E+03  0.00000000000E+00 0. -1.
         22    1    1    2    0    0  0.24135595894E+03  0.49954123299E+03 -0.44433415737E+03  0.71079320888E+03  0.00000000000E+00 0. -1.
<mgrwt>
<rscale>  0 0.11889113E+04</rscale>
<asrwt>0</asrwt>
<pdfrwt beam="1">  1        2 0.13298309E+00 0.11889113E+04</pdfrwt>
<pdfrwt beam="2">  1       -2 0.62894954E-01 0.11889113E+04</pdfrwt>
<totfact> 0.71775873E+01</totfact>
</mgrwt>
</event>
<event>
 6    1  0.3017327E-006  0.4776511E+04  0.7818608E-02  0.7863939E-01
         -2   -1    0    0    0  501 -0.00000000000E+00  0.00000000000E+00  0.13003141421E+04  0.13003141421E+04  0.00000000000E+00 0.  1.
          2   -1    0    0  501    0  0.00000000000E+00 -0.00000000000E+00 -0.43864515022E+04  0.43864515022E+04  0.00000000000E+00 0. -1.
         23    2    1    2    0    0  0.17046081221E+03 -0.13852899609E+04  0.76244339478E+03  0.15929093949E+04  0.89192185038E+02 0.  0.
         11    1    3    3    0    0  0.12043615430E+03 -0.87266883640E+03  0.43401928105E+03  0.98205320711E+03  0.00000000000E+00 0.  1.
        -11    1    3    3    0    0  0.50024657907E+02 -0.51262112450E+03  0.32842411373E+03  0.61085618779E+03  0.00000000000E+00 0. -1.
         22    1    1    2    0    0 -0.17046081221E+03  0.13852899609E+04 -0.38485807548E+04  0.40938562494E+04  0.00000000000E+00 0. -1.
<mgrwt>
<rscale>  0 0.47765112E+04</rscale>
<asrwt>0</asrwt>
<pdfrwt beam="1">  1        2 0.67483869E+00 0.47765112E+04</pdfrwt>
<pdfrwt beam="2">  1       -2 0.20004833E+00 0.47765112E+04</pdfrwt>
<totfact> 0.15439586E-02</totfact>
</mgrwt>
</event>
<event>
 6    1  0.3017327E-006  0.1432653E+04  0.7818608E-02  0.8930516E-01
          2   -1    0    0  501    0  0.00000000000E+00  0.00000000000E+00  0.15829315708E+04  0.15829315708E+04  0.00000000000E+00 0. -1.
         -2   -1    0    0    0  501 -0.00000000000E+00 -0.00000000000E+00 -0.32416015456E+03  0.32416015456E+03  0.00000000000E+00 0.  1.
         23    2    1    2    0    0  0.80039825028E+02  0.45535132504E+03  0.13552662123E+04  0.14347968509E+04  0.90245743843E+02 0.  0.
         11    1    3    3    0    0  0.81432410584E+02  0.21537302044E+03  0.62131434609E+03  0.66260719290E+03  0.00000000000E+00 0. -1.
        -11    1    3    3    0    0 -0.13925855565E+01  0.23997830460E+03  0.73395186624E+03  0.77218965801E+03  0.00000000000E+00 0.  1.
         22    1    1    2    0    0 -0.80039825028E+02 -0.45535132504E+03 -0.96494796054E+02  0.47229487450E+03  0.00000000000E+00 0.  1.
<mgrwt>
<rscale>  0 0.14326526E+04</rscale>
<asrwt>0</asrwt>
<pdfrwt beam="1">  1        2 0.24352793E+00 0.14326526E+04</pdfrwt>
<pdfrwt beam="2">  1       -2 0.49870794E-01 0.14326526E+04</pdfrwt>
<totfact> 0.42104341E+01</totfact>
</mgrwt>
</event>
<event>
 6    1  0.3017327E-006  0.4411151E+04  0.7818608E-02  0.7926379E-01
          2   -1    0    0  501    0  0.00000000000E+00  0.00000000000E+00  0.18773311451E+04  0.18773311451E+04  0.00000000000E+00 0. -1.
         -2   -1    0    0    0  501 -0.00000000000E+00 -0.00000000000E+00 -0.25912115810E+04  0.25912115810E+04  0.00000000000E+00 0.  1.
         23    2    1    2    0    0 -0.19018706616E+04  0.56648208025E+03 -0.13300533175E+04  0.23906392200E+04  0.90000510386E+02 0.  0.
         11    1    3    3    0    0 -0.92740267821E+03  0.30156382809E+03 -0.60785168988E+03  0.11491301697E+04  0.00000000000E+00 0.  1.
        -11    1    3    3    0    0 -0.97446798338E+03  0.26491825216E+03 -0.72220162763E+03  0.12415090503E+04  0.00000000000E+00 0. -1.
         22    1    1    2    0    0  0.19018706616E+04 -0.56648208025E+03  0.61617288160E+03  0.20779035061E+04  0.00000000000E+00 0. -1.
<mgrwt>
<rscale>  0 0.44111505E+04</rscale>
<asrwt>0</asrwt>
<pdfrwt beam="1">  1        2 0.28882018E+00 0.44111505E+04</pdfrwt>
<pdfrwt beam="2">  1       -2 0.39864794E+00 0.44111505E+04</pdfrwt>
<totfact> 0.45188258E-02</totfact>
</mgrwt>
</event>
<event>
 6    1  0.3017327E-006  0.5090386E+03  0.7818608E-02  0.1011446E+00
          1   -1    0    0  501    0  0.00000000000E+00  0.00000000000E+00  0.16734670055E+03  0.16734670055E+03  0.00000000000E+00 0. -1.
         -1   -1    0    0    0  501 -0.00000000000E+00 -0.00000000000E+00 -0.38710104085E+03  0.38710104085E+03  0.00000000000E+00 0.  1.
         23    2    1    2    0    0 -0.18789320961E+03 -0.11598659912E+03 -0.23162638908E+03  0.33331950951E+03  0.93243562286E+02 0.  0.
         13    1    3    3    0    0 -0.16997160055E+03 -0.59218514491E+02 -0.17936522951E+03  0.25410443327E+03  0.00000000000E+00 0.  1.
        -13    1    3    3    0    0 -0.17921609065E+02 -0.56768084628E+02 -0.52261159572E+02  0.79215076239E+02  0.00000000000E+00 0. -1.
         22    1    1    2    0    0  0.18789320961E+03  0.11598659912E+03  0.11872048784E+02  0.22112823188E+03  0.00000000000E+00 0. -1.
<mgrwt>
<rscale>  0 0.50903863E+03</rscale>
<asrwt>0</asrwt>
<pdfrwt beam="1">  1        1 0.25745646E-01 0.50903863E+03</pdfrwt>
<pdfrwt beam="2">  1       -1 0.59554007E-01 0.50903863E+03</pdfrwt>
<totfact> 0.54286501E+02</totfact>
</mgrwt>
</event>
<event>
 6    1  0.3017327E-006  0.2034802E+04  0.7818608E-02  0.8590520E-01
          2   -1    0    0  501    0  0.00000000000E+00  0.00000000000E+00  0.15810368247E+04  0.15810368247E+04  0.00000000000E+00 0. -1.
         -2   -1    0    0    0  501 -0.00000000000E+00 -0.00000000000E+00 -0.65469982192E+03  0.65469982192E+03  0.00000000000E+00 0.  1.
         23    2    1    2    0    0  0.78445851187E+02  0.38519706726E+03 -0.56438942623E+03  0.69405061558E+03  0.92953215903E+02 0.  0.
         13    1    3    3    0    0  0.88416084355E+02  0.38294106898E+03 -0.54259590055E+03  0.66997878890E+03  0.00000000000E+00 0. -1.
        -13    1    3    3    0    0 -0.99702331677E+01  0.22559982720E+01 -0.21793525688E+02  0.24071826676E+02  0.00000000000E+00 0.  1.
         22    1    1    2    0    0 -0.78445851187E+02 -0.38519706726E+03  0.14907264290E+04  0.15416860311E+04  0.00000000000E+00 0. -1.
<mgrwt>
<rscale>  0 0.20348017E+04</rscale>
<asrwt>0</asrwt>
<pdfrwt beam="1">  1        2 0.24323643E+00 0.20348017E+04</pdfrwt>
<pdfrwt beam="2">  1       -2 0.10072305E+00 0.20348017E+04</pdfrwt>
<totfact> 0.85976144E+00</totfact>
</mgrwt>
</event>
<event>
 6    1  0.3017327E-006  0.8609198E+03  0.7818608E-02  0.9475797E-01
         -2   -1    0    0    0  501 -0.00000000000E+00  0.00000000000E+00  0.21355623621E+03  0.21355623621E+03  0.00000000000E+00 0.  1.
          2   -1    0    0  501    0  0.00000000000E+00 -0.00000000000E+00 -0.86766719669E+03  0.86766719669E+03  0.00000000000E+00 0. -1.
         23    2    1    2    0    0  0.10715646580E+03 -0.37937915576E+03 -0.53299492904E+03  0.66881569163E+03  0.88429536948E+02 0.  0.
         13    1    3    3    0    0  0.39393124789E+02 -0.12585295952E+03 -0.11346071963E+03  0.17396586044E+03  0.00000000000E+00 0. -1.
        -13    1    3    3    0    0  0.67763341007E+02 -0.25352619624E+03 -0.41953420941E+03  0.49484983119E+03  0.00000000000E+00 0.  1.
         22    1    1    2    0    0 -0.10715646580E+03  0.37937915576E+03 -0.12111603144E+03  0.41240774127E+03  0.00000000000E+00 0. -1.
<mgrwt>
<rscale>  0 0.86091984E+03</rscale>
<asrwt>0</asrwt>
<pdfrwt beam="1">  1        2 0.13348726E+00 0.86091984E+03</pdfrwt>
<pdfrwt beam="2">  1       -2 0.32854805E-01 0.86091984E+03</pdfrwt>
<totfact> 0.26740414E+02</totfact>
</mgrwt>
</event>
<event>
 6    1  0.3017327E-006  0.2046334E+04  0.7818608E-02  0.8585259E-01
          2   -1    0    0  501    0  0.00000000000E+00  0.00000000000E+00  0.16024569428E+04  0.16024569428E+04  0.00000000000E+00 0. -1.
         -2   -1    0    0    0  501 -0.00000000000E+00 -0.00000000000E+00 -0.65329114755E+03  0.65329114755E+03  0.00000000000E+00 0.  1.
         23    2    1    2    0    0  0.52007856436E+03  0.76175914846E+03  0.95847627055E+03  0.13333352770E+04  0.91364579015E+02 0.  0.
         13    1    3    3    0    0  0.10370936069E+03  0.21846788971E+03  0.27074802911E+03  0.36302664585E+03  0.00000000000E+00 0.  1.
        -13    1    3    3    0    0  0.41636920368E+03  0.54329125875E+03  0.68772824144E+03  0.97030863114E+03  0.00000000000E+00 0. -1.
         22    1    1    2    0    0 -0.52007856436E+03 -0.76175914846E+03 -0.93104752579E+01  0.92241281340E+03  0.00000000000E+00 0.  1.
<mgrwt>
<rscale>  0 0.20463342E+04</rscale>
<asrwt>0</asrwt>
<pdfrwt beam="1">  1        2 0.24653184E+00 0.20463342E+04</pdfrwt>
<pdfrwt beam="2">  1       -2 0.10050633E+00 0.20463342E+04</pdfrwt>
<totfact> 0.83983337E+00</totfact>
</mgrwt>
</event>
<event>
 6    1  0.3017327E-006  0.2141450E+04  0.7818608E-02  0.8543201E-01
          2   -1    0    0  501    0  0.00000000000E+00  0.00000000000E+00  0.11296581161E+04  0.11296581161E+04  0.00000000000E+00 0. -1.
         -2   -1    0    0    0  501 -0.00000000000E+00 -0.00000000000E+00 -0.10148662739E+04  0.10148662739E+04  0.00000000000E+00 0.  1.
         23    2    1    2    0    0  0.46463420043E+03  0.34532566292E+03 -0.84220751390E+03  0.10260510908E+04  0.91283025254E+02 0.  0.
         11    1    3    3    0    0  0.13873841847E+03  0.15273976636E+03 -0.26663901869E+03  0.33715597470E+03  0.00000000000E+00 0.  1.
        -11    1    3    3    0    0  0.32589578196E+03  0.19258589655E+03 -0.57556849521E+03  0.68889511606E+03  0.00000000000E+00 0. -1.
         22    1    1    2    0    0 -0.46463420043E+03 -0.34532566292E+03  0.95699935601E+03  0.11184732992E+04  0.00000000000E+00 0. -1.
<mgrwt>
<rscale>  0 0.21414499E+04</rscale>
<asrwt>0</asrwt>
<pdfrwt beam="1">  1        2 0.17379356E+00 0.21414499E+04</pdfrwt>
<pdfrwt beam="2">  1       -2 0.15613327E+00 0.21414499E+04</pdfrwt>
<totfact> 0.51647202E+00</totfact>
</mgrwt>
</event>
<event>
 6    1  0.3017327E-006  0.2338460E+04  0.7818608E-02  0.8462909E-01
          2   -1    0    0  501    0  0.00000000000E+00  0.00000000000E+00  0.29228161601E+04  0.29228161601E+04  0.00000000000E+00 0. -1.
         -2   -1    0    0    0  501 -0.00000000000E+00 -0.00000000000E+00 -0.46773353346E+03  0.46773353346E+03  0.00000000000E+00 0.  1.
         23    2    1    2    0    0  0.10120746133E+04 -0.31770889567E+03  0.52453635452E+03  0.11877689795E+04  0.10209209693E+03 0.  0.
         13    1    3    3    0    0  0.62278357806E+03 -0.22645537660E+03  0.28253462461E+03  0.72039380674E+03  0.00000000000E+00 0. -1.
        -13    1    3    3    0    0  0.38929103525E+03 -0.91253519074E+02  0.24200172991E+03  0.46737517281E+03  0.00000000000E+00 0.  1.
         22    1    1    2    0    0 -0.10120746133E+04  0.31770889567E+03  0.19305462722E+04  0.22027807141E+04  0.00000000000E+00 0. -1.
<mgrwt>
<rscale>  0 0.23384603E+04</rscale>
<asrwt>0</asrwt>
<pdfrwt beam="1">  1        2 0.44966402E+00 0.23384603E+04</pdfrwt>
<pdfrwt beam="2">  1       -2 0.71959007E-01 0.23384603E+04</pdfrwt>
<totfact> 0.30772125E+00</totfact>
</mgrwt>
</event>
<event>
 6    1  0.3017327E-006  0.1890272E+04  0.7818608E-02  0.8659714E-01
         -2   -1    0    0    0  501 -0.00000000000E+00  0.00000000000E+00  0.18269616754E+04  0.18269616754E+04  0.00000000000E+00 0.  1.
          2   -1    0    0  501    0  0.00000000000E+00 -0.00000000000E+00 -0.48894403569E+03  0.48894403569E+03  0.00000000000E+00 0. -1.
         23    2    1    2    0    0  0.10069756700E+03  0.81085624246E+03  0.94012587028E+02  0.82755883721E+03  0.91582840077E+02 0.  0.
         11    1    3    3    0    0 -0.29770944445E+00  0.28262304804E+03  0.58294961389E+02  0.28857265712E+03  0.00000000000E+00 0. -1.
        -11    1    3    3    0    0  0.10099527644E+03  0.52823319442E+03  0.35717625640E+02  0.53898618009E+03  0.00000000000E+00 0.  1.
         22    1    1    2    0    0 -0.10069756700E+03 -0.81085624246E+03  0.12440050527E+04  0.14883468739E+04  0.00000000000E+00 0. -1.
<mgrwt>
<rscale>  0 0.18902720E+04</rscale>
<asrwt>0</asrwt>
<pdfrwt beam="1">  1        2 0.75222160E-01 0.18902720E+04</pdfrwt>
<pdfrwt beam="2">  1       -2 0.28107102E+00 0.18902720E+04</pdfrwt>
<totfact> 0.24592107E+00</totfact>
</mgrwt>
</event>
<event>
 6    1  0.3017327E-006  0.1584365E+04  0.7818608E-02  0.8830211E-01
          2   -1    0    0  501    0  0.00000000000E+00  0.00000000000E+00  0.18407486078E+04  0.18407486078E+04  0.00000000000E+00 0. -1.
         -2   -1    0    0    0  501 -0.00000000000E+00 -0.00000000000E+00 -0.34092294841E+03  0.34092294841E+03  0.00000000000E+00 0.  1.
         23    2    1    2    0    0 -0.51316876492E+03 -0.13845731097E+03  0.15564771416E+04  0.16471418576E+04  0.89121257090E+02 0.  0.
         11    1    3    3    0    0 -0.88247536130E+02  0.72610152071E+01  0.21808343641E+03  0.23537360772E+03  0.00000000000E+00 0. -1.
        -11    1    3    3    0    0 -0.42492122879E+03 -0.14571832618E+03  0.13383937052E+04  0.14117682499E+04  0.00000000000E+00 0.  1.
         22    1    1    2    0    0  0.51316876492E+03  0.13845731097E+03 -0.56651482223E+02  0.53452969860E+03  0.00000000000E+00 0.  1.
<mgrwt>
<rscale>  0 0.15843654E+04</rscale>
<asrwt>0</asrwt>
<pdfrwt beam="1">  1        2 0.28319209E+00 0.15843654E+04</pdfrwt>
<pdfrwt beam="2">  1       -2 0.52449686E-01 0.15843654E+04</pdfrwt>
<totfact> 0.26975427E+01</totfact>
</mgrwt>
</event>
<event>
 6    1  0.3017327E-006  0.1163441E+04  0.7818608E-02  0.9145472E-01
          2   -1    0    0  501    0  0.00000000000E+00  0.00000000000E+00  0.14372995905E+04  0.14372995905E+04  0.00000000000E+00 0. -1.
         -2   -1    0    0    0  501 -0.00000000000E+00 -0.00000000000E+00 -0.23544077170E+03  0.23544077170E+03  0.00000000000E+00 0.  1.
         23    2    1    2    0    0 -0.24138956436E+03  0.19749523324E+03 -0.95099659072E+02  0.33880836159E+03  0.92053635434E+02 0.  0.
         11    1    3    3    0    0 -0.63980657407E+02  0.24294785335E+02  0.10650322358E+02  0.69261753393E+02  0.00000000000E+00 0. -1.
        -11    1    3    3    0    0 -0.17740890695E+03  0.17320044790E+03 -0.10574998143E+03  0.26954660820E+03  0.00000000000E+00 0.  1.
         22    1    1    2    0    0  0.24138956436E+03 -0.19749523324E+03  0.12969584779E+04  0.13339320007E+04  0.00000000000E+00 0. -1.
<mgrwt>
<rscale>  0 0.11634413E+04</rscale>
<asrwt>0</asrwt>
<pdfrwt beam="1">  1        2 0.22112301E+00 0.11634413E+04</pdfrwt>
<pdfrwt beam="2">  1       -2 0.36221658E-01 0.11634413E+04</pdfrwt>
<totfact> 0.97662981E+01</totfact>
</mgrwt>
</event>
<event>
 6    1  0.3017327E-006  0.2279612E+04  0.7818608E-02  0.8486003E-01
         -2   -1    0    0    0  501 -0.00000000000E+00  0.00000000000E+00  0.15583769479E+04  0.15583769479E+04  0.00000000000E+00 0.  1.
          2   -1    0    0  501    0  0.00000000000E+00 -0.00000000000E+00 -0.83366075520E+03  0.83366075520E+03  0.00000000000E+00 0. -1.
         23    2    1    2    0    0 -0.11077725301E+03  0.26929318080E+03 -0.79137182698E+03  0.84823936768E+03  0.91925183366E+02 0.  0.
         13    1    3    3    0    0 -0.68661045322E+02  0.58923323832E+02 -0.25312768299E+03  0.26881205540E+03  0.00000000000E+00 0. -1.
        -13    1    3    3    0    0 -0.42116207693E+02  0.21036985697E+03 -0.53824414400E+03  0.57942731228E+03  0.00000000000E+00 0.  1.
         22    1    1    2    0    0  0.11077725301E+03 -0.26929318080E+03  0.15160880197E+04  0.15437983354E+04  0.00000000000E+00 0.  1.
<mgrwt>
<rscale>  0 0.22796120E+04</rscale>
<asrwt>0</asrwt>
<pdfrwt beam="1">  1        2 0.12825550E+00 0.22796120E+04</pdfrwt>
<pdfrwt beam="2">  1       -2 0.23975030E+00 0.22796120E+04</pdfrwt>
<totfact> 0.21995290E+00</totfact>
</mgrwt>
</event>
<event>
 6    1  0.3017327E-006  0.1143164E+04  0.7818608E-02  0.9164114E-01
         -2   -1    0    0    0  501 -0.00000000000E+00  0.00000000000E+00  0.60454294384E+03  0.60454294384E+03  0.00000000000E+00 0.  1.
          2   -1    0    0  501    0  0.00000000000E+00 -0.00000000000E+00 -0.54041783450E+03  0.54041783450E+03  0.00000000000E+00 0. -1.
         23    2    1    2    0    0  0.39713327288E+03 -0.14352696084E+01  0.43893046901E+03  0.59888756523E+03  0.91046486705E+02 0.  0.
         13    1    3    3    0    0  0.20719361705E+03 -0.67648952161E+01  0.16228076568E+03  0.26326793512E+03  0.00000000000E+00 0.  1.
        -13    1    3    3    0    0  0.18993965583E+03  0.53296256077E+01  0.27664970333E+03  0.33561963011E+03  0.00000000000E+00 0. -1.
         22    1    1    2    0    0 -0.39713327288E+03  0.14352696084E+01 -0.37480535967E+03  0.54607321310E+03  0.00000000000E+00 0. -1.
<mgrwt>
<rscale>  0 0.11431637E+04</rscale>
<asrwt>0</asrwt>
<pdfrwt beam="1">  1        2 0.83141205E-01 0.11431637E+04</pdfrwt>
<pdfrwt beam="2">  1       -2 0.93006607E-01 0.11431637E+04</pdfrwt>
<totfact> 0.54533141E+01</totfact>
</mgrwt>
</event>
<event>
 6    1  0.3017327E-006  0.5314726E+03  0.7818608E-02  0.1005876E+00
          2   -1    0    0  501    0  0.00000000000E+00  0.00000000000E+00  0.10531625159E+03  0.10531625159E+03  0.00000000000E+00 0. -1.
         -2   -1    0    0    0  501 -0.00000000000E+00 -0.00000000000E+00 -0.67051165204E+03  0.67051165204E+03  0.00000000000E+00 0.  1.
         23    2    1    2    0    0  0.17349847573E+03 -0.18212921026E+03 -0.19905089610E+03  0.33160434687E+03  0.84067908945E+02 0.  0.
         11    1    3    3    0    0  0.15867299163E+03 -0.17153780478E+03 -0.20657641245E+03  0.31189124855E+03  0.00000000000E+00 0.  1.
        -11    1    3    3    0    0  0.14825484104E+02 -0.10591405481E+02  0.75255163537E+01  0.19713098320E+02  0.00000000000E+00 0. -1.
         22    1    1    2    0    0 -0.17349847573E+03  0.18212921026E+03 -0.36614450435E+03  0.44422355675E+03  0.00000000000E+00 0.  1.
<mgrwt>
<rscale>  0 0.53147257E+03</rscale>
<asrwt>0</asrwt>
<pdfrwt beam="1">  1        2 0.16202500E-01 0.53147257E+03</pdfrwt>
<pdfrwt beam="2">  1       -2 0.10315564E+00 0.53147257E+03</pdfrwt>
<totfact> 0.28359118E+02</totfact>
</mgrwt>
</event>
<event>
 6    1  0.3017327E-006  0.3879392E+04  0.7818608E-02  0.8029329E-01
          2   -1    0    0  501    0  0.00000000000E+00  0.00000000000E+00  0.20161642332E+04  0.20161642332E+04  0.00000000000E+00 0. -1.
         -2   -1    0    0    0  501 -0.00000000000E+00 -0.00000000000E+00 -0.18661280685E+04  0.18661280685E+04  0.00000000000E+00 0.  1.
         23    2    1    2    0    0 -0.17209985989E+03 -0.10917005092E+04  0.16690366991E+04  0.20037846528E+04  0.89672004244E+02 0.  0.
         11    1    3    3    0    0 -0.17696732395E+03 -0.10027675440E+04  0.15612007269E+04  0.18639227159E+04  0.00000000000E+00 0.  1.
        -11    1    3    3    0    0  0.48674640617E+01 -0.88932965223E+02  0.10783597219E+03  0.13986193695E+03  0.00000000000E+00 0. -1.
         22    1    1    2    0    0  0.17209985989E+03  0.10917005092E+04 -0.15190005344E+04  0.18785076489E+04  0.00000000000E+00 0.  1.
<mgrwt>
<rscale>  0 0.38793920E+04</rscale>
<asrwt>0</asrwt>
<pdfrwt beam="1">  1        2 0.31017911E+00 0.38793920E+04</pdfrwt>
<pdfrwt beam="2">  1       -2 0.28709663E+00 0.38793920E+04</pdfrwt>
<totfact> 0.19871169E-01</totfact>
</mgrwt>
</event>
<event>
 6    1  0.3017327E-006  0.2079560E+04  0.7818608E-02  0.8570301E-01
         -2   -1    0    0    0  501 -0.00000000000E+00  0.00000000000E+00  0.40473190894E+03  0.40473190894E+03  0.00000000000E+00 0.  1.
          2   -1    0    0  501    0  0.00000000000E+00 -0.00000000000E+00 -0.26712554078E+04  0.26712554078E+04  0.00000000000E+00 0. -1.
         23    2    1    2    0    0 -0.69685696566E+03 -0.69657793946E+03 -0.16172326001E+04  0.18959834491E+04  0.92095061102E+02 0.  0.
         11    1    3    3    0    0 -0.39942469564E+03 -0.46253174976E+03 -0.99866727246E+03  0.11708168209E+04  0.00000000000E+00 0.  1.
        -11    1    3    3    0    0 -0.29743227002E+03 -0.23404618970E+03 -0.61856532761E+03  0.72516662822E+03  0.00000000000E+00 0. -1.
         22    1    1    2    0    0  0.69685696566E+03  0.69657793946E+03 -0.64929089878E+03  0.11800038676E+04  0.00000000000E+00 0.  1.
<mgrwt>
<rscale>  0 0.20795599E+04</rscale>
<asrwt>0</asrwt>
<pdfrwt beam="1">  1        2 0.41096236E+00 0.20795599E+04</pdfrwt>
<pdfrwt beam="2">  1       -2 0.62266449E-01 0.20795599E+04</pdfrwt>
<totfact> 0.61078097E+00</totfact>
</mgrwt>
</event>
<event>
 6    1  0.3017327E-006  0.1378952E+04  0.7818608E-02  0.8969197E-01
         -2   -1    0    0    0  501 -0.00000000000E+00  0.00000000000E+00  0.45349866788E+03  0.45349866788E+03  0.00000000000E+00 0.  1.
          2   -1    0    0  501    0  0.00000000000E+00 -0.00000000000E+00 -0.10482434054E+04  0.10482434054E+04  0.00000000000E+00 0. -1.
         23    2    1    2    0    0  0.27410191128E+03  0.41729942383E+03 -0.81027714348E+03  0.95793614748E+03  0.10872877498E+03 0.  0.
         13    1    3    3    0    0  0.98697550600E+02  0.12212441356E+03 -0.35079871980E+03  0.38433750883E+03  0.00000000000E+00 0. -1.
        -13    1    3    3    0    0  0.17540436068E+03  0.29517501027E+03 -0.45947842368E+03  0.57359863865E+03  0.00000000000E+00 0.  1.
         22    1    1    2    0    0 -0.27410191128E+03 -0.41729942383E+03  0.21553240598E+03  0.54380592579E+03  0.00000000000E+00 0.  1.
<mgrwt>
<rscale>  0 0.13789518E+04</rscale>
<asrwt>0</asrwt>
<pdfrwt beam="1">  1        2 0.16126821E+00 0.13789518E+04</pdfrwt>
<pdfrwt beam="2">  1       -2 0.69769027E-01 0.13789518E+04</pdfrwt>
<totfact> 0.42841630E+01</totfact>
</mgrwt>
</event>
<event>
 6    1  0.3017327E-006  0.3269718E+03  0.7818608E-02  0.1072485E+00
          2   -1    0    0  501    0  0.00000000000E+00  0.00000000000E+00  0.21372085011E+03  0.21372085011E+03  0.00000000000E+00 0. -1.
         -2   -1    0    0    0  501 -0.00000000000E+00 -0.00000000000E+00 -0.12505867680E+03  0.12505867680E+03  0.00000000000E+00 0.  1.
         23    2    1    2    0    0  0.11394164075E+03  0.50597697705E+02 -0.38757485398E+02  0.16051401163E+03  0.93379766262E+02 0.  0.
         11    1    3    3    0    0  0.10078463012E+03 -0.16228078699E+01 -0.34315031485E+02  0.10647862019E+03  0.00000000000E+00 0. -1.
        -11    1    3    3    0    0  0.13157010633E+02  0.52220505574E+02 -0.44424539135E+01  0.54035391440E+02  0.00000000000E+00 0.  1.
         22    1    1    2    0    0 -0.11394164075E+03 -0.50597697705E+02  0.12741965871E+03  0.17826551527E+03  0.00000000000E+00 0. -1.
<mgrwt>
<rscale>  0 0.32697184E+03</rscale>
<asrwt>0</asrwt>
<pdfrwt beam="1">  1        2 0.32880131E-01 0.32697184E+03</pdfrwt>
<pdfrwt beam="2">  1       -2 0.19239796E-01 0.32697184E+03</pdfrwt>
<totfact> 0.35654711E+03</totfact>
</mgrwt>
</event>
<event>
 6    1  0.3017327E-006  0.2317927E+04  0.7818608E-02  0.8470886E-01
         -2   -1    0    0    0  501 -0.00000000000E+00  0.00000000000E+00  0.89672222054E+03  0.89672222054E+03  0.00000000000E+00 0.  1.
          2   -1    0    0  501    0  0.00000000000E+00 -0.00000000000E+00 -0.14978963712E+04  0.14978963712E+04  0.00000000000E+00 0. -1.
         23    2    1    2    0    0 -0.62205701093E+03  0.56848521451E+03  0.51811253791E+03  0.99357146364E+03  0.92807798485E+02 0.  0.
         11    1    3    3    0    0 -0.38987984370E+03  0.37940787633E+03  0.28533570041E+03  0.61430700067E+03  0.00000000000E+00 0.  1.
        -11    1    3    3    0    0 -0.23217716724E+03  0.18907733818E+03  0.23277683750E+03  0.37926446298E+03  0.00000000000E+00 0. -1.
         22    1    1    2    0    0  0.62205701093E+03 -0.56848521451E+03 -0.11192866886E+04  0.14010471281E+04  0.00000000000E+00 0. -1.
<mgrwt>
<rscale>  0 0.23179275E+04</rscale>
<asrwt>0</asrwt>
<pdfrwt beam="1">  1        2 0.23044559E+00 0.23179275E+04</pdfrwt>
<pdfrwt beam="2">  1       -2 0.13795727E+00 0.23179275E+04</pdfrwt>
<totfact> 0.43003339E+00</totfact>
</mgrwt>
</event>
<event>
 6    1  0.3017327E-006  0.3378729E+04  0.7818608E-02  0.8143147E-01
          2   -1    0    0  501    0  0.00000000000E+00  0.00000000000E+00  0.31749853689E+04  0.31749853689E+04  0.00000000000E+00 0. -1.
         -2   -1    0    0    0  501 -0.00000000000E+00 -0.00000000000E+00 -0.89888652737E+03  0.89888652737E+03  0.00000000000E+00 0.  1.
         23    2    1    2    0    0  0.11111878220E+04 -0.29828127905E+02 -0.39269769121E+03  0.11828334970E+04  0.96205571427E+02 0.  0.
         13    1    3    3    0    0  0.17530974562E+03 -0.27532681856E+02 -0.91628814328E+02  0.19971828934E+03  0.00000000000E+00 0. -1.
        -13    1    3    3    0    0  0.93587807637E+03 -0.22954460485E+01 -0.30106887688E+03  0.98311520766E+03  0.00000000000E+00 0.  1.
         22    1    1    2    0    0 -0.11111878220E+04  0.29828127905E+02  0.26687965328E+04  0.28910383993E+04  0.00000000000E+00 0. -1.
<mgrwt>
<rscale>  0 0.33787285E+04</rscale>
<asrwt>0</asrwt>
<pdfrwt beam="1">  1        2 0.48845928E+00 0.33787285E+04</pdfrwt>
<pdfrwt beam="2">  1       -2 0.13829024E+00 0.33787285E+04</pdfrwt>
<totfact> 0.41389121E-01</totfact>
</mgrwt>
</event>
<event>
 6    1  0.3017327E-006  0.2024919E+04  0.7818608E-02  0.8595058E-01
          2   -1    0    0  501    0  0.00000000000E+00  0.00000000000E+00  0.18099334367E+04  0.18099334367E+04  0.00000000000E+00 0. -1.
         -2   -1    0    0    0  501 -0.00000000000E+00 -0.00000000000E+00 -0.56636039832E+03  0.56636039832E+03  0.00000000000E+00 0.  1.
         23    2    1    2    0    0 -0.50125550842E+03  0.96825375248E+02 -0.40014454920E+03  0.65511989096E+03  0.91837755124E+02 0.  0.
         11    1    3    3    0    0 -0.39469681196E+03  0.46602541655E+02 -0.33909522559E+03  0.52243941493E+03  0.00000000000E+00 0. -1.
        -11    1    3    3    0    0 -0.10655869646E+03  0.50222833593E+02 -0.61049323609E+02  0.13268047603E+03  0.00000000000E+00 0.  1.
         22    1    1    2    0    0  0.50125550842E+03 -0.96825375248E+02  0.16437175876E+04  0.17211739441E+04  0.00000000000E+00 0. -1.
<mgrwt>
<rscale>  0 0.20249194E+04</rscale>
<asrwt>0</asrwt>
<pdfrwt beam="1">  1        2 0.27845130E+00 0.20249194E+04</pdfrwt>
<pdfrwt beam="2">  1       -2 0.87132370E-01 0.20249194E+04</pdfrwt>
<totfact> 0.89936877E+00</totfact>
</mgrwt>
</event>
<event>
 6    1  0.3017327E-006  0.9879976E+03  0.7818608E-02  0.9321808E-01
         -2   -1    0    0    0  501 -0.00000000000E+00  0.00000000000E+00  0.13451707905E+03  0.13451707905E+03  0.00000000000E+00 0.  1.
          2   -1    0    0  501    0  0.00000000000E+00 -0.00000000000E+00 -0.18141547940E+04  0.18141547940E+04  0.00000000000E+00 0. -1.
         23    2    1    2    0    0  0.81412165087E+02 -0.44094850062E+03 -0.45450945915E+03  0.64406359315E+03  0.84708575345E+02 0.  0.
         13    1    3    3    0    0 -0.50805048623E+00 -0.13100597109E+03 -0.17593227885E+03  0.21935129204E+03  0.00000000000E+00 0. -1.
        -13    1    3    3    0    0  0.81920215573E+02 -0.30994252953E+03 -0.27857718030E+03  0.42471230111E+03  0.00000000000E+00 0.  1.
         22    1    1    2    0    0 -0.81412165087E+02  0.44094850062E+03 -0.12251282558E+04  0.13046082799E+04  0.00000000000E+00 0. -1.
<mgrwt>
<rscale>  0 0.98799758E+03</rscale>
<asrwt>0</asrwt>
<pdfrwt beam="1">  1        2 0.27910073E+00 0.98799758E+03</pdfrwt>
<pdfrwt beam="2">  1       -2 0.20694936E-01 0.98799758E+03</pdfrwt>
<totfact> 0.17065740E+02</totfact>
</mgrwt>
</event>
<event>
 6    1  0.3017327E-006  0.3438170E+04  0.7818608E-02  0.8128601E-01
         -2   -1    0    0    0  501 -0.00000000000E+00  0.00000000000E+00  0.86740163807E+03  0.86740163807E+03  0.00000000000E+00 0.  1.
          2   -1    0    0  501    0  0.00000000000E+00 -0.00000000000E+00 -0.34070174564E+04  0.34070174564E+04  0.00000000000E+00 0. -1.
         23    2    1    2    0    0  0.65669343524E+03  0.11217801909E+04  0.12565315554E+03  0.13090699131E+04  0.90764846296E+02 0.  0.
         11    1    3    3    0    0  0.27514609299E+03  0.47117446249E+03  0.77919766981E+01  0.54568439733E+03  0.00000000000E+00 0. -1.
        -11    1    3    3    0    0  0.38154734224E+03  0.65060572838E+03  0.11786117884E+03  0.76338551575E+03  0.00000000000E+00 0.  1.
         22    1    1    2    0    0 -0.65669343524E+03 -0.11217801909E+04 -0.26652689739E+04  0.29653491814E+04  0.00000000000E+00 0. -1.
<mgrwt>
<rscale>  0 0.34381696E+04</rscale>
<asrwt>0</asrwt>
<pdfrwt beam="1">  1        2 0.52415653E+00 0.34381696E+04</pdfrwt>
<pdfrwt beam="2">  1       -2 0.13344641E+00 0.34381696E+04</pdfrwt>
<totfact> 0.31599584E-01</totfact>
</mgrwt>
</event>
<event>
 6    1  0.3017327E-006  0.1316175E+04  0.7818608E-02  0.9016836E-01
         -2   -1    0    0    0  501 -0.00000000000E+00  0.00000000000E+00  0.17627432603E+03  0.17627432603E+03  0.00000000000E+00 0.  1.
          2   -1    0    0  501    0  0.00000000000E+00 -0.00000000000E+00 -0.24568467270E+04  0.24568467270E+04  0.00000000000E+00 0. -1.
         23    2    1    2    0    0 -0.84109457478E+02  0.20001262129E+03 -0.23819958966E+04  0.23936086839E+04  0.91534860898E+02 0.  0.
         11    1    3    3    0    0 -0.67770023648E+02  0.96338186589E+02 -0.16403252097E+04  0.16445487576E+04  0.00000000000E+00 0. -1.
        -11    1    3    3    0    0 -0.16339433830E+02  0.10367443471E+03 -0.74167068684E+03  0.74905992632E+03  0.00000000000E+00 0.  1.
         22    1    1    2    0    0  0.84109457478E+02 -0.20001262129E+03  0.10142349560E+03  0.23951236915E+03  0.00000000000E+00 0.  1.
<mgrwt>
<rscale>  0 0.13161748E+04</rscale>
<asrwt>0</asrwt>
<pdfrwt beam="1">  1        2 0.37797641E+00 0.13161748E+04</pdfrwt>
<pdfrwt beam="2">  1       -2 0.27119128E-01 0.13161748E+04</pdfrwt>
<totfact> 0.44822080E+01</totfact>
</mgrwt>
</event>
<event>
 6    1  0.3017327E-006  0.2029767E+04  0.7818608E-02  0.8592829E-01
          4   -1    0    0  501    0  0.00000000000E+00  0.00000000000E+00  0.77558423594E+03  0.77558423594E+03  0.00000000000E+00 0. -1.
         -4   -1    0    0    0  501 -0.00000000000E+00 -0.00000000000E+00 -0.13280166190E+04  0.13280166190E+04  0.00000000000E+00 0.  1.
         23    2    1    2    0    0  0.15561055639E+03  0.94200918110E+03  0.73557715864E+02  0.96190932633E+03  0.90900340892E+02 0.  0.
         11    1    3    3    0    0  0.14735573722E+03  0.71219332356E+03  0.30276528605E+02  0.72790776311E+03  0.00000000000E+00 0.  1.
        -11    1    3    3    0    0  0.82548191727E+01  0.22981585754E+03  0.43281187259E+02  0.23400156322E+03  0.00000000000E+00 0. -1.
         22    1    1    2    0    0 -0.15561055639E+03 -0.94200918110E+03 -0.62599009892E+03  0.11416915286E+04  0.00000000000E+00 0.  1.
<mgrwt>
<rscale>  0 0.20297672E+04</rscale>
<asrwt>0</asrwt>
<pdfrwt beam="1">  1        4 0.11932065E+00 0.20297672E+04</pdfrwt>
<pdfrwt beam="2">  1       -4 0.20431025E+00 0.20297672E+04</pdfrwt>
<totfact> 0.12267920E-01</totfact>
</mgrwt>
</event>
<event>
 6    1  0.3017327E-006  0.2827467E+04  0.7818608E-02  0.8294791E-01
         -2   -1    0    0    0  501 -0.00000000000E+00  0.00000000000E+00  0.15705729007E+04  0.15705729007E+04  0.00000000000E+00 0.  1.
          2   -1    0    0  501    0  0.00000000000E+00 -0.00000000000E+00 -0.12725561441E+04  0.12725561441E+04  0.00000000000E+00 0. -1.
         23    2    1    2    0    0  0.77672472579E+03  0.92201230954E+03  0.88904498103E+03  0.15004740777E+04  0.87255263148E+02 0.  0.
         13    1    3    3    0    0  0.18805751983E+03  0.18162541155E+03  0.16339607729E+03  0.30830455553E+03  0.00000000000E+00 0. -1.
        -13    1    3    3    0    0  0.58866720596E+03  0.74038689800E+03  0.72564890374E+03  0.11921695222E+04  0.00000000000E+00 0.  1.
         22    1    1    2    0    0 -0.77672472579E+03 -0.92201230954E+03 -0.59102822449E+03  0.13426549671E+04  0.00000000000E+00 0. -1.
<mgrwt>
<rscale>  0 0.28274668E+04</rscale>
<asrwt>0</asrwt>
<pdfrwt beam="1">  1        2 0.19577787E+00 0.28274668E+04</pdfrwt>
<pdfrwt beam="2">  1       -2 0.24162660E+00 0.28274668E+04</pdfrwt>
<totfact> 0.10779780E+00</totfact>
</mgrwt>
</event>
<event>
 6    1  0.3017327E-006  0.9850019E+03  0.7818608E-02  0.9325149E-01
          2   -1    0    0  501    0  0.00000000000E+00  0.00000000000E+00  0.14700668640E+04  0.14700668640E+04  0.00000000000E+00 0. -1.
         -2   -1    0    0    0  501 -0.00000000000E+00 -0.00000000000E+00 -0.16499737716E+03  0.16499737716E+03  0.00000000000E+00 0.  1.
         23    2    1    2    0    0  0.22788345465E+03 -0.33747318979E+03  0.21056774709E+03  0.46726585059E+03  0.90441009921E+02 0.  0.
         11    1    3    3    0    0  0.12006141192E+03 -0.22660170019E+03  0.92207088662E+02  0.27251645888E+03  0.00000000000E+00 0.  1.
        -11    1    3    3    0    0  0.10782204274E+03 -0.11087148961E+03  0.11836065843E+03  0.19474939171E+03  0.00000000000E+00 0. -1.
         22    1    1    2    0    0 -0.22788345465E+03  0.33747318979E+03  0.10945017397E+04  0.11677983906E+04  0.00000000000E+00 0.  1.
<mgrwt>
<rscale>  0 0.98500188E+03</rscale>
<asrwt>0</asrwt>
<pdfrwt beam="1">  1        2 0.22616412E+00 0.98500188E+03</pdfrwt>
<pdfrwt beam="2">  1       -2 0.25384213E-01 0.98500188E+03</pdfrwt>
<totfact> 0.18384330E+02</totfact>
</mgrwt>
</event>
<event>
 6    1  0.3017327E-006  0.3370705E+04  0.7818608E-02  0.8145134E-01
          2   -1    0    0  501    0  0.00000000000E+00  0.00000000000E+00  0.21798944652E+04  0.21798944652E+04  0.00000000000E+00 0. -1.
         -2   -1    0    0    0  501 -0.00000000000E+00 -0.00000000000E+00 -0.13030051641E+04  0.13030051641E+04  0.00000000000E+00 0.  1.
         23    2    1    2    0    0 -0.10626088581E+04  0.32886281767E+03  0.17453799317E+04  0.20716716839E+04  0.90466135369E+02 0.  0.
         11    1    3    3    0    0 -0.48087869830E+03  0.16298279366E+03  0.87672410200E+03  0.10131401011E+04  0.00000000000E+00 0.  1.
        -11    1    3    3    0    0 -0.58173015983E+03  0.16588002401E+03  0.86865582972E+03  0.10585315828E+04  0.00000000000E+00 0. -1.
         22    1    1    2    0    0  0.10626088581E+04 -0.32886281767E+03 -0.86849063065E+03  0.14112279454E+04  0.00000000000E+00 0.  1.
<mgrwt>
<rscale>  0 0.33707054E+04</rscale>
<asrwt>0</asrwt>
<pdfrwt beam="1">  1        2 0.33536838E+00 0.33707054E+04</pdfrwt>
<pdfrwt beam="2">  1       -2 0.20046233E+00 0.33707054E+04</pdfrwt>
<totfact> 0.58130269E-01</totfact>
</mgrwt>
</event>
<event>
 6    1  0.3017327E-006  0.3244388E+04  0.7818608E-02  0.8177192E-01
         -2   -1    0    0    0  501 -0.00000000000E+00  0.00000000000E+00  0.21240601809E+04  0.21240601809E+04  0.00000000000E+00 0. -1.
          2   -1    0    0  501    0  0.00000000000E+00 -0.00000000000E+00 -0.12389070764E+04  0.12389070764E+04  0.00000000000E+00 0.  1.
         23    2    1    2    0    0  0.10629172278E+04 -0.12205771265E+04  0.35165625191E+03  0.16587899055E+04  0.91215547778E+02 0.  0.
         13    1    3    3    0    0  0.93391148860E+03 -0.11037513650E+04  0.33347656129E+03  0.14838006474E+04  0.00000000000E+00 0. -1.
        -13    1    3    3    0    0  0.12900573919E+03 -0.11682576145E+03  0.18179690621E+02  0.17498925805E+03  0.00000000000E+00 0.  1.
         22    1    1    2    0    0 -0.10629172278E+04  0.12205771265E+04  0.53349685266E+03  0.17041773519E+04  0.00000000000E+00 0.  1.
<mgrwt>
<rscale>  0 0.32443879E+04</rscale>
<asrwt>0</asrwt>
<pdfrwt beam="1">  1        2 0.19060109E+00 0.32443879E+04</pdfrwt>
<pdfrwt beam="2">  1       -2 0.32677849E+00 0.32443879E+04</pdfrwt>
<totfact> 0.32741244E-01</totfact>
</mgrwt>
</event>
<event>
 6    1  0.3017327E-006  0.1041742E+04  0.7818608E-02  0.9263912E-01
          2   -1    0    0  501    0  0.00000000000E+00  0.00000000000E+00  0.23833028957E+04  0.23833028957E+04  0.00000000000E+00 0. -1.
         -2   -1    0    0    0  501 -0.00000000000E+00 -0.00000000000E+00 -0.11383632462E+03  0.11383632462E+03  0.00000000000E+00 0.  1.
         23    2    1    2    0    0 -0.17593791756E+03  0.44559059806E+03  0.16092345593E+04  0.16814116670E+04  0.89466166947E+02 0.  0.
         11    1    3    3    0    0 -0.26871646481E+02  0.18589133204E+03  0.63570032722E+03  0.66286693894E+03  0.00000000000E+00 0. -1.
        -11    1    3    3    0    0 -0.14906627108E+03  0.25969926602E+03  0.97353423212E+03  0.10185447281E+04  0.00000000000E+00 0.  1.
         22    1    1    2    0    0  0.17593791756E+03 -0.44559059806E+03  0.66023201169E+03  0.81572755328E+03  0.00000000000E+00 0.  1.
<mgrwt>
<rscale>  0 0.10417417E+04</rscale>
<asrwt>0</asrwt>
<pdfrwt beam="1">  1        2 0.36666195E+00 0.10417417E+04</pdfrwt>
<pdfrwt beam="2">  1       -2 0.17513282E-01 0.10417417E+04</pdfrwt>
<totfact> 0.11000294E+02</totfact>
</mgrwt>
</event>
<event>
 6    1  0.3017327E-006  0.1652657E+04  0.7818608E-02  0.8788836E-01
          2   -1    0    0  501    0  0.00000000000E+00  0.00000000000E+00  0.80911715559E+03  0.80911715559E+03  0.00000000000E+00 0. -1.
         -2   -1    0    0    0  501 -0.00000000000E+00 -0.00000000000E+00 -0.84390572806E+03  0.84390572806E+03  0.00000000000E+00 0.  1.
         23    2    1    2    0    0  0.44787258108E+03  0.63341111565E+03 -0.29458951079E+03  0.83491774503E+03  0.92223482865E+02 0.  0.
         13    1    3    3    0    0  0.16284116325E+03  0.30145938610E+03 -0.10787011198E+03  0.35920880693E+03  0.00000000000E+00 0.  1.
        -13    1    3    3    0    0  0.28503141782E+03  0.33195172955E+03 -0.18671939881E+03  0.47570893810E+03  0.00000000000E+00 0. -1.
         22    1    1    2    0    0 -0.44787258108E+03 -0.63341111565E+03  0.25980093832E+03  0.81810513863E+03  0.00000000000E+00 0. -1.
<mgrwt>
<rscale>  0 0.16526568E+04</rscale>
<asrwt>0</asrwt>
<pdfrwt beam="1">  1        2 0.12447956E+00 0.16526568E+04</pdfrwt>
<pdfrwt beam="2">  1       -2 0.12983165E+00 0.16526568E+04</pdfrwt>
<totfact> 0.14116785E+01</totfact>
</mgrwt>
</event>
<event>
 6    1  0.3017327E-006  0.2026786E+04  0.7818608E-02  0.8594199E-01
         -2   -1    0    0    0  501 -0.00000000000E+00  0.00000000000E+00  0.12075316546E+04  0.12075316546E+04  0.00000000000E+00 0.  1.
          2   -1    0    0  501    0  0.00000000000E+00 -0.00000000000E+00 -0.85046653724E+03  0.85046653724E+03  0.00000000000E+00 0. -1.
         23    2    1    2    0    0 -0.94016000704E+03 -0.35305645979E+03  0.30043738607E+03  0.10521371663E+04  0.90444962170E+02 0.  0.
         11    1    3    3    0    0 -0.46914360356E+03 -0.21387012544E+03  0.12436588367E+03  0.53038007536E+03  0.00000000000E+00 0.  1.
        -11    1    3    3    0    0 -0.47101640348E+03 -0.13918633434E+03  0.17607150240E+03  0.52175709097E+03  0.00000000000E+00 0. -1.
         22    1    1    2    0    0  0.94016000704E+03  0.35305645979E+03  0.56627731266E+02  0.10058610255E+04  0.00000000000E+00 0.  1.
<mgrwt>
<rscale>  0 0.20267859E+04</rscale>
<asrwt>0</asrwt>
<pdfrwt beam="1">  1        2 0.13084101E+00 0.20267859E+04</pdfrwt>
<pdfrwt beam="2">  1       -2 0.18577410E+00 0.20267859E+04</pdfrwt>
<totfact> 0.48647245E+00</totfact>
</mgrwt>
</event>
<event>
 6    1  0.3017327E-006  0.5598434E+04  0.7818608E-02  0.7742288E-01
          2   -1    0    0  501    0  0.00000000000E+00  0.00000000000E+00  0.37224107982E+04  0.37224107982E+04  0.00000000000E+00 0. -1.
         -2   -1    0    0    0  501 -0.00000000000E+00 -0.00000000000E+00 -0.21049844963E+04  0.21049844963E+04  0.00000000000E+00 0.  1.
         23    2    1    2    0    0  0.26427649946E+04 -0.88612807511E+03  0.54941858724E+03  0.28424212141E+04  0.89820888320E+02 0.  0.
         11    1    3    3    0    0  0.20485647236E+04 -0.69439971683E+03  0.46368018465E+03  0.22121952235E+04  0.00000000000E+00 0. -1.
        -11    1    3    3    0    0  0.59420027106E+03 -0.19172835828E+03  0.85738402587E+02  0.63022599056E+03  0.00000000000E+00 0.  1.
         22    1    1    2    0    0 -0.26427649946E+04  0.88612807511E+03  0.10680077146E+04  0.29849740804E+04  0.00000000000E+00 0.  1.
<mgrwt>
<rscale>  0 0.55984344E+04</rscale>
<asrwt>0</asrwt>
<pdfrwt beam="1">  1        2 0.57267858E+00 0.55984344E+04</pdfrwt>
<pdfrwt beam="2">  1       -2 0.32384377E+00 0.55984344E+04</pdfrwt>
<totfact> 0.88141926E-03</totfact>
</mgrwt>
</event>
<event>
 6    1  0.3017327E-006  0.4423793E+04  0.7818608E-02  0.7924116E-01
          2   -1    0    0  501    0  0.00000000000E+00  0.00000000000E+00  0.21585420175E+04  0.21585420175E+04  0.00000000000E+00 0. -1.
         -2   -1    0    0    0  501 -0.00000000000E+00 -0.00000000000E+00 -0.22665699221E+04  0.22665699221E+04  0.00000000000E+00 0.  1.
         23    2    1    2    0    0 -0.29357711820E+03  0.11149445985E+04  0.18330976013E+04  0.21674013266E+04  0.89959505865E+02 0.  0.
         13    1    3    3    0    0 -0.14072209070E+03  0.53742206879E+03  0.79923381034E+03  0.97334468223E+03  0.00000000000E+00 0. -1.
        -13    1    3    3    0    0 -0.15285502750E+03  0.57752252967E+03  0.10338637910E+04  0.11940566444E+04  0.00000000000E+00 0.  1.
         22    1    1    2    0    0  0.29357711820E+03 -0.11149445985E+04 -0.19411255060E+04  0.22577106130E+04  0.00000000000E+00 0.  1.
<mgrwt>
<rscale>  0 0.44237931E+04</rscale>
<asrwt>0</asrwt>
<pdfrwt beam="1">  1        2 0.33208339E+00 0.44237931E+04</pdfrwt>
<pdfrwt beam="2">  1       -2 0.34870307E+00 0.44237931E+04</pdfrwt>
<totfact> 0.65850981E-02</totfact>
</mgrwt>
</event>
<event>
 6    1  0.3017327E-006  0.1646319E+04  0.7818608E-02  0.8792587E-01
          2   -1    0    0  501    0  0.00000000000E+00  0.00000000000E+00  0.94454470334E+03  0.94454470334E+03  0.00000000000E+00 0. -1.
         -2   -1    0    0    0  501 -0.00000000000E+00 -0.00000000000E+00 -0.71737414809E+03  0.71737414809E+03  0.00000000000E+00 0.  1.
         23    2    1    2    0    0  0.41185974860E+03  0.70907423519E+03  0.14711756040E+03  0.83801157174E+03  0.90581975450E+02 0.  0.
         11    1    3    3    0    0  0.28673510298E+03  0.56610757317E+03  0.10183901854E+03  0.64270210003E+03  0.00000000000E+00 0. -1.
        -11    1    3    3    0    0  0.12512464562E+03  0.14296666201E+03  0.45278541853E+02  0.19530947171E+03  0.00000000000E+00 0.  1.
         22    1    1    2    0    0 -0.41185974860E+03 -0.70907423519E+03  0.80052994856E+02  0.82390727968E+03  0.00000000000E+00 0. -1.
<mgrwt>
<rscale>  0 0.16463195E+04</rscale>
<asrwt>0</asrwt>
<pdfrwt beam="1">  1        2 0.14531457E+00 0.16463195E+04</pdfrwt>
<pdfrwt beam="2">  1       -2 0.11036525E+00 0.16463195E+04</pdfrwt>
<totfact> 0.17051104E+01</totfact>
</mgrwt>
</event>
<event>
 6    1  0.3017327E-006  0.2223869E+04  0.7818608E-02  0.8508559E-01
          2   -1    0    0  501    0  0.00000000000E+00  0.00000000000E+00  0.19122009843E+04  0.19122009843E+04  0.00000000000E+00 0. -1.
         -2   -1    0    0    0  501 -0.00000000000E+00 -0.00000000000E+00 -0.64658384398E+03  0.64658384398E+03  0.00000000000E+00 0.  1.
         23    2    1    2    0    0  0.90967563702E+03 -0.43548811279E+03  0.10035631135E+03  0.10176837737E+04  0.91919600621E+02 0.  0.
         13    1    3    3    0    0  0.16526336576E+03 -0.11257867930E+03  0.40684796461E+02  0.20406173517E+03  0.00000000000E+00 0. -1.
        -13    1    3    3    0    0  0.74441227126E+03 -0.32290943349E+03  0.59671514888E+02  0.81362203849E+03  0.00000000000E+00 0.  1.
         22    1    1    2    0    0 -0.90967563702E+03  0.43548811279E+03  0.11652608290E+04  0.15411010546E+04  0.00000000000E+00 0. -1.
<mgrwt>
<rscale>  0 0.22238689E+04</rscale>
<asrwt>0</asrwt>
<pdfrwt beam="1">  1        2 0.29418476E+00 0.22238689E+04</pdfrwt>
<pdfrwt beam="2">  1       -2 0.99474439E-01 0.22238689E+04</pdfrwt>
<totfact> 0.57038435E+00</totfact>
</mgrwt>
</event>
<event>
 6    1  0.3017327E-006  0.1701839E+04  0.7818608E-02  0.8760316E-01
         -2   -1    0    0    0  501 -0.00000000000E+00  0.00000000000E+00  0.78017437782E+03  0.78017437782E+03  0.00000000000E+00 0.  1.
          2   -1    0    0  501    0  0.00000000000E+00 -0.00000000000E+00 -0.92807977844E+03  0.92807977844E+03  0.00000000000E+00 0. -1.
         23    2    1    2    0    0 -0.42501052314E+02 -0.82543245717E+03  0.11830133450E+03  0.83991602706E+03  0.91206611441E+02 0.  0.
         13    1    3    3    0    0  0.17813736640E+02 -0.51230487884E+03  0.68687582147E+02  0.51719590296E+03  0.00000000000E+00 0.  1.
        -13    1    3    3    0    0 -0.60314788953E+02 -0.31312757833E+03  0.49613752352E+02  0.32272012410E+03  0.00000000000E+00 0. -1.
         22    1    1    2    0    0  0.42501052314E+02  0.82543245717E+03 -0.26620673512E+03  0.86833812920E+03  0.00000000000E+00 0. -1.
<mgrwt>
<rscale>  0 0.17018391E+04</rscale>
<asrwt>0</asrwt>
<pdfrwt beam="1">  1        2 0.14278150E+00 0.17018391E+04</pdfrwt>
<pdfrwt beam="2">  1       -2 0.12002683E+00 0.17018391E+04</pdfrwt>
<totfact> 0.14175539E+01</totfact>
</mgrwt>
</event>
<event>
 6    1  0.3017327E-006  0.5245317E+04  0.7818608E-02  0.7791740E-01
         -2   -1    0    0    0  501 -0.00000000000E+00  0.00000000000E+00  0.23688442008E+04  0.23688442008E+04  0.00000000000E+00 0.  1.
          2   -1    0    0  501    0  0.00000000000E+00 -0.00000000000E+00 -0.29036682232E+04  0.29036682232E+04  0.00000000000E+00 0. -1.
         23    2    1    2    0    0  0.13509470532E+04 -0.17486064771E+04  0.11507396781E+04  0.24933385286E+04  0.99260563152E+02 0.  0.
         13    1    3    3    0    0  0.56327627033E+03 -0.80947105366E+03  0.50819795237E+03  0.11094091681E+04  0.00000000000E+00 0. -1.
        -13    1    3    3    0    0  0.78767078283E+03 -0.93913542345E+03  0.64254172572E+03  0.13839293606E+04  0.00000000000E+00 0.  1.
         22    1    1    2    0    0 -0.13509470532E+04  0.17486064771E+04 -0.16855637005E+04  0.27791738954E+04  0.00000000000E+00 0. -1.
<mgrwt>
<rscale>  0 0.52453170E+04</rscale>
<asrwt>0</asrwt>
<pdfrwt beam="1">  1        2 0.44671819E+00 0.52453170E+04</pdfrwt>
<pdfrwt beam="2">  1       -2 0.36443757E+00 0.52453170E+04</pdfrwt>
<totfact> 0.17980247E-02</totfact>
</mgrwt>
</event>
<event>
 6    1  0.3017327E-006  0.3016709E+04  0.7818608E-02  0.8238976E-01
         -2   -1    0    0    0  501 -0.00000000000E+00  0.00000000000E+00  0.35777058395E+04  0.35777058395E+04  0.00000000000E+00 0.  1.
          2   -1    0    0  501    0  0.00000000000E+00 -0.00000000000E+00 -0.63591970378E+03  0.63591970378E+03  0.00000000000E+00 0. -1.
         23    2    1    2    0    0  0.85546988205E+02  0.12683413193E+04  0.26021035697E+04  0.28978017575E+04  0.10150886312E+03 0.  0.
         11    1    3    3    0    0  0.78105574629E+02  0.47158935071E+03  0.93790586467E+03  0.10526938812E+04  0.00000000000E+00 0.  1.
        -11    1    3    3    0    0  0.74414135760E+01  0.79675196859E+03  0.16641977050E+04  0.18451078764E+04  0.00000000000E+00 0. -1.
         22    1    1    2    0    0 -0.85546988205E+02 -0.12683413193E+04  0.33968256606E+03  0.13158237857E+04  0.00000000000E+00 0. -1.
<mgrwt>
<rscale>  0 0.30167092E+04</rscale>
<asrwt>0</asrwt>
<pdfrwt beam="1">  1        2 0.97833803E-01 0.30167092E+04</pdfrwt>
<pdfrwt beam="2">  1       -2 0.55041627E+00 0.30167092E+04</pdfrwt>
<totfact> 0.33290674E-02</totfact>
</mgrwt>
</event>
<event>
 6    1  0.3017327E-006  0.1289902E+04  0.7818608E-02  0.9037612E-01
         -2   -1    0    0    0  501 -0.00000000000E+00  0.00000000000E+00  0.15130450776E+03  0.15130450776E+03  0.00000000000E+00 0.  1.
          2   -1    0    0  501    0  0.00000000000E+00 -0.00000000000E+00 -0.27491682238E+04  0.27491682238E+04  0.00000000000E+00 0. -1.
         23    2    1    2    0    0  0.56462157995E+02 -0.61036069145E+03 -0.87794315353E+03  0.10745880445E+04  0.90703559511E+02 0.  0.
         13    1    3    3    0    0 -0.60161005649E+00 -0.29791465167E+03 -0.48687203636E+03  0.57078707185E+03  0.00000000000E+00 0. -1.
        -13    1    3    3    0    0  0.57063768051E+02 -0.31244603978E+03 -0.39107111717E+03  0.50380097269E+03  0.00000000000E+00 0.  1.
         22    1    1    2    0    0 -0.56462157995E+02  0.61036069145E+03 -0.17199205626E+04  0.18258846871E+04  0.00000000000E+00 0. -1.
<mgrwt>
<rscale>  0 0.12899016E+04</rscale>
<asrwt>0</asrwt>
<pdfrwt beam="1">  1        2 0.42294897E+00 0.12899016E+04</pdfrwt>
<pdfrwt beam="2">  1       -2 0.23277616E-01 0.12899016E+04</pdfrwt>
<totfact> 0.40041409E+01</totfact>
</mgrwt>
</event>
<event>
 6    1  0.3017327E-006  0.1180340E+04  0.7818608E-02  0.9130241E-01
         -2   -1    0    0    0  501 -0.00000000000E+00  0.00000000000E+00  0.26996943904E+03  0.26996943904E+03  0.00000000000E+00 0.  1.
          2   -1    0    0  501    0  0.00000000000E+00 -0.00000000000E+00 -0.12901480809E+04  0.12901480809E+04  0.00000000000E+00 0. -1.
         23    2    1    2    0    0  0.38633477267E+03 -0.44044243204E+03 -0.47180086111E+03  0.75764491422E+03  0.90474697994E+02 0.  0.
         11    1    3    3    0    0  0.29634462636E+03 -0.31778836542E+03 -0.39502546565E+03  0.58724330671E+03  0.00000000000E+00 0. -1.
        -11    1    3    3    0    0  0.89990146310E+02 -0.12265406662E+03 -0.76775395463E+02  0.17040160750E+03  0.00000000000E+00 0.  1.
         22    1    1    2    0    0 -0.38633477267E+03  0.44044243204E+03 -0.54837778073E+03  0.80247260571E+03  0.00000000000E+00 0. -1.
<mgrwt>
<rscale>  0 0.11803399E+04</rscale>
<asrwt>0</asrwt>
<pdfrwt beam="1">  1        2 0.19848432E+00 0.11803399E+04</pdfrwt>
<pdfrwt beam="2">  1       -2 0.41533760E-01 0.11803399E+04</pdfrwt>
<totfact> 0.90846376E+01</totfact>
</mgrwt>
</event>
<event>
 6    1  0.3017327E-006  0.1866490E+04  0.7818608E-02  0.8671719E-01
          2   -1    0    0  501    0  0.00000000000E+00  0.00000000000E+00  0.20898898487E+04  0.20898898487E+04  0.00000000000E+00 0. -1.
         -2   -1    0    0    0  501 -0.00000000000E+00 -0.00000000000E+00 -0.41674249928E+03  0.41674249928E+03  0.00000000000E+00 0.  1.
         23    2    1    2    0    0  0.73238824819E+03  0.48769467865E+03  0.12474345137E+04  0.15291508575E+04  0.89279523869E+02 0.  0.
         13    1    3    3    0    0  0.33020514475E+03  0.19987656386E+03  0.47650462214E+03  0.61322323286E+03  0.00000000000E+00 0. -1.
        -13    1    3    3    0    0  0.40218310344E+03  0.28781811479E+03  0.77092989156E+03  0.91592762465E+03  0.00000000000E+00 0.  1.
         22    1    1    2    0    0 -0.73238824819E+03 -0.48769467865E+03  0.42571283567E+03  0.97748149043E+03  0.00000000000E+00 0.  1.
<mgrwt>
<rscale>  0 0.18664897E+04</rscale>
<asrwt>0</asrwt>
<pdfrwt beam="1">  1        2 0.32152151E+00 0.18664897E+04</pdfrwt>
<pdfrwt beam="2">  1       -2 0.64114232E-01 0.18664897E+04</pdfrwt>
<totfact> 0.12569759E+01</totfact>
</mgrwt>
</event>
<event>
 6    1  0.3017327E-006  0.1866670E+04  0.7818608E-02  0.8671627E-01
          2   -1    0    0  501    0  0.00000000000E+00  0.00000000000E+00  0.21266516260E+04  0.21266516260E+04  0.00000000000E+00 0.  1.
         -2   -1    0    0    0  501 -0.00000000000E+00 -0.00000000000E+00 -0.40961774969E+03  0.40961774969E+03  0.00000000000E+00 0. -1.
         23    2    1    2    0    0 -0.31228609294E+03  0.74240642463E+03  0.22476928947E+03  0.84052661798E+03  0.85286920856E+02 0.  0.
         13    1    3    3    0    0 -0.14818875502E+03  0.24902809190E+03  0.88939538029E+02  0.30312561603E+03  0.00000000000E+00 0. -1.
        -13    1    3    3    0    0 -0.16409733793E+03  0.49337833273E+03  0.13582975144E+03  0.53740100195E+03  0.00000000000E+00 0.  1.
         22    1    1    2    0    0  0.31228609294E+03 -0.74240642463E+03  0.14922645868E+04  0.16957427577E+04  0.00000000000E+00 0.  1.
<mgrwt>
<rscale>  0 0.18666700E+04</rscale>
<asrwt>0</asrwt>
<pdfrwt beam="1">  1        2 0.32717717E+00 0.18666700E+04</pdfrwt>
<pdfrwt beam="2">  1       -2 0.63018116E-01 0.18666700E+04</pdfrwt>
<totfact> 0.12439887E+01</totfact>
</mgrwt>
</event>
<event>
 6    1  0.3017327E-006  0.1402145E+04  0.7818608E-02  0.8952268E-01
         -2   -1    0    0    0  501 -0.00000000000E+00  0.00000000000E+00  0.62826412891E+03  0.62826412891E+03  0.00000000000E+00 0.  1.
          2   -1    0    0  501    0  0.00000000000E+00 -0.00000000000E+00 -0.78231798504E+03  0.78231798504E+03  0.00000000000E+00 0. -1.
         23    2    1    2    0    0 -0.36670300618E+03 -0.59247960777E+03 -0.12403445500E+03  0.71315516809E+03  0.87764271673E+02 0.  0.
         13    1    3    3    0    0 -0.16283341396E+03 -0.34543739486E+03 -0.73233069692E+02  0.38885061009E+03  0.00000000000E+00 0.  1.
        -13    1    3    3    0    0 -0.20386959222E+03 -0.24704221291E+03 -0.50801385305E+02  0.32430455800E+03  0.00000000000E+00 0. -1.
         22    1    1    2    0    0  0.36670300618E+03  0.59247960777E+03 -0.30019401133E+02  0.69742694586E+03  0.00000000000E+00 0. -1.
<mgrwt>
<rscale>  0 0.14021445E+04</rscale>
<asrwt>0</asrwt>
<pdfrwt beam="1">  1        2 0.12035661E+00 0.14021445E+04</pdfrwt>
<pdfrwt beam="2">  1       -2 0.96656020E-01 0.14021445E+04</pdfrwt>
<totfact> 0.30913640E+01</totfact>
</mgrwt>
</event>
<event>
 6    1  0.3017327E-006  0.3609605E+04  0.7818608E-02  0.8088295E-01
          2   -1    0    0  501    0  0.00000000000E+00  0.00000000000E+00  0.17427275290E+04  0.17427275290E+04  0.00000000000E+00 0. -1.
         -2   -1    0    0    0  501 -0.00000000000E+00 -0.00000000000E+00 -0.18690882947E+04  0.18690882947E+04  0.00000000000E+00 0.  1.
         23    2    1    2    0    0 -0.90149875894E+03 -0.21502832297E+03 -0.16116825748E+04  0.18610679638E+04  0.84356693387E+02 0.  0.
         11    1    3    3    0    0 -0.55567554103E+03 -0.17233756073E+03 -0.98189972318E+03  0.11413161736E+04  0.00000000000E+00 0. -1.
        -11    1    3    3    0    0 -0.34582321791E+03 -0.42690762248E+02 -0.62978285165E+03  0.71975179017E+03  0.00000000000E+00 0.  1.
         22    1    1    2    0    0  0.90149875894E+03  0.21502832297E+03  0.14853218092E+04  0.17507478599E+04  0.00000000000E+00 0. -1.
<mgrwt>
<rscale>  0 0.36096048E+04</rscale>
<asrwt>0</asrwt>
<pdfrwt beam="1">  1        2 0.26811193E+00 0.36096048E+04</pdfrwt>
<pdfrwt beam="2">  1       -2 0.28755205E+00 0.36096048E+04</pdfrwt>
<totfact> 0.28635570E-01</totfact>
</mgrwt>
</event>
<event>
 6    1  0.3017327E-006  0.3417899E+04  0.7818608E-02  0.8133527E-01
         -1   -1    0    0    0  501 -0.00000000000E+00  0.00000000000E+00  0.68059302955E+03  0.68059302955E+03  0.00000000000E+00 0.  1.
          1   -1    0    0  501    0  0.00000000000E+00 -0.00000000000E+00 -0.42911220126E+04  0.42911220126E+04  0.00000000000E+00 0. -1.
         23    2    1    2    0    0  0.48697106005E+03 -0.10106457981E+04 -0.36793920950E+04  0.38477542462E+04  0.93492289011E+02 0.  0.
         11    1    3    3    0    0  0.22276540152E+03 -0.47876518830E+03 -0.15748462714E+04  0.16610181540E+04  0.00000000000E+00 0. -1.
        -11    1    3    3    0    0  0.26420565853E+03 -0.53188060977E+03 -0.21045458237E+04  0.21867360922E+04  0.00000000000E+00 0.  1.
         22    1    1    2    0    0 -0.48697106005E+03  0.10106457981E+04  0.68863111995E+02  0.11239607959E+04  0.00000000000E+00 0.  1.
<mgrwt>
<rscale>  0 0.34178986E+04</rscale>
<asrwt>0</asrwt>
<pdfrwt beam="1">  1        1 0.66017261E+00 0.34178986E+04</pdfrwt>
<pdfrwt beam="2">  1       -1 0.10470662E+00 0.34178986E+04</pdfrwt>
<totfact> 0.36417860E-02</totfact>
</mgrwt>
</event>
<event>
 6    1  0.3017327E-006  0.2480241E+04  0.7818608E-02  0.8410059E-01
         -2   -1    0    0    0  501 -0.00000000000E+00  0.00000000000E+00  0.98128208969E+03  0.98128208969E+03  0.00000000000E+00 0.  1.
          2   -1    0    0  501    0  0.00000000000E+00 -0.00000000000E+00 -0.15672344048E+04  0.15672344048E+04  0.00000000000E+00 0. -1.
         23    2    1    2    0    0  0.93116745142E+03 -0.24169430347E+03  0.50829043901E+03  0.10915140361E+04  0.86918131678E+02 0.  0.
         11    1    3    3    0    0  0.22650283811E+03 -0.33334762745E+02  0.90158762445E+02  0.24605557202E+03  0.00000000000E+00 0.  1.
        -11    1    3    3    0    0  0.70466461332E+03 -0.20835954072E+03  0.41813167656E+03  0.84545846404E+03  0.00000000000E+00 0. -1.
         22    1    1    2    0    0 -0.93116745142E+03  0.24169430347E+03 -0.10942427541E+04  0.14570024584E+04  0.00000000000E+00 0. -1.
<mgrwt>
<rscale>  0 0.24802412E+04</rscale>
<asrwt>0</asrwt>
<pdfrwt beam="1">  1        2 0.24111298E+00 0.24802412E+04</pdfrwt>
<pdfrwt beam="2">  1       -2 0.15096648E+00 0.24802412E+04</pdfrwt>
<totfact> 0.30617129E+00</totfact>
</mgrwt>
</event>
<event>
 6    1  0.3017327E-006  0.2317807E+04  0.7818608E-02  0.8470933E-01
          2   -1    0    0  501    0  0.00000000000E+00  0.00000000000E+00  0.12864841803E+04  0.12864841803E+04  0.00000000000E+00 0. -1.
         -2   -1    0    0    0  501 -0.00000000000E+00 -0.00000000000E+00 -0.10439752109E+04  0.10439752109E+04  0.00000000000E+00 0.  1.
         23    2    1    2    0    0 -0.21913096232E+03  0.15288157540E+03 -0.10106459897E+04  0.10491364395E+04  0.88830160735E+02 0.  0.
         13    1    3    3    0    0 -0.74133431791E+02  0.32875711046E+02 -0.46302280144E+03  0.47007094437E+03  0.00000000000E+00 0. -1.
        -13    1    3    3    0    0 -0.14499753052E+03  0.12000586435E+03 -0.54762318828E+03  0.57906549515E+03  0.00000000000E+00 0.  1.
         22    1    1    2    0    0  0.21913096232E+03 -0.15288157540E+03  0.12531549591E+04  0.12813229516E+04  0.00000000000E+00 0. -1.
<mgrwt>
<rscale>  0 0.23178072E+04</rscale>
<asrwt>0</asrwt>
<pdfrwt beam="1">  1        2 0.19792064E+00 0.23178072E+04</pdfrwt>
<pdfrwt beam="2">  1       -2 0.16061157E+00 0.23178072E+04</pdfrwt>
<totfact> 0.37996525E+00</totfact>
</mgrwt>
</event>
<event>
 6    1  0.3017327E-006  0.1385455E+04  0.7818608E-02  0.8964414E-01
          2   -1    0    0  501    0  0.00000000000E+00  0.00000000000E+00  0.87771085794E+03  0.87771085794E+03  0.00000000000E+00 0. -1.
         -2   -1    0    0    0  501 -0.00000000000E+00 -0.00000000000E+00 -0.54673090823E+03  0.54673090823E+03  0.00000000000E+00 0.  1.
         23    2    1    2    0    0 -0.59812682451E+03  0.31919555078E+03  0.35714387659E+02  0.68496678352E+03  0.90898180382E+02 0.  0.
         11    1    3    3    0    0 -0.41642810273E+03  0.20673864641E+03 -0.15686108201E+02  0.46518736725E+03  0.00000000000E+00 0.  1.
        -11    1    3    3    0    0 -0.18169872178E+03  0.11245690437E+03  0.51400495860E+02  0.21977941626E+03  0.00000000000E+00 0. -1.
         22    1    1    2    0    0  0.59812682451E+03 -0.31919555078E+03  0.29526556205E+03  0.73947498265E+03  0.00000000000E+00 0. -1.
<mgrwt>
<rscale>  0 0.13854554E+04</rscale>
<asrwt>0</asrwt>
<pdfrwt beam="1">  1        2 0.13503244E+00 0.13854554E+04</pdfrwt>
<pdfrwt beam="2">  1       -2 0.84112447E-01 0.13854554E+04</pdfrwt>
<totfact> 0.36523594E+01</totfact>
</mgrwt>
</event>
<event>
 6    1  0.3017327E-006  0.1384782E+04  0.7818608E-02  0.8964908E-01
         -2   -1    0    0    0  501 -0.00000000000E+00  0.00000000000E+00  0.46018005593E+03  0.46018005593E+03  0.00000000000E+00 0.  1.
          2   -1    0    0  501    0  0.00000000000E+00 -0.00000000000E+00 -0.10417774481E+04  0.10417774481E+04  0.00000000000E+00 0. -1.
         23    2    1    2    0    0 -0.27504665002E+03 -0.60969693806E+03 -0.47262183524E+03  0.82427270416E+03  0.93129349325E+02 0.  0.
         11    1    3    3    0    0 -0.12134846422E+03 -0.25892682207E+03 -0.14666660023E+03  0.32137149932E+03  0.00000000000E+00 0. -1.
        -11    1    3    3    0    0 -0.15369818580E+03 -0.35077011599E+03 -0.32595523501E+03  0.50290120483E+03  0.00000000000E+00 0.  1.
         22    1    1    2    0    0  0.27504665002E+03  0.60969693806E+03 -0.10897555692E+03  0.67768479987E+03  0.00000000000E+00 0.  1.
<mgrwt>
<rscale>  0 0.13847819E+04</rscale>
<asrwt>0</asrwt>
<pdfrwt beam="1">  1        2 0.16027345E+00 0.13847819E+04</pdfrwt>
<pdfrwt beam="2">  1       -2 0.70796932E-01 0.13847819E+04</pdfrwt>
<totfact> 0.41866866E+01</totfact>
</mgrwt>
</event>
<event>
 6    1  0.3017327E-006  0.1201002E+04  0.7818608E-02  0.9111980E-01
         -1   -1    0    0    0  501 -0.00000000000E+00  0.00000000000E+00  0.23644620368E+03  0.23644620368E+03  0.00000000000E+00 0. -1.
          1   -1    0    0  501    0  0.00000000000E+00 -0.00000000000E+00 -0.15250878900E+04  0.15250878900E+04  0.00000000000E+00 0.  1.
         23    2    1    2    0    0 -0.58843171183E+03  0.21692248427E+01 -0.79456672277E+03  0.99318088411E+03  0.93890396831E+02 0.  0.
         11    1    3    3    0    0 -0.23997857888E+03  0.71563848337E+01 -0.40212091872E+03  0.46833979698E+03  0.00000000000E+00 0. -1.
        -11    1    3    3    0    0 -0.34845313295E+03 -0.49871599909E+01 -0.39244580405E+03  0.52484108713E+03  0.00000000000E+00 0.  1.
         22    1    1    2    0    0  0.58843171183E+03 -0.21692248427E+01 -0.49407496352E+03  0.76835320953E+03  0.00000000000E+00 0.  1.
<mgrwt>
<rscale>  0 0.12010017E+04</rscale>
<asrwt>0</asrwt>
<pdfrwt beam="1">  1        1 0.23462891E+00 0.12010017E+04</pdfrwt>
<pdfrwt beam="2">  1       -1 0.36376338E-01 0.12010017E+04</pdfrwt>
<totfact> 0.45019586E+01</totfact>
</mgrwt>
</event>
<event>
 6    1  0.3017327E-006  0.1757925E+04  0.7818608E-02  0.8729000E-01
         -1   -1    0    0    0  501 -0.00000000000E+00  0.00000000000E+00  0.35459411518E+03  0.35459411518E+03  0.00000000000E+00 0.  1.
          1   -1    0    0  501    0  0.00000000000E+00 -0.00000000000E+00 -0.21787592199E+04  0.21787592199E+04  0.00000000000E+00 0. -1.
         23    2    1    2    0    0  0.74635133478E+03 -0.11255735773E+03 -0.27207775242E+03  0.80746671571E+03  0.90921504104E+02 0.  0.
         13    1    3    3    0    0  0.63598962772E+03 -0.12306129348E+03 -0.25045334408E+03  0.69451693002E+03  0.00000000000E+00 0.  1.
        -13    1    3    3    0    0  0.11036170706E+03  0.10503935748E+02 -0.21624408334E+02  0.11294978569E+03  0.00000000000E+00 0. -1.
         22    1    1    2    0    0 -0.74635133478E+03  0.11255735773E+03 -0.15520873523E+04  0.17258866193E+04  0.00000000000E+00 0. -1.
<mgrwt>
<rscale>  0 0.17579251E+04</rscale>
<asrwt>0</asrwt>
<pdfrwt beam="1">  1        1 0.33519373E+00 0.17579251E+04</pdfrwt>
<pdfrwt beam="2">  1       -1 0.54552941E-01 0.17579251E+04</pdfrwt>
<totfact> 0.72437585E+00</totfact>
</mgrwt>
</event>
<event>
 6    1  0.3017327E-006  0.1234015E+04  0.7818608E-02  0.9083593E-01
          2   -1    0    0  501    0  0.00000000000E+00  0.00000000000E+00  0.10900742103E+04  0.10900742103E+04  0.00000000000E+00 0. -1.
         -2   -1    0    0    0  501 -0.00000000000E+00 -0.00000000000E+00 -0.34924091470E+03  0.34924091470E+03  0.00000000000E+00 0.  1.
         23    2    1    2    0    0  0.31236534573E+03  0.51124185716E+03  0.52748348389E+03  0.80334461636E+03  0.90462153007E+02 0.  0.
         11    1    3    3    0    0  0.15979798313E+03  0.28913992975E+03  0.34651802928E+03  0.47876094139E+03  0.00000000000E+00 0. -1.
        -11    1    3    3    0    0  0.15256736260E+03  0.22210192741E+03  0.18096545461E+03  0.32458367496E+03  0.00000000000E+00 0.  1.
         22    1    1    2    0    0 -0.31236534573E+03 -0.51124185716E+03  0.21334981173E+03  0.63597050866E+03  0.00000000000E+00 0. -1.
<mgrwt>
<rscale>  0 0.12340154E+04</rscale>
<asrwt>0</asrwt>
<pdfrwt beam="1">  1        2 0.16770372E+00 0.12340154E+04</pdfrwt>
<pdfrwt beam="2">  1       -2 0.53729372E-01 0.12340154E+04</pdfrwt>
<totfact> 0.70993531E+01</totfact>
</mgrwt>
</event>
<event>
 6    1  0.3612708E-006  0.3965163E+04  0.7818608E-02  0.8011611E-01
         -2   -1    0    0    0  501 -0.00000000000E+00  0.00000000000E+00  0.24749254503E+04  0.24749254503E+04  0.00000000000E+00 0.  1.
          2   -1    0    0  501    0  0.00000000000E+00 -0.00000000000E+00 -0.15881812265E+04  0.15881812265E+04  0.00000000000E+00 0. -1.
         23    2    1    2    0    0 -0.18971386102E+04  0.25389777131E+03  0.96905706985E+03  0.21472845584E+04  0.90334852589E+02 0.  0.
         13    1    3    3    0    0 -0.12911828790E+04  0.19476453726E+03  0.70096234259E+03  0.14820373335E+04  0.00000000000E+00 0. -1.
        -13    1    3    3    0    0 -0.60595573122E+03  0.59133234046E+02  0.26809472726E+03  0.66524722499E+03  0.00000000000E+00 0.  1.
         22    1    1    2    0    0  0.18971386102E+04 -0.25389777131E+03 -0.82312846054E+02  0.19158221184E+04  0.00000000000E+00 0. -1.
<mgrwt>
<rscale>  0 0.39651634E+04</rscale>
<asrwt>0</asrwt>
<pdfrwt beam="1">  1        2 0.24433557E+00 0.39651634E+04</pdfrwt>
<pdfrwt beam="2">  1       -2 0.38075776E+00 0.39651634E+04</pdfrwt>
<totfact> 0.88642147E-02</totfact>
</mgrwt>
</event>
<event>
 6    1  0.3017327E-006  0.3592035E+04  0.7818608E-02  0.8092319E-01
         -2   -1    0    0    0  501 -0.00000000000E+00  0.00000000000E+00  0.11266266722E+04  0.11266266722E+04  0.00000000000E+00 0.  1.
          2   -1    0    0  501    0  0.00000000000E+00 -0.00000000000E+00 -0.28631307441E+04  0.28631307441E+04  0.00000000000E+00 0. -1.
         23    2    1    2    0    0 -0.62288403953E+03  0.15985098257E+04 -0.14546130691E+04  0.22511715751E+04  0.93038109179E+02 0.  0.
         11    1    3    3    0    0 -0.21056867194E+03  0.66612970046E+03 -0.58888783164E+03  0.91370499709E+03  0.00000000000E+00 0. -1.
        -11    1    3    3    0    0 -0.41231536759E+03  0.93238012529E+03 -0.86572523748E+03  0.13374665780E+04  0.00000000000E+00 0.  1.
         22    1    1    2    0    0  0.62288403953E+03 -0.15985098257E+04 -0.28189100274E+03  0.17385858412E+04  0.00000000000E+00 0.  1.
<mgrwt>
<rscale>  0 0.35920353E+04</rscale>
<asrwt>0</asrwt>
<pdfrwt beam="1">  1        2 0.44048165E+00 0.35920353E+04</pdfrwt>
<pdfrwt beam="2">  1       -2 0.17332718E+00 0.35920353E+04</pdfrwt>
<totfact> 0.34831893E-01</totfact>
</mgrwt>
</event>
<event>
 6    1  0.3017327E-006  0.1275138E+04  0.7818608E-02  0.9049517E-01
          1   -1    0    0  501    0  0.00000000000E+00  0.00000000000E+00  0.22573075138E+04  0.22573075138E+04  0.00000000000E+00 0. -1.
         -1   -1    0    0    0  501 -0.00000000000E+00 -0.00000000000E+00 -0.18007923908E+03  0.18007923908E+03  0.00000000000E+00 0.  1.
         23    2    1    2    0    0  0.13613123319E+03 -0.30100703568E+03  0.20789637857E+04  0.21070233769E+04  0.91214803712E+02 0.  0.
         11    1    3    3    0    0  0.12535004271E+02 -0.32313965392E+02  0.45720754745E+03  0.45851942177E+03  0.00000000000E+00 0. -1.
        -11    1    3    3    0    0  0.12359622892E+03 -0.26869307029E+03  0.16217562383E+04  0.16485039552E+04  0.00000000000E+00 0.  1.
         22    1    1    2    0    0 -0.13613123319E+03  0.30100703568E+03 -0.17355109895E+01  0.33036337597E+03  0.00000000000E+00 0.  1.
<mgrwt>
<rscale>  0 0.12751380E+04</rscale>
<asrwt>0</asrwt>
<pdfrwt beam="1">  1        1 0.34727806E+00 0.12751380E+04</pdfrwt>
<pdfrwt beam="2">  1       -1 0.27704500E-01 0.12751380E+04</pdfrwt>
<totfact> 0.23051064E+01</totfact>
</mgrwt>
</event>
<event>
 6    1  0.3017327E-006  0.2700107E+04  0.7818608E-02  0.8334970E-01
          1   -1    0    0  501    0  0.00000000000E+00  0.00000000000E+00  0.15400178440E+04  0.15400178440E+04  0.00000000000E+00 0. -1.
         -1   -1    0    0    0  501 -0.00000000000E+00 -0.00000000000E+00 -0.11835213094E+04  0.11835213094E+04  0.00000000000E+00 0.  1.
         23    2    1    2    0    0 -0.10206075241E+04 -0.87140232287E+03  0.44749342194E+02  0.13457989607E+04  0.90502002619E+02 0.  0.
         13    1    3    3    0    0 -0.62609433146E+03 -0.49703084251E+03 -0.74409013465E+01  0.79943050812E+03  0.00000000000E+00 0.  1.
        -13    1    3    3    0    0 -0.39451319265E+03 -0.37437148036E+03  0.52190243541E+02  0.54636845260E+03  0.00000000000E+00 0. -1.
         22    1    1    2    0    0  0.10206075241E+04  0.87140232287E+03  0.31174719239E+03  0.13777401927E+04  0.00000000000E+00 0. -1.
<mgrwt>
<rscale>  0 0.27001066E+04</rscale>
<asrwt>0</asrwt>
<pdfrwt beam="1">  1        1 0.23692582E+00 0.27001066E+04</pdfrwt>
<pdfrwt beam="2">  1       -1 0.18208020E+00 0.27001066E+04</pdfrwt>
<totfact> 0.10776134E+00</totfact>
</mgrwt>
</event>
<event>
 6    1  0.3569451E-006  0.1831762E+04  0.7818608E-02  0.8689589E-01
         -1   -1    0    0    0  501 -0.00000000000E+00  0.00000000000E+00  0.67838849612E+03  0.67838849612E+03  0.00000000000E+00 0.  1.
          1   -1    0    0  501    0  0.00000000000E+00 -0.00000000000E+00 -0.12365152907E+04  0.12365152907E+04  0.00000000000E+00 0. -1.
         23    2    1    2    0    0  0.28312311261E+03 -0.65350127531E+03  0.31867076072E+03  0.78530360680E+03  0.89039807928E+02 0.  0.
         13    1    3    3    0    0  0.11438069410E+03 -0.35968113941E+03  0.14270309495E+03  0.40350667719E+03  0.00000000000E+00 0. -1.
        -13    1    3    3    0    0  0.16874241851E+03 -0.29382013590E+03  0.17596766577E+03  0.38179692961E+03  0.00000000000E+00 0.  1.
         22    1    1    2    0    0 -0.28312311261E+03  0.65350127531E+03 -0.87679755527E+03  0.11296001800E+04  0.00000000000E+00 0. -1.
<mgrwt>
<rscale>  0 0.18317617E+04</rscale>
<asrwt>0</asrwt>
<pdfrwt beam="1">  1        1 0.19023312E+00 0.18317617E+04</pdfrwt>
<pdfrwt beam="2">  1       -1 0.10436746E+00 0.18317617E+04</pdfrwt>
<totfact> 0.81670609E+00</totfact>
</mgrwt>
</event>
<event>
 6    1  0.3017327E-006  0.1472236E+04  0.7818608E-02  0.8903129E-01
         -2   -1    0    0    0  501 -0.00000000000E+00  0.00000000000E+00  0.41556264463E+03  0.41556264463E+03  0.00000000000E+00 0. -1.
          2   -1    0    0  501    0  0.00000000000E+00 -0.00000000000E+00 -0.13039417092E+04  0.13039417092E+04  0.00000000000E+00 0.  1.
         23    2    1    2    0    0  0.50971835004E+03  0.50586522639E+03 -0.26964742999E+03  0.77159019145E+03  0.83242197314E+02 0.  0.
         11    1    3    3    0    0  0.15686238818E+03  0.10561983078E+03 -0.61569806474E+02  0.19887734549E+03  0.00000000000E+00 0. -1.
        -11    1    3    3    0    0  0.35285596185E+03  0.40024539561E+03 -0.20807762351E+03  0.57271284596E+03  0.00000000000E+00 0.  1.
         22    1    1    2    0    0 -0.50971835004E+03 -0.50586522639E+03 -0.61873163462E+03  0.94791416241E+03  0.00000000000E+00 0.  1.
<mgrwt>
<rscale>  0 0.14722357E+04</rscale>
<asrwt>0</asrwt>
<pdfrwt beam="1">  1        2 0.20060642E+00 0.14722357E+04</pdfrwt>
<pdfrwt beam="2">  1       -2 0.63932714E-01 0.14722357E+04</pdfrwt>
<totfact> 0.36015756E+01</totfact>
</mgrwt>
</event>
<event>
 6    1  0.3017327E-006  0.1911133E+04  0.7818608E-02  0.8649335E-01
         -2   -1    0    0    0  501 -0.00000000000E+00  0.00000000000E+00  0.38332950737E+03  0.38332950737E+03  0.00000000000E+00 0. -1.
          2   -1    0    0  501    0  0.00000000000E+00 -0.00000000000E+00 -0.23820425284E+04  0.23820425284E+04  0.00000000000E+00 0.  1.
         23    2    1    2    0    0 -0.43848456534E+03 -0.82683003725E+03 -0.12635345129E+04  0.15752442849E+04  0.94649180787E+02 0.  0.
         11    1    3    3    0    0 -0.83607066300E+02 -0.10326580956E+03 -0.21566249649E+03  0.25330669425E+03  0.00000000000E+00 0.  1.
        -11    1    3    3    0    0 -0.35487749904E+03 -0.72356422769E+03 -0.10478720164E+04  0.13219375907E+04  0.00000000000E+00 0. -1.
         22    1    1    2    0    0  0.43848456534E+03  0.82683003725E+03 -0.73517850820E+03  0.11901277509E+04  0.00000000000E+00 0. -1.
<mgrwt>
<rscale>  0 0.19111328E+04</rscale>
<asrwt>0</asrwt>
<pdfrwt beam="1">  1        2 0.36646808E+00 0.19111328E+04</pdfrwt>
<pdfrwt beam="2">  1       -2 0.58973771E-01 0.19111328E+04</pdfrwt>
<totfact> 0.10236732E+01</totfact>
</mgrwt>
</event>
<event>
 6    1  0.3017327E-006  0.3263357E+04  0.7818608E-02  0.8172282E-01
          2   -1    0    0  501    0  0.00000000000E+00  0.00000000000E+00  0.28146666809E+04  0.28146666809E+04  0.00000000000E+00 0. -1.
         -2   -1    0    0    0  501 -0.00000000000E+00 -0.00000000000E+00 -0.94589354197E+03  0.94589354197E+03  0.00000000000E+00 0.  1.
         23    2    1    2    0    0  0.38801180367E+03 -0.11441774368E+04 -0.32676111165E+03  0.12545542747E+04  0.86246376984E+02 0.  0.
         11    1    3    3    0    0  0.29416628253E+03 -0.93342454396E+03 -0.29152037926E+03  0.10211754563E+04  0.00000000000E+00 0.  1.
        -11    1    3    3    0    0  0.93845521141E+02 -0.21075289281E+03 -0.35240732394E+02  0.23337881842E+03  0.00000000000E+00 0. -1.
         22    1    1    2    0    0 -0.38801180367E+03  0.11441774368E+04  0.21955342506E+04  0.25060059481E+04  0.00000000000E+00 0. -1.
<mgrwt>
<rscale>  0 0.32633572E+04</rscale>
<asrwt>0</asrwt>
<pdfrwt beam="1">  1        2 0.43302564E+00 0.32633572E+04</pdfrwt>
<pdfrwt beam="2">  1       -2 0.14552208E+00 0.32633572E+04</pdfrwt>
<totfact> 0.61572454E-01</totfact>
</mgrwt>
</event>
<event>
 6    1  0.3017327E-006  0.1073635E+04  0.7818608E-02  0.9231277E-01
         -2   -1    0    0    0  501 -0.00000000000E+00  0.00000000000E+00  0.50602908090E+03  0.50602908090E+03  0.00000000000E+00 0.  1.
          2   -1    0    0  501    0  0.00000000000E+00 -0.00000000000E+00 -0.56947869879E+03  0.56947869879E+03  0.00000000000E+00 0. -1.
         23    2    1    2    0    0 -0.24336138607E+03  0.26881134780E+03  0.35954763000E+03  0.51836239771E+03  0.89111010463E+02 0.  0.
         11    1    3    3    0    0  0.10220057535E+00  0.12187920314E+02 -0.22236298597E+01  0.12389526879E+02  0.00000000000E+00 0. -1.
        -11    1    3    3    0    0 -0.24346358664E+03  0.25662342749E+03  0.36177125986E+03  0.50597287083E+03  0.00000000000E+00 0.  1.
         22    1    1    2    0    0  0.24336138607E+03 -0.26881134780E+03 -0.42299724789E+03  0.55714538198E+03  0.00000000000E+00 0. -1.
<mgrwt>
<rscale>  0 0.10736345E+04</rscale>
<asrwt>0</asrwt>
<pdfrwt beam="1">  1        2 0.87612107E-01 0.10736345E+04</pdfrwt>
<pdfrwt beam="2">  1       -2 0.77850628E-01 0.10736345E+04</pdfrwt>
<totfact> 0.77223828E+01</totfact>
</mgrwt>
</event>
<event>
 6    1  0.3017327E-006  0.3329243E+04  0.7818608E-02  0.8155494E-01
         -2   -1    0    0    0  501 -0.00000000000E+00  0.00000000000E+00  0.77779065558E+03  0.77779065558E+03  0.00000000000E+00 0.  1.
          2   -1    0    0  501    0  0.00000000000E+00 -0.00000000000E+00 -0.35626106100E+04  0.35626106100E+04  0.00000000000E+00 0. -1.
         23    2    1    2    0    0  0.82872014602E+03  0.67600245011E+03  0.26624277596E+03  0.11073314894E+04  0.10743099490E+03 0.  0.
         13    1    3    3    0    0  0.60844274797E+03  0.43822887855E+03  0.16512591677E+03  0.76779795255E+03  0.00000000000E+00 0.  1.
        -13    1    3    3    0    0  0.22027739805E+03  0.23777357156E+03  0.10111685919E+03  0.33953353684E+03  0.00000000000E+00 0. -1.
         22    1    1    2    0    0 -0.82872014602E+03 -0.67600245011E+03 -0.30510627304E+04  0.32330697762E+04  0.00000000000E+00 0. -1.
<mgrwt>
<rscale>  0 0.33292433E+04</rscale>
<asrwt>0</asrwt>
<pdfrwt beam="1">  1        2 0.54809393E+00 0.33292433E+04</pdfrwt>
<pdfrwt beam="2">  1       -2 0.11966010E+00 0.33292433E+04</pdfrwt>
<totfact> 0.32666903E-01</totfact>
</mgrwt>
</event>
<event>
 6    1  0.3017327E-006  0.2877811E+04  0.7818608E-02  0.8279510E-01
         -2   -1    0    0    0  501 -0.00000000000E+00  0.00000000000E+00  0.63299781695E+03  0.63299781695E+03  0.00000000000E+00 0.  1.
          2   -1    0    0  501    0  0.00000000000E+00 -0.00000000000E+00 -0.32708617449E+04  0.32708617449E+04  0.00000000000E+00 0. -1.
         23    2    1    2    0    0  0.49330464744E+02  0.86674640395E+03 -0.28745194527E+04  0.30040325446E+04  0.87559247324E+02 0.  0.
         11    1    3    3    0    0 -0.16746107461E+02  0.43772946119E+03 -0.14908473957E+04  0.15538704806E+04  0.00000000000E+00 0.  1.
        -11    1    3    3    0    0  0.66076572205E+02  0.42901694277E+03 -0.13836720570E+04  0.14501620640E+04  0.00000000000E+00 0. -1.
         22    1    1    2    0    0 -0.49330464744E+02 -0.86674640395E+03  0.23665552475E+03  0.89982701721E+03  0.00000000000E+00 0.  1.
<mgrwt>
<rscale>  0 0.28778105E+04</rscale>
<asrwt>0</asrwt>
<pdfrwt beam="1">  1        2 0.50320951E+00 0.28778105E+04</pdfrwt>
<pdfrwt beam="2">  1       -2 0.97384278E-01 0.28778105E+04</pdfrwt>
<totfact> 0.88509839E-01</totfact>
</mgrwt>
</event>
<event>
 6    1  0.3017327E-006  0.1911798E+04  0.7818608E-02  0.8649006E-01
         -2   -1    0    0    0  501 -0.00000000000E+00  0.00000000000E+00  0.34397789962E+03  0.34397789962E+03  0.00000000000E+00 0.  1.
          2   -1    0    0  501    0  0.00000000000E+00 -0.00000000000E+00 -0.26563996805E+04  0.26563996805E+04  0.00000000000E+00 0. -1.
         23    2    1    2    0    0 -0.86562437305E+03  0.11110681925E+03 -0.55473108806E+03  0.10379487656E+04  0.89223200178E+02 0.  0.
         13    1    3    3    0    0 -0.27647671994E+03  0.13394223786E+02 -0.13471920959E+03  0.30784419327E+03  0.00000000000E+00 0. -1.
        -13    1    3    3    0    0 -0.58914765311E+03  0.97712595463E+02 -0.42001187848E+03  0.73010457233E+03  0.00000000000E+00 0.  1.
         22    1    1    2    0    0  0.86562437305E+03 -0.11110681925E+03 -0.17576906929E+04  0.19624288146E+04  0.00000000000E+00 0. -1.
<mgrwt>
<rscale>  0 0.19117979E+04</rscale>
<asrwt>0</asrwt>
<pdfrwt beam="1">  1        2 0.40867686E+00 0.19117979E+04</pdfrwt>
<pdfrwt beam="2">  1       -2 0.52919678E-01 0.19117979E+04</pdfrwt>
<totfact> 0.88942054E+00</totfact>
</mgrwt>
</event>
<event>
 6    1  0.3017327E-006  0.2981411E+04  0.7818608E-02  0.8249059E-01
         -2   -1    0    0    0  501 -0.00000000000E+00  0.00000000000E+00  0.12214075510E+04  0.12214075510E+04  0.00000000000E+00 0.  1.
          2   -1    0    0  501    0  0.00000000000E+00 -0.00000000000E+00 -0.18193784273E+04  0.18193784273E+04  0.00000000000E+00 0. -1.
         23    2    1    2    0    0  0.14843585681E+04 -0.75802821732E+02 -0.39683881179E+03  0.15409458088E+04  0.89255345752E+02 0.  0.
         11    1    3    3    0    0  0.85032121153E+02 -0.11655630108E+02 -0.43750211563E+02  0.96334813815E+02  0.00000000000E+00 0. -1.
        -11    1    3    3    0    0  0.13993264470E+04 -0.64147191624E+02 -0.35308860023E+03  0.14446109950E+04  0.00000000000E+00 0.  1.
         22    1    1    2    0    0 -0.14843585681E+04  0.75802821732E+02 -0.20113206442E+03  0.14998401694E+04  0.00000000000E+00 0.  1.
<mgrwt>
<rscale>  0 0.29814108E+04</rscale>
<asrwt>0</asrwt>
<pdfrwt beam="1">  1        2 0.27990437E+00 0.29814108E+04</pdfrwt>
<pdfrwt beam="2">  1       -2 0.18790886E+00 0.29814108E+04</pdfrwt>
<totfact> 0.11556017E+00</totfact>
</mgrwt>
</event>
<event>
 6    1  0.3017327E-006  0.9967712E+03  0.7818608E-02  0.9312093E-01
         -2   -1    0    0    0  501 -0.00000000000E+00  0.00000000000E+00  0.37231710461E+03  0.37231710461E+03  0.00000000000E+00 0.  1.
          2   -1    0    0  501    0  0.00000000000E+00 -0.00000000000E+00 -0.66714158466E+03  0.66714158466E+03  0.00000000000E+00 0. -1.
         23    2    1    2    0    0 -0.28883725421E+03 -0.38619250740E+03 -0.26177137369E+03  0.55607052223E+03  0.90103060003E+02 0.  0.
         13    1    3    3    0    0 -0.21755271322E+03 -0.25974151267E+03 -0.14000156378E+03  0.36659961033E+03  0.00000000000E+00 0.  1.
        -13    1    3    3    0    0 -0.71284540997E+02 -0.12645099473E+03 -0.12176980991E+03  0.18947091190E+03  0.00000000000E+00 0. -1.
         22    1    1    2    0    0  0.28883725421E+03  0.38619250740E+03 -0.33053106364E+02  0.48338816704E+03  0.00000000000E+00 0.  1.
<mgrwt>
<rscale>  0 0.99677123E+03</rscale>
<asrwt>0</asrwt>
<pdfrwt beam="1">  1        2 0.10263717E+00 0.99677123E+03</pdfrwt>
<pdfrwt beam="2">  1       -2 0.57279555E-01 0.99677123E+03</pdfrwt>
<totfact> 0.12419783E+02</totfact>
</mgrwt>
</event>
<event>
 6    1  0.3017327E-006  0.1293579E+04  0.7818608E-02  0.9034673E-01
         -2   -1    0    0    0  501 -0.00000000000E+00  0.00000000000E+00  0.20838035200E+03  0.20838035200E+03  0.00000000000E+00 0.  1.
          2   -1    0    0  501    0  0.00000000000E+00 -0.00000000000E+00 -0.20075624103E+04  0.20075624103E+04  0.00000000000E+00 0. -1.
         23    2    1    2    0    0 -0.12021673109E+03 -0.52755290946E+03 -0.30682403933E+03  0.62852454661E+03  0.90210752528E+02 0.  0.
         13    1    3    3    0    0 -0.89514385168E+02 -0.31043204000E+03 -0.22832054128E+03  0.39561489631E+03  0.00000000000E+00 0. -1.
        -13    1    3    3    0    0 -0.30702345922E+02 -0.21712086946E+03 -0.78503498056E+02  0.23290965031E+03  0.00000000000E+00 0.  1.
         22    1    1    2    0    0  0.12021673109E+03  0.52755290946E+03 -0.14923580190E+04  0.15874182157E+04  0.00000000000E+00 0. -1.
<mgrwt>
<rscale>  0 0.12935789E+04</rscale>
<asrwt>0</asrwt>
<pdfrwt beam="1">  1        2 0.30885575E+00 0.12935789E+04</pdfrwt>
<pdfrwt beam="2">  1       -2 0.32058516E-01 0.12935789E+04</pdfrwt>
<totfact> 0.58794297E+01</totfact>
</mgrwt>
</event>
<event>
 6    1  0.3017327E-006  0.1438620E+04  0.7818608E-02  0.8926328E-01
         -2   -1    0    0    0  501 -0.00000000000E+00  0.00000000000E+00  0.42276152400E+03  0.42276152400E+03  0.00000000000E+00 0.  1.
          2   -1    0    0  501    0  0.00000000000E+00 -0.00000000000E+00 -0.12238748073E+04  0.12238748073E+04  0.00000000000E+00 0. -1.
         23    2    1    2    0    0 -0.33429757004E+03 -0.31540460317E+03  0.22709408947E+03  0.52038354864E+03  0.89400129680E+02 0.  0.
         13    1    3    3    0    0 -0.15099502395E+03 -0.99945137771E+02  0.12325724536E+03  0.21904537511E+03  0.00000000000E+00 0.  1.
        -13    1    3    3    0    0 -0.18330254608E+03 -0.21545946540E+03  0.10383684411E+03  0.30133817353E+03  0.00000000000E+00 0. -1.
         22    1    1    2    0    0  0.33429757004E+03  0.31540460317E+03 -0.10282073727E+04  0.11262527826E+04  0.00000000000E+00 0. -1.
<mgrwt>
<rscale>  0 0.14386204E+04</rscale>
<asrwt>0</asrwt>
<pdfrwt beam="1">  1        2 0.18828843E+00 0.14386204E+04</pdfrwt>
<pdfrwt beam="2">  1       -2 0.65040234E-01 0.14386204E+04</pdfrwt>
<totfact> 0.38788993E+01</totfact>
</mgrwt>
</event>
<event>
 6    1  0.3017327E-006  0.3558487E+04  0.7818608E-02  0.8100068E-01
          2   -1    0    0  501    0  0.00000000000E+00  0.00000000000E+00  0.15825839812E+04  0.15825839812E+04  0.00000000000E+00 0. -1.
         -2   -1    0    0    0  501 -0.00000000000E+00 -0.00000000000E+00 -0.20003406657E+04  0.20003406657E+04  0.00000000000E+00 0.  1.
         23    2    1    2    0    0  0.30683127701E+03 -0.14839040221E+04 -0.11453826326E+04  0.19019855939E+04  0.97628093913E+02 0.  0.
         13    1    3    3    0    0  0.10737762765E+02 -0.14383669658E+03 -0.13733188649E+03  0.19915908686E+03  0.00000000000E+00 0.  1.
        -13    1    3    3    0    0  0.29609351424E+03 -0.13400673256E+04 -0.10080507461E+04  0.17028265070E+04  0.00000000000E+00 0. -1.
         22    1    1    2    0    0 -0.30683127701E+03  0.14839040221E+04  0.72762594811E+03  0.16809390530E+04  0.00000000000E+00 0. -1.
<mgrwt>
<rscale>  0 0.35584868E+04</rscale>
<asrwt>0</asrwt>
<pdfrwt beam="1">  1        2 0.24347446E+00 0.35584868E+04</pdfrwt>
<pdfrwt beam="2">  1       -2 0.30774472E+00 0.35584868E+04</pdfrwt>
<totfact> 0.26570357E-01</totfact>
</mgrwt>
</event>
<event>
 6    1  0.3017327E-006  0.5179123E+04  0.7818608E-02  0.7801455E-01
         -2   -1    0    0    0  501 -0.00000000000E+00  0.00000000000E+00  0.13574734031E+04  0.13574734031E+04  0.00000000000E+00 0.  1.
          2   -1    0    0  501    0  0.00000000000E+00 -0.00000000000E+00 -0.49399346164E+04  0.49399346164E+04  0.00000000000E+00 0. -1.
         23    2    1    2    0    0  0.12387927396E+04 -0.22344191525E+04 -0.22993303004E+04  0.34384464352E+04  0.93582351624E+02 0.  0.
         11    1    3    3    0    0  0.47103284786E+03 -0.90039840106E+03 -0.86264570887E+03  0.13329466769E+04  0.00000000000E+00 0. -1.
        -11    1    3    3    0    0  0.76775989169E+03 -0.13340207514E+04 -0.14366845916E+04  0.21054997583E+04  0.00000000000E+00 0.  1.
         22    1    1    2    0    0 -0.12387927396E+04  0.22344191525E+04 -0.12831309129E+04  0.28589615843E+04  0.00000000000E+00 0.  1.
<mgrwt>
<rscale>  0 0.51791234E+04</rscale>
<asrwt>0</asrwt>
<pdfrwt beam="1">  1        2 0.75998993E+00 0.51791234E+04</pdfrwt>
<pdfrwt beam="2">  1       -2 0.20884206E+00 0.51791234E+04</pdfrwt>
<totfact> 0.33516057E-03</totfact>
</mgrwt>
</event>
<event>
 6    1  0.3217786E-006  0.3452570E+04  0.7818608E-02  0.8125123E-01
          2   -1    0    0  501    0  0.00000000000E+00  0.00000000000E+00  0.30996665156E+04  0.30996665156E+04  0.00000000000E+00 0. -1.
         -2   -1    0    0    0  501 -0.00000000000E+00 -0.00000000000E+00 -0.96141312687E+03  0.96141312687E+03  0.00000000000E+00 0.  1.
         23    2    1    2    0    0 -0.55766851423E+03 -0.14928178381E+04  0.29291760912E+03  0.16228910917E+04  0.92062479764E+02 0.  0.
         13    1    3    3    0    0 -0.38735170298E+03 -0.92019662665E+03  0.20134045348E+03  0.10184994608E+04  0.00000000000E+00 0. -1.
        -13    1    3    3    0    0 -0.17031681124E+03 -0.57262121148E+03  0.91577155647E+02  0.60439163087E+03  0.00000000000E+00 0.  1.
         22    1    1    2    0    0  0.55766851423E+03  0.14928178381E+04  0.18453357796E+04  0.24381885508E+04  0.00000000000E+00 0.  1.
<mgrwt>
<rscale>  0 0.34525701E+04</rscale>
<asrwt>0</asrwt>
<pdfrwt beam="1">  1        2 0.47687176E+00 0.34525701E+04</pdfrwt>
<pdfrwt beam="2">  1       -2 0.14790971E+00 0.34525701E+04</pdfrwt>
<totfact> 0.38586436E-01</totfact>
</mgrwt>
</event>
<event>
 6    1  0.3017327E-006  0.3881869E+04  0.7818608E-02  0.8028811E-01
          2   -1    0    0  501    0  0.00000000000E+00  0.00000000000E+00  0.19741160275E+04  0.19741160275E+04  0.00000000000E+00 0. -1.
         -2   -1    0    0    0  501 -0.00000000000E+00 -0.00000000000E+00 -0.19083108746E+04  0.19083108746E+04  0.00000000000E+00 0.  1.
         23    2    1    2    0    0 -0.54559330318E+03 -0.58594058040E+02 -0.18280342309E+04  0.19106934191E+04  0.89077923296E+02 0.  0.
         13    1    3    3    0    0 -0.14799397781E+03 -0.46324808966E+02 -0.42722939732E+03  0.45450320497E+03  0.00000000000E+00 0. -1.
        -13    1    3    3    0    0 -0.39759932537E+03 -0.12269249074E+02 -0.14008048336E+04  0.14561902142E+04  0.00000000000E+00 0.  1.
         22    1    1    2    0    0  0.54559330318E+03  0.58594058040E+02  0.18938393838E+04  0.19717334829E+04  0.00000000000E+00 0. -1.
<mgrwt>
<rscale>  0 0.38818692E+04</rscale>
<asrwt>0</asrwt>
<pdfrwt beam="1">  1        2 0.30371016E+00 0.38818692E+04</pdfrwt>
<pdfrwt beam="2">  1       -2 0.29358629E+00 0.38818692E+04</pdfrwt>
<totfact> 0.19136930E-01</totfact>
</mgrwt>
</event>
<event>
 6    1  0.3017327E-006  0.2278375E+04  0.7818608E-02  0.8486497E-01
         -2   -1    0    0    0  501 -0.00000000000E+00  0.00000000000E+00  0.87298440540E+03  0.87298440540E+03  0.00000000000E+00 0.  1.
          2   -1    0    0  501    0  0.00000000000E+00 -0.00000000000E+00 -0.14865650274E+04  0.14865650274E+04  0.00000000000E+00 0. -1.
         23    2    1    2    0    0  0.33399105226E+02 -0.94838780683E+03  0.34068368226E+03  0.10137503041E+04  0.10521109919E+03 0.  0.
         13    1    3    3    0    0  0.53636120312E+02 -0.34139723211E+03  0.93182423603E+02  0.35792718193E+03  0.00000000000E+00 0. -1.
        -13    1    3    3    0    0 -0.20237015085E+02 -0.60699057472E+03  0.24750125865E+03  0.65582312220E+03  0.00000000000E+00 0.  1.
         22    1    1    2    0    0 -0.33399105226E+02  0.94838780683E+03 -0.95426430430E+03  0.13457991287E+04  0.00000000000E+00 0. -1.
<mgrwt>
<rscale>  0 0.22783749E+04</rscale>
<asrwt>0</asrwt>
<pdfrwt beam="1">  1        2 0.22870231E+00 0.22783749E+04</pdfrwt>
<pdfrwt beam="2">  1       -2 0.13430529E+00 0.22783749E+04</pdfrwt>
<totfact> 0.46908059E+00</totfact>
</mgrwt>
</event>
<event>
 6    1  0.3017327E-006  0.3511500E+04  0.7818608E-02  0.8111070E-01
         -1   -1    0    0    0  501 -0.00000000000E+00  0.00000000000E+00  0.10364143742E+04  0.10364143742E+04  0.00000000000E+00 0.  1.
          1   -1    0    0  501    0  0.00000000000E+00 -0.00000000000E+00 -0.29743484139E+04  0.29743484139E+04  0.00000000000E+00 0. -1.
         23    2    1    2    0    0 -0.20785597277E+03 -0.17191342937E+04 -0.12923210693E+04  0.21626710877E+04  0.91791404644E+02 0.  0.
         13    1    3    3    0    0 -0.10034811232E+03 -0.11568002040E+04 -0.84299366145E+03  0.14348849323E+04  0.00000000000E+00 0. -1.
        -13    1    3    3    0    0 -0.10750786045E+03 -0.56233408970E+03 -0.44932740785E+03  0.72778615537E+03  0.00000000000E+00 0.  1.
         22    1    1    2    0    0  0.20785597277E+03  0.17191342937E+04 -0.64561297039E+03  0.18480917003E+04  0.00000000000E+00 0. -1.
<mgrwt>
<rscale>  0 0.35114997E+04</rscale>
<asrwt>0</asrwt>
<pdfrwt beam="1">  1        1 0.45759207E+00 0.35114997E+04</pdfrwt>
<pdfrwt beam="2">  1       -1 0.15944836E+00 0.35114997E+04</pdfrwt>
<totfact> 0.14997601E-01</totfact>
</mgrwt>
</event>
<event>
 6    1  0.3017327E-006  0.4657953E+04  0.7818608E-02  0.7883553E-01
         -2   -1    0    0    0  501 -0.00000000000E+00  0.00000000000E+00  0.17655566917E+04  0.17655566917E+04  0.00000000000E+00 0.  1.
          2   -1    0    0  501    0  0.00000000000E+00 -0.00000000000E+00 -0.30721932290E+04  0.30721932290E+04  0.00000000000E+00 0. -1.
         23    2    1    2    0    0  0.15309930126E+04 -0.89434109261E+03  0.91332397074E+03  0.19966215794E+04  0.92474110959E+02 0.  0.
         11    1    3    3    0    0  0.38841835862E+03 -0.20252839967E+03  0.26411530650E+03  0.51151096676E+03  0.00000000000E+00 0.  1.
        -11    1    3    3    0    0  0.11425746540E+04 -0.69181269294E+03  0.64920866425E+03  0.14851106126E+04  0.00000000000E+00 0. -1.
         22    1    1    2    0    0 -0.15309930126E+04  0.89434109261E+03 -0.22199605080E+04  0.28411283413E+04  0.00000000000E+00 0. -1.
<mgrwt>
<rscale>  0 0.46579529E+04</rscale>
<asrwt>0</asrwt>
<pdfrwt beam="1">  1        2 0.47264511E+00 0.46579529E+04</pdfrwt>
<pdfrwt beam="2">  1       -2 0.27162411E+00 0.46579529E+04</pdfrwt>
<totfact> 0.55517951E-02</totfact>
</mgrwt>
</event>
<event>
 6    1  0.3017327E-006  0.4480595E+04  0.7818608E-02  0.7914043E-01
          2   -1    0    0  501    0  0.00000000000E+00  0.00000000000E+00  0.13106201951E+04  0.13106201951E+04  0.00000000000E+00 0. -1.
         -2   -1    0    0    0  501 -0.00000000000E+00 -0.00000000000E+00 -0.38294332987E+04  0.38294332987E+04  0.00000000000E+00 0.  1.
         23    2    1    2    0    0  0.17971060815E+04 -0.85006358738E+03 -0.24424743862E+04  0.31505746751E+04  0.90781524438E+02 0.  0.
         13    1    3    3    0    0  0.12490606265E+04 -0.63200513567E+03 -0.17470974170E+04  0.22387345364E+04  0.00000000000E+00 0. -1.
        -13    1    3    3    0    0  0.54804545501E+03 -0.21805845172E+03 -0.69537696924E+03  0.91184013866E+03  0.00000000000E+00 0.  1.
         22    1    1    2    0    0 -0.17971060815E+04  0.85006358738E+03 -0.76338717384E+02  0.19894788188E+04  0.00000000000E+00 0. -1.
<mgrwt>
<rscale>  0 0.44805949E+04</rscale>
<asrwt>0</asrwt>
<pdfrwt beam="1">  1        2 0.20163387E+00 0.44805949E+04</pdfrwt>
<pdfrwt beam="2">  1       -2 0.58914359E+00 0.44805949E+04</pdfrwt>
<totfact> 0.69800239E-03</totfact>
</mgrwt>
</event>
<event>
 6    1  0.3017327E-006  0.1793619E+04  0.7818608E-02  0.8709700E-01
         -2   -1    0    0    0  501 -0.00000000000E+00  0.00000000000E+00  0.59556546335E+03  0.59556546335E+03  0.00000000000E+00 0.  1.
          2   -1    0    0  501    0  0.00000000000E+00 -0.00000000000E+00 -0.13504269412E+04  0.13504269412E+04  0.00000000000E+00 0. -1.
         23    2    1    2    0    0  0.59867941520E+03 -0.49390562038E+03 -0.86095103142E+03  0.11626567182E+04  0.90411071826E+02 0.  0.
         11    1    3    3    0    0  0.32299375725E+03 -0.31009317373E+03 -0.53819372280E+03  0.70009658397E+03  0.00000000000E+00 0. -1.
        -11    1    3    3    0    0  0.27568565794E+03 -0.18381244665E+03 -0.32275730862E+03  0.46256013426E+03  0.00000000000E+00 0.  1.
         22    1    1    2    0    0 -0.59867941520E+03  0.49390562038E+03  0.10608955361E+03  0.78333568628E+03  0.00000000000E+00 0.  1.
<mgrwt>
<rscale>  0 0.17936194E+04</rscale>
<asrwt>0</asrwt>
<pdfrwt beam="1">  1        2 0.20775799E+00 0.17936194E+04</pdfrwt>
<pdfrwt beam="2">  1       -2 0.91625457E-01 0.17936194E+04</pdfrwt>
<totfact> 0.14801111E+01</totfact>
</mgrwt>
</event>
<event>
 6    1  0.3017327E-006  0.1428708E+04  0.7818608E-02  0.8933297E-01
          1   -1    0    0  501    0  0.00000000000E+00  0.00000000000E+00  0.21475271151E+04  0.21475271151E+04  0.00000000000E+00 0. -1.
         -1   -1    0    0    0  501 -0.00000000000E+00 -0.00000000000E+00 -0.23762276052E+03  0.23762276052E+03  0.00000000000E+00 0.  1.
         23    2    1    2    0    0 -0.10086070800E+01 -0.64994237039E+03  0.47587203099E+03  0.81070559043E+03  0.91450873982E+02 0.  0.
         11    1    3    3    0    0  0.18573699890E+02 -0.48510228252E+03  0.39601979526E+03  0.62649891067E+03  0.00000000000E+00 0. -1.
        -11    1    3    3    0    0 -0.19582306970E+02 -0.16484008787E+03  0.79852235733E+02  0.18420667976E+03  0.00000000000E+00 0.  1.
         22    1    1    2    0    0  0.10086070800E+01  0.64994237039E+03  0.14340323236E+04  0.15744442852E+04  0.00000000000E+00 0. -1.
<mgrwt>
<rscale>  0 0.14287076E+04</rscale>
<asrwt>0</asrwt>
<pdfrwt beam="1">  1        1 0.33038877E+00 0.14287076E+04</pdfrwt>
<pdfrwt beam="2">  1       -1 0.36557349E-01 0.14287076E+04</pdfrwt>
<totfact> 0.16534305E+01</totfact>
</mgrwt>
</event>
<event>
 6    1  0.3017327E-006  0.2174161E+04  0.7818608E-02  0.8529260E-01
          2   -1    0    0  501    0  0.00000000000E+00  0.00000000000E+00  0.44537069358E+04  0.44537069358E+04  0.00000000000E+00 0.  1.
         -2   -1    0    0    0  501 -0.00000000000E+00 -0.00000000000E+00 -0.26533939626E+03  0.26533939626E+03  0.00000000000E+00 0. -1.
         23    2    1    2    0    0  0.71801023460E+03 -0.50840967954E+03  0.34768611271E+04  0.35875603736E+04  0.89482054128E+02 0.  0.
         11    1    3    3    0    0  0.19387671437E+03 -0.17767032517E+03  0.93999984238E+03  0.97609150621E+03  0.00000000000E+00 0.  1.
        -11    1    3    3    0    0  0.52413352023E+03 -0.33073935438E+03  0.25368612847E+04  0.26114688674E+04  0.00000000000E+00 0. -1.
         22    1    1    2    0    0 -0.71801023460E+03  0.50840967954E+03  0.71150641249E+03  0.11314859585E+04  0.00000000000E+00 0. -1.
<mgrwt>
<rscale>  0 0.21741609E+04</rscale>
<asrwt>0</asrwt>
<pdfrwt beam="1">  1        2 0.68518563E+00 0.21741609E+04</pdfrwt>
<pdfrwt beam="2">  1       -2 0.40821449E-01 0.21741609E+04</pdfrwt>
<totfact> 0.71880311E-01</totfact>
</mgrwt>
</event>
<event>
 6    1  0.3935229E-006  0.2666420E+04  0.7818608E-02  0.8345983E-01
         -2   -1    0    0    0  501 -0.00000000000E+00  0.00000000000E+00  0.11413311079E+04  0.11413311079E+04  0.00000000000E+00 0.  1.
          2   -1    0    0  501    0  0.00000000000E+00 -0.00000000000E+00 -0.15573471791E+04  0.15573471791E+04  0.00000000000E+00 0. -1.
         23    2    1    2    0    0 -0.12978246350E+04 -0.22646786898E+02  0.92117010914E+02  0.13047410972E+04  0.94879538684E+02 0.  0.
         11    1    3    3    0    0 -0.75368760326E+03 -0.54974260273E+02  0.32412682025E+02  0.75638466045E+03  0.00000000000E+00 0.  1.
        -11    1    3    3    0    0 -0.54413703169E+03  0.32327473375E+02  0.59704328890E+02  0.54835643671E+03  0.00000000000E+00 0. -1.
         22    1    1    2    0    0  0.12978246350E+04  0.22646786898E+02 -0.50813308212E+03  0.13939371898E+04  0.00000000000E+00 0. -1.
<mgrwt>
<rscale>  0 0.26664199E+04</rscale>
<asrwt>0</asrwt>
<pdfrwt beam="1">  1        2 0.23959187E+00 0.26664199E+04</pdfrwt>
<pdfrwt beam="2">  1       -2 0.17558940E+00 0.26664199E+04</pdfrwt>
<totfact> 0.20177441E+00</totfact>
</mgrwt>
</event>
<event>
 6    1  0.3017327E-006  0.3081694E+04  0.7818608E-02  0.8220780E-01
          1   -1    0    0  501    0  0.00000000000E+00  0.00000000000E+00  0.19461487740E+04  0.19461487740E+04  0.00000000000E+00 0. -1.
         -1   -1    0    0    0  501 -0.00000000000E+00 -0.00000000000E+00 -0.12199527645E+04  0.12199527645E+04  0.00000000000E+00 0.  1.
         23    2    1    2    0    0  0.50159664675E+03  0.10783921653E+03  0.18547063394E+04  0.19264386580E+04  0.89452808098E+02 0.  0.
         11    1    3    3    0    0  0.24452169801E+03  0.15891089318E+02  0.77931253207E+03  0.81692803242E+03  0.00000000000E+00 0. -1.
        -11    1    3    3    0    0  0.25707494873E+03  0.91948127209E+02  0.10753938073E+04  0.11095106256E+04  0.00000000000E+00 0.  1.
         22    1    1    2    0    0 -0.50159664675E+03 -0.10783921653E+03 -0.11285103299E+04  0.12396628805E+04  0.00000000000E+00 0.  1.
<mgrwt>
<rscale>  0 0.30816941E+04</rscale>
<asrwt>0</asrwt>
<pdfrwt beam="1">  1        1 0.29940750E+00 0.30816941E+04</pdfrwt>
<pdfrwt beam="2">  1       -1 0.18768504E+00 0.30816941E+04</pdfrwt>
<totfact> 0.50263141E-01</totfact>
</mgrwt>
</event>
<event>
 6    1  0.3017327E-006  0.2419141E+04  0.7818608E-02  0.8432372E-01
         -2   -1    0    0    0  501 -0.00000000000E+00  0.00000000000E+00  0.60016841438E+03  0.60016841438E+03  0.00000000000E+00 0.  1.
          2   -1    0    0  501    0  0.00000000000E+00 -0.00000000000E+00 -0.24377499098E+04  0.24377499098E+04  0.00000000000E+00 0. -1.
         23    2    1    2    0    0  0.75532091766E+02 -0.11979673402E+04 -0.75169652571E+03  0.14192840194E+04  0.92133684523E+02 0.  0.
         11    1    3    3    0    0  0.88284867629E+02 -0.11497341289E+04 -0.73080728913E+03  0.13651967180E+04  0.00000000000E+00 0.  1.
        -11    1    3    3    0    0 -0.12752775863E+02 -0.48233211332E+02 -0.20889236577E+02  0.54087301397E+02  0.00000000000E+00 0. -1.
         22    1    1    2    0    0 -0.75532091766E+02  0.11979673402E+04 -0.10858849697E+04  0.16186343047E+04  0.00000000000E+00 0. -1.
<mgrwt>
<rscale>  0 0.24191408E+04</rscale>
<asrwt>0</asrwt>
<pdfrwt beam="1">  1        2 0.37503845E+00 0.24191408E+04</pdfrwt>
<pdfrwt beam="2">  1       -2 0.92333601E-01 0.24191408E+04</pdfrwt>
<totfact> 0.33811825E+00</totfact>
</mgrwt>
</event>
<event>
 6    1  0.3017327E-006  0.6579168E+03  0.7818608E-02  0.9792036E-01
          2   -1    0    0  501    0  0.00000000000E+00  0.00000000000E+00  0.42680514008E+03  0.42680514008E+03  0.00000000000E+00 0.  1.
         -2   -1    0    0    0  501 -0.00000000000E+00 -0.00000000000E+00 -0.25354337858E+03  0.25354337858E+03  0.00000000000E+00 0. -1.
         23    2    1    2    0    0  0.59556637762E+02 -0.31674890329E+03  0.72396162712E+02  0.34263454225E+03  0.90996507251E+02 0.  0.
         13    1    3    3    0    0  0.15961676672E+02 -0.12845187616E+02  0.24448577542E+02  0.31898384142E+02  0.00000000000E+00 0.  1.
        -13    1    3    3    0    0  0.43594961089E+02 -0.30390371568E+03  0.47947585170E+02  0.31073615811E+03  0.00000000000E+00 0. -1.
         22    1    1    2    0    0 -0.59556637762E+02  0.31674890329E+03  0.10086559879E+03  0.33771397640E+03  0.00000000000E+00 0.  1.
<mgrwt>
<rscale>  0 0.65791676E+03</rscale>
<asrwt>0</asrwt>
<pdfrwt beam="1">  1        2 0.65662329E-01 0.65791676E+03</pdfrwt>
<pdfrwt beam="2">  1       -2 0.39006674E-01 0.65791676E+03</pdfrwt>
<totfact> 0.46263569E+02</totfact>
</mgrwt>
</event>
<event>
 6    1  0.3017327E-006  0.3289159E+04  0.7818608E-02  0.8165659E-01
         -2   -1    0    0    0  501 -0.00000000000E+00  0.00000000000E+00  0.82917234850E+03  0.82917234850E+03  0.00000000000E+00 0.  1.
          2   -1    0    0  501    0  0.00000000000E+00 -0.00000000000E+00 -0.32618567044E+04  0.32618567044E+04  0.00000000000E+00 0. -1.
         23    2    1    2    0    0  0.15177944209E+04 -0.51115540225E+03 -0.16750614449E+04  0.23193145655E+04  0.91703108906E+02 0.  0.
         11    1    3    3    0    0  0.14301468218E+04 -0.48382035640E+03 -0.15457825211E+04  0.21607511823E+04  0.00000000000E+00 0. -1.
        -11    1    3    3    0    0  0.87647599133E+02 -0.27335045855E+02 -0.12927892386E+03  0.15856338328E+03  0.00000000000E+00 0.  1.
         22    1    1    2    0    0 -0.15177944209E+04  0.51115540225E+03 -0.75762291097E+03  0.17717144874E+04  0.00000000000E+00 0.  1.
<mgrwt>
<rscale>  0 0.32891588E+04</rscale>
<asrwt>0</asrwt>
<pdfrwt beam="1">  1        2 0.50182412E+00 0.32891588E+04</pdfrwt>
<pdfrwt beam="2">  1       -2 0.12756497E+00 0.32891588E+04</pdfrwt>
<totfact> 0.44921544E-01</totfact>
</mgrwt>
</event>
<event>
 6    1  0.3017327E-006  0.3182831E+04  0.7818608E-02  0.8193366E-01
         -2   -1    0    0    0  501 -0.00000000000E+00  0.00000000000E+00  0.83617578237E+03  0.83617578237E+03  0.00000000000E+00 0.  1.
          2   -1    0    0  501    0  0.00000000000E+00 -0.00000000000E+00 -0.30287931914E+04  0.30287931914E+04  0.00000000000E+00 0. -1.
         23    2    1    2    0    0  0.14844704536E+04  0.50609311218E+03 -0.14183925497E+04  0.21159101129E+04  0.73860780954E+02 0.  0.
         13    1    3    3    0    0  0.10601107077E+04  0.39586708936E+03 -0.10143874168E+04  0.15197128993E+04  0.00000000000E+00 0.  1.
        -13    1    3    3    0    0  0.42435974591E+03  0.11022602283E+03 -0.40400513291E+03  0.59619721358E+03  0.00000000000E+00 0. -1.
         22    1    1    2    0    0 -0.14844704536E+04 -0.50609311218E+03 -0.77422485933E+03  0.17490588609E+04  0.00000000000E+00 0.  1.
<mgrwt>
<rscale>  0 0.31828311E+04</rscale>
<asrwt>0</asrwt>
<pdfrwt beam="1">  1        2 0.46596819E+00 0.31828311E+04</pdfrwt>
<pdfrwt beam="2">  1       -2 0.12864243E+00 0.31828311E+04</pdfrwt>
<totfact> 0.62761426E-01</totfact>
</mgrwt>
</event>
<event>
 6    1  0.3017327E-006  0.2126865E+04  0.7818608E-02  0.8549501E-01
         -2   -1    0    0    0  501 -0.00000000000E+00  0.00000000000E+00  0.51070017908E+03  0.51070017908E+03  0.00000000000E+00 0.  1.
          2   -1    0    0  501    0  0.00000000000E+00 -0.00000000000E+00 -0.22143883984E+04  0.22143883984E+04  0.00000000000E+00 0. -1.
         23    2    1    2    0    0  0.29768505795E+03 -0.88121419810E+03 -0.15087794450E+04  0.17747495396E+04  0.90364030797E+02 0.  0.
         11    1    3    3    0    0  0.16251351971E+03 -0.60450295007E+03 -0.10405235351E+04  0.12142996697E+04  0.00000000000E+00 0. -1.
        -11    1    3    3    0    0  0.13517153824E+03 -0.27671124803E+03 -0.46825590984E+03  0.56044986987E+03  0.00000000000E+00 0.  1.
         22    1    1    2    0    0 -0.29768505795E+03  0.88121419810E+03 -0.19490877437E+03  0.95033903791E+03  0.00000000000E+00 0.  1.
<mgrwt>
<rscale>  0 0.21268649E+04</rscale>
<asrwt>0</asrwt>
<pdfrwt beam="1">  1        2 0.34067514E+00 0.21268649E+04</pdfrwt>
<pdfrwt beam="2">  1       -2 0.78569259E-01 0.21268649E+04</pdfrwt>
<totfact> 0.67083015E+00</totfact>
</mgrwt>
</event>
<event>
 6    1  0.3017327E-006  0.2524957E+04  0.7818608E-02  0.8394148E-01
         -2   -1    0    0    0  501 -0.00000000000E+00  0.00000000000E+00  0.45636767999E+03  0.45636767999E+03  0.00000000000E+00 0.  1.
          2   -1    0    0  501    0  0.00000000000E+00 -0.00000000000E+00 -0.34924722062E+04  0.34924722062E+04  0.00000000000E+00 0. -1.
         23    2    1    2    0    0 -0.56475534740E+03  0.10302948446E+03  0.23630814401E+03  0.62645394212E+03  0.83900688811E+02 0.  0.
         11    1    3    3    0    0 -0.36934337854E+03  0.96719502771E+02  0.12646607395E+03  0.40219754020E+03  0.00000000000E+00 0. -1.
        -11    1    3    3    0    0 -0.19541196887E+03  0.63099816874E+01  0.10984207006E+03  0.22425640192E+03  0.00000000000E+00 0.  1.
         22    1    1    2    0    0  0.56475534740E+03 -0.10302948446E+03 -0.32724126703E+04  0.33223859441E+04  0.00000000000E+00 0.  1.
<mgrwt>
<rscale>  0 0.25249566E+04</rscale>
<asrwt>0</asrwt>
<pdfrwt beam="1">  1        2 0.53730338E+00 0.25249566E+04</pdfrwt>
<pdfrwt beam="2">  1       -2 0.70210417E-01 0.25249566E+04</pdfrwt>
<totfact> 0.13541347E+00</totfact>
</mgrwt>
</event>
<event>
 6    1  0.3017327E-006  0.1449200E+04  0.7818608E-02  0.8918955E-01
          2   -1    0    0  501    0  0.00000000000E+00  0.00000000000E+00  0.91767050360E+03  0.91767050360E+03  0.00000000000E+00 0. -1.
         -2   -1    0    0    0  501 -0.00000000000E+00 -0.00000000000E+00 -0.57215005389E+03  0.57215005389E+03  0.00000000000E+00 0.  1.
         23    2    1    2    0    0 -0.24870422982E+03 -0.16292004175E+03 -0.50292949595E+03  0.59078549464E+03  0.87707974808E+02 0.  0.
         13    1    3    3    0    0 -0.76581792728E+02 -0.93734689298E+02 -0.24264328257E+03  0.27115811906E+03  0.00000000000E+00 0.  1.
        -13    1    3    3    0    0 -0.17212243709E+03 -0.69185352453E+02 -0.26028621339E+03  0.31962737559E+03  0.00000000000E+00 0. -1.
         22    1    1    2    0    0  0.24870422982E+03  0.16292004175E+03  0.84844994566E+03  0.89903506285E+03  0.00000000000E+00 0. -1.
<mgrwt>
<rscale>  0 0.14492001E+04</rscale>
<asrwt>0</asrwt>
<pdfrwt beam="1">  1        2 0.14118008E+00 0.14492001E+04</pdfrwt>
<pdfrwt beam="2">  1       -2 0.88023085E-01 0.14492001E+04</pdfrwt>
<totfact> 0.30783024E+01</totfact>
</mgrwt>
</event>
<event>
 6    1  0.3017327E-006  0.2890920E+04  0.7818608E-02  0.8275584E-01
         -2   -1    0    0    0  501 -0.00000000000E+00  0.00000000000E+00  0.57069570728E+03  0.57069570728E+03  0.00000000000E+00 0. -1.
          2   -1    0    0  501    0  0.00000000000E+00 -0.00000000000E+00 -0.36610652993E+04  0.36610652993E+04  0.00000000000E+00 0.  1.
         23    2    1    2    0    0 -0.34118141973E+03 -0.12503630368E+04 -0.24788594931E+04  0.27986674695E+04  0.89346143324E+02 0.  0.
         13    1    3    3    0    0 -0.31591331640E+03 -0.10875844505E+04 -0.21111236001E+04  0.23957220238E+04  0.00000000000E+00 0.  1.
        -13    1    3    3    0    0 -0.25268103335E+02 -0.16277858629E+03 -0.36773589299E+03  0.40294544568E+03  0.00000000000E+00 0. -1.
         22    1    1    2    0    0  0.34118141973E+03  0.12503630368E+04 -0.61151009891E+03  0.14330935371E+04  0.00000000000E+00 0.  1.
<mgrwt>
<rscale>  0 0.28909198E+04</rscale>
<asrwt>0</asrwt>
<pdfrwt beam="1">  1        2 0.56324080E+00 0.28909198E+04</pdfrwt>
<pdfrwt beam="2">  1       -2 0.87799342E-01 0.28909198E+04</pdfrwt>
<totfact> 0.60226259E-01</totfact>
</mgrwt>
</event>
<event>
 6    1  0.3017327E-006  0.2936544E+04  0.7818608E-02  0.8262087E-01
          2   -1    0    0  501    0  0.00000000000E+00  0.00000000000E+00  0.39533777809E+04  0.39533777809E+04  0.00000000000E+00 0. -1.
         -2   -1    0    0    0  501 -0.00000000000E+00 -0.00000000000E+00 -0.54531143179E+03  0.54531143179E+03  0.00000000000E+00 0.  1.
         23    2    1    2    0    0 -0.93832134630E+03 -0.10694496636E+04  0.22528214185E+04  0.26659970995E+04  0.90369571820E+02 0.  0.
         11    1    3    3    0    0 -0.28250988273E+03 -0.30382567042E+03  0.73204171386E+03  0.84143148425E+03  0.00000000000E+00 0. -1.
        -11    1    3    3    0    0 -0.65581146357E+03 -0.76562399315E+03  0.15207797046E+04  0.18245656153E+04  0.00000000000E+00 0.  1.
         22    1    1    2    0    0  0.93832134630E+03  0.10694496636E+04  0.11552449307E+04  0.18326921132E+04  0.00000000000E+00 0.  1.
<mgrwt>
<rscale>  0 0.29365436E+04</rscale>
<asrwt>0</asrwt>
<pdfrwt beam="1">  1        2 0.60821195E+00 0.29365436E+04</pdfrwt>
<pdfrwt beam="2">  1       -2 0.83894069E-01 0.29365436E+04</pdfrwt>
<totfact> 0.39829638E-01</totfact>
</mgrwt>
</event>
<event>
 6    1  0.3017327E-006  0.5777953E+03  0.7818608E-02  0.9952576E-01
         -2   -1    0    0    0  501 -0.00000000000E+00  0.00000000000E+00  0.40844085633E+03  0.40844085633E+03  0.00000000000E+00 0.  1.
          2   -1    0    0  501    0  0.00000000000E+00 -0.00000000000E+00 -0.20434255945E+03  0.20434255945E+03  0.00000000000E+00 0. -1.
         23    2    1    2    0    0  0.21754537061E+03  0.16007268434E+03  0.18907958582E+03  0.34227497926E+03  0.91933775685E+02 0.  0.
         13    1    3    3    0    0  0.29243470146E+02  0.64890081460E+02  0.70800064964E+02  0.10039199379E+03  0.00000000000E+00 0.  1.
        -13    1    3    3    0    0  0.18830190046E+03  0.95182602879E+02  0.11827952086E+03  0.24188298547E+03  0.00000000000E+00 0. -1.
         22    1    1    2    0    0 -0.21754537061E+03 -0.16007268434E+03  0.15018711051E+02  0.27050843651E+03  0.00000000000E+00 0. -1.
<mgrwt>
<rscale>  0 0.57779529E+03</rscale>
<asrwt>0</asrwt>
<pdfrwt beam="1">  1        2 0.31437317E-01 0.57779529E+03</pdfrwt>
<pdfrwt beam="2">  1       -2 0.62837054E-01 0.57779529E+03</pdfrwt>
<totfact> 0.40008793E+02</totfact>
</mgrwt>
</event>
<event>
 6    1  0.3017327E-006  0.2837069E+04  0.7818608E-02  0.8291852E-01
         -2   -1    0    0    0  501 -0.00000000000E+00  0.00000000000E+00  0.26284231606E+04  0.26284231606E+04  0.00000000000E+00 0.  1.
          2   -1    0    0  501    0  0.00000000000E+00 -0.00000000000E+00 -0.76556917289E+03  0.76556917289E+03  0.00000000000E+00 0. -1.
         23    2    1    2    0    0 -0.67932049166E+03  0.66735733236E+02  0.24180120059E+04  0.25141455210E+04  0.90640230516E+02 0.  0.
         11    1    3    3    0    0 -0.54340352252E+03  0.25909952374E+02  0.20016699288E+04  0.20742808917E+04  0.00000000000E+00 0. -1.
        -11    1    3    3    0    0 -0.13591696914E+03  0.40825780862E+02  0.41634207709E+03  0.43986462922E+03  0.00000000000E+00 0.  1.
         22    1    1    2    0    0  0.67932049166E+03 -0.66735733236E+02 -0.55515801815E+03  0.87984681257E+03  0.00000000000E+00 0. -1.
<mgrwt>
<rscale>  0 0.28370687E+04</rscale>
<asrwt>0</asrwt>
<pdfrwt beam="1">  1        2 0.11777987E+00 0.28370687E+04</pdfrwt>
<pdfrwt beam="2">  1       -2 0.40437279E+00 0.28370687E+04</pdfrwt>
<totfact> 0.21995375E-01</totfact>
</mgrwt>
</event>
<event>
 6    1  0.3017327E-006  0.8840161E+03  0.7818608E-02  0.9445786E-01
         -2   -1    0    0    0  501 -0.00000000000E+00  0.00000000000E+00  0.57130237401E+03  0.57130237401E+03  0.00000000000E+00 0.  1.
          2   -1    0    0  501    0  0.00000000000E+00 -0.00000000000E+00 -0.34197494862E+03  0.34197494862E+03  0.00000000000E+00 0. -1.
         23    2    1    2    0    0 -0.27506446933E+03  0.32665322366E+03  0.21144688667E+03  0.48586358340E+03  0.94820066280E+02 0.  0.
         13    1    3    3    0    0 -0.17133150382E+03  0.13231608618E+03  0.91323444622E+02  0.23495106384E+03  0.00000000000E+00 0. -1.
        -13    1    3    3    0    0 -0.10373296552E+03  0.19433713748E+03  0.12012344205E+03  0.25091251956E+03  0.00000000000E+00 0.  1.
         22    1    1    2    0    0  0.27506446933E+03 -0.32665322366E+03  0.17880538723E+02  0.42741373923E+03  0.00000000000E+00 0.  1.
<mgrwt>
<rscale>  0 0.88401606E+03</rscale>
<asrwt>0</asrwt>
<pdfrwt beam="1">  1        2 0.52611531E-01 0.88401606E+03</pdfrwt>
<pdfrwt beam="2">  1       -2 0.87892673E-01 0.88401606E+03</pdfrwt>
<totfact> 0.10632128E+02</totfact>
</mgrwt>
</event>
<event>
 6    1  0.3017327E-006  0.1030727E+04  0.7818608E-02  0.9275471E-01
         -2   -1    0    0    0  501 -0.00000000000E+00  0.00000000000E+00  0.15375594320E+04  0.15375594320E+04  0.00000000000E+00 0.  1.
          2   -1    0    0  501    0  0.00000000000E+00 -0.00000000000E+00 -0.17274110592E+03  0.17274110592E+03  0.00000000000E+00 0. -1.
         23    2    1    2    0    0  0.30910615918E+03 -0.31191415810E+03  0.25411104890E+03  0.51593555382E+03  0.93701712135E+02 0.  0.
         11    1    3    3    0    0  0.66030203008E+02 -0.12503844572E+03  0.96474398318E+02  0.17117800720E+03  0.00000000000E+00 0. -1.
        -11    1    3    3    0    0  0.24307595617E+03 -0.18687571238E+03  0.15763665058E+03  0.34475754662E+03  0.00000000000E+00 0.  1.
         22    1    1    2    0    0 -0.30910615918E+03  0.31191415810E+03  0.11107072772E+04  0.11943649841E+04  0.00000000000E+00 0.  1.
<mgrwt>
<rscale>  0 0.10307273E+04</rscale>
<asrwt>0</asrwt>
<pdfrwt beam="1">  1        2 0.26575556E-01 0.10307273E+04</pdfrwt>
<pdfrwt beam="2">  1       -2 0.23654760E+00 0.10307273E+04</pdfrwt>
<totfact> 0.15928924E+01</totfact>
</mgrwt>
</event>
<event>
 6    1  0.3017327E-006  0.3422023E+04  0.7818608E-02  0.8132522E-01
         -2   -1    0    0    0  501 -0.00000000000E+00  0.00000000000E+00  0.27749749635E+04  0.27749749635E+04  0.00000000000E+00 0.  1.
          2   -1    0    0  501    0  0.00000000000E+00 -0.00000000000E+00 -0.10549860246E+04  0.10549860246E+04  0.00000000000E+00 0. -1.
         23    2    1    2    0    0 -0.14169307577E+03 -0.92250914685E+03  0.24638069009E+04  0.26364932616E+04  0.98245711296E+02 0.  0.
         13    1    3    3    0    0 -0.18588621927E+02 -0.41021853141E+03  0.10200148222E+04  0.10995703788E+04  0.00000000000E+00 0. -1.
        -13    1    3    3    0    0 -0.12310445384E+03 -0.51229061544E+03  0.14437920786E+04  0.15369228828E+04  0.00000000000E+00 0.  1.
         22    1    1    2    0    0  0.14169307577E+03  0.92250914685E+03 -0.74381796201E+03  0.11934677266E+04  0.00000000000E+00 0. -1.
<mgrwt>
<rscale>  0 0.34220227E+04</rscale>
<asrwt>0</asrwt>
<pdfrwt beam="1">  1        2 0.16230554E+00 0.34220227E+04</pdfrwt>
<pdfrwt beam="2">  1       -2 0.42691922E+00 0.34220227E+04</pdfrwt>
<totfact> 0.94735277E-02</totfact>
</mgrwt>
</event>
<event>
 6    1  0.3017327E-006  0.2067605E+04  0.7818608E-02  0.8575650E-01
         -2   -1    0    0    0  501 -0.00000000000E+00  0.00000000000E+00  0.85129117336E+03  0.85129117336E+03  0.00000000000E+00 0.  1.
          2   -1    0    0  501    0  0.00000000000E+00 -0.00000000000E+00 -0.12554427951E+04  0.12554427951E+04  0.00000000000E+00 0. -1.
         23    2    1    2    0    0  0.41216334678E+03  0.19421974515E+02  0.76122000480E+03  0.87047070140E+03  0.89484684580E+02 0.  0.
         13    1    3    3    0    0  0.88860942560E+02 -0.57938935499E+01  0.24674323528E+03  0.26232053002E+03  0.00000000000E+00 0. -1.
        -13    1    3    3    0    0  0.32330240422E+03  0.25215868065E+02  0.51447676952E+03  0.60815017138E+03  0.00000000000E+00 0.  1.
         22    1    1    2    0    0 -0.41216334678E+03 -0.19421974515E+02 -0.11653716266E+04  0.12362632671E+04  0.00000000000E+00 0. -1.
<mgrwt>
<rscale>  0 0.20676048E+04</rscale>
<asrwt>0</asrwt>
<pdfrwt beam="1">  1        2 0.19314505E+00 0.20676048E+04</pdfrwt>
<pdfrwt beam="2">  1       -2 0.13096787E+00 0.20676048E+04</pdfrwt>
<totfact> 0.69152783E+00</totfact>
</mgrwt>
</event>
<event>
 6    1  0.3017327E-006  0.1204639E+04  0.7818608E-02  0.9108806E-01
          2   -1    0    0  501    0  0.00000000000E+00  0.00000000000E+00  0.14813281363E+04  0.14813281363E+04  0.00000000000E+00 0. -1.
         -2   -1    0    0    0  501 -0.00000000000E+00 -0.00000000000E+00 -0.24490776127E+03  0.24490776127E+03  0.00000000000E+00 0.  1.
         23    2    1    2    0    0  0.51108885632E+02 -0.55662836327E+03  0.31507204920E+03  0.64858568041E+03  0.94581899271E+02 0.  0.
         11    1    3    3    0    0 -0.12233846860E+02 -0.23363315237E+03  0.94238794838E+02  0.25222027545E+03  0.00000000000E+00 0.  1.
        -11    1    3    3    0    0  0.63342732492E+02 -0.32299521089E+03  0.22083325436E+03  0.39636540496E+03  0.00000000000E+00 0. -1.
         22    1    1    2    0    0 -0.51108885632E+02  0.55662836327E+03  0.92134832579E+03  0.10776502171E+04  0.00000000000E+00 0. -1.
<mgrwt>
<rscale>  0 0.12046390E+04</rscale>
<asrwt>0</asrwt>
<pdfrwt beam="1">  1        2 0.22789663E+00 0.12046390E+04</pdfrwt>
<pdfrwt beam="2">  1       -2 0.37678118E-01 0.12046390E+04</pdfrwt>
<totfact> 0.85217674E+01</totfact>
</mgrwt>
</event>
<event>
 6    1  0.3017327E-006  0.2603916E+04  0.7818608E-02  0.8366872E-01
          2   -1    0    0  501    0  0.00000000000E+00  0.00000000000E+00  0.29231105290E+04  0.29231105290E+04  0.00000000000E+00 0. -1.
         -2   -1    0    0    0  501 -0.00000000000E+00 -0.00000000000E+00 -0.57989391877E+03  0.57989391877E+03  0.00000000000E+00 0.  1.
         23    2    1    2    0    0 -0.10982756679E+03 -0.83317552270E+03  0.25079915545E+04  0.26466199966E+04  0.91281010149E+02 0.  0.
         13    1    3    3    0    0 -0.81525006856E+02 -0.53020010363E+03  0.14639187511E+04  0.15591076250E+04  0.00000000000E+00 0. -1.
        -13    1    3    3    0    0 -0.28302559933E+02 -0.30297541907E+03  0.10440728034E+04  0.10875123716E+04  0.00000000000E+00 0.  1.
         22    1    1    2    0    0  0.10982756679E+03  0.83317552270E+03 -0.16477494423E+03  0.85638445123E+03  0.00000000000E+00 0.  1.
<mgrwt>
<rscale>  0 0.26039155E+04</rscale>
<asrwt>0</asrwt>
<pdfrwt beam="1">  1        2 0.44970930E+00 0.26039155E+04</pdfrwt>
<pdfrwt beam="2">  1       -2 0.89214451E-01 0.26039155E+04</pdfrwt>
<totfact> 0.18536740E+00</totfact>
</mgrwt>
</event>
<event>
 6    1  0.3017327E-006  0.3651874E+04  0.7818608E-02  0.8078712E-01
          2   -1    0    0  501    0  0.00000000000E+00  0.00000000000E+00  0.12662871822E+04  0.12662871822E+04  0.00000000000E+00 0.  1.
         -2   -1    0    0    0  501 -0.00000000000E+00 -0.00000000000E+00 -0.26329305115E+04  0.26329305115E+04  0.00000000000E+00 0. -1.
         23    2    1    2    0    0  0.15053307028E+04  0.49560450662E+03 -0.16495088640E+04  0.22893551957E+04  0.92862088417E+02 0.  0.
         13    1    3    3    0    0  0.65845406690E+03  0.18221424219E+03 -0.66423865554E+03  0.95287815580E+03  0.00000000000E+00 0. -1.
        -13    1    3    3    0    0  0.84687663593E+03  0.31339026443E+03 -0.98527020849E+03  0.13364770399E+04  0.00000000000E+00 0.  1.
         22    1    1    2    0    0 -0.15053307028E+04 -0.49560450662E+03  0.28286553469E+03  0.16098624980E+04  0.00000000000E+00 0.  1.
<mgrwt>
<rscale>  0 0.36518741E+04</rscale>
<asrwt>0</asrwt>
<pdfrwt beam="1">  1        2 0.19481341E+00 0.36518741E+04</pdfrwt>
<pdfrwt beam="2">  1       -2 0.40506623E+00 0.36518741E+04</pdfrwt>
<totfact> 0.96472686E-02</totfact>
</mgrwt>
</event>
<event>
 6    1  0.3320023E-006  0.1212734E+04  0.7818608E-02  0.9101783E-01
         -1   -1    0    0    0  501 -0.00000000000E+00  0.00000000000E+00  0.56411725562E+03  0.56411725562E+03  0.00000000000E+00 0.  1.
          1   -1    0    0  501    0  0.00000000000E+00 -0.00000000000E+00 -0.65178091904E+03  0.65178091904E+03  0.00000000000E+00 0. -1.
         23    2    1    2    0    0 -0.50147394359E+03 -0.22444949346E+03 -0.29272399896E+03  0.62946537166E+03  0.93196691663E+02 0.  0.
         11    1    3    3    0    0 -0.31284982797E+03 -0.12662223917E+03 -0.12937411424E+03  0.36144967527E+03  0.00000000000E+00 0.  1.
        -11    1    3    3    0    0 -0.18862411562E+03 -0.97827254286E+02 -0.16334988472E+03  0.26801569639E+03  0.00000000000E+00 0. -1.
         22    1    1    2    0    0  0.50147394359E+03  0.22444949346E+03  0.20506033554E+03  0.58643280299E+03  0.00000000000E+00 0.  1.
<mgrwt>
<rscale>  0 0.12127339E+04</rscale>
<asrwt>0</asrwt>
<pdfrwt beam="1">  1        1 0.10027399E+00 0.12127339E+04</pdfrwt>
<pdfrwt beam="2">  1       -1 0.86787269E-01 0.12127339E+04</pdfrwt>
<totfact> 0.39265602E+01</totfact>
</mgrwt>
</event>
<event>
 6    1  0.3017327E-006  0.2325096E+04  0.7818608E-02  0.8468092E-01
          2   -1    0    0  501    0  0.00000000000E+00  0.00000000000E+00  0.20405351426E+04  0.20405351426E+04  0.00000000000E+00 0. -1.
         -2   -1    0    0    0  501 -0.00000000000E+00 -0.00000000000E+00 -0.66233474284E+03  0.66233474284E+03  0.00000000000E+00 0.  1.
         23    2    1    2    0    0  0.66344914500E+03 -0.26313761713E+03 -0.37400697586E+03  0.81087705756E+03  0.90742553027E+02 0.  0.
         11    1    3    3    0    0  0.30538239627E+03 -0.16974084216E+03 -0.18588784614E+03  0.39575832624E+03  0.00000000000E+00 0. -1.
        -11    1    3    3    0    0  0.35806674872E+03 -0.93396774972E+02 -0.18811912972E+03  0.41511873131E+03  0.00000000000E+00 0.  1.
         22    1    1    2    0    0 -0.66344914500E+03  0.26313761713E+03  0.17522073756E+04  0.18919928279E+04  0.00000000000E+00 0. -1.
<mgrwt>
<rscale>  0 0.23250955E+04</rscale>
<asrwt>0</asrwt>
<pdfrwt beam="1">  1        2 0.31392848E+00 0.23250955E+04</pdfrwt>
<pdfrwt beam="2">  1       -2 0.10189765E+00 0.23250955E+04</pdfrwt>
<totfact> 0.45322248E+00</totfact>
</mgrwt>
</event>
<event>
 6    1  0.3017327E-006  0.1030644E+04  0.7818608E-02  0.9275559E-01
         -1   -1    0    0    0  501 -0.00000000000E+00  0.00000000000E+00  0.83008267044E+03  0.83008267044E+03  0.00000000000E+00 0.  1.
          1   -1    0    0  501    0  0.00000000000E+00 -0.00000000000E+00 -0.31991604001E+03  0.31991604001E+03  0.00000000000E+00 0. -1.
         23    2    1    2    0    0  0.85899269832E+02  0.27063057745E+03  0.73106538364E+03  0.79025456085E+03  0.97088010474E+02 0.  0.
         11    1    3    3    0    0  0.55187878227E+02  0.92607132695E+02  0.38585710109E+03  0.40063385452E+03  0.00000000000E+00 0. -1.
        -11    1    3    3    0    0  0.30711391605E+02  0.17802344475E+03  0.34520828255E+03  0.38962070632E+03  0.00000000000E+00 0.  1.
         22    1    1    2    0    0 -0.85899269832E+02 -0.27063057745E+03 -0.22089875320E+03  0.35974414960E+03  0.00000000000E+00 0. -1.
<mgrwt>
<rscale>  0 0.10306440E+04</rscale>
<asrwt>0</asrwt>
<pdfrwt beam="1">  1        1 0.49217853E-01 0.10306440E+04</pdfrwt>
<pdfrwt beam="2">  1       -1 0.12770503E+00 0.10306440E+04</pdfrwt>
<totfact> 0.42801599E+01</totfact>
</mgrwt>
</event>
<event>
 6    1  0.3017327E-006  0.1120533E+04  0.7818608E-02  0.9185407E-01
          2   -1    0    0  501    0  0.00000000000E+00  0.00000000000E+00  0.12582614519E+04  0.12582614519E+04  0.00000000000E+00 0. -1.
         -2   -1    0    0    0  501 -0.00000000000E+00 -0.00000000000E+00 -0.24947003033E+03  0.24947003033E+03  0.00000000000E+00 0.  1.
         23    2    1    2    0    0 -0.34140347421E+03 -0.20852126471E+03 -0.42842663818E+01  0.41853003183E+03  0.12292917704E+03 0.  0.
         13    1    3    3    0    0 -0.26811306838E+03 -0.97229967220E+02 -0.60271367596E+01  0.28526235352E+03  0.00000000000E+00 0.  1.
        -13    1    3    3    0    0 -0.73290405835E+02 -0.11129129749E+03  0.17428703778E+01  0.13326767831E+03  0.00000000000E+00 0. -1.
         22    1    1    2    0    0  0.34140347421E+03  0.20852126471E+03  0.10130756880E+04  0.10892014504E+04  0.00000000000E+00 0.  1.
<mgrwt>
<rscale>  0 0.11205329E+04</rscale>
<asrwt>0</asrwt>
<pdfrwt beam="1">  1        2 0.19357868E+00 0.11205329E+04</pdfrwt>
<pdfrwt beam="2">  1       -2 0.38380005E-01 0.11205329E+04</pdfrwt>
<totfact> 0.11111386E+02</totfact>
</mgrwt>
</event>
<event>
 6    1  0.5757651E-006  0.2829420E+04  0.7818608E-02  0.8294192E-01
          2   -1    0    0  501    0  0.00000000000E+00  0.00000000000E+00  0.12935656966E+04  0.12935656966E+04  0.00000000000E+00 0. -1.
         -2   -1    0    0    0  501 -0.00000000000E+00 -0.00000000000E+00 -0.15471993624E+04  0.15471993624E+04  0.00000000000E+00 0.  1.
         23    2    1    2    0    0  0.12321804346E+04  0.69123141875E+03 -0.91478183761E+02  0.14186666453E+04  0.90428395749E+02 0.  0.
         13    1    3    3    0    0  0.47541013983E+03  0.29692035508E+03 -0.71888689883E+02  0.56510572644E+03  0.00000000000E+00 0. -1.
        -13    1    3    3    0    0  0.75677029477E+03  0.39431106367E+03 -0.19589493877E+02  0.85356091889E+03  0.00000000000E+00 0.  1.
         22    1    1    2    0    0 -0.12321804346E+04 -0.69123141875E+03 -0.16215548199E+03  0.14220984136E+04  0.00000000000E+00 0.  1.
<mgrwt>
<rscale>  0 0.28294197E+04</rscale>
<asrwt>0</asrwt>
<pdfrwt beam="1">  1        2 0.19901011E+00 0.28294197E+04</pdfrwt>
<pdfrwt beam="2">  1       -2 0.23803067E+00 0.28294197E+04</pdfrwt>
<totfact> 0.11028433E+00</totfact>
</mgrwt>
</event>
<event>
 6    1  0.3017327E-006  0.3853398E+04  0.7818608E-02  0.8034792E-01
          2   -1    0    0  501    0  0.00000000000E+00  0.00000000000E+00  0.31255495603E+04  0.31255495603E+04  0.00000000000E+00 0.  1.
         -2   -1    0    0    0  501 -0.00000000000E+00 -0.00000000000E+00 -0.11876850578E+04  0.11876850578E+04  0.00000000000E+00 0. -1.
         23    2    1    2    0    0 -0.30872503268E+03 -0.12866708801E+03  0.30920865089E+04  0.31115296604E+04  0.93549363922E+02 0.  0.
         13    1    3    3    0    0 -0.28348167509E+03 -0.97788761036E+02  0.24644657260E+04  0.24826429096E+04  0.00000000000E+00 0. -1.
        -13    1    3    3    0    0 -0.25243357583E+02 -0.30878326972E+02  0.62762078289E+03  0.62888675077E+03  0.00000000000E+00 0.  1.
         22    1    1    2    0    0  0.30872503268E+03  0.12866708801E+03 -0.11542220064E+04  0.12017049577E+04  0.00000000000E+00 0. -1.
<mgrwt>
<rscale>  0 0.38533977E+04</rscale>
<asrwt>0</asrwt>
<pdfrwt beam="1">  1        2 0.48085378E+00 0.38533977E+04</pdfrwt>
<pdfrwt beam="2">  1       -2 0.18272078E+00 0.38533977E+04</pdfrwt>
<totfact> 0.20073763E-01</totfact>
</mgrwt>
</event>
<event>
 6    1  0.3017327E-006  0.2094275E+04  0.7818608E-02  0.8563770E-01
          2   -1    0    0  501    0  0.00000000000E+00  0.00000000000E+00  0.15405195136E+04  0.15405195136E+04  0.00000000000E+00 0. -1.
         -2   -1    0    0    0  501 -0.00000000000E+00 -0.00000000000E+00 -0.71177057870E+03  0.71177057870E+03  0.00000000000E+00 0.  1.
         23    2    1    2    0    0  0.52488454730E+03  0.64022672800E+03  0.11012339899E+04  0.13807155651E+04  0.90912705335E+02 0.  0.
         11    1    3    3    0    0  0.50003658224E+03  0.63153457471E+03  0.10531219974E+04  0.13258727103E+04  0.00000000000E+00 0. -1.
        -11    1    3    3    0    0  0.24847965056E+02  0.86921532853E+01  0.48111992498E+02  0.54842854761E+02  0.00000000000E+00 0.  1.
         22    1    1    2    0    0 -0.52488454730E+03 -0.64022672800E+03 -0.27248505500E+03  0.87157452718E+03  0.00000000000E+00 0.  1.
<mgrwt>
<rscale>  0 0.20942745E+04</rscale>
<asrwt>0</asrwt>
<pdfrwt beam="1">  1        2 0.23700300E+00 0.20942745E+04</pdfrwt>
<pdfrwt beam="2">  1       -2 0.10950317E+00 0.20942745E+04</pdfrwt>
<totfact> 0.73766201E+00</totfact>
</mgrwt>
</event>
<event>
 6    1  0.3017327E-006  0.2516256E+04  0.7818608E-02  0.8397217E-01
         -2   -1    0    0    0  501 -0.00000000000E+00  0.00000000000E+00  0.50818450212E+03  0.50818450212E+03  0.00000000000E+00 0.  1.
          2   -1    0    0  501    0  0.00000000000E+00 -0.00000000000E+00 -0.31147867053E+04  0.31147867053E+04  0.00000000000E+00 0. -1.
         23    2    1    2    0    0 -0.80207997718E+03  0.19207390276E+03 -0.26698227459E+04  0.27957943757E+04  0.91038576494E+02 0.  0.
         13    1    3    3    0    0 -0.18679484167E+03  0.11801749560E+02 -0.67494797310E+03  0.70041870374E+03  0.00000000000E+00 0. -1.
        -13    1    3    3    0    0 -0.61528513551E+03  0.18027215320E+03 -0.19948747728E+04  0.20953756719E+04  0.00000000000E+00 0.  1.
         22    1    1    2    0    0  0.80207997718E+03 -0.19207390276E+03  0.63220542784E+02  0.82717683173E+03  0.00000000000E+00 0.  1.
<mgrwt>
<rscale>  0 0.25162562E+04</rscale>
<asrwt>0</asrwt>
<pdfrwt beam="1">  1        2 0.47919795E+00 0.25162562E+04</pdfrwt>
<pdfrwt beam="2">  1       -2 0.78182231E-01 0.25162562E+04</pdfrwt>
<totfact> 0.19093655E+00</totfact>
</mgrwt>
</event>
<event>
 6    1  0.3017327E-006  0.2898716E+04  0.7818608E-02  0.8273259E-01
          2   -1    0    0  501    0  0.00000000000E+00  0.00000000000E+00  0.14379710275E+04  0.14379710275E+04  0.00000000000E+00 0. -1.
         -2   -1    0    0    0  501 -0.00000000000E+00 -0.00000000000E+00 -0.14608355341E+04  0.14608355341E+04  0.00000000000E+00 0.  1.
         23    2    1    2    0    0 -0.45402288228E+03  0.68605366522E+03 -0.12024331906E+04  0.14606867162E+04  0.10465990468E+03 0.  0.
         13    1    3    3    0    0 -0.26907972127E+03  0.33707001597E+03 -0.69000849443E+03  0.81371482379E+03  0.00000000000E+00 0.  1.
        -13    1    3    3    0    0 -0.18494316101E+03  0.34898364925E+03 -0.51242469621E+03  0.64697189238E+03  0.00000000000E+00 0. -1.
         22    1    1    2    0    0  0.45402288228E+03 -0.68605366522E+03  0.11795686841E+04  0.14381198454E+04  0.00000000000E+00 0. -1.
<mgrwt>
<rscale>  0 0.28987164E+04</rscale>
<asrwt>0</asrwt>
<pdfrwt beam="1">  1        2 0.22122631E+00 0.28987164E+04</pdfrwt>
<pdfrwt beam="2">  1       -2 0.22474393E+00 0.28987164E+04</pdfrwt>
<totfact> 0.10960959E+00</totfact>
</mgrwt>
</event>
<event>
 6    1  0.3017327E-006  0.3799610E+04  0.7818608E-02  0.8046239E-01
          2   -1    0    0  501    0  0.00000000000E+00  0.00000000000E+00  0.18697956490E+04  0.18697956490E+04  0.00000000000E+00 0. -1.
         -2   -1    0    0    0  501 -0.00000000000E+00 -0.00000000000E+00 -0.19302960471E+04  0.19302960471E+04  0.00000000000E+00 0.  1.
         23    2    1    2    0    0  0.22571162497E+03  0.93300395925E+03  0.16081240727E+04  0.18750592937E+04  0.91335622722E+02 0.  0.
         11    1    3    3    0    0  0.17611518166E+03  0.74777597402E+03  0.12120412652E+04  0.14350015656E+04  0.00000000000E+00 0. -1.
        -11    1    3    3    0    0  0.49596443313E+02  0.18522798523E+03  0.39608280751E+03  0.44005772815E+03  0.00000000000E+00 0.  1.
         22    1    1    2    0    0 -0.22571162497E+03 -0.93300395925E+03 -0.16686244709E+04  0.19250324024E+04  0.00000000000E+00 0.  1.
<mgrwt>
<rscale>  0 0.37996101E+04</rscale>
<asrwt>0</asrwt>
<pdfrwt beam="1">  1        2 0.28766087E+00 0.37996101E+04</pdfrwt>
<pdfrwt beam="2">  1       -2 0.29696862E+00 0.37996101E+04</pdfrwt>
<totfact> 0.20991696E-01</totfact>
</mgrwt>
</event>
<event>
 6    1  0.3017327E-006  0.7272595E+03  0.7818608E-02  0.9671718E-01
         -2   -1    0    0    0  501 -0.00000000000E+00  0.00000000000E+00  0.10358796511E+04  0.10358796511E+04  0.00000000000E+00 0.  1.
          2   -1    0    0  501    0  0.00000000000E+00 -0.00000000000E+00 -0.12764668465E+03  0.12764668465E+03  0.00000000000E+00 0. -1.
         23    2    1    2    0    0  0.35264840108E+03  0.61141800698E+02  0.45913501955E+03  0.58925446592E+03  0.91195640515E+02 0.  0.
         11    1    3    3    0    0  0.13331228053E+03 -0.20768901066E+02  0.15664937403E+03  0.20674268494E+03  0.00000000000E+00 0.  1.
        -11    1    3    3    0    0  0.21933612055E+03  0.81910701764E+02  0.30248564552E+03  0.38251178098E+03  0.00000000000E+00 0. -1.
         22    1    1    2    0    0 -0.35264840108E+03 -0.61141800698E+02  0.44909794692E+03  0.57427186985E+03  0.00000000000E+00 0. -1.
<mgrwt>
<rscale>  0 0.72725952E+03</rscale>
<asrwt>0</asrwt>
<pdfrwt beam="1">  1        2 0.19637952E-01 0.72725952E+03</pdfrwt>
<pdfrwt beam="2">  1       -2 0.15936609E+00 0.72725952E+03</pdfrwt>
<totfact> 0.74878235E+01</totfact>
</mgrwt>
</event>
<event>
 6    1  0.3017327E-006  0.1215889E+04  0.7818608E-02  0.9099062E-01
         -2   -1    0    0    0  501 -0.00000000000E+00  0.00000000000E+00  0.69650817008E+03  0.69650817008E+03  0.00000000000E+00 0.  1.
          2   -1    0    0  501    0  0.00000000000E+00 -0.00000000000E+00 -0.53064181942E+03  0.53064181942E+03  0.00000000000E+00 0. -1.
         23    2    1    2    0    0  0.14328951776E+03  0.20121571798E+03  0.64024734121E+03  0.69230704502E+03  0.91393301687E+02 0.  0.
         13    1    3    3    0    0  0.12265025859E+03  0.97439645896E+02  0.41025589330E+03  0.43914401796E+03  0.00000000000E+00 0. -1.
        -13    1    3    3    0    0  0.20639259173E+02  0.10377607209E+03  0.22999144791E+03  0.25316302705E+03  0.00000000000E+00 0.  1.
         22    1    1    2    0    0 -0.14328951776E+03 -0.20121571798E+03 -0.47438099055E+03  0.53484294448E+03  0.00000000000E+00 0. -1.
<mgrwt>
<rscale>  0 0.12158887E+04</rscale>
<asrwt>0</asrwt>
<pdfrwt beam="1">  1        2 0.81637203E-01 0.12158887E+04</pdfrwt>
<pdfrwt beam="2">  1       -2 0.10715510E+00 0.12158887E+04</pdfrwt>
<totfact> 0.39632780E+01</totfact>
</mgrwt>
</event>
<event>
 6    1  0.3017327E-006  0.2304145E+04  0.7818608E-02  0.8476288E-01
          2   -1    0    0  501    0  0.00000000000E+00  0.00000000000E+00  0.17238195490E+04  0.17238195490E+04  0.00000000000E+00 0. -1.
         -2   -1    0    0    0  501 -0.00000000000E+00 -0.00000000000E+00 -0.76995956765E+03  0.76995956765E+03  0.00000000000E+00 0.  1.
         23    2    1    2    0    0 -0.26106504036E+03  0.80632563891E+03  0.13193111138E+04  0.15708107958E+04  0.92459450113E+02 0.  0.
         13    1    3    3    0    0 -0.15725377910E+03  0.60423051103E+03  0.10003513792E+04  0.11792057256E+04  0.00000000000E+00 0. -1.
        -13    1    3    3    0    0 -0.10381126126E+03  0.20209512788E+03  0.31895973463E+03  0.39160507018E+03  0.00000000000E+00 0.  1.
         22    1    1    2    0    0  0.26106504036E+03 -0.80632563891E+03 -0.36545113238E+03  0.92296832092E+03  0.00000000000E+00 0.  1.
<mgrwt>
<rscale>  0 0.23041453E+04</rscale>
<asrwt>0</asrwt>
<pdfrwt beam="1">  1        2 0.26520301E+00 0.23041453E+04</pdfrwt>
<pdfrwt beam="2">  1       -2 0.11845532E+00 0.23041453E+04</pdfrwt>
<totfact> 0.47279198E+00</totfact>
</mgrwt>
</event>
<event>
 6    1  0.3017327E-006  0.1318618E+04  0.7818608E-02  0.9014930E-01
         -1   -1    0    0    0  501 -0.00000000000E+00  0.00000000000E+00  0.44195646475E+03  0.44195646475E+03  0.00000000000E+00 0.  1.
          1   -1    0    0  501    0  0.00000000000E+00 -0.00000000000E+00 -0.98355528260E+03  0.98355528260E+03  0.00000000000E+00 0. -1.
         23    2    1    2    0    0 -0.13370497615E+03  0.55267863997E+03 -0.62652370848E+03  0.85058311111E+03  0.87343986062E+02 0.  0.
         13    1    3    3    0    0 -0.82935313219E+02  0.19561939872E+03 -0.26850834282E+03  0.34240611194E+03  0.00000000000E+00 0.  1.
        -13    1    3    3    0    0 -0.50769662930E+02  0.35705924125E+03 -0.35801536566E+03  0.50817699916E+03  0.00000000000E+00 0. -1.
         22    1    1    2    0    0  0.13370497615E+03 -0.55267863997E+03  0.84924890621E+02  0.57492863624E+03  0.00000000000E+00 0.  1.
<mgrwt>
<rscale>  0 0.13186184E+04</rscale>
<asrwt>0</asrwt>
<pdfrwt beam="1">  1        1 0.15131620E+00 0.13186184E+04</pdfrwt>
<pdfrwt beam="2">  1       -1 0.67993302E-01 0.13186184E+04</pdfrwt>
<totfact> 0.33499272E+01</totfact>
</mgrwt>
</event>
<event>
 6    1  0.3017327E-006  0.2838110E+04  0.7818608E-02  0.8291534E-01
          2   -1    0    0  501    0  0.00000000000E+00  0.00000000000E+00  0.20336314382E+04  0.20336314382E+04  0.00000000000E+00 0. -1.
         -2   -1    0    0    0  501 -0.00000000000E+00 -0.00000000000E+00 -0.99020720922E+03  0.99020720922E+03  0.00000000000E+00 0.  1.
         23    2    1    2    0    0  0.12870209852E+04  0.49833933715E+03  0.17711027471E+03  0.13943402648E+04  0.89730782597E+02 0.  0.
         13    1    3    3    0    0  0.86195244478E+03  0.34131847625E+03  0.16073126166E+03  0.94090108819E+03  0.00000000000E+00 0. -1.
        -13    1    3    3    0    0  0.42506854047E+03  0.15702086090E+03  0.16379013044E+02  0.45343917666E+03  0.00000000000E+00 0.  1.
         22    1    1    2    0    0 -0.12870209852E+04 -0.49833933715E+03  0.86631395427E+03  0.16294983826E+04  0.00000000000E+00 0.  1.
<mgrwt>
<rscale>  0 0.28381096E+04</rscale>
<asrwt>0</asrwt>
<pdfrwt beam="1">  1        2 0.31286637E+00 0.28381096E+04</pdfrwt>
<pdfrwt beam="2">  1       -2 0.15233957E+00 0.28381096E+04</pdfrwt>
<totfact> 0.15961719E+00</totfact>
</mgrwt>
</event>
<event>
 6    1  0.3017327E-006  0.2577063E+04  0.7818608E-02  0.8376034E-01
          2   -1    0    0  501    0  0.00000000000E+00  0.00000000000E+00  0.22038806707E+04  0.22038806707E+04  0.00000000000E+00 0.  1.
         -2   -1    0    0    0  501 -0.00000000000E+00 -0.00000000000E+00 -0.75335902939E+03  0.75335902939E+03  0.00000000000E+00 0. -1.
         23    2    1    2    0    0 -0.89311882539E+03  0.21612569741E+03  0.17600779105E+04  0.19876023261E+04  0.91198696295E+02 0.  0.
         11    1    3    3    0    0 -0.15295352290E+03  0.14678731259E+02  0.24069971992E+03  0.28556365400E+03  0.00000000000E+00 0. -1.
        -11    1    3    3    0    0 -0.74016530249E+03  0.20144696615E+03  0.15193781906E+04  0.17020386721E+04  0.00000000000E+00 0.  1.
         22    1    1    2    0    0  0.89311882539E+03 -0.21612569741E+03 -0.30955626918E+03  0.96963737404E+03  0.00000000000E+00 0. -1.
<mgrwt>
<rscale>  0 0.25770630E+04</rscale>
<asrwt>0</asrwt>
<pdfrwt beam="1">  1        2 0.33905856E+00 0.25770630E+04</pdfrwt>
<pdfrwt beam="2">  1       -2 0.11590139E+00 0.25770630E+04</pdfrwt>
<totfact> 0.26338479E+00</totfact>
</mgrwt>
</event>
<event>
 6    1  0.3017327E-006  0.4437784E+04  0.7818608E-02  0.7921620E-01
          2   -1    0    0  501    0  0.00000000000E+00  0.00000000000E+00  0.16011242866E+04  0.16011242866E+04  0.00000000000E+00 0. -1.
         -2   -1    0    0    0  501 -0.00000000000E+00 -0.00000000000E+00 -0.30750151776E+04  0.30750151776E+04  0.00000000000E+00 0.  1.
         23    2    1    2    0    0  0.67514734542E+03 -0.12755382378E+04  0.10373640357E+04  0.17797239138E+04  0.92039843146E+02 0.  0.
         11    1    3    3    0    0  0.51479828333E+03 -0.90495944113E+03  0.71442908506E+03  0.12626867308E+04  0.00000000000E+00 0. -1.
        -11    1    3    3    0    0  0.16034906208E+03 -0.37057879663E+03  0.32293495064E+03  0.51703718296E+03  0.00000000000E+00 0.  1.
         22    1    1    2    0    0 -0.67514734542E+03  0.12755382378E+04 -0.25112549266E+04  0.28964155504E+04  0.00000000000E+00 0.  1.
<mgrwt>
<rscale>  0 0.44377839E+04</rscale>
<asrwt>0</asrwt>
<pdfrwt beam="1">  1        2 0.24632682E+00 0.44377839E+04</pdfrwt>
<pdfrwt beam="2">  1       -2 0.47307925E+00 0.44377839E+04</pdfrwt>
<totfact> 0.20806641E-02</totfact>
</mgrwt>
</event>
<event>
 6    1  0.3017327E-006  0.1507797E+04  0.7818608E-02  0.8879284E-01
         -2   -1    0    0    0  501 -0.00000000000E+00  0.00000000000E+00  0.34513606010E+03  0.34513606010E+03  0.00000000000E+00 0.  1.
          2   -1    0    0  501    0  0.00000000000E+00 -0.00000000000E+00 -0.16467795082E+04  0.16467795082E+04  0.00000000000E+00 0. -1.
         23    2    1    2    0    0  0.29255370552E+03 -0.17353065730E+03 -0.15380023877E+04  0.15777101748E+04  0.89540446573E+02 0.  0.
         11    1    3    3    0    0  0.14003760619E+03 -0.41550015271E+02 -0.53205249343E+03  0.55173978530E+03  0.00000000000E+00 0.  1.
        -11    1    3    3    0    0  0.15251609933E+03 -0.13198064203E+03 -0.10059498943E+04  0.10259703895E+04  0.00000000000E+00 0. -1.
         22    1    1    2    0    0 -0.29255370552E+03  0.17353065730E+03  0.23635893961E+03  0.41420539345E+03  0.00000000000E+00 0.  1.
<mgrwt>
<rscale>  0 0.15077971E+04</rscale>
<asrwt>0</asrwt>
<pdfrwt beam="1">  1        2 0.25335069E+00 0.15077971E+04</pdfrwt>
<pdfrwt beam="2">  1       -2 0.53097855E-01 0.15077971E+04</pdfrwt>
<totfact> 0.33905397E+01</totfact>
</mgrwt>
</event>
<event>
 6    1  0.3017327E-006  0.2201031E+04  0.7818608E-02  0.8517999E-01
         -2   -1    0    0    0  501 -0.00000000000E+00  0.00000000000E+00  0.99210328688E+03  0.99210328688E+03  0.00000000000E+00 0. -1.
          2   -1    0    0  501    0  0.00000000000E+00 -0.00000000000E+00 -0.12207748428E+04  0.12207748428E+04  0.00000000000E+00 0.  1.
         23    2    1    2    0    0  0.46461183507E+03 -0.60883082353E+03  0.67730259836E+03  0.10265694442E+04  0.92557469334E+02 0.  0.
         13    1    3    3    0    0  0.15296763488E+03 -0.26553448193E+03  0.29929840430E+03  0.42835405126E+03  0.00000000000E+00 0.  1.
        -13    1    3    3    0    0  0.31164420019E+03 -0.34329634159E+03  0.37800419406E+03  0.59821539297E+03  0.00000000000E+00 0. -1.
         22    1    1    2    0    0 -0.46461183507E+03  0.60883082353E+03 -0.90597415431E+03  0.11863086855E+04  0.00000000000E+00 0.  1.
<mgrwt>
<rscale>  0 0.22010313E+04</rscale>
<asrwt>0</asrwt>
<pdfrwt beam="1">  1        2 0.18781151E+00 0.22010313E+04</pdfrwt>
<pdfrwt beam="2">  1       -2 0.15263127E+00 0.22010313E+04</pdfrwt>
<totfact> 0.48132539E+00</totfact>
</mgrwt>
</event>
<event>
 6    1  0.3017327E-006  0.2861399E+04  0.7818608E-02  0.8284456E-01
         -2   -1    0    0    0  501 -0.00000000000E+00  0.00000000000E+00  0.83053160467E+03  0.83053160467E+03  0.00000000000E+00 0.  1.
          2   -1    0    0  501    0  0.00000000000E+00 -0.00000000000E+00 -0.24645681278E+04  0.24645681278E+04  0.00000000000E+00 0. -1.
         23    2    1    2    0    0 -0.98977627787E+03  0.11023433093E+02 -0.20050827378E+04  0.22380028165E+04  0.92310482452E+02 0.  0.
         13    1    3    3    0    0 -0.48788147284E+03 -0.12158718842E+02 -0.89202560552E+03  0.10168017736E+04  0.00000000000E+00 0. -1.
        -13    1    3    3    0    0 -0.50189480503E+03  0.23182151935E+02 -0.11130571323E+04  0.12212010429E+04  0.00000000000E+00 0.  1.
         22    1    1    2    0    0  0.98977627787E+03 -0.11023433093E+02  0.37104621463E+03  0.10570969159E+04  0.00000000000E+00 0.  1.
<mgrwt>
<rscale>  0 0.28613995E+04</rscale>
<asrwt>0</asrwt>
<pdfrwt beam="1">  1        2 0.37916432E+00 0.28613995E+04</pdfrwt>
<pdfrwt beam="2">  1       -2 0.12777410E+00 0.28613995E+04</pdfrwt>
<totfact> 0.14332463E+00</totfact>
</mgrwt>
</event>
<event>
 6    1  0.3017327E-006  0.1354846E+04  0.7818608E-02  0.8987168E-01
          2   -1    0    0  501    0  0.00000000000E+00  0.00000000000E+00  0.12213228906E+04  0.12213228906E+04  0.00000000000E+00 0. -1.
         -2   -1    0    0    0  501 -0.00000000000E+00 -0.00000000000E+00 -0.37574166711E+03  0.37574166711E+03  0.00000000000E+00 0.  1.
         23    2    1    2    0    0  0.54641399910E+03 -0.15875659153E+03 -0.14429712976E+01  0.57666174493E+03  0.93620361687E+02 0.  0.
         13    1    3    3    0    0  0.24614327124E+03 -0.10897740457E+03  0.29134002664E+02  0.27076073348E+03  0.00000000000E+00 0.  1.
        -13    1    3    3    0    0  0.30027072786E+03 -0.49779186962E+02 -0.30576973962E+02  0.30590101144E+03  0.00000000000E+00 0. -1.
         22    1    1    2    0    0 -0.54641399910E+03  0.15875659153E+03  0.84702419476E+03  0.10204028128E+04  0.00000000000E+00 0. -1.
<mgrwt>
<rscale>  0 0.13548460E+04</rscale>
<asrwt>0</asrwt>
<pdfrwt beam="1">  1        2 0.18789583E+00 0.13548460E+04</pdfrwt>
<pdfrwt beam="2">  1       -2 0.57806411E-01 0.13548460E+04</pdfrwt>
<totfact> 0.50315315E+01</totfact>
</mgrwt>
</event>
<event>
 6    1  0.4192409E-006  0.2404202E+04  0.7818608E-02  0.8437932E-01
         -2   -1    0    0    0  501 -0.00000000000E+00  0.00000000000E+00  0.90391539220E+03  0.90391539220E+03  0.00000000000E+00 0.  1.
          2   -1    0    0  501    0  0.00000000000E+00 -0.00000000000E+00 -0.15986521702E+04  0.15986521702E+04  0.00000000000E+00 0. -1.
         23    2    1    2    0    0  0.83107708836E+02 -0.72024475543E+03 -0.13437503793E+04  0.15294909704E+04  0.89544109757E+02 0.  0.
         11    1    3    3    0    0  0.86694007309E+02 -0.39321731607E+03 -0.70521127733E+03  0.81207059683E+03  0.00000000000E+00 0. -1.
        -11    1    3    3    0    0 -0.35862984726E+01 -0.32702743936E+03 -0.63853910201E+03  0.71742037358E+03  0.00000000000E+00 0.  1.
         22    1    1    2    0    0 -0.83107708836E+02  0.72024475543E+03  0.64901360139E+03  0.97307659194E+03  0.00000000000E+00 0.  1.
<mgrwt>
<rscale>  0 0.24042016E+04</rscale>
<asrwt>0</asrwt>
<pdfrwt beam="1">  1        2 0.24594648E+00 0.24042016E+04</pdfrwt>
<pdfrwt beam="2">  1       -2 0.13906391E+00 0.24042016E+04</pdfrwt>
<totfact> 0.36707795E+00</totfact>
</mgrwt>
</event>
<event>
 6    1  0.3017327E-006  0.5120372E+04  0.7818608E-02  0.7810202E-01
         -2   -1    0    0    0  501 -0.00000000000E+00  0.00000000000E+00  0.27650179979E+04  0.27650179979E+04  0.00000000000E+00 0.  1.
          2   -1    0    0  501    0  0.00000000000E+00 -0.00000000000E+00 -0.23705281549E+04  0.23705281549E+04  0.00000000000E+00 0. -1.
         23    2    1    2    0    0 -0.92935896534E+03  0.23389688817E+04  0.66323487071E+03  0.26043987044E+04  0.92350427199E+02 0.  0.
         11    1    3    3    0    0 -0.55913667584E+03  0.12923402528E+04  0.38884684799E+03  0.14608145065E+04  0.00000000000E+00 0. -1.
        -11    1    3    3    0    0 -0.37022228950E+03  0.10466286289E+04  0.27438802272E+03  0.11435841978E+04  0.00000000000E+00 0.  1.
         22    1    1    2    0    0  0.92935896534E+03 -0.23389688817E+04 -0.26874502768E+03  0.25311474485E+04  0.00000000000E+00 0. -1.
<mgrwt>
<rscale>  0 0.51203723E+04</rscale>
<asrwt>0</asrwt>
<pdfrwt beam="1">  1        2 0.36469664E+00 0.51203723E+04</pdfrwt>
<pdfrwt beam="2">  1       -2 0.42538738E+00 0.51203723E+04</pdfrwt>
<totfact> 0.15080494E-02</totfact>
</mgrwt>
</event>
<event>
 6    1  0.3017327E-006  0.1566913E+04  0.7818608E-02  0.8841137E-01
          2   -1    0    0  501    0  0.00000000000E+00  0.00000000000E+00  0.12228767226E+04  0.12228767226E+04  0.00000000000E+00 0. -1.
         -2   -1    0    0    0  501 -0.00000000000E+00 -0.00000000000E+00 -0.50193439212E+03  0.50193439212E+03  0.00000000000E+00 0.  1.
         23    2    1    2    0    0 -0.77548730827E+03 -0.87479056746E+02  0.38101393109E+03  0.87358584058E+03  0.94590985386E+02 0.  0.
         11    1    3    3    0    0 -0.45878938964E+03 -0.36459177588E+02  0.27297077479E+03  0.53509814013E+03  0.00000000000E+00 0. -1.
        -11    1    3    3    0    0 -0.31669791863E+03 -0.51019879159E+02  0.10804315630E+03  0.33848770045E+03  0.00000000000E+00 0.  1.
         22    1    1    2    0    0  0.77548730827E+03  0.87479056746E+02  0.33992839944E+03  0.85122527418E+03  0.00000000000E+00 0.  1.
<mgrwt>
<rscale>  0 0.15669127E+04</rscale>
<asrwt>0</asrwt>
<pdfrwt beam="1">  1        2 0.18813488E+00 0.15669127E+04</pdfrwt>
<pdfrwt beam="2">  1       -2 0.77220676E-01 0.15669127E+04</pdfrwt>
<totfact> 0.26406612E+01</totfact>
</mgrwt>
</event>
<event>
 6    1  0.3017327E-006  0.1739405E+04  0.7818608E-02  0.8739204E-01
          1   -1    0    0  501    0  0.00000000000E+00  0.00000000000E+00  0.14752825780E+04  0.14752825780E+04  0.00000000000E+00 0. -1.
         -1   -1    0    0    0  501 -0.00000000000E+00 -0.00000000000E+00 -0.51270366742E+03  0.51270366742E+03  0.00000000000E+00 0.  1.
         23    2    1    2    0    0  0.87675248616E+02  0.44032565526E+03 -0.36558375106E+03  0.58599134968E+03  0.90336874824E+02 0.  0.
         11    1    3    3    0    0  0.95832837249E+02  0.43597852147E+03 -0.34756802574E+03  0.56574264149E+03  0.00000000000E+00 0. -1.
        -11    1    3    3    0    0 -0.81575886335E+01  0.43471337930E+01 -0.18015725323E+02  0.20248708192E+02  0.00000000000E+00 0.  1.
         22    1    1    2    0    0 -0.87675248616E+02 -0.44032565526E+03  0.13281626616E+04  0.14019948957E+04  0.00000000000E+00 0. -1.
<mgrwt>
<rscale>  0 0.17394054E+04</rscale>
<asrwt>0</asrwt>
<pdfrwt beam="1">  1        1 0.22696655E+00 0.17394054E+04</pdfrwt>
<pdfrwt beam="2">  1       -1 0.78877488E-01 0.17394054E+04</pdfrwt>
<totfact> 0.10376079E+01</totfact>
</mgrwt>
</event>
<event>
 6    1  0.3017327E-006  0.3205544E+04  0.7818608E-02  0.8187355E-01
          2   -1    0    0  501    0  0.00000000000E+00  0.00000000000E+00  0.13168947947E+04  0.13168947947E+04  0.00000000000E+00 0. -1.
         -2   -1    0    0    0  501 -0.00000000000E+00 -0.00000000000E+00 -0.19507082134E+04  0.19507082134E+04  0.00000000000E+00 0.  1.
         23    2    1    2    0    0  0.78940338079E+03  0.13811964891E+04 -0.12958608795E+03  0.15987391310E+04  0.91174643902E+02 0.  0.
         11    1    3    3    0    0  0.15612683733E+03  0.22064678903E+03 -0.44304461044E+02  0.27390414402E+03  0.00000000000E+00 0. -1.
        -11    1    3    3    0    0  0.63327654347E+03  0.11605497001E+04 -0.85281626908E+02  0.13248349870E+04  0.00000000000E+00 0.  1.
         22    1    1    2    0    0 -0.78940338079E+03 -0.13811964891E+04 -0.50422733076E+03  0.16688638771E+04  0.00000000000E+00 0.  1.
<mgrwt>
<rscale>  0 0.32055436E+04</rscale>
<asrwt>0</asrwt>
<pdfrwt beam="1">  1        2 0.20259920E+00 0.32055436E+04</pdfrwt>
<pdfrwt beam="2">  1       -2 0.30010896E+00 0.32055436E+04</pdfrwt>
<totfact> 0.43161509E-01</totfact>
</mgrwt>
</event>
<event>
 6    1  0.3017327E-006  0.1025691E+04  0.7818608E-02  0.9280808E-01
          2   -1    0    0  501    0  0.00000000000E+00  0.00000000000E+00  0.89260638596E+03  0.89260638596E+03  0.00000000000E+00 0. -1.
         -2   -1    0    0    0  501 -0.00000000000E+00 -0.00000000000E+00 -0.29465436770E+03  0.29465436770E+03  0.00000000000E+00 0.  1.
         23    2    1    2    0    0 -0.49046477759E+03 -0.73798461539E+02  0.43321992492E+03  0.66463414359E+03  0.89761520086E+02 0.  0.
         13    1    3    3    0    0 -0.15768683894E+03 -0.63944963315E+02  0.12739490171E+03  0.21256424556E+03  0.00000000000E+00 0. -1.
        -13    1    3    3    0    0 -0.33277793865E+03 -0.98534982242E+01  0.30582502321E+03  0.45206989802E+03  0.00000000000E+00 0.  1.
         22    1    1    2    0    0  0.49046477759E+03  0.73798461539E+02  0.16473209334E+03  0.52262661007E+03  0.00000000000E+00 0.  1.
<mgrwt>
<rscale>  0 0.10256907E+04</rscale>
<asrwt>0</asrwt>
<pdfrwt beam="1">  1        2 0.13732406E+00 0.10256907E+04</pdfrwt>
<pdfrwt beam="2">  1       -2 0.45331442E-01 0.10256907E+04</pdfrwt>
<totfact> 0.13642763E+02</totfact>
</mgrwt>
</event>
<event>
 6    1  0.3017327E-006  0.1303490E+04  0.7818608E-02  0.9026802E-01
          2   -1    0    0  501    0  0.00000000000E+00  0.00000000000E+00  0.17161749222E+04  0.17161749222E+04  0.00000000000E+00 0. -1.
         -2   -1    0    0    0  501 -0.00000000000E+00 -0.00000000000E+00 -0.24751048102E+03  0.24751048102E+03  0.00000000000E+00 0.  1.
         23    2    1    2    0    0  0.14528488888E+03  0.62036457903E+03  0.91872605479E+03  0.11220250568E+04  0.94460333078E+02 0.  0.
         13    1    3    3    0    0 -0.83083976657E+01  0.54846840322E+02  0.53794840923E+02  0.77272830121E+02  0.00000000000E+00 0. -1.
        -13    1    3    3    0    0  0.15359328655E+03  0.56551773871E+03  0.86493121387E+03  0.10447522267E+04  0.00000000000E+00 0.  1.
         22    1    1    2    0    0 -0.14528488888E+03 -0.62036457903E+03  0.54993838634E+03  0.84166034636E+03  0.00000000000E+00 0.  1.
<mgrwt>
<rscale>  0 0.13034896E+04</rscale>
<asrwt>0</asrwt>
<pdfrwt beam="1">  1        2 0.26402690E+00 0.13034896E+04</pdfrwt>
<pdfrwt beam="2">  1       -2 0.38078537E-01 0.13034896E+04</pdfrwt>
<totfact> 0.61278576E+01</totfact>
</mgrwt>
</event>
<event>
 6    1  0.3017327E-006  0.1940475E+04  0.7818608E-02  0.8634968E-01
         -2   -1    0    0    0  501 -0.00000000000E+00  0.00000000000E+00  0.67664957974E+03  0.67664957974E+03  0.00000000000E+00 0.  1.
          2   -1    0    0  501    0  0.00000000000E+00 -0.00000000000E+00 -0.13912085526E+04  0.13912085526E+04  0.00000000000E+00 0. -1.
         23    2    1    2    0    0 -0.48205107327E+03  0.40805023806E+03 -0.11401169375E+04  0.13062953869E+04  0.87537265040E+02 0.  0.
         13    1    3    3    0    0 -0.33837647630E+03  0.24132010045E+03 -0.69639926410E+03  0.81099073091E+03  0.00000000000E+00 0. -1.
        -13    1    3    3    0    0 -0.14367459698E+03  0.16673013761E+03 -0.44371767336E+03  0.49530465600E+03  0.00000000000E+00 0.  1.
         22    1    1    2    0    0  0.48205107327E+03 -0.40805023806E+03  0.42555796459E+03  0.76156274544E+03  0.00000000000E+00 0.  1.
<mgrwt>
<rscale>  0 0.19404749E+04</rscale>
<asrwt>0</asrwt>
<pdfrwt beam="1">  1        2 0.21403208E+00 0.19404749E+04</pdfrwt>
<pdfrwt beam="2">  1       -2 0.10409994E+00 0.19404749E+04</pdfrwt>
<totfact> 0.10257348E+01</totfact>
</mgrwt>
</event>
<event>
 6    1  0.3348572E-006  0.4154487E+04  0.7818608E-02  0.7974087E-01
          2   -1    0    0  501    0  0.00000000000E+00  0.00000000000E+00  0.25773463309E+04  0.25773463309E+04  0.00000000000E+00 0. -1.
         -2   -1    0    0    0  501 -0.00000000000E+00 -0.00000000000E+00 -0.16741799060E+04  0.16741799060E+04  0.00000000000E+00 0.  1.
         23    2    1    2    0    0 -0.16635692406E+04 -0.12395772766E+04  0.53434525724E+03  0.21443851651E+04  0.94066142886E+02 0.  0.
         11    1    3    3    0    0 -0.63537610152E+03 -0.48626833179E+03  0.16011395110E+03  0.81596333142E+03  0.00000000000E+00 0. -1.
        -11    1    3    3    0    0 -0.10281931391E+04 -0.75330894477E+03  0.37423130614E+03  0.13284218336E+04  0.00000000000E+00 0.  1.
         22    1    1    2    0    0  0.16635692406E+04  0.12395772766E+04  0.36882116771E+03  0.21071410719E+04  0.00000000000E+00 0.  1.
<mgrwt>
<rscale>  0 0.41544874E+04</rscale>
<asrwt>0</asrwt>
<pdfrwt beam="1">  1        2 0.39651482E+00 0.41544874E+04</pdfrwt>
<pdfrwt beam="2">  1       -2 0.25756614E+00 0.41544874E+04</pdfrwt>
<totfact> 0.14115680E-01</totfact>
</mgrwt>
</event>
<event>
 6    1  0.3655831E-006  0.3445359E+04  0.7818608E-02  0.8126863E-01
          2   -1    0    0  501    0  0.00000000000E+00  0.00000000000E+00  0.26434940324E+04  0.26434940324E+04  0.00000000000E+00 0. -1.
         -2   -1    0    0    0  501 -0.00000000000E+00 -0.00000000000E+00 -0.11226144524E+04  0.11226144524E+04  0.00000000000E+00 0.  1.
         23    2    1    2    0    0 -0.98490020658E+03  0.61060580857E+02  0.23028868578E+04  0.25070246140E+04  0.90153888127E+02 0.  0.
         11    1    3    3    0    0 -0.48967165469E+03  0.47092305775E+02  0.10414688303E+04  0.11518043841E+04  0.00000000000E+00 0. -1.
        -11    1    3    3    0    0 -0.49522855189E+03  0.13968275081E+02  0.12614180275E+04  0.13552202299E+04  0.00000000000E+00 0.  1.
         22    1    1    2    0    0  0.98490020658E+03 -0.61060580857E+02 -0.78200727783E+03  0.12590838709E+04  0.00000000000E+00 0.  1.
<mgrwt>
<rscale>  0 0.34453590E+04</rscale>
<asrwt>0</asrwt>
<pdfrwt beam="1">  1        2 0.40669139E+00 0.34453590E+04</pdfrwt>
<pdfrwt beam="2">  1       -2 0.17270992E+00 0.34453590E+04</pdfrwt>
<totfact> 0.48270861E-01</totfact>
</mgrwt>
</event>
<event>
 6    1  0.3017327E-006  0.2147001E+04  0.7818608E-02  0.8540817E-01
          1   -1    0    0  501    0  0.00000000000E+00  0.00000000000E+00  0.21110075218E+04  0.21110075218E+04  0.00000000000E+00 0.  1.
         -1   -1    0    0    0  501 -0.00000000000E+00 -0.00000000000E+00 -0.54590198684E+03  0.54590198684E+03  0.00000000000E+00 0. -1.
         23    2    1    2    0    0  0.89860649736E+03 -0.39792381021E+03  0.13122355224E+04  0.16421286263E+04  0.93740936937E+02 0.  0.
         13    1    3    3    0    0  0.66869137771E+03 -0.32718072153E+03  0.10377312030E+04  0.12771379850E+04  0.00000000000E+00 0.  1.
        -13    1    3    3    0    0  0.22991511965E+03 -0.70743088684E+02  0.27450431941E+03  0.36499064127E+03  0.00000000000E+00 0. -1.
         22    1    1    2    0    0 -0.89860649736E+03  0.39792381021E+03  0.25287001252E+03  0.10147808823E+04  0.00000000000E+00 0.  1.
<mgrwt>
<rscale>  0 0.21470009E+04</rscale>
<asrwt>0</asrwt>
<pdfrwt beam="1">  1        1 0.32477038E+00 0.21470009E+04</pdfrwt>
<pdfrwt beam="2">  1       -1 0.83984922E-01 0.21470009E+04</pdfrwt>
<totfact> 0.32235921E+00</totfact>
</mgrwt>
</event>
<event>
 6    1  0.3017327E-006  0.2268019E+04  0.7818608E-02  0.8490639E-01
          2   -1    0    0  501    0  0.00000000000E+00  0.00000000000E+00  0.10281672375E+04  0.10281672375E+04  0.00000000000E+00 0. -1.
         -2   -1    0    0    0  501 -0.00000000000E+00 -0.00000000000E+00 -0.12507474820E+04  0.12507474820E+04  0.00000000000E+00 0.  1.
         23    2    1    2    0    0  0.97792521286E+03 -0.30532658814E+03  0.37268949944E+03  0.10940484336E+04  0.92100296919E+02 0.  0.
         11    1    3    3    0    0  0.46232942629E+03 -0.97430757962E+02  0.18191147666E+03  0.50629342910E+03  0.00000000000E+00 0.  1.
        -11    1    3    3    0    0  0.51559578657E+03 -0.20789583018E+03  0.19077802278E+03  0.58775500450E+03  0.00000000000E+00 0. -1.
         22    1    1    2    0    0 -0.97792521286E+03  0.30532658814E+03 -0.59526974390E+03  0.11848662859E+04  0.00000000000E+00 0.  1.
<mgrwt>
<rscale>  0 0.22680190E+04</rscale>
<asrwt>0</asrwt>
<pdfrwt beam="1">  1        2 0.15817957E+00 0.22680190E+04</pdfrwt>
<pdfrwt beam="2">  1       -2 0.19242269E+00 0.22680190E+04</pdfrwt>
<totfact> 0.32791408E+00</totfact>
</mgrwt>
</event>
<event>
 6    1  0.3017327E-006  0.3307524E+04  0.7818608E-02  0.8160983E-01
         -2   -1    0    0    0  501 -0.00000000000E+00  0.00000000000E+00  0.11638841472E+04  0.11638841472E+04  0.00000000000E+00 0.  1.
          2   -1    0    0  501    0  0.00000000000E+00 -0.00000000000E+00 -0.23498292925E+04  0.23498292925E+04  0.00000000000E+00 0. -1.
         23    2    1    2    0    0  0.12010777574E+04  0.48158190142E+03  0.49840278853E+03  0.13896755705E+04  0.91016177138E+02 0.  0.
         11    1    3    3    0    0  0.30109671508E+03  0.16319342348E+03  0.12374199468E+03  0.36414750658E+03  0.00000000000E+00 0. -1.
        -11    1    3    3    0    0  0.89998104235E+03  0.31838847794E+03  0.37466079384E+03  0.10255280639E+04  0.00000000000E+00 0.  1.
         22    1    1    2    0    0 -0.12010777574E+04 -0.48158190142E+03 -0.16843479338E+04  0.21240378691E+04  0.00000000000E+00 0. -1.
<mgrwt>
<rscale>  0 0.33075242E+04</rscale>
<asrwt>0</asrwt>
<pdfrwt beam="1">  1        2 0.36151220E+00 0.33075242E+04</pdfrwt>
<pdfrwt beam="2">  1       -2 0.17905910E+00 0.33075242E+04</pdfrwt>
<totfact> 0.65248242E-01</totfact>
</mgrwt>
</event>
<event>
 6    1  0.3017327E-006  0.2192812E+04  0.7818608E-02  0.8521426E-01
         -2   -1    0    0    0  501 -0.00000000000E+00  0.00000000000E+00  0.11231248803E+04  0.11231248803E+04  0.00000000000E+00 0.  1.
          2   -1    0    0  501    0  0.00000000000E+00 -0.00000000000E+00 -0.10703231129E+04  0.10703231129E+04  0.00000000000E+00 0. -1.
         23    2    1    2    0    0  0.91208710551E+03  0.56928788318E+03  0.23322587942E+03  0.11032441397E+04  0.82229793418E+02 0.  0.
         11    1    3    3    0    0  0.16767321610E+03  0.10163550413E+03  0.75402878808E+02  0.21007064819E+03  0.00000000000E+00 0.  1.
        -11    1    3    3    0    0  0.74441388940E+03  0.46765237905E+03  0.15782300061E+03  0.89317349148E+03  0.00000000000E+00 0. -1.
         22    1    1    2    0    0 -0.91208710551E+03 -0.56928788318E+03 -0.18042411209E+03  0.10902038535E+04  0.00000000000E+00 0. -1.
<mgrwt>
<rscale>  0 0.21928124E+04</rscale>
<asrwt>0</asrwt>
<pdfrwt beam="1">  1        2 0.16466509E+00 0.21928124E+04</pdfrwt>
<pdfrwt beam="2">  1       -2 0.17278844E+00 0.21928124E+04</pdfrwt>
<totfact> 0.42334169E+00</totfact>
</mgrwt>
</event>
<event>
 6    1  0.3017327E-006  0.2461640E+04  0.7818608E-02  0.8416780E-01
         -2   -1    0    0    0  501 -0.00000000000E+00  0.00000000000E+00  0.40780042899E+03  0.40780042899E+03  0.00000000000E+00 0.  1.
          2   -1    0    0  501    0  0.00000000000E+00 -0.00000000000E+00 -0.37148522490E+04  0.37148522490E+04  0.00000000000E+00 0. -1.
         23    2    1    2    0    0  0.46133291175E+03  0.29766421344E+03 -0.34973384929E+04  0.35415837859E+04  0.10003569195E+03 0.  0.
         13    1    3    3    0    0  0.26651709692E+03  0.15052801690E+03 -0.16460534063E+04  0.16742705466E+04  0.00000000000E+00 0.  1.
        -13    1    3    3    0    0  0.19481581483E+03  0.14713619654E+03 -0.18512850865E+04  0.18673132393E+04  0.00000000000E+00 0. -1.
         22    1    1    2    0    0 -0.46133291175E+03 -0.29766421344E+03  0.19028667287E+03  0.58106889205E+03  0.00000000000E+00 0.  1.
<mgrwt>
<rscale>  0 0.24616404E+04</rscale>
<asrwt>0</asrwt>
<pdfrwt beam="1">  1        2 0.57151575E+00 0.24616404E+04</pdfrwt>
<pdfrwt beam="2">  1       -2 0.62738525E-01 0.24616404E+04</pdfrwt>
<totfact> 0.12022003E+00</totfact>
</mgrwt>
</event>
<event>
 6    1  0.3017327E-006  0.1188402E+04  0.7818608E-02  0.9123069E-01
          2   -1    0    0  501    0  0.00000000000E+00  0.00000000000E+00  0.49846887819E+03  0.49846887819E+03  0.00000000000E+00 0. -1.
         -2   -1    0    0    0  501 -0.00000000000E+00 -0.00000000000E+00 -0.70831912578E+03  0.70831912578E+03  0.00000000000E+00 0.  1.
         23    2    1    2    0    0  0.22575709425E+03 -0.46572265422E+03  0.18358791359E+03  0.55666690530E+03  0.91157364958E+02 0.  0.
         13    1    3    3    0    0  0.33292811353E+02 -0.36296426888E+02  0.43398533843E+02  0.65645065560E+02  0.00000000000E+00 0.  1.
        -13    1    3    3    0    0  0.19246428289E+03 -0.42942622733E+03  0.14018937975E+03  0.49102183974E+03  0.00000000000E+00 0. -1.
         22    1    1    2    0    0 -0.22575709425E+03  0.46572265422E+03 -0.39343816118E+03  0.65012109866E+03  0.00000000000E+00 0.  1.
<mgrwt>
<rscale>  0 0.11884024E+04</rscale>
<asrwt>0</asrwt>
<pdfrwt beam="1">  1        2 0.76687520E-01 0.11884024E+04</pdfrwt>
<pdfrwt beam="2">  1       -2 0.10897217E+00 0.11884024E+04</pdfrwt>
<totfact> 0.41017762E+01</totfact>
</mgrwt>
</event>
<event>
 6    1  0.3017327E-006  0.2158766E+04  0.7818608E-02  0.8535789E-01
         -2   -1    0    0    0  501 -0.00000000000E+00  0.00000000000E+00  0.11199893867E+04  0.11199893867E+04  0.00000000000E+00 0.  1.
          2   -1    0    0  501    0  0.00000000000E+00 -0.00000000000E+00 -0.10402487093E+04  0.10402487093E+04  0.00000000000E+00 0. -1.
         23    2    1    2    0    0  0.56088014831E+03  0.17805538325E+03  0.94382662251E+03  0.11148028848E+04  0.75409007532E+02 0.  0.
         11    1    3    3    0    0  0.37063348838E+03  0.14157313656E+03  0.58172629446E+03  0.70414317960E+03  0.00000000000E+00 0.  1.
        -11    1    3    3    0    0  0.19024665993E+03  0.36482246689E+02  0.36210032804E+03  0.41065970524E+03  0.00000000000E+00 0. -1.
         22    1    1    2    0    0 -0.56088014831E+03 -0.17805538325E+03 -0.86408594504E+03  0.10454352111E+04  0.00000000000E+00 0. -1.
<mgrwt>
<rscale>  0 0.21587659E+04</rscale>
<asrwt>0</asrwt>
<pdfrwt beam="1">  1        2 0.16003826E+00 0.21587659E+04</pdfrwt>
<pdfrwt beam="2">  1       -2 0.17230606E+00 0.21587659E+04</pdfrwt>
<totfact> 0.44688560E+00</totfact>
</mgrwt>
</event>
<event>
 6    1  0.5177473E-006  0.2418606E+04  0.7818608E-02  0.8432570E-01
         -2   -1    0    0    0  501 -0.00000000000E+00  0.00000000000E+00  0.59748245104E+03  0.59748245104E+03  0.00000000000E+00 0.  1.
          2   -1    0    0  501    0  0.00000000000E+00 -0.00000000000E+00 -0.24476269540E+04  0.24476269540E+04  0.00000000000E+00 0. -1.
         23    2    1    2    0    0 -0.28749792562E+03 -0.11047605010E+04 -0.14234147626E+04  0.18264014444E+04  0.80509800535E+02 0.  0.
         13    1    3    3    0    0 -0.13685739725E+03 -0.43192008969E+03 -0.51467133658E+03  0.68569052477E+03  0.00000000000E+00 0.  1.
        -13    1    3    3    0    0 -0.15064052837E+03 -0.67284041136E+03 -0.90874342597E+03  0.11407109196E+04  0.00000000000E+00 0. -1.
         22    1    1    2    0    0  0.28749792562E+03  0.11047605010E+04 -0.42672974038E+03  0.12187079606E+04  0.00000000000E+00 0.  1.
<mgrwt>
<rscale>  0 0.24186063E+04</rscale>
<asrwt>0</asrwt>
<pdfrwt beam="1">  1        2 0.37655799E+00 0.24186063E+04</pdfrwt>
<pdfrwt beam="2">  1       -2 0.91920378E-01 0.24186063E+04</pdfrwt>
<totfact> 0.33722620E+00</totfact>
</mgrwt>
</event>
<event>
 6    1  0.3017327E-006  0.1236556E+04  0.7818608E-02  0.9081448E-01
         -2   -1    0    0    0  501 -0.00000000000E+00  0.00000000000E+00  0.84839292712E+03  0.84839292712E+03  0.00000000000E+00 0.  1.
          2   -1    0    0  501    0  0.00000000000E+00 -0.00000000000E+00 -0.45057840774E+03  0.45057840774E+03  0.00000000000E+00 0. -1.
         23    2    1    2    0    0 -0.82928225845E+02 -0.59258119190E+03  0.51631707669E+02  0.60768839802E+03  0.92681153460E+02 0.  0.
         13    1    3    3    0    0 -0.13241079544E+02 -0.34953354954E+03  0.59076652162E+02  0.35473804317E+03  0.00000000000E+00 0. -1.
        -13    1    3    3    0    0 -0.69687146301E+02 -0.24304764237E+03 -0.74449444933E+01  0.25295035485E+03  0.00000000000E+00 0.  1.
         22    1    1    2    0    0  0.82928225845E+02  0.59258119190E+03  0.34618281172E+03  0.69128293684E+03  0.00000000000E+00 0.  1.
<mgrwt>
<rscale>  0 0.12365558E+04</rscale>
<asrwt>0</asrwt>
<pdfrwt beam="1">  1        2 0.69319755E-01 0.12365558E+04</pdfrwt>
<pdfrwt beam="2">  1       -2 0.13052199E+00 0.12365558E+04</pdfrwt>
<totfact> 0.29371489E+01</totfact>
</mgrwt>
</event>
<event>
 6    1  0.3017327E-006  0.2210288E+04  0.7818608E-02  0.8514158E-01
          2   -1    0    0  501    0  0.00000000000E+00  0.00000000000E+00  0.74107348436E+03  0.74107348436E+03  0.00000000000E+00 0. -1.
         -2   -1    0    0    0  501 -0.00000000000E+00 -0.00000000000E+00 -0.16480727302E+04  0.16480727302E+04  0.00000000000E+00 0.  1.
         23    2    1    2    0    0  0.73681541285E+02 -0.26538888489E+03  0.69998136597E+03  0.75873310234E+03  0.99205736400E+02 0.  0.
         13    1    3    3    0    0 -0.73334396636E+01 -0.14039691907E+03  0.28410263498E+03  0.31698482838E+03  0.00000000000E+00 0.  1.
        -13    1    3    3    0    0  0.81014980949E+02 -0.12499196583E+03  0.41587873098E+03  0.44174827396E+03  0.00000000000E+00 0. -1.
         22    1    1    2    0    0 -0.73681541285E+02  0.26538888489E+03 -0.16069806118E+04  0.16304131122E+04  0.00000000000E+00 0.  1.
<mgrwt>
<rscale>  0 0.22102878E+04</rscale>
<asrwt>0</asrwt>
<pdfrwt beam="1">  1        2 0.11401131E+00 0.22102878E+04</pdfrwt>
<pdfrwt beam="2">  1       -2 0.25354965E+00 0.22102878E+04</pdfrwt>
<totfact> 0.21253370E+00</totfact>
</mgrwt>
</event>
<event>
 6    1  0.3017327E-006  0.2129615E+04  0.7818608E-02  0.8548309E-01
          2   -1    0    0  501    0  0.00000000000E+00  0.00000000000E+00  0.17895310783E+04  0.17895310783E+04  0.00000000000E+00 0. -1.
         -2   -1    0    0    0  501 -0.00000000000E+00 -0.00000000000E+00 -0.63358196478E+03  0.63358196478E+03  0.00000000000E+00 0.  1.
         23    2    1    2    0    0  0.37714104289E+03 -0.15042896206E+03 -0.53899608931E+03  0.68021216252E+03  0.85484284501E+02 0.  0.
         13    1    3    3    0    0  0.80066934739E+02 -0.40951633254E+02 -0.68226927326E+02  0.11288340851E+03  0.00000000000E+00 0.  1.
        -13    1    3    3    0    0  0.29707410815E+03 -0.10947732881E+03 -0.47076916198E+03  0.56732875401E+03  0.00000000000E+00 0. -1.
         22    1    1    2    0    0 -0.37714104289E+03  0.15042896206E+03  0.16949452028E+04  0.17429008806E+04  0.00000000000E+00 0. -1.
<mgrwt>
<rscale>  0 0.21296146E+04</rscale>
<asrwt>0</asrwt>
<pdfrwt beam="1">  1        2 0.27531247E+00 0.21296146E+04</pdfrwt>
<pdfrwt beam="2">  1       -2 0.97474149E-01 0.21296146E+04</pdfrwt>
<totfact> 0.70542829E+00</totfact>
</mgrwt>
</event>
<event>
 6    1  0.3017327E-006  0.2611309E+04  0.7818608E-02  0.8364370E-01
         -1   -1    0    0    0  501 -0.00000000000E+00  0.00000000000E+00  0.58819372472E+03  0.58819372472E+03  0.00000000000E+00 0.  1.
          1   -1    0    0  501    0  0.00000000000E+00 -0.00000000000E+00 -0.28982516640E+04  0.28982516640E+04  0.00000000000E+00 0. -1.
         23    2    1    2    0    0  0.82298076815E+03 -0.95339536286E+03 -0.70523099291E+03  0.14464136266E+04  0.92203921490E+02 0.  0.
         13    1    3    3    0    0  0.75950743218E+02 -0.90487556704E+02 -0.36780542361E+02  0.12373084341E+03  0.00000000000E+00 0. -1.
        -13    1    3    3    0    0  0.74703002493E+03 -0.86290780615E+03 -0.66845045055E+03  0.13226827832E+04  0.00000000000E+00 0.  1.
         22    1    1    2    0    0 -0.82298076815E+03  0.95339536286E+03 -0.16048269463E+04  0.20400317621E+04  0.00000000000E+00 0. -1.
<mgrwt>
<rscale>  0 0.26113088E+04</rscale>
<asrwt>0</asrwt>
<pdfrwt beam="1">  1        1 0.44588487E+00 0.26113088E+04</pdfrwt>
<pdfrwt beam="2">  1       -1 0.90491342E-01 0.26113088E+04</pdfrwt>
<totfact> 0.74379044E-01</totfact>
</mgrwt>
</event>
<event>
 6    1  0.3017327E-006  0.3662787E+04  0.7818608E-02  0.8076259E-01
          2   -1    0    0  501    0  0.00000000000E+00  0.00000000000E+00  0.17832104861E+04  0.17832104861E+04  0.00000000000E+00 0.  1.
         -2   -1    0    0    0  501 -0.00000000000E+00 -0.00000000000E+00 -0.18808785324E+04  0.18808785324E+04  0.00000000000E+00 0. -1.
         23    2    1    2    0    0 -0.75156506130E+03 -0.13207796363E+03 -0.17130269487E+04  0.18775619368E+04  0.92102493867E+02 0.  0.
         13    1    3    3    0    0 -0.28187522560E+03 -0.70537417102E+01 -0.59315959409E+03  0.65676609393E+03  0.00000000000E+00 0.  1.
        -13    1    3    3    0    0 -0.46968983570E+03 -0.12502422192E+03 -0.11198673547E+04  0.12207958428E+04  0.00000000000E+00 0. -1.
         22    1    1    2    0    0  0.75156506130E+03  0.13207796363E+03  0.16153589025E+04  0.17865270817E+04  0.00000000000E+00 0.  1.
<mgrwt>
<rscale>  0 0.36627871E+04</rscale>
<asrwt>0</asrwt>
<pdfrwt beam="1">  1        2 0.27434008E+00 0.36627871E+04</pdfrwt>
<pdfrwt beam="2">  1       -2 0.28936593E+00 0.36627871E+04</pdfrwt>
<totfact> 0.26390576E-01</totfact>
</mgrwt>
</event>
<event>
 6    1  0.3017327E-006  0.1390104E+04  0.7818608E-02  0.8961013E-01
          2   -1    0    0  501    0  0.00000000000E+00  0.00000000000E+00  0.29502249689E+03  0.29502249689E+03  0.00000000000E+00 0. -1.
         -2   -1    0    0    0  501 -0.00000000000E+00 -0.00000000000E+00 -0.16374927993E+04  0.16374927993E+04  0.00000000000E+00 0.  1.
         23    2    1    2    0    0 -0.29423559808E+03 -0.51727710963E+03 -0.18356577978E+03  0.62974521367E+03  0.93447543059E+02 0.  0.
         13    1    3    3    0    0 -0.33530959402E+02 -0.13686507826E+03 -0.51596026606E+02  0.15006173678E+03  0.00000000000E+00 0. -1.
        -13    1    3    3    0    0 -0.26070463868E+03 -0.38041203137E+03 -0.13196975318E+03  0.47968347688E+03  0.00000000000E+00 0.  1.
         22    1    1    2    0    0  0.29423559808E+03  0.51727710963E+03 -0.11589045226E+04  0.13027700825E+04  0.00000000000E+00 0.  1.
<mgrwt>
<rscale>  0 0.13901039E+04</rscale>
<asrwt>0</asrwt>
<pdfrwt beam="1">  1        2 0.45388076E-01 0.13901039E+04</pdfrwt>
<pdfrwt beam="2">  1       -2 0.25192197E+00 0.13901039E+04</pdfrwt>
<totfact> 0.68222562E+00</totfact>
</mgrwt>
</event>
<event>
 6    1  0.3017327E-006  0.1639192E+04  0.7818608E-02  0.8796826E-01
         -2   -1    0    0    0  501 -0.00000000000E+00  0.00000000000E+00  0.61691744479E+03  0.61691744479E+03  0.00000000000E+00 0.  1.
          2   -1    0    0  501    0  0.00000000000E+00 -0.00000000000E+00 -0.10888615503E+04  0.10888615503E+04  0.00000000000E+00 0. -1.
         23    2    1    2    0    0 -0.14150191041E+03 -0.44438649122E+01 -0.10741258148E+04  0.10871794885E+04  0.90390461739E+02 0.  0.
         13    1    3    3    0    0 -0.42712338679E+02  0.86906617668E+01 -0.65174343773E+03  0.65319934178E+03  0.00000000000E+00 0. -1.
        -13    1    3    3    0    0 -0.98789571728E+02 -0.13134526679E+02 -0.42238237709E+03  0.43398014673E+03  0.00000000000E+00 0.  1.
         22    1    1    2    0    0  0.14150191041E+03  0.44438649122E+01  0.60218170928E+03  0.61859950661E+03  0.00000000000E+00 0.  1.
<mgrwt>
<rscale>  0 0.16391921E+04</rscale>
<asrwt>0</asrwt>
<pdfrwt beam="1">  1        2 0.16751716E+00 0.16391921E+04</pdfrwt>
<pdfrwt beam="2">  1       -2 0.94910377E-01 0.16391921E+04</pdfrwt>
<totfact> 0.19770714E+01</totfact>
</mgrwt>
</event>
<event>
 6    1  0.3017327E-006  0.2034879E+04  0.7818608E-02  0.8590485E-01
         -2   -1    0    0    0  501 -0.00000000000E+00  0.00000000000E+00  0.63183338316E+03  0.63183338316E+03  0.00000000000E+00 0. -1.
          2   -1    0    0  501    0  0.00000000000E+00 -0.00000000000E+00 -0.16383794576E+04  0.16383794576E+04  0.00000000000E+00 0.  1.
         23    2    1    2    0    0  0.73402144641E+03 -0.69827237122E+03 -0.42785952449E+03  0.11034866898E+04  0.90814721680E+02 0.  0.
         13    1    3    3    0    0  0.23367446584E+03 -0.27000777984E+03 -0.12222009522E+03  0.37741980451E+03  0.00000000000E+00 0. -1.
        -13    1    3    3    0    0  0.50034698057E+03 -0.42826459138E+03 -0.30563942927E+03  0.72606688529E+03  0.00000000000E+00 0.  1.
         22    1    1    2    0    0 -0.73402144641E+03  0.69827237122E+03 -0.57868654990E+03  0.11667261509E+04  0.00000000000E+00 0.  1.
<mgrwt>
<rscale>  0 0.20348787E+04</rscale>
<asrwt>0</asrwt>
<pdfrwt beam="1">  1        2 0.25205837E+00 0.20348787E+04</pdfrwt>
<pdfrwt beam="2">  1       -2 0.97205139E-01 0.20348787E+04</pdfrwt>
<totfact> 0.86850485E+00</totfact>
</mgrwt>
</event>
<event>
 6    1  0.3017327E-006  0.1819952E+04  0.7818608E-02  0.8695760E-01
          2   -1    0    0  501    0  0.00000000000E+00  0.00000000000E+00  0.97671670506E+03  0.97671670506E+03  0.00000000000E+00 0. -1.
         -2   -1    0    0    0  501 -0.00000000000E+00 -0.00000000000E+00 -0.84779609910E+03  0.84779609910E+03  0.00000000000E+00 0.  1.
         23    2    1    2    0    0  0.33501093330E+03 -0.84397449998E+03  0.39709851108E+02  0.91210727983E+03  0.76403766952E+02 0.  0.
         11    1    3    3    0    0  0.14799978896E+03 -0.43767523048E+03 -0.96343904352E+01  0.46212159264E+03  0.00000000000E+00 0. -1.
        -11    1    3    3    0    0  0.18701114433E+03 -0.40629926950E+03  0.49344241543E+02  0.44998568718E+03  0.00000000000E+00 0.  1.
         22    1    1    2    0    0 -0.33501093330E+03  0.84397449998E+03  0.89210754855E+02  0.91240552433E+03  0.00000000000E+00 0. -1.
<mgrwt>
<rscale>  0 0.18199523E+04</rscale>
<asrwt>0</asrwt>
<pdfrwt beam="1">  1        2 0.15026411E+00 0.18199523E+04</pdfrwt>
<pdfrwt beam="2">  1       -2 0.13043017E+00 0.18199523E+04</pdfrwt>
<totfact> 0.10585891E+01</totfact>
</mgrwt>
</event>
<event>
 6    1  0.3017327E-006  0.5282778E+03  0.7818608E-02  0.1006651E+00
         -2   -1    0    0    0  501 -0.00000000000E+00  0.00000000000E+00  0.16188636129E+03  0.16188636129E+03  0.00000000000E+00 0.  1.
          2   -1    0    0  501    0  0.00000000000E+00 -0.00000000000E+00 -0.43097733047E+03  0.43097733047E+03  0.00000000000E+00 0. -1.
         23    2    1    2    0    0 -0.14731877319E+03 -0.14884130312E+02  0.94862497452E+02  0.19994323652E+03  0.95152751606E+02 0.  0.
         13    1    3    3    0    0 -0.82571408125E+02  0.38641414554E+02  0.39639262755E+02  0.99410600593E+02  0.00000000000E+00 0. -1.
        -13    1    3    3    0    0 -0.64747365063E+02 -0.53525544866E+02  0.55223234696E+02  0.10053263593E+03  0.00000000000E+00 0.  1.
         22    1    1    2    0    0  0.14731877319E+03  0.14884130312E+02 -0.36395346664E+03  0.39292045524E+03  0.00000000000E+00 0. -1.
<mgrwt>
<rscale>  0 0.52827777E+03</rscale>
<asrwt>0</asrwt>
<pdfrwt beam="1">  1        2 0.66304203E-01 0.52827777E+03</pdfrwt>
<pdfrwt beam="2">  1       -2 0.24905595E-01 0.52827777E+03</pdfrwt>
<totfact> 0.10565001E+03</totfact>
</mgrwt>
</event>
<event>
 6    1  0.3910413E-006  0.3753109E+04  0.7818608E-02  0.8056293E-01
         -2   -1    0    0    0  501 -0.00000000000E+00  0.00000000000E+00  0.10378578115E+04  0.10378578115E+04  0.00000000000E+00 0.  1.
          2   -1    0    0  501    0  0.00000000000E+00 -0.00000000000E+00 -0.33930043189E+04  0.33930043189E+04  0.00000000000E+00 0. -1.
         23    2    1    2    0    0  0.91388416598E+02 -0.18998619055E+03 -0.33784566913E+04  0.33860605570E+04  0.83605533633E+02 0.  0.
         11    1    3    3    0    0  0.94783290054E+02 -0.10661267067E+03 -0.20006161179E+04  0.20056956362E+04  0.00000000000E+00 0. -1.
        -11    1    3    3    0    0 -0.33948734555E+01 -0.83373519882E+02 -0.13778405734E+04  0.13803649209E+04  0.00000000000E+00 0.  1.
         22    1    1    2    0    0 -0.91388416598E+02  0.18998619055E+03  0.10233101839E+04  0.10448015734E+04  0.00000000000E+00 0.  1.
<mgrwt>
<rscale>  0 0.37531086E+04</rscale>
<asrwt>0</asrwt>
<pdfrwt beam="1">  1        2 0.52200067E+00 0.37531086E+04</pdfrwt>
<pdfrwt beam="2">  1       -2 0.15967043E+00 0.37531086E+04</pdfrwt>
<totfact> 0.19624678E-01</totfact>
</mgrwt>
</event>
<event>
 6    1  0.3017327E-006  0.1304269E+04  0.7818608E-02  0.9026186E-01
         -2   -1    0    0    0  501 -0.00000000000E+00  0.00000000000E+00  0.55363078118E+03  0.55363078118E+03  0.00000000000E+00 0.  1.
          2   -1    0    0  501    0  0.00000000000E+00 -0.00000000000E+00 -0.76816468236E+03  0.76816468236E+03  0.00000000000E+00 0. -1.
         23    2    1    2    0    0  0.84467689722E+02 -0.23659593939E+03 -0.71411800422E+03  0.76260255841E+03  0.92117908082E+02 0.  0.
         13    1    3    3    0    0  0.48680309310E+02 -0.16182355849E+03 -0.58703228787E+03  0.61087113501E+03  0.00000000000E+00 0. -1.
        -13    1    3    3    0    0  0.35787380411E+02 -0.74772380903E+02 -0.12708571636E+03  0.15173142339E+03  0.00000000000E+00 0.  1.
         22    1    1    2    0    0 -0.84467689722E+02  0.23659593939E+03  0.49958410304E+03  0.55919290514E+03  0.00000000000E+00 0.  1.
<mgrwt>
<rscale>  0 0.13042693E+04</rscale>
<asrwt>0</asrwt>
<pdfrwt beam="1">  1        2 0.11817918E+00 0.13042693E+04</pdfrwt>
<pdfrwt beam="2">  1       -2 0.85173967E-01 0.13042693E+04</pdfrwt>
<totfact> 0.42731205E+01</totfact>
</mgrwt>
</event>
<event>
 6    1  0.3017327E-006  0.1044255E+04  0.7818608E-02  0.9261296E-01
         -2   -1    0    0    0  501 -0.00000000000E+00  0.00000000000E+00  0.89924366944E+03  0.89924366944E+03  0.00000000000E+00 0.  1.
          2   -1    0    0  501    0  0.00000000000E+00 -0.00000000000E+00 -0.30316241228E+03  0.30316241228E+03  0.00000000000E+00 0. -1.
         23    2    1    2    0    0  0.38235122218E+02  0.18573826306E+03 -0.25460816937E+03  0.33083673432E+03  0.93096712776E+02 0.  0.
         13    1    3    3    0    0 -0.22480887664E+02  0.11779855624E+03 -0.13731779860E+03  0.18231310423E+03  0.00000000000E+00 0.  1.
        -13    1    3    3    0    0  0.60716009883E+02  0.67939706820E+02 -0.11729037077E+03  0.14852363008E+03  0.00000000000E+00 0. -1.
         22    1    1    2    0    0 -0.38235122218E+02 -0.18573826306E+03  0.85068942652E+03  0.87156934740E+03  0.00000000000E+00 0.  1.
<mgrwt>
<rscale>  0 0.10442545E+04</rscale>
<asrwt>0</asrwt>
<pdfrwt beam="1">  1        2 0.46640372E-01 0.10442545E+04</pdfrwt>
<pdfrwt beam="2">  1       -2 0.13834518E+00 0.10442545E+04</pdfrwt>
<totfact> 0.40000605E+01</totfact>
</mgrwt>
</event>
<event>
 6    1  0.3017327E-006  0.1053065E+04  0.7818608E-02  0.9252185E-01
         -2   -1    0    0    0  501 -0.00000000000E+00  0.00000000000E+00  0.27550091707E+03  0.27550091707E+03  0.00000000000E+00 0.  1.
          2   -1    0    0  501    0  0.00000000000E+00 -0.00000000000E+00 -0.10063002922E+04  0.10063002922E+04  0.00000000000E+00 0. -1.
         23    2    1    2    0    0 -0.23132819883E+03 -0.43157929240E+03 -0.59027213321E+03  0.77236885174E+03  0.91427734783E+02 0.  0.
         11    1    3    3    0    0 -0.13687178688E+03 -0.17442801642E+03 -0.22621850496E+03  0.31675515930E+03  0.00000000000E+00 0. -1.
        -11    1    3    3    0    0 -0.94456411952E+02 -0.25715127598E+03 -0.36405362824E+03  0.45561369243E+03  0.00000000000E+00 0.  1.
         22    1    1    2    0    0  0.23132819883E+03  0.43157929240E+03 -0.14052724197E+03  0.50943235757E+03  0.00000000000E+00 0.  1.
<mgrwt>
<rscale>  0 0.10530653E+04</rscale>
<asrwt>0</asrwt>
<pdfrwt beam="1">  1        2 0.15481543E+00 0.10530653E+04</pdfrwt>
<pdfrwt beam="2">  1       -2 0.42384757E-01 0.10530653E+04</pdfrwt>
<totfact> 0.13099739E+02</totfact>
</mgrwt>
</event>
<event>
 6    1  0.3017327E-006  0.1161091E+04  0.7818608E-02  0.9147612E-01
         -2   -1    0    0    0  501 -0.00000000000E+00  0.00000000000E+00  0.40730718816E+03  0.40730718816E+03  0.00000000000E+00 0.  1.
          2   -1    0    0  501    0  0.00000000000E+00 -0.00000000000E+00 -0.82746696735E+03  0.82746696735E+03  0.00000000000E+00 0. -1.
         23    2    1    2    0    0  0.15743861075E+02  0.52383912277E+03 -0.47034224728E+03  0.70830138717E+03  0.76247818291E+02 0.  0.
         11    1    3    3    0    0  0.46270309222E+02  0.30927019037E+03 -0.28610889208E+03  0.42384819251E+03  0.00000000000E+00 0.  1.
        -11    1    3    3    0    0 -0.30526448146E+02  0.21456893240E+03 -0.18423335520E+03  0.28445319467E+03  0.00000000000E+00 0. -1.
         22    1    1    2    0    0 -0.15743861075E+02 -0.52383912277E+03  0.50182468085E+02  0.52647276834E+03  0.00000000000E+00 0.  1.
<mgrwt>
<rscale>  0 0.11610913E+04</rscale>
<asrwt>0</asrwt>
<pdfrwt beam="1">  1        2 0.12730261E+00 0.11610913E+04</pdfrwt>
<pdfrwt beam="2">  1       -2 0.62662645E-01 0.11610913E+04</pdfrwt>
<totfact> 0.76926279E+01</totfact>
</mgrwt>
</event>
<event>
 6    1  0.3017327E-006  0.1627515E+04  0.7818608E-02  0.8803821E-01
          2   -1    0    0  501    0  0.00000000000E+00  0.00000000000E+00  0.77520067226E+03  0.77520067226E+03  0.00000000000E+00 0.  1.
         -2   -1    0    0    0  501 -0.00000000000E+00 -0.00000000000E+00 -0.85423209074E+03  0.85423209074E+03  0.00000000000E+00 0. -1.
         23    2    1    2    0    0  0.38629346127E+03  0.38470555040E+03  0.56290004014E+03  0.78723504495E+03  0.75243352429E+02 0.  0.
         13    1    3    3    0    0  0.17988940481E+03  0.14934371443E+03  0.28503460705E+03  0.36865765992E+03  0.00000000000E+00 0. -1.
        -13    1    3    3    0    0  0.20640405646E+03  0.23536183597E+03  0.27786543309E+03  0.41857738503E+03  0.00000000000E+00 0.  1.
         22    1    1    2    0    0 -0.38629346127E+03 -0.38470555040E+03 -0.64193145861E+03  0.84219771805E+03  0.00000000000E+00 0. -1.
<mgrwt>
<rscale>  0 0.16275150E+04</rscale>
<asrwt>0</asrwt>
<pdfrwt beam="1">  1        2 0.11926164E+00 0.16275150E+04</pdfrwt>
<pdfrwt beam="2">  1       -2 0.13142032E+00 0.16275150E+04</pdfrwt>
<totfact> 0.14515949E+01</totfact>
</mgrwt>
</event>
<event>
 6    1  0.3017327E-006  0.4065110E+04  0.7818608E-02  0.7991539E-01
          2   -1    0    0  501    0  0.00000000000E+00  0.00000000000E+00  0.42126406706E+04  0.42126406706E+04  0.00000000000E+00 0.  1.
         -2   -1    0    0    0  501 -0.00000000000E+00 -0.00000000000E+00 -0.98068625822E+03  0.98068625822E+03  0.00000000000E+00 0. -1.
         23    2    1    2    0    0 -0.46200086866E+03  0.85066130654E+03 -0.66497178816E+03  0.11779685048E+04  0.91393971871E+02 0.  0.
         11    1    3    3    0    0 -0.24892087367E+03  0.36305232472E+03 -0.30266189904E+03  0.53420297357E+03  0.00000000000E+00 0.  1.
        -11    1    3    3    0    0 -0.21307999499E+03  0.48760898182E+03 -0.36230988911E+03  0.64376553120E+03  0.00000000000E+00 0. -1.
         22    1    1    2    0    0  0.46200086866E+03 -0.85066130654E+03  0.38969262005E+04  0.40153584240E+04  0.00000000000E+00 0.  1.
<mgrwt>
<rscale>  0 0.40651095E+04</rscale>
<asrwt>0</asrwt>
<pdfrwt beam="1">  1        2 0.64809855E+00 0.40651095E+04</pdfrwt>
<pdfrwt beam="2">  1       -2 0.15087481E+00 0.40651095E+04</pdfrwt>
<totfact> 0.52225828E-02</totfact>
</mgrwt>
</event>
<event>
 6    1  0.3017327E-006  0.1512638E+04  0.7818608E-02  0.8876092E-01
          1   -1    0    0  501    0  0.00000000000E+00  0.00000000000E+00  0.12202707277E+04  0.12202707277E+04  0.00000000000E+00 0. -1.
         -1   -1    0    0    0  501 -0.00000000000E+00 -0.00000000000E+00 -0.46876369397E+03  0.46876369397E+03  0.00000000000E+00 0.  1.
         23    2    1    2    0    0  0.33950272722E+03  0.60560313038E+03  0.70417439843E+03  0.99314820135E+03  0.92002788699E+02 0.  0.
         11    1    3    3    0    0  0.15119369120E+03  0.23855827597E+03  0.22683625775E+03  0.36224890769E+03  0.00000000000E+00 0. -1.
        -11    1    3    3    0    0  0.18830903602E+03  0.36704485440E+03  0.47733814068E+03  0.63089929366E+03  0.00000000000E+00 0.  1.
         22    1    1    2    0    0 -0.33950272722E+03 -0.60560313038E+03  0.47332635346E+02  0.69588622036E+03  0.00000000000E+00 0.  1.
<mgrwt>
<rscale>  0 0.15126382E+04</rscale>
<asrwt>0</asrwt>
<pdfrwt beam="1">  1        1 0.18773396E+00 0.15126382E+04</pdfrwt>
<pdfrwt beam="2">  1       -1 0.72117492E-01 0.15126382E+04</pdfrwt>
<totfact> 0.19363096E+01</totfact>
</mgrwt>
</event>
<event>
 6    1  0.3017327E-006  0.2540323E+04  0.7818608E-02  0.8388759E-01
         -2   -1    0    0    0  501 -0.00000000000E+00  0.00000000000E+00  0.48259526229E+03  0.48259526229E+03  0.00000000000E+00 0.  1.
          2   -1    0    0  501    0  0.00000000000E+00 -0.00000000000E+00 -0.33429891163E+04  0.33429891163E+04  0.00000000000E+00 0. -1.
         23    2    1    2    0    0 -0.66155003486E+03 -0.89782645892E+03 -0.52167743841E+03  0.12345739055E+04  0.91019665368E+02 0.  0.
         11    1    3    3    0    0 -0.23618983575E+03 -0.26256899169E+03 -0.13786837219E+03  0.37912504792E+03  0.00000000000E+00 0.  1.
        -11    1    3    3    0    0 -0.42536019911E+03 -0.63525746724E+03 -0.38380906622E+03  0.85544885760E+03  0.00000000000E+00 0. -1.
         22    1    1    2    0    0  0.66155003486E+03  0.89782645892E+03 -0.23387164156E+04  0.25910104731E+04  0.00000000000E+00 0. -1.
<mgrwt>
<rscale>  0 0.25403234E+04</rscale>
<asrwt>0</asrwt>
<pdfrwt beam="1">  1        2 0.51430602E+00 0.25403234E+04</pdfrwt>
<pdfrwt beam="2">  1       -2 0.74245424E-01 0.25403234E+04</pdfrwt>
<totfact> 0.15139727E+00</totfact>
</mgrwt>
</event>
<event>
 6    1  0.3017327E-006  0.6365265E+03  0.7818608E-02  0.9832395E-01
         -2   -1    0    0    0  501 -0.00000000000E+00  0.00000000000E+00  0.44159089857E+02  0.44159089857E+02  0.00000000000E+00 0.  1.
          2   -1    0    0  501    0  0.00000000000E+00 -0.00000000000E+00 -0.22937858295E+04  0.22937858295E+04  0.00000000000E+00 0. -1.
         23    2    1    2    0    0 -0.24268342209E+03 -0.10756881799E+03 -0.17484607188E+04  0.17708173549E+04  0.90625190472E+02 0.  0.
         11    1    3    3    0    0 -0.11000522515E+03 -0.93797014166E+02 -0.10275811858E+04  0.10377004013E+04  0.00000000000E+00 0. -1.
        -11    1    3    3    0    0 -0.13267819694E+03 -0.13771803829E+02 -0.72087953302E+03  0.73311695360E+03  0.00000000000E+00 0.  1.
         22    1    1    2    0    0  0.24268342209E+03  0.10756881799E+03 -0.50116602087E+03  0.56712756452E+03  0.00000000000E+00 0.  1.
<mgrwt>
<rscale>  0 0.63652649E+03</rscale>
<asrwt>0</asrwt>
<pdfrwt beam="1">  1        2 0.35289014E+00 0.63652649E+03</pdfrwt>
<pdfrwt beam="2">  1       -2 0.67937059E-02 0.63652649E+03</pdfrwt>
<totfact> 0.60715795E+02</totfact>
</mgrwt>
</event>
<event>
 6    1  0.3017327E-006  0.3412772E+04  0.7818608E-02  0.8134779E-01
         -1   -1    0    0    0  501 -0.00000000000E+00  0.00000000000E+00  0.15573075847E+04  0.15573075847E+04  0.00000000000E+00 0.  1.
          1   -1    0    0  501    0  0.00000000000E+00 -0.00000000000E+00 -0.18697349346E+04  0.18697349346E+04  0.00000000000E+00 0. -1.
         23    2    1    2    0    0 -0.81955033174E+03 -0.15749289578E+03  0.13368862154E+04  0.15786102119E+04  0.90987304292E+02 0.  0.
         13    1    3    3    0    0 -0.64673581783E+03 -0.11368651642E+03  0.97977195320E+03  0.11794680675E+04  0.00000000000E+00 0. -1.
        -13    1    3    3    0    0 -0.17281451391E+03 -0.43806379366E+02  0.35711426222E+03  0.39914214432E+03  0.00000000000E+00 0.  1.
         22    1    1    2    0    0  0.81955033174E+03  0.15749289578E+03 -0.16493135653E+04  0.18484323074E+04  0.00000000000E+00 0. -1.
<mgrwt>
<rscale>  0 0.34127715E+04</rscale>
<asrwt>0</asrwt>
<pdfrwt beam="1">  1        1 0.28765153E+00 0.34127715E+04</pdfrwt>
<pdfrwt beam="2">  1       -1 0.23958578E+00 0.34127715E+04</pdfrwt>
<totfact> 0.24493342E-01</totfact>
</mgrwt>
</event>
<event>
 6    1  0.3017327E-006  0.1676386E+04  0.7818608E-02  0.8774948E-01
         -2   -1    0    0    0  501 -0.00000000000E+00  0.00000000000E+00  0.51381337979E+03  0.51381337979E+03  0.00000000000E+00 0. -1.
          2   -1    0    0  501    0  0.00000000000E+00 -0.00000000000E+00 -0.13673588832E+04  0.13673588832E+04  0.00000000000E+00 0.  1.
         23    2    1    2    0    0  0.61240527988E+02 -0.32175486387E+03 -0.12908369215E+04  0.13348203810E+04  0.90602964141E+02 0.  0.
         13    1    3    3    0    0  0.13241216828E+02 -0.20883131718E+03 -0.66780978265E+03  0.69982551730E+03  0.00000000000E+00 0.  1.
        -13    1    3    3    0    0  0.47999311160E+02 -0.11292354668E+03 -0.62302713882E+03  0.63499486374E+03  0.00000000000E+00 0. -1.
         22    1    1    2    0    0 -0.61240527988E+02  0.32175486387E+03  0.43729141801E+03  0.54635188200E+03  0.00000000000E+00 0. -1.
<mgrwt>
<rscale>  0 0.16763857E+04</rscale>
<asrwt>0</asrwt>
<pdfrwt beam="1">  1        2 0.21036290E+00 0.16763857E+04</pdfrwt>
<pdfrwt beam="2">  1       -2 0.79048214E-01 0.16763857E+04</pdfrwt>
<totfact> 0.20454081E+01</totfact>
</mgrwt>
</event>
<event>
 6    1  0.3017327E-006  0.9767497E+03  0.7818608E-02  0.9334419E-01
         -2   -1    0    0    0  501 -0.00000000000E+00  0.00000000000E+00  0.16136841233E+03  0.16136841233E+03  0.00000000000E+00 0.  1.
          2   -1    0    0  501    0  0.00000000000E+00 -0.00000000000E+00 -0.14780463240E+04  0.14780463240E+04  0.00000000000E+00 0. -1.
         23    2    1    2    0    0  0.29475020371E+03  0.37987015058E+03 -0.56660008497E+03  0.74846257152E+03  0.89339525361E+02 0.  0.
         13    1    3    3    0    0  0.19093314271E+03  0.26052287681E+03 -0.44015830039E+03  0.54595509314E+03  0.00000000000E+00 0. -1.
        -13    1    3    3    0    0  0.10381706100E+03  0.11934727377E+03 -0.12644178458E+03  0.20250747838E+03  0.00000000000E+00 0.  1.
         22    1    1    2    0    0 -0.29475020371E+03 -0.37987015058E+03 -0.75007782674E+03  0.89095216485E+03  0.00000000000E+00 0.  1.
<mgrwt>
<rscale>  0 0.97674969E+03</rscale>
<asrwt>0</asrwt>
<pdfrwt beam="1">  1        2 0.22739175E+00 0.97674969E+03</pdfrwt>
<pdfrwt beam="2">  1       -2 0.24825909E-01 0.97674969E+03</pdfrwt>
<totfact> 0.18952655E+02</totfact>
</mgrwt>
</event>
<event>
 6    1  0.3017327E-006  0.1920601E+04  0.7818608E-02  0.8644669E-01
         -2   -1    0    0    0  501 -0.00000000000E+00  0.00000000000E+00  0.38837454685E+03  0.38837454685E+03  0.00000000000E+00 0.  1.
          2   -1    0    0  501    0  0.00000000000E+00 -0.00000000000E+00 -0.23744530596E+04  0.23744530596E+04  0.00000000000E+00 0. -1.
         23    2    1    2    0    0  0.79766453885E+03  0.50576753140E+03 -0.12276506822E+04  0.15515133258E+04  0.89430924621E+02 0.  0.
         11    1    3    3    0    0  0.33093079532E+03  0.18990293118E+03 -0.56278224340E+03  0.67992806093E+03  0.00000000000E+00 0.  1.
        -11    1    3    3    0    0  0.46673374353E+03  0.31586460023E+03 -0.66486843884E+03  0.87158526490E+03  0.00000000000E+00 0. -1.
         22    1    1    2    0    0 -0.79766453885E+03 -0.50576753140E+03 -0.75842783055E+03  0.12113142807E+04  0.00000000000E+00 0. -1.
<mgrwt>
<rscale>  0 0.19206011E+04</rscale>
<asrwt>0</asrwt>
<pdfrwt beam="1">  1        2 0.36530047E+00 0.19206011E+04</pdfrwt>
<pdfrwt beam="2">  1       -2 0.59749930E-01 0.19206011E+04</pdfrwt>
<totfact> 0.10049886E+01</totfact>
</mgrwt>
</event>
<event>
 6    1  0.3017327E-006  0.2637416E+04  0.7818608E-02  0.8355602E-01
          2   -1    0    0  501    0  0.00000000000E+00  0.00000000000E+00  0.15374323941E+04  0.15374323941E+04  0.00000000000E+00 0. -1.
         -2   -1    0    0    0  501 -0.00000000000E+00 -0.00000000000E+00 -0.11311006609E+04  0.11311006609E+04  0.00000000000E+00 0.  1.
         23    2    1    2    0    0 -0.10335606597E+04 -0.42123306483E+03  0.91109973334E+03  0.14435940091E+04  0.90421274676E+02 0.  0.
         11    1    3    3    0    0 -0.61840907114E+02 -0.38832585049E+02  0.37398103135E+02  0.82041974454E+02  0.00000000000E+00 0.  1.
        -11    1    3    3    0    0 -0.97171975255E+03 -0.38240047978E+03  0.87370163020E+03  0.13615520346E+04  0.00000000000E+00 0. -1.
         22    1    1    2    0    0  0.10335606597E+04  0.42123306483E+03 -0.50476800019E+03  0.12249390459E+04  0.00000000000E+00 0. -1.
<mgrwt>
<rscale>  0 0.26374160E+04</rscale>
<asrwt>0</asrwt>
<pdfrwt beam="1">  1        2 0.23652806E+00 0.26374160E+04</pdfrwt>
<pdfrwt beam="2">  1       -2 0.17401548E+00 0.26374160E+04</pdfrwt>
<totfact> 0.21289904E+00</totfact>
</mgrwt>
</event>
<event>
 6    1  0.3017327E-006  0.1534193E+04  0.7818608E-02  0.8862028E-01
          1   -1    0    0  501    0  0.00000000000E+00  0.00000000000E+00  0.38371897260E+04  0.38371897260E+04  0.00000000000E+00 0. -1.
         -1   -1    0    0    0  501 -0.00000000000E+00 -0.00000000000E+00 -0.15335096222E+03  0.15335096222E+03  0.00000000000E+00 0.  1.
         23    2    1    2    0    0 -0.37141970447E+03 -0.44116185376E+03  0.54365031216E+03  0.79783652250E+03  0.91711922074E+02 0.  0.
         11    1    3    3    0    0 -0.12474591297E+03 -0.87394193259E+02  0.12988645098E+03  0.20017436890E+03  0.00000000000E+00 0. -1.
        -11    1    3    3    0    0 -0.24667379151E+03 -0.35376766050E+03  0.41376386118E+03  0.59766215360E+03  0.00000000000E+00 0.  1.
         22    1    1    2    0    0  0.37141970447E+03  0.44116185376E+03  0.31401884516E+04  0.31927041657E+04  0.00000000000E+00 0. -1.
<mgrwt>
<rscale>  0 0.15341926E+04</rscale>
<asrwt>0</asrwt>
<pdfrwt beam="1">  1        1 0.59033681E+00 0.15341926E+04</pdfrwt>
<pdfrwt beam="2">  1       -1 0.23592459E-01 0.15341926E+04</pdfrwt>
<totfact> 0.20099196E+00</totfact>
</mgrwt>
</event>
<event>
 6    1  0.3017327E-006  0.5028953E+04  0.7818608E-02  0.7824056E-01
         -2   -1    0    0    0  501 -0.00000000000E+00  0.00000000000E+00  0.20247723282E+04  0.20247723282E+04  0.00000000000E+00 0.  1.
          2   -1    0    0  501    0  0.00000000000E+00 -0.00000000000E+00 -0.31226193253E+04  0.31226193253E+04  0.00000000000E+00 0. -1.
         23    2    1    2    0    0  0.18461078165E+04  0.54868076042E+03 -0.22024431232E+04  0.29271895797E+04  0.92295600358E+02 0.  0.
         11    1    3    3    0    0  0.71294099372E+03  0.16531999197E+03 -0.84142288656E+03  0.11151717510E+04  0.00000000000E+00 0. -1.
        -11    1    3    3    0    0  0.11331668228E+04  0.38336076845E+03 -0.13610202366E+04  0.18120178287E+04  0.00000000000E+00 0.  1.
         22    1    1    2    0    0 -0.18461078165E+04 -0.54868076042E+03  0.11045961260E+04  0.22202020738E+04  0.00000000000E+00 0.  1.
<mgrwt>
<rscale>  0 0.50289535E+04</rscale>
<asrwt>0</asrwt>
<pdfrwt beam="1">  1        2 0.48040297E+00 0.50289535E+04</pdfrwt>
<pdfrwt beam="2">  1       -2 0.31150344E+00 0.50289535E+04</pdfrwt>
<totfact> 0.28536254E-02</totfact>
</mgrwt>
</event>
<event>
 6    1  0.3017327E-006  0.1783383E+04  0.7818608E-02  0.8715186E-01
         -2   -1    0    0    0  501 -0.00000000000E+00  0.00000000000E+00  0.48429688610E+03  0.48429688610E+03  0.00000000000E+00 0.  1.
          2   -1    0    0  501    0  0.00000000000E+00 -0.00000000000E+00 -0.16417903452E+04  0.16417903452E+04  0.00000000000E+00 0. -1.
         23    2    1    2    0    0 -0.92157832718E+02  0.36035811302E+03 -0.15432838104E+04  0.15901905707E+04  0.92898308560E+02 0.  0.
         13    1    3    3    0    0 -0.11412706622E+02  0.11413789838E+03 -0.32482875137E+03  0.34448719488E+03  0.00000000000E+00 0. -1.
        -13    1    3    3    0    0 -0.80745126096E+02  0.24622021464E+03 -0.12184550591E+04  0.12457033758E+04  0.00000000000E+00 0.  1.
         22    1    1    2    0    0  0.92157832718E+02 -0.36035811302E+03  0.38579035131E+03  0.53589666067E+03  0.00000000000E+00 0.  1.
<mgrwt>
<rscale>  0 0.17833832E+04</rscale>
<asrwt>0</asrwt>
<pdfrwt beam="1">  1        2 0.25258312E+00 0.17833832E+04</pdfrwt>
<pdfrwt beam="2">  1       -2 0.74507215E-01 0.17833832E+04</pdfrwt>
<totfact> 0.16185569E+01</totfact>
</mgrwt>
</event>
<event>
 6    1  0.3017327E-006  0.2168974E+04  0.7818608E-02  0.8531454E-01
         -2   -1    0    0    0  501 -0.00000000000E+00  0.00000000000E+00  0.23350352761E+04  0.23350352761E+04  0.00000000000E+00 0.  1.
          2   -1    0    0  501    0  0.00000000000E+00 -0.00000000000E+00 -0.50368055268E+03  0.50368055268E+03  0.00000000000E+00 0. -1.
         23    2    1    2    0    0 -0.55996724749E+03  0.67478628237E+03  0.90113447550E+02  0.88914638248E+03  0.11645175356E+03 0.  0.
         11    1    3    3    0    0 -0.39455809458E+03  0.55123146445E+03  0.77443586133E+02  0.68229738855E+03  0.00000000000E+00 0. -1.
        -11    1    3    3    0    0 -0.16540915291E+03  0.12355481792E+03  0.12669861417E+02  0.20684899393E+03  0.00000000000E+00 0.  1.
         22    1    1    2    0    0  0.55996724749E+03 -0.67478628237E+03  0.17412412758E+04  0.19495694463E+04  0.00000000000E+00 0.  1.
<mgrwt>
<rscale>  0 0.21689738E+04</rscale>
<asrwt>0</asrwt>
<pdfrwt beam="1">  1        2 0.77489317E-01 0.21689738E+04</pdfrwt>
<pdfrwt beam="2">  1       -2 0.35923619E+00 0.21689738E+04</pdfrwt>
<totfact> 0.76210917E-01</totfact>
</mgrwt>
</event>
<event>
 6    1  0.3017327E-006  0.2562910E+04  0.7818608E-02  0.8380910E-01
         -2   -1    0    0    0  501 -0.00000000000E+00  0.00000000000E+00  0.20269674659E+04  0.20269674659E+04  0.00000000000E+00 0.  1.
          2   -1    0    0  501    0  0.00000000000E+00 -0.00000000000E+00 -0.81013991865E+03  0.81013991865E+03  0.00000000000E+00 0. -1.
         23    2    1    2    0    0 -0.61593698682E+03  0.67823450788E+03  0.15990993814E+04  0.18443777262E+04  0.72318366023E+02 0.  0.
         11    1    3    3    0    0 -0.15055142796E+03  0.21144462900E+03  0.43038035462E+03  0.50259507880E+03  0.00000000000E+00 0. -1.
        -11    1    3    3    0    0 -0.46538555886E+03  0.46678987888E+03  0.11687190268E+04  0.13417826474E+04  0.00000000000E+00 0.  1.
         22    1    1    2    0    0  0.61593698682E+03 -0.67823450788E+03 -0.38227183410E+03  0.99272965835E+03  0.00000000000E+00 0. -1.
<mgrwt>
<rscale>  0 0.25629103E+04</rscale>
<asrwt>0</asrwt>
<pdfrwt beam="1">  1        2 0.12463691E+00 0.25629103E+04</pdfrwt>
<pdfrwt beam="2">  1       -2 0.31184115E+00 0.25629103E+04</pdfrwt>
<totfact> 0.80812181E-01</totfact>
</mgrwt>
</event>
<event>
 6    1  0.3017327E-006  0.4260975E+03  0.7818608E-02  0.1035100E+00
          1   -1    0    0  501    0  0.00000000000E+00  0.00000000000E+00  0.65018821184E+03  0.65018821184E+03  0.00000000000E+00 0. -1.
         -1   -1    0    0    0  501 -0.00000000000E+00 -0.00000000000E+00 -0.69810200683E+02  0.69810200683E+02  0.00000000000E+00 0.  1.
         23    2    1    2    0    0 -0.12831896542E+03  0.15385570743E+03  0.36254021003E+03  0.42404124806E+03  0.90764754013E+02 0.  0.
         11    1    3    3    0    0 -0.25243840417E+02  0.21223242061E+02  0.11579871739E+02  0.34953839733E+02  0.00000000000E+00 0. -1.
        -11    1    3    3    0    0 -0.10307512501E+03  0.13263246537E+03  0.35096033829E+03  0.38908740833E+03  0.00000000000E+00 0.  1.
         22    1    1    2    0    0  0.12831896542E+03 -0.15385570743E+03  0.21783780113E+03  0.29595716447E+03  0.00000000000E+00 0.  1.
<mgrwt>
<rscale>  0 0.42609750E+03</rscale>
<asrwt>0</asrwt>
<pdfrwt beam="1">  1        1 0.10002895E+00 0.42609750E+03</pdfrwt>
<pdfrwt beam="2">  1       -1 0.10740031E-01 0.42609750E+03</pdfrwt>
<totfact> 0.17160914E+03</totfact>
</mgrwt>
</event>
<event>
 6    1  0.3017327E-006  0.2320881E+04  0.7818608E-02  0.8469733E-01
         -2   -1    0    0    0  501 -0.00000000000E+00  0.00000000000E+00  0.72058613248E+03  0.72058613248E+03  0.00000000000E+00 0.  1.
          2   -1    0    0  501    0  0.00000000000E+00 -0.00000000000E+00 -0.18687876673E+04  0.18687876673E+04  0.00000000000E+00 0. -1.
         23    2    1    2    0    0 -0.61894735375E+03  0.27075799609E+03  0.47612733000E+03  0.83015522886E+03  0.77812277013E+02 0.  0.
         13    1    3    3    0    0 -0.48414448052E+03  0.21360255278E+03  0.41038071212E+03  0.66965234074E+03  0.00000000000E+00 0. -1.
        -13    1    3    3    0    0 -0.13480287323E+03  0.57155443314E+02  0.65746617886E+02  0.16050288812E+03  0.00000000000E+00 0.  1.
         22    1    1    2    0    0  0.61894735375E+03 -0.27075799609E+03 -0.16243288649E+04  0.17592185710E+04  0.00000000000E+00 0. -1.
<mgrwt>
<rscale>  0 0.23208813E+04</rscale>
<asrwt>0</asrwt>
<pdfrwt beam="1">  1        2 0.28750580E+00 0.23208813E+04</pdfrwt>
<pdfrwt beam="2">  1       -2 0.11085940E+00 0.23208813E+04</pdfrwt>
<totfact> 0.46114395E+00</totfact>
</mgrwt>
</event>
<event>
 6    1  0.3017327E-006  0.2614972E+04  0.7818608E-02  0.8363133E-01
          2   -1    0    0  501    0  0.00000000000E+00  0.00000000000E+00  0.12435729332E+04  0.12435729332E+04  0.00000000000E+00 0. -1.
         -2   -1    0    0    0  501 -0.00000000000E+00 -0.00000000000E+00 -0.13746843332E+04  0.13746843332E+04  0.00000000000E+00 0.  1.
         23    2    1    2    0    0  0.33575695188E+03 -0.63383878610E+02  0.11963730108E+04  0.12475037847E+04  0.90592853396E+02 0.  0.
         13    1    3    3    0    0  0.18426846869E+03  0.40655359763E+01  0.71477713840E+03  0.73815835342E+03  0.00000000000E+00 0. -1.
        -13    1    3    3    0    0  0.15148848318E+03 -0.67449414587E+02  0.48159587241E+03  0.50934543130E+03  0.00000000000E+00 0.  1.
         22    1    1    2    0    0 -0.33575695188E+03  0.63383878610E+02 -0.13274844107E+04  0.13707534817E+04  0.00000000000E+00 0.  1.
<mgrwt>
<rscale>  0 0.26149724E+04</rscale>
<asrwt>0</asrwt>
<pdfrwt beam="1">  1        2 0.19131891E+00 0.26149724E+04</pdfrwt>
<pdfrwt beam="2">  1       -2 0.21148990E+00 0.26149724E+04</pdfrwt>
<totfact> 0.17656684E+00</totfact>
</mgrwt>
</event>
<event>
 6    1  0.3017327E-006  0.2000252E+04  0.7818608E-02  0.8606503E-01
          2   -1    0    0  501    0  0.00000000000E+00  0.00000000000E+00  0.24692067977E+04  0.24692067977E+04  0.00000000000E+00 0. -1.
         -2   -1    0    0    0  501 -0.00000000000E+00 -0.00000000000E+00 -0.40509041924E+03  0.40509041924E+03  0.00000000000E+00 0.  1.
         23    2    1    2    0    0  0.72739409695E+03  0.59110577624E+03  0.15267451225E+04  0.17938917015E+04  0.92674466313E+02 0.  0.
         13    1    3    3    0    0  0.39472009215E+03  0.33571582586E+03  0.75812882568E+03  0.91829645714E+03  0.00000000000E+00 0. -1.
        -13    1    3    3    0    0  0.33267400481E+03  0.25538995038E+03  0.76861629685E+03  0.87559524440E+03  0.00000000000E+00 0.  1.
         22    1    1    2    0    0 -0.72739409695E+03 -0.59110577624E+03  0.53737125591E+03  0.10804055154E+04  0.00000000000E+00 0.  1.
<mgrwt>
<rscale>  0 0.20002520E+04</rscale>
<asrwt>0</asrwt>
<pdfrwt beam="1">  1        2 0.37987796E+00 0.20002520E+04</pdfrwt>
<pdfrwt beam="2">  1       -2 0.62321604E-01 0.20002520E+04</pdfrwt>
<totfact> 0.80545150E+00</totfact>
</mgrwt>
</event>
<event>
 6    1  0.3017327E-006  0.2318185E+04  0.7818608E-02  0.8470785E-01
         -2   -1    0    0    0  501 -0.00000000000E+00  0.00000000000E+00  0.92745471448E+03  0.92745471448E+03  0.00000000000E+00 0.  1.
          2   -1    0    0  501    0  0.00000000000E+00 -0.00000000000E+00 -0.14485833099E+04  0.14485833099E+04  0.00000000000E+00 0. -1.
         23    2    1    2    0    0  0.55611898091E+03  0.26743958874E+03  0.74244637548E+03  0.96983250540E+03  0.92499802817E+02 0.  0.
         13    1    3    3    0    0  0.46010850731E+03  0.18713028709E+03  0.55957436081E+03  0.74822526563E+03  0.00000000000E+00 0.  1.
        -13    1    3    3    0    0  0.96010473597E+02  0.80309301651E+02  0.18287201467E+03  0.22160723977E+03  0.00000000000E+00 0. -1.
         22    1    1    2    0    0 -0.55611898091E+03 -0.26743958874E+03 -0.12635749709E+04  0.14062055190E+04  0.00000000000E+00 0. -1.
<mgrwt>
<rscale>  0 0.23181850E+04</rscale>
<asrwt>0</asrwt>
<pdfrwt beam="1">  1        2 0.22285897E+00 0.23181850E+04</pdfrwt>
<pdfrwt beam="2">  1       -2 0.14268534E+00 0.23181850E+04</pdfrwt>
<totfact> 0.42011555E+00</totfact>
</mgrwt>
</event>
<event>
 6    1  0.3017327E-006  0.2130848E+04  0.7818608E-02  0.8547775E-01
          2   -1    0    0  501    0  0.00000000000E+00  0.00000000000E+00  0.21774325585E+04  0.21774325585E+04  0.00000000000E+00 0. -1.
         -2   -1    0    0    0  501 -0.00000000000E+00 -0.00000000000E+00 -0.52131523699E+03  0.52131523699E+03  0.00000000000E+00 0.  1.
         23    2    1    2    0    0  0.29165997420E+03 -0.99983961426E+03  0.55792341401E+03  0.11852172694E+04  0.93362974863E+02 0.  0.
         13    1    3    3    0    0 -0.19278708370E+01 -0.80562420106E+02  0.46975559292E+02  0.93277668228E+02  0.00000000000E+00 0.  1.
        -13    1    3    3    0    0  0.29358784504E+03 -0.91927719415E+03  0.51094785472E+03  0.10919396012E+04  0.00000000000E+00 0. -1.
         22    1    1    2    0    0 -0.29165997420E+03  0.99983961426E+03  0.10981939075E+04  0.15135305260E+04  0.00000000000E+00 0. -1.
<mgrwt>
<rscale>  0 0.21308484E+04</rscale>
<asrwt>0</asrwt>
<pdfrwt beam="1">  1        2 0.33498962E+00 0.21308484E+04</pdfrwt>
<pdfrwt beam="2">  1       -2 0.80202345E-01 0.21308484E+04</pdfrwt>
<totfact> 0.67171396E+00</totfact>
</mgrwt>
</event>
<event>
 6    1  0.3017327E-006  0.5932690E+04  0.7818608E-02  0.7698804E-01
         -2   -1    0    0    0  501 -0.00000000000E+00  0.00000000000E+00  0.33506868215E+04  0.33506868215E+04  0.00000000000E+00 0.  1.
          2   -1    0    0  501    0  0.00000000000E+00 -0.00000000000E+00 -0.26260894650E+04  0.26260894650E+04  0.00000000000E+00 0. -1.
         23    2    1    2    0    0 -0.71735513115E+03 -0.21459908361E+04 -0.15689596919E+04  0.27549322514E+04  0.90233818100E+02 0.  0.
         11    1    3    3    0    0 -0.61015483546E+03 -0.18035720786E+04 -0.13585977661E+04  0.23390059974E+04  0.00000000000E+00 0. -1.
        -11    1    3    3    0    0 -0.10720029569E+03 -0.34241875748E+03 -0.21036192585E+03  0.41592625394E+03  0.00000000000E+00 0.  1.
         22    1    1    2    0    0  0.71735513115E+03  0.21459908361E+04  0.22935570484E+04  0.32218440352E+04  0.00000000000E+00 0.  1.
<mgrwt>
<rscale>  0 0.59326902E+04</rscale>
<asrwt>0</asrwt>
<pdfrwt beam="1">  1        2 0.40401376E+00 0.59326902E+04</pdfrwt>
<pdfrwt beam="2">  1       -2 0.51549028E+00 0.59326902E+04</pdfrwt>
<totfact> 0.26753347E-03</totfact>
</mgrwt>
</event>
<event>
 6    1  0.3017327E-006  0.2619603E+04  0.7818608E-02  0.8361573E-01
          1   -1    0    0  501    0  0.00000000000E+00  0.00000000000E+00  0.23970908484E+04  0.23970908484E+04  0.00000000000E+00 0. -1.
         -1   -1    0    0    0  501 -0.00000000000E+00 -0.00000000000E+00 -0.71569237432E+03  0.71569237432E+03  0.00000000000E+00 0.  1.
         23    2    1    2    0    0  0.12626150498E+04  0.22912325094E+03  0.11439960980E+04  0.17215623409E+04  0.91408934325E+02 0.  0.
         13    1    3    3    0    0  0.46607558623E+02  0.22728300692E+02  0.62076682986E+02  0.80884823940E+02  0.00000000000E+00 0.  1.
        -13    1    3    3    0    0  0.12160074912E+04  0.20639495025E+03  0.10819194150E+04  0.16406775170E+04  0.00000000000E+00 0. -1.
         22    1    1    2    0    0 -0.12626150498E+04 -0.22912325094E+03  0.53740237610E+03  0.13912208818E+04  0.00000000000E+00 0.  1.
<mgrwt>
<rscale>  0 0.26196027E+04</rscale>
<asrwt>0</asrwt>
<pdfrwt beam="1">  1        1 0.36878320E+00 0.26196027E+04</pdfrwt>
<pdfrwt beam="2">  1       -1 0.11010652E+00 0.26196027E+04</pdfrwt>
<totfact> 0.10681343E+00</totfact>
</mgrwt>
</event>
<event>
 6    1  0.3017327E-006  0.2294036E+04  0.7818608E-02  0.8480276E-01
         -2   -1    0    0    0  501 -0.00000000000E+00  0.00000000000E+00  0.15501774327E+04  0.15501774327E+04  0.00000000000E+00 0.  1.
          2   -1    0    0  501    0  0.00000000000E+00 -0.00000000000E+00 -0.84870984736E+03  0.84870984736E+03  0.00000000000E+00 0. -1.
         23    2    1    2    0    0 -0.73898053846E+03 -0.71721377748E+02 -0.56047463204E+03  0.93473757724E+03  0.91467660310E+02 0.  0.
         13    1    3    3    0    0 -0.34967929849E+03 -0.79213612507E+02 -0.27814076452E+03  0.45377603847E+03  0.00000000000E+00 0. -1.
        -13    1    3    3    0    0 -0.38930123997E+03  0.74922347591E+01 -0.28233386753E+03  0.48096153877E+03  0.00000000000E+00 0.  1.
         22    1    1    2    0    0  0.73898053846E+03  0.71721377748E+02  0.12619422174E+04  0.14641497028E+04  0.00000000000E+00 0.  1.
<mgrwt>
<rscale>  0 0.22940365E+04</rscale>
<asrwt>0</asrwt>
<pdfrwt beam="1">  1        2 0.13057075E+00 0.22940365E+04</pdfrwt>
<pdfrwt beam="2">  1       -2 0.23848884E+00 0.22940365E+04</pdfrwt>
<totfact> 0.21830411E+00</totfact>
</mgrwt>
</event>
<event>
 6    1  0.3017327E-006  0.5327933E+04  0.7818608E-02  0.7779820E-01
         -2   -1    0    0    0  501 -0.00000000000E+00  0.00000000000E+00  0.41964390835E+04  0.41964390835E+04  0.00000000000E+00 0. -1.
          2   -1    0    0  501    0  0.00000000000E+00 -0.00000000000E+00 -0.16911282156E+04  0.16911282156E+04  0.00000000000E+00 0.  1.
         23    2    1    2    0    0 -0.95198873341E+03  0.13001669784E+03 -0.14917697410E+04  0.17766257664E+04  0.88517023921E+02 0.  0.
         11    1    3    3    0    0 -0.71429910021E+03  0.12932147506E+03 -0.11624361586E+04  0.13704762206E+04  0.00000000000E+00 0. -1.
        -11    1    3    3    0    0 -0.23768963319E+03  0.69522278446E+00 -0.32933358247E+03  0.40614954586E+03  0.00000000000E+00 0.  1.
         22    1    1    2    0    0  0.95198873341E+03 -0.13001669784E+03  0.39970806089E+04  0.41109415326E+04  0.00000000000E+00 0. -1.
<mgrwt>
<rscale>  0 0.53279326E+04</rscale>
<asrwt>0</asrwt>
<pdfrwt beam="1">  1        2 0.26017357E+00 0.53279326E+04</pdfrwt>
<pdfrwt beam="2">  1       -2 0.64560601E+00 0.53279326E+04</pdfrwt>
<totfact> 0.24802896E-03</totfact>
</mgrwt>
</event>
<event>
 6    1  0.3017327E-006  0.1588718E+04  0.7818608E-02  0.8827509E-01
          2   -1    0    0  501    0  0.00000000000E+00  0.00000000000E+00  0.23422552755E+04  0.23422552755E+04  0.00000000000E+00 0. -1.
         -2   -1    0    0    0  501 -0.00000000000E+00 -0.00000000000E+00 -0.26940127508E+03  0.26940127508E+03  0.00000000000E+00 0.  1.
         23    2    1    2    0    0 -0.42503625373E+03 -0.56053072205E+03  0.16370097654E+04  0.17841236482E+04  0.91900558610E+02 0.  0.
         11    1    3    3    0    0 -0.13917795455E+03 -0.17990740759E+03  0.42605307946E+03  0.48296832697E+03  0.00000000000E+00 0.  1.
        -11    1    3    3    0    0 -0.28585829917E+03 -0.38062331447E+03  0.12109566859E+04  0.13011553212E+04  0.00000000000E+00 0. -1.
         22    1    1    2    0    0  0.42503625373E+03  0.56053072205E+03  0.43584423503E+03  0.82753290240E+03  0.00000000000E+00 0.  1.
<mgrwt>
<rscale>  0 0.15887184E+04</rscale>
<asrwt>0</asrwt>
<pdfrwt beam="1">  1        2 0.36034695E+00 0.15887184E+04</pdfrwt>
<pdfrwt beam="2">  1       -2 0.41446351E-01 0.15887184E+04</pdfrwt>
<totfact> 0.22736770E+01</totfact>
</mgrwt>
</event>
<event>
 6    1  0.3017327E-006  0.1842232E+04  0.7818608E-02  0.8684158E-01
         -1   -1    0    0    0  501 -0.00000000000E+00  0.00000000000E+00  0.99187708232E+03  0.99187708232E+03  0.00000000000E+00 0.  1.
          1   -1    0    0  501    0  0.00000000000E+00 -0.00000000000E+00 -0.85540291374E+03  0.85540291374E+03  0.00000000000E+00 0. -1.
         23    2    1    2    0    0 -0.81177943117E+03 -0.14375770548E+03  0.47487899812E+03  0.95611786075E+03  0.94863997531E+02 0.  0.
         13    1    3    3    0    0 -0.47368430072E+03 -0.11412909781E+03  0.32097712448E+03  0.58346257991E+03  0.00000000000E+00 0. -1.
        -13    1    3    3    0    0 -0.33809513045E+03 -0.29628607671E+02  0.15390187365E+03  0.37265528084E+03  0.00000000000E+00 0.  1.
         22    1    1    2    0    0  0.81177943117E+03  0.14375770548E+03 -0.33840482954E+03  0.89116213531E+03  0.00000000000E+00 0. -1.
<mgrwt>
<rscale>  0 0.18422318E+04</rscale>
<asrwt>0</asrwt>
<pdfrwt beam="1">  1        1 0.13160045E+00 0.18422318E+04</pdfrwt>
<pdfrwt beam="2">  1       -1 0.15259647E+00 0.18422318E+04</pdfrwt>
<totfact> 0.62062680E+00</totfact>
</mgrwt>
</event>
<event>
 6    1  0.3017327E-006  0.1046833E+04  0.7818608E-02  0.9258620E-01
          2   -1    0    0  501    0  0.00000000000E+00  0.00000000000E+00  0.12011817016E+04  0.12011817016E+04  0.00000000000E+00 0. -1.
         -2   -1    0    0    0  501 -0.00000000000E+00 -0.00000000000E+00 -0.22807957440E+03  0.22807957440E+03  0.00000000000E+00 0.  1.
         23    2    1    2    0    0 -0.43534738041E+03 -0.28337542897E+03  0.48121516008E+03  0.71387203664E+03  0.90643692723E+02 0.  0.
         13    1    3    3    0    0 -0.94014157390E+02 -0.10912942758E+03  0.13439963520E+03  0.19700547123E+03  0.00000000000E+00 0. -1.
        -13    1    3    3    0    0 -0.34133322302E+03 -0.17424600139E+03  0.34681552488E+03  0.51686656541E+03  0.00000000000E+00 0.  1.
         22    1    1    2    0    0  0.43534738041E+03  0.28337542897E+03  0.49188696712E+03  0.71538923937E+03  0.00000000000E+00 0. -1.
<mgrwt>
<rscale>  0 0.10468333E+04</rscale>
<asrwt>0</asrwt>
<pdfrwt beam="1">  1        2 0.18479718E+00 0.10468333E+04</pdfrwt>
<pdfrwt beam="2">  1       -2 0.35089166E-01 0.10468333E+04</pdfrwt>
<totfact> 0.14340408E+02</totfact>
</mgrwt>
</event>
<event>
 6    1  0.3017327E-006  0.4155411E+04  0.7818608E-02  0.7973909E-01
          2   -1    0    0  501    0  0.00000000000E+00  0.00000000000E+00  0.22056195942E+04  0.22056195942E+04  0.00000000000E+00 0. -1.
         -2   -1    0    0    0  501 -0.00000000000E+00 -0.00000000000E+00 -0.19572096516E+04  0.19572096516E+04  0.00000000000E+00 0.  1.
         23    2    1    2    0    0  0.17087005343E+04 -0.70179000429E+03 -0.82634149705E+03  0.20257149805E+04  0.92272348231E+02 0.  0.
         13    1    3    3    0    0  0.27737637429E+03 -0.11141282193E+03 -0.17158237343E+03  0.34466067483E+03  0.00000000000E+00 0.  1.
        -13    1    3    3    0    0  0.14313241601E+04 -0.59037718236E+03 -0.65475912362E+03  0.16810543057E+04  0.00000000000E+00 0. -1.
         22    1    1    2    0    0 -0.17087005343E+04  0.70179000429E+03  0.10747514397E+04  0.21371142654E+04  0.00000000000E+00 0. -1.
<mgrwt>
<rscale>  0 0.41554109E+04</rscale>
<asrwt>0</asrwt>
<pdfrwt beam="1">  1        2 0.33932609E+00 0.41554109E+04</pdfrwt>
<pdfrwt beam="2">  1       -2 0.30110918E+00 0.41554109E+04</pdfrwt>
<totfact> 0.12496956E-01</totfact>
</mgrwt>
</event>
<event>
 6    1  0.3017327E-006  0.2979498E+04  0.7818608E-02  0.8249610E-01
          2   -1    0    0  501    0  0.00000000000E+00  0.00000000000E+00  0.22440014588E+04  0.22440014588E+04  0.00000000000E+00 0. -1.
         -2   -1    0    0    0  501 -0.00000000000E+00 -0.00000000000E+00 -0.98901525119E+03  0.98901525119E+03  0.00000000000E+00 0.  1.
         23    2    1    2    0    0 -0.82794571502E+03  0.92533519431E+03  0.15185394548E+04  0.19636863184E+04  0.91446992619E+02 0.  0.
         11    1    3    3    0    0 -0.79971278274E+02  0.11995184637E+03  0.21084666395E+03  0.25542154665E+03  0.00000000000E+00 0. -1.
        -11    1    3    3    0    0 -0.74797443675E+03  0.80538334794E+03  0.13076927909E+04  0.17082647718E+04  0.00000000000E+00 0.  1.
         22    1    1    2    0    0  0.82794571502E+03 -0.92533519431E+03 -0.26355324720E+03  0.12693303916E+04  0.00000000000E+00 0.  1.
<mgrwt>
<rscale>  0 0.29794977E+04</rscale>
<asrwt>0</asrwt>
<pdfrwt beam="1">  1        2 0.34523099E+00 0.29794977E+04</pdfrwt>
<pdfrwt beam="2">  1       -2 0.15215619E+00 0.29794977E+04</pdfrwt>
<totfact> 0.12062345E+00</totfact>
</mgrwt>
</event>
<event>
 6    1  0.3017327E-006  0.1940298E+04  0.7818608E-02  0.8635053E-01
         -2   -1    0    0    0  501 -0.00000000000E+00  0.00000000000E+00  0.76797335775E+03  0.76797335775E+03  0.00000000000E+00 0.  1.
          2   -1    0    0  501    0  0.00000000000E+00 -0.00000000000E+00 -0.12255494279E+04  0.12255494279E+04  0.00000000000E+00 0. -1.
         23    2    1    2    0    0  0.23405763950E+02  0.40749472480E+03  0.67246270292E+03  0.79202896162E+03  0.92217182193E+02 0.  0.
         13    1    3    3    0    0 -0.26220124859E+01  0.31561799494E+03  0.44724046486E+03  0.54739896518E+03  0.00000000000E+00 0.  1.
        -13    1    3    3    0    0  0.26027776436E+02  0.91876729869E+02  0.22522223806E+03  0.24462999643E+03  0.00000000000E+00 0. -1.
         22    1    1    2    0    0 -0.23405763950E+02 -0.40749472480E+03 -0.11300387730E+04  0.12014938240E+04  0.00000000000E+00 0. -1.
<mgrwt>
<rscale>  0 0.19402982E+04</rscale>
<asrwt>0</asrwt>
<pdfrwt beam="1">  1        2 0.18854606E+00 0.19402982E+04</pdfrwt>
<pdfrwt beam="2">  1       -2 0.11814975E+00 0.19402982E+04</pdfrwt>
<totfact> 0.94233116E+00</totfact>
</mgrwt>
</event>
<event>
 6    1  0.3017327E-006  0.2444368E+04  0.7818608E-02  0.8423077E-01
          2   -1    0    0  501    0  0.00000000000E+00  0.00000000000E+00  0.12672586329E+04  0.12672586329E+04  0.00000000000E+00 0. -1.
         -2   -1    0    0    0  501 -0.00000000000E+00 -0.00000000000E+00 -0.11787129673E+04  0.11787129673E+04  0.00000000000E+00 0.  1.
         23    2    1    2    0    0  0.11172167964E+04 -0.20017633424E+03 -0.40499917090E+03  0.12083002219E+04  0.87870147029E+02 0.  0.
         11    1    3    3    0    0  0.48672352258E+03 -0.13054172082E+03 -0.18911759352E+03  0.53824380395E+03  0.00000000000E+00 0. -1.
        -11    1    3    3    0    0  0.63049327383E+03 -0.69634613416E+02 -0.21588157738E+03  0.67005641791E+03  0.00000000000E+00 0.  1.
         22    1    1    2    0    0 -0.11172167964E+04  0.20017633424E+03  0.49354483657E+03  0.12376713783E+04  0.00000000000E+00 0. -1.
<mgrwt>
<rscale>  0 0.24443684E+04</rscale>
<asrwt>0</asrwt>
<pdfrwt beam="1">  1        2 0.19496287E+00 0.24443684E+04</pdfrwt>
<pdfrwt beam="2">  1       -2 0.18134046E+00 0.24443684E+04</pdfrwt>
<totfact> 0.27480336E+00</totfact>
</mgrwt>
</event>
<event>
 6    1  0.3017327E-006  0.1622862E+04  0.7818608E-02  0.8806625E-01
         -2   -1    0    0    0  501 -0.00000000000E+00  0.00000000000E+00  0.48910848975E+03  0.48910848975E+03  0.00000000000E+00 0. -1.
          2   -1    0    0  501    0  0.00000000000E+00 -0.00000000000E+00 -0.13461641424E+04  0.13461641424E+04  0.00000000000E+00 0.  1.
         23    2    1    2    0    0  0.42414331278E+03 -0.67865280184E+03 -0.56285007440E+03  0.98261555128E+03  0.90917215880E+02 0.  0.
         13    1    3    3    0    0  0.24846991341E+03 -0.31654933782E+03 -0.26319570391E+03  0.48084587936E+03  0.00000000000E+00 0.  1.
        -13    1    3    3    0    0  0.17567339937E+03 -0.36210346402E+03 -0.29965437049E+03  0.50176967192E+03  0.00000000000E+00 0. -1.
         22    1    1    2    0    0 -0.42414331278E+03  0.67865280184E+03 -0.29420557820E+03  0.85265708082E+03  0.00000000000E+00 0. -1.
<mgrwt>
<rscale>  0 0.16228621E+04</rscale>
<asrwt>0</asrwt>
<pdfrwt beam="1">  1        2 0.20710218E+00 0.16228621E+04</pdfrwt>
<pdfrwt beam="2">  1       -2 0.75247458E-01 0.16228621E+04</pdfrwt>
<totfact> 0.23582967E+01</totfact>
</mgrwt>
</event>
<event>
 6    1  0.3017327E-006  0.3258384E+04  0.7818608E-02  0.8173566E-01
          2   -1    0    0  501    0  0.00000000000E+00  0.00000000000E+00  0.24868642703E+04  0.24868642703E+04  0.00000000000E+00 0. -1.
         -2   -1    0    0    0  501 -0.00000000000E+00 -0.00000000000E+00 -0.10673146414E+04  0.10673146414E+04  0.00000000000E+00 0.  1.
         23    2    1    2    0    0 -0.68086943122E+03 -0.33265226505E+03  0.22819375547E+04  0.24061572889E+04  0.90073213880E+02 0.  0.
         11    1    3    3    0    0 -0.22371951459E+03 -0.13830187841E+03  0.68574492469E+03  0.73445485397E+03  0.00000000000E+00 0.  1.
        -11    1    3    3    0    0 -0.45714991663E+03 -0.19435038663E+03  0.15961926300E+04  0.16717024349E+04  0.00000000000E+00 0. -1.
         22    1    1    2    0    0  0.68086943122E+03  0.33265226505E+03 -0.86238792582E+03  0.11480216228E+04  0.00000000000E+00 0.  1.
<mgrwt>
<rscale>  0 0.32583840E+04</rscale>
<asrwt>0</asrwt>
<pdfrwt beam="1">  1        2 0.38259450E+00 0.32583840E+04</pdfrwt>
<pdfrwt beam="2">  1       -2 0.16420225E+00 0.32583840E+04</pdfrwt>
<totfact> 0.69647369E-01</totfact>
</mgrwt>
</event>
<event>
 6    1  0.3166041E-006  0.2511479E+04  0.7818608E-02  0.8398907E-01
         -2   -1    0    0    0  501 -0.00000000000E+00  0.00000000000E+00  0.10607269377E+04  0.10607269377E+04  0.00000000000E+00 0. -1.
          2   -1    0    0  501    0  0.00000000000E+00 -0.00000000000E+00 -0.14866049826E+04  0.14866049826E+04  0.00000000000E+00 0.  1.
         23    2    1    2    0    0  0.41350597054E+03 -0.36615155084E+03 -0.13551372830E+04  0.14663245765E+04  0.93040647291E+02 0.  0.
         13    1    3    3    0    0  0.19155205405E+03 -0.14486579847E+03 -0.70054523836E+03  0.74056864636E+03  0.00000000000E+00 0. -1.
        -13    1    3    3    0    0  0.22195391649E+03 -0.22128575237E+03 -0.65459204462E+03  0.72575593013E+03  0.00000000000E+00 0.  1.
         22    1    1    2    0    0 -0.41350597054E+03  0.36615155084E+03  0.92925923811E+03  0.10810073439E+04  0.00000000000E+00 0. -1.
<mgrwt>
<rscale>  0 0.25114792E+04</rscale>
<asrwt>0</asrwt>
<pdfrwt beam="1">  1        2 0.22870846E+00 0.25114792E+04</pdfrwt>
<pdfrwt beam="2">  1       -2 0.16318876E+00 0.25114792E+04</pdfrwt>
<totfact> 0.27472860E+00</totfact>
</mgrwt>
</event>
<event>
 6    1  0.3017327E-006  0.1429954E+04  0.7818608E-02  0.8932417E-01
          2   -1    0    0  501    0  0.00000000000E+00  0.00000000000E+00  0.14998827951E+04  0.14998827951E+04  0.00000000000E+00 0. -1.
         -2   -1    0    0    0  501 -0.00000000000E+00 -0.00000000000E+00 -0.34082152229E+03  0.34082152229E+03  0.00000000000E+00 0.  1.
         23    2    1    2    0    0  0.20815290207E+03 -0.67495952851E+03  0.46542674840E+03  0.85074126292E+03  0.90777984893E+02 0.  0.
         11    1    3    3    0    0  0.73479606491E+02 -0.11827327215E+03  0.98050460807E+02  0.17029889119E+03  0.00000000000E+00 0.  1.
        -11    1    3    3    0    0  0.13467329557E+03 -0.55668625637E+03  0.36737628760E+03  0.68044237174E+03  0.00000000000E+00 0. -1.
         22    1    1    2    0    0 -0.20815290207E+03  0.67495952851E+03  0.69363452444E+03  0.98996305450E+03  0.00000000000E+00 0. -1.
<mgrwt>
<rscale>  0 0.14299543E+04</rscale>
<asrwt>0</asrwt>
<pdfrwt beam="1">  1        2 0.23075120E+00 0.14299543E+04</pdfrwt>
<pdfrwt beam="2">  1       -2 0.52434081E-01 0.14299543E+04</pdfrwt>
<totfact> 0.42314345E+01</totfact>
</mgrwt>
</event>
<event>
 6    1  0.3017327E-006  0.2485314E+04  0.7818608E-02  0.8408236E-01
          1   -1    0    0  501    0  0.00000000000E+00  0.00000000000E+00  0.12163968586E+04  0.12163968586E+04  0.00000000000E+00 0. -1.
         -1   -1    0    0    0  501 -0.00000000000E+00 -0.00000000000E+00 -0.12694836934E+04  0.12694836934E+04  0.00000000000E+00 0.  1.
         23    2    1    2    0    0 -0.18077243155E+03 -0.35998403261E+03  0.11474511192E+04  0.12195636270E+04  0.91783405469E+02 0.  0.
         11    1    3    3    0    0 -0.18105571937E+03 -0.35997160914E+03  0.10897009521E+04  0.11618127637E+04  0.00000000000E+00 0. -1.
        -11    1    3    3    0    0  0.28328782901E+00 -0.12423470528E-01  0.57750167175E+02  0.57750863327E+02  0.00000000000E+00 0.  1.
         22    1    1    2    0    0  0.18077243155E+03  0.35998403261E+03 -0.12005379540E+04  0.12663169250E+04  0.00000000000E+00 0.  1.
<mgrwt>
<rscale>  0 0.24853136E+04</rscale>
<asrwt>0</asrwt>
<pdfrwt beam="1">  1        1 0.18713798E+00 0.24853136E+04</pdfrwt>
<pdfrwt beam="2">  1       -1 0.19530518E+00 0.24853136E+04</pdfrwt>
<totfact> 0.15000448E+00</totfact>
</mgrwt>
</event>
<event>
 6    1  0.3017327E-006  0.4309837E+04  0.7818608E-02  0.7944802E-01
          2   -1    0    0  501    0  0.00000000000E+00  0.00000000000E+00  0.37533315355E+04  0.37533315355E+04  0.00000000000E+00 0. -1.
         -2   -1    0    0    0  501 -0.00000000000E+00 -0.00000000000E+00 -0.12372135842E+04  0.12372135842E+04  0.00000000000E+00 0.  1.
         23    2    1    2    0    0  0.18017969489E+04 -0.26653162193E+03 -0.72735285338E+02  0.18251585032E+04  0.91661275433E+02 0.  0.
         13    1    3    3    0    0  0.14909324672E+04 -0.19933618938E+03 -0.32216802583E+02  0.15045439378E+04  0.00000000000E+00 0. -1.
        -13    1    3    3    0    0  0.31086448169E+03 -0.67195432546E+02 -0.40518482755E+02  0.32061456545E+03  0.00000000000E+00 0.  1.
         22    1    1    2    0    0 -0.18017969489E+04  0.26653162193E+03  0.25888532367E+04  0.31653866165E+04  0.00000000000E+00 0. -1.
<mgrwt>
<rscale>  0 0.43098365E+04</rscale>
<asrwt>0</asrwt>
<pdfrwt beam="1">  1        2 0.57743562E+00 0.43098365E+04</pdfrwt>
<pdfrwt beam="2">  1       -2 0.19034055E+00 0.43098365E+04</pdfrwt>
<totfact> 0.63014730E-02</totfact>
</mgrwt>
</event>
<event>
 6    1  0.3017327E-006  0.3479138E+04  0.7818608E-02  0.8118752E-01
          1   -1    0    0  501    0  0.00000000000E+00  0.00000000000E+00  0.22199004974E+04  0.22199004974E+04  0.00000000000E+00 0. -1.
         -1   -1    0    0    0  501 -0.00000000000E+00 -0.00000000000E+00 -0.13631692972E+04  0.13631692972E+04  0.00000000000E+00 0.  1.
         23    2    1    2    0    0 -0.10792914203E+04  0.36182666853E+03  0.17815347867E+04  0.21164238996E+04  0.97956207720E+02 0.  0.
         11    1    3    3    0    0 -0.90651623414E+03  0.33728272009E+03  0.14799410642E+04  0.17679810150E+04  0.00000000000E+00 0. -1.
        -11    1    3    3    0    0 -0.17277518614E+03  0.24543948440E+02  0.30159372250E+03  0.34844288457E+03  0.00000000000E+00 0.  1.
         22    1    1    2    0    0  0.10792914203E+04 -0.36182666853E+03 -0.92480358647E+03  0.14666458951E+04  0.00000000000E+00 0.  1.
<mgrwt>
<rscale>  0 0.34791379E+04</rscale>
<asrwt>0</asrwt>
<pdfrwt beam="1">  1        1 0.34152315E+00 0.34791379E+04</pdfrwt>
<pdfrwt beam="2">  1       -1 0.20971835E+00 0.34791379E+04</pdfrwt>
<totfact> 0.22283012E-01</totfact>
</mgrwt>
</event>
<event>
 6    1  0.3017327E-006  0.2084320E+04  0.7818608E-02  0.8568182E-01
          2   -1    0    0  501    0  0.00000000000E+00  0.00000000000E+00  0.29460315657E+04  0.29460315657E+04  0.00000000000E+00 0. -1.
         -2   -1    0    0    0  501 -0.00000000000E+00 -0.00000000000E+00 -0.36866465716E+03  0.36866465716E+03  0.00000000000E+00 0.  1.
         23    2    1    2    0    0 -0.10242348448E+04  0.97919169805E+02  0.15341366275E+04  0.18494404088E+04  0.90606031477E+02 0.  0.
         13    1    3    3    0    0 -0.40224604949E+03  0.74512083998E+02  0.56228556038E+03  0.69535529509E+03  0.00000000000E+00 0.  1.
        -13    1    3    3    0    0 -0.62198879534E+03  0.23407085807E+02  0.97185106708E+03  0.11540851137E+04  0.00000000000E+00 0. -1.
         22    1    1    2    0    0  0.10242348448E+04 -0.97919169805E+02  0.10432302811E+04  0.14652558140E+04  0.00000000000E+00 0.  1.
<mgrwt>
<rscale>  0 0.20843202E+04</rscale>
<asrwt>0</asrwt>
<pdfrwt beam="1">  1        2 0.45323561E+00 0.20843202E+04</pdfrwt>
<pdfrwt beam="2">  1       -2 0.56717642E-01 0.20843202E+04</pdfrwt>
<totfact> 0.50704397E+00</totfact>
</mgrwt>
</event>
<event>
 6    1  0.3017327E-006  0.2468501E+04  0.7818608E-02  0.8414294E-01
          2   -1    0    0  501    0  0.00000000000E+00  0.00000000000E+00  0.30842846137E+04  0.30842846137E+04  0.00000000000E+00 0. -1.
         -2   -1    0    0    0  501 -0.00000000000E+00 -0.00000000000E+00 -0.49391480593E+03  0.49391480593E+03  0.00000000000E+00 0.  1.
         23    2    1    2    0    0 -0.11951038450E+04  0.21711076448E+03  0.16008208780E+04  0.20114775653E+04  0.89466350241E+02 0.  0.
         13    1    3    3    0    0 -0.54392608670E+03  0.54690492538E+02  0.70249637346E+03  0.89013919837E+03  0.00000000000E+00 0.  1.
        -13    1    3    3    0    0 -0.65117775831E+03  0.16242027194E+03  0.89832450458E+03  0.11213383669E+04  0.00000000000E+00 0. -1.
         22    1    1    2    0    0  0.11951038450E+04 -0.21711076448E+03  0.98954892973E+03  0.15667218543E+04  0.00000000000E+00 0. -1.
<mgrwt>
<rscale>  0 0.24685006E+04</rscale>
<asrwt>0</asrwt>
<pdfrwt beam="1">  1        2 0.47450531E+00 0.24685006E+04</pdfrwt>
<pdfrwt beam="2">  1       -2 0.75986895E-01 0.24685006E+04</pdfrwt>
<totfact> 0.21368267E+00</totfact>
</mgrwt>
</event>
<event>
 6    1  0.3017327E-006  0.1755957E+04  0.7818608E-02  0.8730078E-01
          2   -1    0    0  501    0  0.00000000000E+00  0.00000000000E+00  0.25388830374E+04  0.25388830374E+04  0.00000000000E+00 0. -1.
         -2   -1    0    0    0  501 -0.00000000000E+00 -0.00000000000E+00 -0.30361623695E+03  0.30361623695E+03  0.00000000000E+00 0.  1.
         23    2    1    2    0    0  0.33537142551E+03  0.58613910775E+03  0.20228913870E+04  0.21345894193E+04  0.91374934463E+02 0.  0.
         11    1    3    3    0    0  0.89399015121E+02  0.24227611519E+03  0.80420599355E+03  0.84465210588E+03  0.00000000000E+00 0.  1.
        -11    1    3    3    0    0  0.24597241039E+03  0.34386299257E+03  0.12186853934E+04  0.12899373134E+04  0.00000000000E+00 0. -1.
         22    1    1    2    0    0 -0.33537142551E+03 -0.58613910775E+03  0.21237541346E+03  0.70790985509E+03  0.00000000000E+00 0.  1.
<mgrwt>
<rscale>  0 0.17559568E+04</rscale>
<asrwt>0</asrwt>
<pdfrwt beam="1">  1        2 0.39059738E+00 0.17559568E+04</pdfrwt>
<pdfrwt beam="2">  1       -2 0.46710192E-01 0.17559568E+04</pdfrwt>
<totfact> 0.13623240E+01</totfact>
</mgrwt>
</event>
<event>
 6    1  0.3017327E-006  0.7357317E+03  0.7818608E-02  0.9658005E-01
          1   -1    0    0  501    0  0.00000000000E+00  0.00000000000E+00  0.37297926832E+03  0.37297926832E+03  0.00000000000E+00 0. -1.
         -1   -1    0    0    0  501 -0.00000000000E+00 -0.00000000000E+00 -0.36282257637E+03  0.36282257637E+03  0.00000000000E+00 0.  1.
         23    2    1    2    0    0  0.73673191152E+02 -0.34221870971E+03  0.97821329191E+02  0.37493279227E+03  0.92001097317E+02 0.  0.
         13    1    3    3    0    0  0.60724634236E+02 -0.24324417728E+03  0.26192570996E+02  0.25207392122E+03  0.00000000000E+00 0.  1.
        -13    1    3    3    0    0  0.12948556916E+02 -0.98974532424E+02  0.71628758195E+02  0.12285887105E+03  0.00000000000E+00 0. -1.
         22    1    1    2    0    0 -0.73673191152E+02  0.34221870971E+03 -0.87664637239E+02  0.36086905241E+03  0.00000000000E+00 0. -1.
<mgrwt>
<rscale>  0 0.73573174E+03</rscale>
<asrwt>0</asrwt>
<pdfrwt beam="1">  1        1 0.57381426E-01 0.73573174E+03</pdfrwt>
<pdfrwt beam="2">  1       -1 0.55818858E-01 0.73573174E+03</pdfrwt>
<totfact> 0.21664709E+02</totfact>
</mgrwt>
</event>
<event>
 6    1  0.3017327E-006  0.2697044E+04  0.7818608E-02  0.8335965E-01
          1   -1    0    0  501    0  0.00000000000E+00  0.00000000000E+00  0.11412711441E+04  0.11412711441E+04  0.00000000000E+00 0. -1.
         -1   -1    0    0    0  501 -0.00000000000E+00 -0.00000000000E+00 -0.15934093592E+04  0.15934093592E+04  0.00000000000E+00 0.  1.
         23    2    1    2    0    0 -0.50671364458E+03  0.11012609214E+04 -0.82168634251E+03  0.14673604361E+04  0.91890528949E+02 0.  0.
         13    1    3    3    0    0 -0.32394258686E+03  0.62261536383E+03 -0.51103419622E+03  0.86818468114E+03  0.00000000000E+00 0.  1.
        -13    1    3    3    0    0 -0.18277105773E+03  0.47864555753E+03 -0.31065214629E+03  0.59917575492E+03  0.00000000000E+00 0. -1.
         22    1    1    2    0    0  0.50671364458E+03 -0.11012609214E+04  0.36954812740E+03  0.12673200673E+04  0.00000000000E+00 0.  1.
<mgrwt>
<rscale>  0 0.26970444E+04</rscale>
<asrwt>0</asrwt>
<pdfrwt beam="1">  1        1 0.17558018E+00 0.26970444E+04</pdfrwt>
<pdfrwt beam="2">  1       -1 0.24513990E+00 0.26970444E+04</pdfrwt>
<totfact> 0.77356363E-01</totfact>
</mgrwt>
</event>
<event>
 6    1  0.3017327E-006  0.2188710E+04  0.7818608E-02  0.8523142E-01
          2   -1    0    0  501    0  0.00000000000E+00  0.00000000000E+00  0.23066909578E+04  0.23066909578E+04  0.00000000000E+00 0. -1.
         -2   -1    0    0    0  501 -0.00000000000E+00 -0.00000000000E+00 -0.51919101692E+03  0.51919101692E+03  0.00000000000E+00 0.  1.
         23    2    1    2    0    0 -0.80205296988E+03  0.33246867748E+03  0.17511424674E+04  0.19568904593E+04  0.95372638986E+02 0.  0.
         11    1    3    3    0    0 -0.42063245486E+03  0.12778972761E+03  0.83625113707E+03  0.94476337821E+03  0.00000000000E+00 0. -1.
        -11    1    3    3    0    0 -0.38142051502E+03  0.20467894987E+03  0.91489133037E+03  0.10121270810E+04  0.00000000000E+00 0.  1.
         22    1    1    2    0    0  0.80205296988E+03 -0.33246867748E+03  0.36357473404E+02  0.86899151542E+03  0.00000000000E+00 0.  1.
<mgrwt>
<rscale>  0 0.21887103E+04</rscale>
<asrwt>0</asrwt>
<pdfrwt beam="1">  1        2 0.35487553E+00 0.21887103E+04</pdfrwt>
<pdfrwt beam="2">  1       -2 0.79875543E-01 0.21887103E+04</pdfrwt>
<totfact> 0.57030372E+00</totfact>
</mgrwt>
</event>
<event>
 6    1  0.3017327E-006  0.1539352E+04  0.7818608E-02  0.8858698E-01
          2   -1    0    0  501    0  0.00000000000E+00  0.00000000000E+00  0.81102425287E+03  0.81102425287E+03  0.00000000000E+00 0. -1.
         -2   -1    0    0    0  501 -0.00000000000E+00 -0.00000000000E+00 -0.73043583910E+03  0.73043583910E+03  0.00000000000E+00 0.  1.
         23    2    1    2    0    0  0.61563176387E+03 -0.45734391003E+03  0.39279679788E+02  0.77342862631E+03  0.92103344287E+02 0.  0.
         13    1    3    3    0    0  0.39140559630E+03 -0.34445426540E+03  0.26221790851E+02  0.52204852656E+03  0.00000000000E+00 0. -1.
        -13    1    3    3    0    0  0.22422616757E+03 -0.11288964462E+03  0.13057888937E+02  0.25138009975E+03  0.00000000000E+00 0.  1.
         22    1    1    2    0    0 -0.61563176387E+03  0.45734391003E+03  0.41308733983E+02  0.76803146565E+03  0.00000000000E+00 0.  1.
<mgrwt>
<rscale>  0 0.15393520E+04</rscale>
<asrwt>0</asrwt>
<pdfrwt beam="1">  1        2 0.12477296E+00 0.15393520E+04</pdfrwt>
<pdfrwt beam="2">  1       -2 0.11237474E+00 0.15393520E+04</pdfrwt>
<totfact> 0.20326043E+01</totfact>
</mgrwt>
</event>
<event>
 6    1  0.3017327E-006  0.4360147E+04  0.7818608E-02  0.7935589E-01
         -2   -1    0    0    0  501 -0.00000000000E+00  0.00000000000E+00  0.23722520515E+04  0.23722520515E+04  0.00000000000E+00 0.  1.
          2   -1    0    0  501    0  0.00000000000E+00 -0.00000000000E+00 -0.20034634165E+04  0.20034634165E+04  0.00000000000E+00 0. -1.
         23    2    1    2    0    0 -0.10640381782E+04  0.18920235502E+04  0.37661885946E+03  0.22050032182E+04  0.90923416929E+02 0.  0.
         13    1    3    3    0    0 -0.44435302121E+03  0.86786316280E+03  0.19378832889E+03  0.99407745836E+03  0.00000000000E+00 0.  1.
        -13    1    3    3    0    0 -0.61968515696E+03  0.10241603874E+04  0.18283053057E+03  0.12109257598E+04  0.00000000000E+00 0. -1.
         22    1    1    2    0    0  0.10640381782E+04 -0.18920235502E+04 -0.78302245280E+01  0.21707122498E+04  0.00000000000E+00 0. -1.
<mgrwt>
<rscale>  0 0.43601469E+04</rscale>
<asrwt>0</asrwt>
<pdfrwt beam="1">  1        2 0.30822514E+00 0.43601469E+04</pdfrwt>
<pdfrwt beam="2">  1       -2 0.36496185E+00 0.43601469E+04</pdfrwt>
<totfact> 0.63726274E-02</totfact>
</mgrwt>
</event>
<event>
 6    1  0.3017327E-006  0.1047057E+04  0.7818608E-02  0.9258388E-01
          2   -1    0    0  501    0  0.00000000000E+00  0.00000000000E+00  0.24370902328E+04  0.24370902328E+04  0.00000000000E+00 0.  1.
         -2   -1    0    0    0  501 -0.00000000000E+00 -0.00000000000E+00 -0.11246281786E+03  0.11246281786E+03  0.00000000000E+00 0. -1.
         23    2    1    2    0    0  0.37383017282E+03 -0.19689144058E+03  0.19072722619E+04  0.19556670673E+04  0.91820256785E+02 0.  0.
         11    1    3    3    0    0  0.21618752535E+03 -0.67020765054E+02  0.10908244818E+04  0.11140587413E+04  0.00000000000E+00 0.  1.
        -11    1    3    3    0    0  0.15764264746E+03 -0.12987067553E+03  0.81644778012E+03  0.84160832596E+03  0.00000000000E+00 0. -1.
         22    1    1    2    0    0 -0.37383017282E+03  0.19689144058E+03  0.41735515301E+03  0.59388598336E+03  0.00000000000E+00 0. -1.
<mgrwt>
<rscale>  0 0.10470569E+04</rscale>
<asrwt>0</asrwt>
<pdfrwt beam="1">  1        2 0.37493692E+00 0.10470569E+04</pdfrwt>
<pdfrwt beam="2">  1       -2 0.17301974E-01 0.10470569E+04</pdfrwt>
<totfact> 0.10467243E+02</totfact>
</mgrwt>
</event>
<event>
 6    1  0.3017327E-006  0.1064406E+04  0.7818608E-02  0.9240596E-01
         -2   -1    0    0    0  501 -0.00000000000E+00  0.00000000000E+00  0.12741933256E+03  0.12741933256E+03  0.00000000000E+00 0.  1.
          2   -1    0    0  501    0  0.00000000000E+00 -0.00000000000E+00 -0.22228974822E+04  0.22228974822E+04  0.00000000000E+00 0. -1.
         23    2    1    2    0    0 -0.32187046212E+03 -0.15419666694E+03 -0.19538421223E+03  0.41699475741E+03  0.91282149582E+02 0.  0.
         11    1    3    3    0    0 -0.18473824431E+03 -0.83642633265E+02 -0.59204301401E+02  0.21125685389E+03  0.00000000000E+00 0. -1.
        -11    1    3    3    0    0 -0.13713221781E+03 -0.70554033678E+02 -0.13617991083E+03  0.20573790352E+03  0.00000000000E+00 0.  1.
         22    1    1    2    0    0  0.32187046212E+03  0.15419666694E+03 -0.19000939374E+04  0.19333220574E+04  0.00000000000E+00 0. -1.
<mgrwt>
<rscale>  0 0.10644062E+04</rscale>
<asrwt>0</asrwt>
<pdfrwt beam="1">  1        2 0.34198421E+00 0.10644062E+04</pdfrwt>
<pdfrwt beam="2">  1       -2 0.19602975E-01 0.10644062E+04</pdfrwt>
<totfact> 0.11101847E+02</totfact>
</mgrwt>
</event>
<event>
 6    1  0.3017327E-006  0.2269539E+04  0.7818608E-02  0.8490029E-01
          2   -1    0    0  501    0  0.00000000000E+00  0.00000000000E+00  0.25262216375E+04  0.25262216375E+04  0.00000000000E+00 0. -1.
         -2   -1    0    0    0  501 -0.00000000000E+00 -0.00000000000E+00 -0.50973413737E+03  0.50973413737E+03  0.00000000000E+00 0.  1.
         23    2    1    2    0    0 -0.23505369062E+03 -0.11047639967E+04  0.11298510661E+04  0.16000317198E+04  0.88228946166E+02 0.  0.
         11    1    3    3    0    0 -0.41723357015E+02 -0.25727918385E+03  0.21288945310E+03  0.33653430168E+03  0.00000000000E+00 0.  1.
        -11    1    3    3    0    0 -0.19333033360E+03 -0.84748481281E+03  0.91696161303E+03  0.12634974181E+04  0.00000000000E+00 0. -1.
         22    1    1    2    0    0  0.23505369062E+03  0.11047639967E+04  0.88663643401E+03  0.14359240551E+04  0.00000000000E+00 0.  1.
<mgrwt>
<rscale>  0 0.22695386E+04</rscale>
<asrwt>0</asrwt>
<pdfrwt beam="1">  1        2 0.38864948E+00 0.22695386E+04</pdfrwt>
<pdfrwt beam="2">  1       -2 0.78420638E-01 0.22695386E+04</pdfrwt>
<totfact> 0.44162050E+00</totfact>
</mgrwt>
</event>
<event>
 6    1  0.3017327E-006  0.2000859E+04  0.7818608E-02  0.8606219E-01
          2   -1    0    0  501    0  0.00000000000E+00  0.00000000000E+00  0.10535146878E+04  0.10535146878E+04  0.00000000000E+00 0. -1.
         -2   -1    0    0    0  501 -0.00000000000E+00 -0.00000000000E+00 -0.95001927860E+03  0.95001927860E+03  0.00000000000E+00 0.  1.
         23    2    1    2    0    0 -0.53997992096E+03  0.10222410822E+03 -0.78285118003E+03  0.96063494943E+03  0.89081157712E+02 0.  0.
         11    1    3    3    0    0 -0.32734202370E+03  0.17518473296E+02 -0.46696365775E+03  0.57053900396E+03  0.00000000000E+00 0.  1.
        -11    1    3    3    0    0 -0.21263789726E+03  0.84705634926E+02 -0.31588752228E+03  0.39009594547E+03  0.00000000000E+00 0. -1.
         22    1    1    2    0    0  0.53997992096E+03 -0.10222410822E+03  0.88634658922E+03  0.10428990170E+04  0.00000000000E+00 0. -1.
<mgrwt>
<rscale>  0 0.20008591E+04</rscale>
<asrwt>0</asrwt>
<pdfrwt beam="1">  1        2 0.16207918E+00 0.20008591E+04</pdfrwt>
<pdfrwt beam="2">  1       -2 0.14615681E+00 0.20008591E+04</pdfrwt>
<totfact> 0.69426923E+00</totfact>
</mgrwt>
</event>
<event>
 6    1  0.3017327E-006  0.2720716E+04  0.7818608E-02  0.8328314E-01
          2   -1    0    0  501    0  0.00000000000E+00  0.00000000000E+00  0.13719214204E+04  0.13719214204E+04  0.00000000000E+00 0.  1.
         -2   -1    0    0    0  501 -0.00000000000E+00 -0.00000000000E+00 -0.13488925015E+04  0.13488925015E+04  0.00000000000E+00 0. -1.
         23    2    1    2    0    0 -0.14837054234E+03  0.47089027406E+03 -0.12543959716E+04  0.13513009358E+04  0.93560128218E+02 0.  0.
         13    1    3    3    0    0 -0.15420834875E+03  0.39907194453E+03 -0.11175516439E+04  0.11966454398E+04  0.00000000000E+00 0. -1.
        -13    1    3    3    0    0  0.58378064083E+01  0.71818329533E+02 -0.13684432765E+03  0.15465549603E+03  0.00000000000E+00 0.  1.
         22    1    1    2    0    0  0.14837054234E+03 -0.47089027406E+03  0.12774248905E+04  0.13695129860E+04  0.00000000000E+00 0.  1.
<mgrwt>
<rscale>  0 0.27207165E+04</rscale>
<asrwt>0</asrwt>
<pdfrwt beam="1">  1        2 0.21106483E+00 0.27207165E+04</pdfrwt>
<pdfrwt beam="2">  1       -2 0.20752192E+00 0.27207165E+04</pdfrwt>
<totfact> 0.15627190E+00</totfact>
</mgrwt>
</event>
<event>
 6    1  0.3017327E-006  0.3464076E+04  0.7818608E-02  0.8122357E-01
         -2   -1    0    0    0  501 -0.00000000000E+00  0.00000000000E+00  0.11738431351E+04  0.11738431351E+04  0.00000000000E+00 0.  1.
          2   -1    0    0  501    0  0.00000000000E+00 -0.00000000000E+00 -0.25556697708E+04  0.25556697708E+04  0.00000000000E+00 0. -1.
         23    2    1    2    0    0 -0.57299247902E+03 -0.84751796758E+03  0.81171678511E+03  0.13091328065E+04  0.91309798690E+02 0.  0.
         13    1    3    3    0    0 -0.52212434635E+03 -0.77973171400E+03  0.70996695548E+03  0.11767108637E+04  0.00000000000E+00 0.  1.
        -13    1    3    3    0    0 -0.50868132677E+02 -0.67786253581E+02  0.10174982963E+03  0.13242194276E+03  0.00000000000E+00 0. -1.
         22    1    1    2    0    0  0.57299247902E+03  0.84751796758E+03 -0.21935434208E+04  0.24203800994E+04  0.00000000000E+00 0. -1.
<mgrwt>
<rscale>  0 0.34640759E+04</rscale>
<asrwt>0</asrwt>
<pdfrwt beam="1">  1        2 0.39317996E+00 0.34640759E+04</pdfrwt>
<pdfrwt beam="2">  1       -2 0.18059125E+00 0.34640759E+04</pdfrwt>
<totfact> 0.47819630E-01</totfact>
</mgrwt>
</event>
<event>
 6    1  0.3017327E-006  0.3840396E+04  0.7818608E-02  0.8037541E-01
          2   -1    0    0  501    0  0.00000000000E+00  0.00000000000E+00  0.17217838267E+04  0.17217838267E+04  0.00000000000E+00 0. -1.
         -2   -1    0    0    0  501 -0.00000000000E+00 -0.00000000000E+00 -0.21414769828E+04  0.21414769828E+04  0.00000000000E+00 0.  1.
         23    2    1    2    0    0 -0.48487515580E+03 -0.68008510835E+03 -0.19480720152E+04  0.21215485461E+04  0.91454829269E+02 0.  0.
         13    1    3    3    0    0 -0.28448134357E+03 -0.33631547733E+03 -0.10929397428E+04  0.11783696434E+04  0.00000000000E+00 0.  1.
        -13    1    3    3    0    0 -0.20039381223E+03 -0.34376963103E+03 -0.85513227238E+03  0.94317890268E+03  0.00000000000E+00 0. -1.
         22    1    1    2    0    0  0.48487515580E+03  0.68008510835E+03  0.15283788591E+04  0.17417122633E+04  0.00000000000E+00 0. -1.
<mgrwt>
<rscale>  0 0.38403960E+04</rscale>
<asrwt>0</asrwt>
<pdfrwt beam="1">  1        2 0.26488982E+00 0.38403960E+04</pdfrwt>
<pdfrwt beam="2">  1       -2 0.32945800E+00 0.38403960E+04</pdfrwt>
<totfact> 0.15941793E-01</totfact>
</mgrwt>
</event>
<event>
 6    1  0.3017327E-006  0.2553673E+04  0.7818608E-02  0.8384110E-01
          2   -1    0    0  501    0  0.00000000000E+00  0.00000000000E+00  0.25644651160E+04  0.25644651160E+04  0.00000000000E+00 0. -1.
         -2   -1    0    0    0  501 -0.00000000000E+00 -0.00000000000E+00 -0.63573164242E+03  0.63573164242E+03  0.00000000000E+00 0.  1.
         23    2    1    2    0    0  0.98510580730E+03 -0.77090178600E+02 -0.43909465271E+02  0.99391107623E+03  0.97748857248E+02 0.  0.
         11    1    3    3    0    0  0.39415091670E+03 -0.25666170568E+01 -0.56220334334E+02  0.39814853843E+03  0.00000000000E+00 0.  1.
        -11    1    3    3    0    0  0.59095489060E+03 -0.74523561543E+02  0.12310869063E+02  0.59576253780E+03  0.00000000000E+00 0. -1.
         22    1    1    2    0    0 -0.98510580730E+03  0.77090178600E+02  0.19726429388E+04  0.22062856821E+04  0.00000000000E+00 0. -1.
<mgrwt>
<rscale>  0 0.25536731E+04</rscale>
<asrwt>0</asrwt>
<pdfrwt beam="1">  1        2 0.39453309E+00 0.25536731E+04</pdfrwt>
<pdfrwt beam="2">  1       -2 0.97804869E-01 0.25536731E+04</pdfrwt>
<totfact> 0.24673252E+00</totfact>
</mgrwt>
</event>
<event>
 6    1  0.3017327E-006  0.2729134E+04  0.7818608E-02  0.8325614E-01
          2   -1    0    0  501    0  0.00000000000E+00  0.00000000000E+00  0.17086342266E+04  0.17086342266E+04  0.00000000000E+00 0. -1.
         -2   -1    0    0    0  501 -0.00000000000E+00 -0.00000000000E+00 -0.10897841090E+04  0.10897841090E+04  0.00000000000E+00 0.  1.
         23    2    1    2    0    0 -0.81122088368E+03 -0.57613469033E+03  0.12652852592E+04  0.16118733951E+04  0.84726329929E+02 0.  0.
         11    1    3    3    0    0 -0.37634107082E+03 -0.21733186395E+03  0.56742666920E+03  0.71472985497E+03  0.00000000000E+00 0.  1.
        -11    1    3    3    0    0 -0.43487981286E+03 -0.35880282638E+03  0.69785859003E+03  0.89714354009E+03  0.00000000000E+00 0. -1.
         22    1    1    2    0    0  0.81122088368E+03  0.57613469033E+03 -0.64643514167E+03  0.11865449405E+04  0.00000000000E+00 0.  1.
<mgrwt>
<rscale>  0 0.27291335E+04</rscale>
<asrwt>0</asrwt>
<pdfrwt beam="1">  1        2 0.26286681E+00 0.27291335E+04</pdfrwt>
<pdfrwt beam="2">  1       -2 0.16765909E+00 0.27291335E+04</pdfrwt>
<totfact> 0.18806159E+00</totfact>
</mgrwt>
</event>
<event>
 6    1  0.3017327E-006  0.3348099E+04  0.7818608E-02  0.8150763E-01
         -2   -1    0    0    0  501 -0.00000000000E+00  0.00000000000E+00  0.31257242840E+04  0.31257242840E+04  0.00000000000E+00 0.  1.
          2   -1    0    0  501    0  0.00000000000E+00 -0.00000000000E+00 -0.89657333052E+03  0.89657333052E+03  0.00000000000E+00 0. -1.
         23    2    1    2    0    0  0.15640574583E+04  0.57458795035E+03  0.93759271494E+03  0.19140875374E+04  0.90686030004E+02 0.  0.
         13    1    3    3    0    0  0.11720575594E+04  0.46773094892E+03  0.68929928694E+03  0.14379237358E+04  0.00000000000E+00 0. -1.
        -13    1    3    3    0    0  0.39199989895E+03  0.10685700143E+03  0.24829342800E+03  0.47616380156E+03  0.00000000000E+00 0.  1.
         22    1    1    2    0    0 -0.15640574583E+04 -0.57458795035E+03  0.12915582385E+04  0.21082100771E+04  0.00000000000E+00 0. -1.
<mgrwt>
<rscale>  0 0.33480986E+04</rscale>
<asrwt>0</asrwt>
<pdfrwt beam="1">  1        2 0.13793436E+00 0.33480986E+04</pdfrwt>
<pdfrwt beam="2">  1       -2 0.48088065E+00 0.33480986E+04</pdfrwt>
<totfact> 0.53367481E-02</totfact>
</mgrwt>
</event>
<event>
 6    1  0.3017327E-006  0.1663933E+04  0.7818608E-02  0.8782206E-01
          2   -1    0    0  501    0  0.00000000000E+00  0.00000000000E+00  0.13060069366E+04  0.13060069366E+04  0.00000000000E+00 0.  1.
         -2   -1    0    0    0  501 -0.00000000000E+00 -0.00000000000E+00 -0.52998826408E+03  0.52998826408E+03  0.00000000000E+00 0. -1.
         23    2    1    2    0    0 -0.26755438887E+03  0.57130342589E+03 -0.20481361056E+03  0.66980271100E+03  0.93349350075E+02 0.  0.
         11    1    3    3    0    0 -0.22773979465E+02  0.13522058056E+03 -0.55173712327E+02  0.14780865360E+03  0.00000000000E+00 0. -1.
        -11    1    3    3    0    0 -0.24478040940E+03  0.43608284533E+03 -0.14963989823E+03  0.52199405740E+03  0.00000000000E+00 0.  1.
         22    1    1    2    0    0  0.26755438887E+03 -0.57130342589E+03  0.98083228305E+03  0.11661924896E+04  0.00000000000E+00 0.  1.
<mgrwt>
<rscale>  0 0.16639331E+04</rscale>
<asrwt>0</asrwt>
<pdfrwt beam="1">  1        2 0.20092414E+00 0.16639331E+04</pdfrwt>
<pdfrwt beam="2">  1       -2 0.81536656E-01 0.16639331E+04</pdfrwt>
<totfact> 0.20723035E+01</totfact>
</mgrwt>
</event>
<event>
 6    1  0.3017327E-006  0.1313935E+04  0.7818608E-02  0.9018587E-01
         -2   -1    0    0    0  501 -0.00000000000E+00  0.00000000000E+00  0.18550585399E+03  0.18550585399E+03  0.00000000000E+00 0.  1.
          2   -1    0    0  501    0  0.00000000000E+00 -0.00000000000E+00 -0.23266450883E+04  0.23266450883E+04  0.00000000000E+00 0. -1.
         23    2    1    2    0    0 -0.29131088724E+03 -0.32100693762E+03 -0.20116127413E+04  0.20597301211E+04  0.89414003018E+02 0.  0.
         11    1    3    3    0    0 -0.16959502169E+03 -0.24873281205E+03 -0.13647662967E+04  0.13975755893E+04  0.00000000000E+00 0.  1.
        -11    1    3    3    0    0 -0.12171586555E+03 -0.72274125562E+02 -0.64684644453E+03  0.66215453178E+03  0.00000000000E+00 0. -1.
         22    1    1    2    0    0  0.29131088724E+03  0.32100693762E+03 -0.12952649302E+03  0.45242082116E+03  0.00000000000E+00 0.  1.
<mgrwt>
<rscale>  0 0.13139350E+04</rscale>
<asrwt>0</asrwt>
<pdfrwt beam="1">  1        2 0.35794541E+00 0.13139350E+04</pdfrwt>
<pdfrwt beam="2">  1       -2 0.28539361E-01 0.13139350E+04</pdfrwt>
<totfact> 0.48387884E+01</totfact>
</mgrwt>
</event>
<event>
 6    1  0.3017327E-006  0.1021667E+04  0.7818608E-02  0.9285095E-01
         -2   -1    0    0    0  501 -0.00000000000E+00  0.00000000000E+00  0.26869449822E+03  0.26869449822E+03  0.00000000000E+00 0.  1.
          2   -1    0    0  501    0  0.00000000000E+00 -0.00000000000E+00 -0.97118003624E+03  0.97118003624E+03  0.00000000000E+00 0. -1.
         23    2    1    2    0    0 -0.47560560821E+03 -0.11646448070E+03 -0.19610420029E+03  0.53546930377E+03  0.92227154785E+02 0.  0.
         13    1    3    3    0    0 -0.32056614587E+03 -0.52525906823E+02 -0.90230303510E+02  0.33713963344E+03  0.00000000000E+00 0.  1.
        -13    1    3    3    0    0 -0.15503946234E+03 -0.63938573874E+02 -0.10587389678E+03  0.19832967032E+03  0.00000000000E+00 0. -1.
         22    1    1    2    0    0  0.47560560821E+03  0.11646448070E+03 -0.50638133773E+03  0.70440523069E+03  0.00000000000E+00 0. -1.
<mgrwt>
<rscale>  0 0.10216667E+04</rscale>
<asrwt>0</asrwt>
<pdfrwt beam="1">  1        2 0.14941231E+00 0.10216667E+04</pdfrwt>
<pdfrwt beam="2">  1       -2 0.41337615E-01 0.10216667E+04</pdfrwt>
<totfact> 0.14526808E+02</totfact>
</mgrwt>
</event>
<event>
 6    1  0.3017327E-006  0.1909635E+04  0.7818608E-02  0.8650075E-01
         -2   -1    0    0    0  501 -0.00000000000E+00  0.00000000000E+00  0.35512064973E+03  0.35512064973E+03  0.00000000000E+00 0.  1.
          2   -1    0    0  501    0  0.00000000000E+00 -0.00000000000E+00 -0.25672295871E+04  0.25672295871E+04  0.00000000000E+00 0. -1.
         23    2    1    2    0    0 -0.21278943816E+03  0.78145095082E+03 -0.18762697363E+04  0.20455760912E+04  0.89713364637E+02 0.  0.
         13    1    3    3    0    0 -0.15867725859E+03  0.69455642653E+03 -0.16472428125E+04  0.17947133435E+04  0.00000000000E+00 0. -1.
        -13    1    3    3    0    0 -0.54112179568E+02  0.86894524285E+02 -0.22902692383E+03  0.25086274767E+03  0.00000000000E+00 0.  1.
         22    1    1    2    0    0  0.21278943816E+03 -0.78145095082E+03 -0.33583920102E+03  0.87677414564E+03  0.00000000000E+00 0.  1.
<mgrwt>
<rscale>  0 0.19096348E+04</rscale>
<asrwt>0</asrwt>
<pdfrwt beam="1">  1        2 0.39495842E+00 0.19096348E+04</pdfrwt>
<pdfrwt beam="2">  1       -2 0.54633944E-01 0.19096348E+04</pdfrwt>
<totfact> 0.93939058E+00</totfact>
</mgrwt>
</event>
<event>
 6    1  0.3017327E-006  0.5682859E+04  0.7818608E-02  0.7731017E-01
         -2   -1    0    0    0  501 -0.00000000000E+00  0.00000000000E+00  0.24027757199E+04  0.24027757199E+04  0.00000000000E+00 0.  1.
          2   -1    0    0  501    0  0.00000000000E+00 -0.00000000000E+00 -0.33601640812E+04  0.33601640812E+04  0.00000000000E+00 0. -1.
         23    2    1    2    0    0  0.11199022232E+04  0.14168819247E+04 -0.27023933983E+04  0.32516098830E+04  0.91111877792E+02 0.  0.
         13    1    3    3    0    0  0.47090618162E+03  0.57012106921E+03 -0.10315143536E+04  0.12691778942E+04  0.00000000000E+00 0. -1.
        -13    1    3    3    0    0  0.64899604158E+03  0.84676085546E+03 -0.16708790447E+04  0.19824319888E+04  0.00000000000E+00 0.  1.
         22    1    1    2    0    0 -0.11199022232E+04 -0.14168819247E+04  0.17450050370E+04  0.25113299180E+04  0.00000000000E+00 0.  1.
<mgrwt>
<rscale>  0 0.56828587E+04</rscale>
<asrwt>0</asrwt>
<pdfrwt beam="1">  1        2 0.51694832E+00 0.56828587E+04</pdfrwt>
<pdfrwt beam="2">  1       -2 0.36965781E+00 0.56828587E+04</pdfrwt>
<totfact> 0.81587672E-03</totfact>
</mgrwt>
</event>
<event>
 6    1  0.3017327E-006  0.9996763E+03  0.7818608E-02  0.9308900E-01
          2   -1    0    0  501    0  0.00000000000E+00  0.00000000000E+00  0.91360191325E+03  0.91360191325E+03  0.00000000000E+00 0. -1.
         -2   -1    0    0    0  501 -0.00000000000E+00 -0.00000000000E+00 -0.27346503705E+03  0.27346503705E+03  0.00000000000E+00 0.  1.
         23    2    1    2    0    0  0.20894851711E+03  0.81728670813E+02 -0.20185693924E+03  0.31569295271E+03  0.92610787890E+02 0.  0.
         13    1    3    3    0    0  0.68206801723E+02  0.65456945154E+02 -0.11747710405E+03  0.15079008405E+03  0.00000000000E+00 0.  1.
        -13    1    3    3    0    0  0.14074171538E+03  0.16271725659E+02 -0.84379835188E+02  0.16490286866E+03  0.00000000000E+00 0. -1.
         22    1    1    2    0    0 -0.20894851711E+03 -0.81728670813E+02  0.84199381545E+03  0.87137399759E+03  0.00000000000E+00 0. -1.
<mgrwt>
<rscale>  0 0.99967631E+03</rscale>
<asrwt>0</asrwt>
<pdfrwt beam="1">  1        2 0.14055414E+00 0.99967631E+03</pdfrwt>
<pdfrwt beam="2">  1       -2 0.42071545E-01 0.99967631E+03</pdfrwt>
<totfact> 0.15336842E+02</totfact>
</mgrwt>
</event>
<event>
 6    1  0.3017327E-006  0.2048902E+04  0.7818608E-02  0.8584093E-01
          2   -1    0    0  501    0  0.00000000000E+00  0.00000000000E+00  0.14591434249E+04  0.14591434249E+04  0.00000000000E+00 0. -1.
         -2   -1    0    0    0  501 -0.00000000000E+00 -0.00000000000E+00 -0.71925767126E+03  0.71925767126E+03  0.00000000000E+00 0.  1.
         23    2    1    2    0    0  0.66818317695E+03 -0.76803967190E+03  0.47145510580E+03  0.11255911853E+04  0.91279264721E+02 0.  0.
         11    1    3    3    0    0  0.10223219455E+03 -0.14429835590E+03  0.49883351263E+02  0.18374380493E+03  0.00000000000E+00 0. -1.
        -11    1    3    3    0    0  0.56595098241E+03 -0.62374131601E+03  0.42157175454E+03  0.94184738042E+03  0.00000000000E+00 0.  1.
         22    1    1    2    0    0 -0.66818317695E+03  0.76803967190E+03  0.26843064784E+03  0.10528099108E+04  0.00000000000E+00 0.  1.
<mgrwt>
<rscale>  0 0.20489022E+04</rscale>
<asrwt>0</asrwt>
<pdfrwt beam="1">  1        2 0.22448360E+00 0.20489022E+04</pdfrwt>
<pdfrwt beam="2">  1       -2 0.11065503E+00 0.20489022E+04</pdfrwt>
<totfact> 0.80252753E+00</totfact>
</mgrwt>
</event>
<event>
 6    1  0.3017327E-006  0.5819937E+03  0.7818608E-02  0.9943484E-01
         -2   -1    0    0    0  501 -0.00000000000E+00  0.00000000000E+00  0.16347175824E+03  0.16347175824E+03  0.00000000000E+00 0.  1.
          2   -1    0    0  501    0  0.00000000000E+00 -0.00000000000E+00 -0.51800489445E+03  0.51800489445E+03  0.00000000000E+00 0. -1.
         23    2    1    2    0    0 -0.24777224292E+03  0.11401602894E+03 -0.27298728245E+03  0.39680058155E+03  0.92400789616E+02 0.  0.
         11    1    3    3    0    0 -0.11374088545E+02  0.33093136449E+02 -0.16374566618E+02  0.38634854759E+02  0.00000000000E+00 0. -1.
        -11    1    3    3    0    0 -0.23639815437E+03  0.80922892489E+02 -0.25661271584E+03  0.35816572679E+03  0.00000000000E+00 0.  1.
         22    1    1    2    0    0  0.24777224292E+03 -0.11401602894E+03 -0.81545853756E+02  0.28467607114E+03  0.00000000000E+00 0.  1.
<mgrwt>
<rscale>  0 0.58199371E+03</rscale>
<asrwt>0</asrwt>
<pdfrwt beam="1">  1        2 0.79693060E-01 0.58199371E+03</pdfrwt>
<pdfrwt beam="2">  1       -2 0.25149501E-01 0.58199371E+03</pdfrwt>
<totfact> 0.84141928E+02</totfact>
</mgrwt>
</event>
<event>
 6    1  0.3017327E-006  0.1971475E+04  0.7818608E-02  0.8620074E-01
          2   -1    0    0  501    0  0.00000000000E+00  0.00000000000E+00  0.12964797211E+04  0.12964797211E+04  0.00000000000E+00 0. -1.
         -2   -1    0    0    0  501 -0.00000000000E+00 -0.00000000000E+00 -0.74947445461E+03  0.74947445461E+03  0.00000000000E+00 0.  1.
         23    2    1    2    0    0 -0.71539004123E+03 -0.65149549506E+03  0.45803494262E+03  0.10742829300E+04  0.89769225979E+02 0.  0.
         13    1    3    3    0    0 -0.35857708282E+03 -0.34494079451E+03  0.18811973099E+03  0.53193111323E+03  0.00000000000E+00 0.  1.
        -13    1    3    3    0    0 -0.35681295841E+03 -0.30655470055E+03  0.26991521163E+03  0.54235181680E+03  0.00000000000E+00 0. -1.
         22    1    1    2    0    0  0.71539004123E+03  0.65149549506E+03  0.88970323876E+02  0.97167124569E+03  0.00000000000E+00 0.  1.
<mgrwt>
<rscale>  0 0.19714750E+04</rscale>
<asrwt>0</asrwt>
<pdfrwt beam="1">  1        2 0.19945842E+00 0.19714750E+04</pdfrwt>
<pdfrwt beam="2">  1       -2 0.11530376E+00 0.19714750E+04</pdfrwt>
<totfact> 0.90631918E+00</totfact>
</mgrwt>
</event>
<event>
 6    1  0.3017327E-006  0.8673820E+03  0.7818608E-02  0.9467300E-01
         -2   -1    0    0    0  501 -0.00000000000E+00  0.00000000000E+00  0.35987323639E+03  0.35987323639E+03  0.00000000000E+00 0.  1.
          2   -1    0    0  501    0  0.00000000000E+00 -0.00000000000E+00 -0.52265034765E+03  0.52265034765E+03  0.00000000000E+00 0. -1.
         23    2    1    2    0    0  0.16347598872E+03 -0.30291384236E+03  0.17801421623E+03  0.39814777574E+03  0.91385969222E+02 0.  0.
         13    1    3    3    0    0  0.10052384841E+03 -0.23343254422E+03  0.90201670966E+02  0.26968896575E+03  0.00000000000E+00 0. -1.
        -13    1    3    3    0    0  0.62952140311E+02 -0.69481298135E+02  0.87812545261E+02  0.12845881000E+03  0.00000000000E+00 0.  1.
         22    1    1    2    0    0 -0.16347598872E+03  0.30291384236E+03 -0.34079132749E+03  0.48437580830E+03  0.00000000000E+00 0. -1.
<mgrwt>
<rscale>  0 0.86738197E+03</rscale>
<asrwt>0</asrwt>
<pdfrwt beam="1">  1        2 0.80407745E-01 0.86738197E+03</pdfrwt>
<pdfrwt beam="2">  1       -2 0.55365114E-01 0.86738197E+03</pdfrwt>
<totfact> 0.18019888E+02</totfact>
</mgrwt>
</event>
<event>
 6    1  0.3017327E-006  0.4266689E+04  0.7818608E-02  0.7952806E-01
          2   -1    0    0  501    0  0.00000000000E+00  0.00000000000E+00  0.32700461791E+04  0.32700461791E+04  0.00000000000E+00 0. -1.
         -2   -1    0    0    0  501 -0.00000000000E+00 -0.00000000000E+00 -0.13917721661E+04  0.13917721661E+04  0.00000000000E+00 0.  1.
         23    2    1    2    0    0 -0.13035890829E+04  0.88396966577E+03  0.25101810593E+04  0.29647463425E+04  0.89247175852E+02 0.  0.
         13    1    3    3    0    0 -0.62400769458E+03  0.40243360949E+03  0.12605715869E+04  0.14630034650E+04  0.00000000000E+00 0.  1.
        -13    1    3    3    0    0 -0.67958138829E+03  0.48153605627E+03  0.12496094723E+04  0.15017428775E+04  0.00000000000E+00 0. -1.
         22    1    1    2    0    0  0.13035890829E+04 -0.88396966577E+03 -0.63190704630E+03  0.16970720026E+04  0.00000000000E+00 0.  1.
<mgrwt>
<rscale>  0 0.42666892E+04</rscale>
<asrwt>0</asrwt>
<pdfrwt beam="1">  1        2 0.50308402E+00 0.42666892E+04</pdfrwt>
<pdfrwt beam="2">  1       -2 0.21411880E+00 0.42666892E+04</pdfrwt>
<totfact> 0.96896268E-02</totfact>
</mgrwt>
</event>
<event>
 6    1  0.3017327E-006  0.3182238E+04  0.7818608E-02  0.8193524E-01
          2   -1    0    0  501    0  0.00000000000E+00  0.00000000000E+00  0.13095826449E+04  0.13095826449E+04  0.00000000000E+00 0. -1.
         -2   -1    0    0    0  501 -0.00000000000E+00 -0.00000000000E+00 -0.19331801225E+04  0.19331801225E+04  0.00000000000E+00 0.  1.
         23    2    1    2    0    0 -0.93913275237E+03 -0.43928844186E+03 -0.15402654407E+04  0.18588462901E+04  0.89147297763E+02 0.  0.
         11    1    3    3    0    0 -0.58254990971E+03 -0.23781284181E+03 -0.87848826342E+03  0.10805836266E+04  0.00000000000E+00 0. -1.
        -11    1    3    3    0    0 -0.35658284266E+03 -0.20147560005E+03 -0.66177717724E+03  0.77826266351E+03  0.00000000000E+00 0.  1.
         22    1    1    2    0    0  0.93913275237E+03  0.43928844186E+03  0.91666796300E+03  0.13839164773E+04  0.00000000000E+00 0. -1.
<mgrwt>
<rscale>  0 0.31822377E+04</rscale>
<asrwt>0</asrwt>
<pdfrwt beam="1">  1        2 0.20147425E+00 0.31822377E+04</pdfrwt>
<pdfrwt beam="2">  1       -2 0.29741233E+00 0.31822377E+04</pdfrwt>
<totfact> 0.45362625E-01</totfact>
</mgrwt>
</event>
<event>
 6    1  0.3017327E-006  0.3157345E+04  0.7818608E-02  0.8200174E-01
          2   -1    0    0  501    0  0.00000000000E+00  0.00000000000E+00  0.24856011919E+04  0.24856011919E+04  0.00000000000E+00 0. -1.
         -2   -1    0    0    0  501 -0.00000000000E+00 -0.00000000000E+00 -0.10026577908E+04  0.10026577908E+04  0.00000000000E+00 0.  1.
         23    2    1    2    0    0 -0.99102241905E+03  0.82214482252E+03  0.17486029622E+04  0.21734880724E+04  0.91599876228E+02 0.  0.
         11    1    3    3    0    0 -0.69052669898E+02  0.86155078483E+02  0.12929066771E+03  0.17002072087E+03  0.00000000000E+00 0. -1.
        -11    1    3    3    0    0 -0.92196974915E+03  0.73598974404E+03  0.16193122944E+04  0.20034673515E+04  0.00000000000E+00 0.  1.
         22    1    1    2    0    0  0.99102241905E+03 -0.82214482252E+03 -0.26565956104E+03  0.13147709103E+04  0.00000000000E+00 0. -1.
<mgrwt>
<rscale>  0 0.31573453E+04</rscale>
<asrwt>0</asrwt>
<pdfrwt beam="1">  1        2 0.38240018E+00 0.31573453E+04</pdfrwt>
<pdfrwt beam="2">  1       -2 0.15425505E+00 0.31573453E+04</pdfrwt>
<totfact> 0.83375890E-01</totfact>
</mgrwt>
</event>
<event>
 6    1  0.3017327E-006  0.2416834E+04  0.7818608E-02  0.8433228E-01
         -2   -1    0    0    0  501 -0.00000000000E+00  0.00000000000E+00  0.19257205270E+04  0.19257205270E+04  0.00000000000E+00 0. -1.
          2   -1    0    0  501    0  0.00000000000E+00 -0.00000000000E+00 -0.75829899765E+03  0.75829899765E+03  0.00000000000E+00 0.  1.
         23    2    1    2    0    0  0.64860415183E+03  0.61714342076E+03 -0.31112953344E+03  0.95553273186E+03  0.12119351270E+03 0.  0.
         13    1    3    3    0    0  0.29355301120E+03  0.35650664663E+03 -0.18387344793E+03  0.49707122662E+03  0.00000000000E+00 0. -1.
        -13    1    3    3    0    0  0.35505114063E+03  0.26063677413E+03 -0.12725608551E+03  0.45846150525E+03  0.00000000000E+00 0.  1.
         22    1    1    2    0    0 -0.64860415183E+03 -0.61714342076E+03  0.14785510628E+04  0.17284867928E+04  0.00000000000E+00 0. -1.
<mgrwt>
<rscale>  0 0.24168342E+04</rscale>
<asrwt>0</asrwt>
<pdfrwt beam="1">  1        2 0.11666138E+00 0.24168342E+04</pdfrwt>
<pdfrwt beam="2">  1       -2 0.29626469E+00 0.24168342E+04</pdfrwt>
<totfact> 0.11123396E+00</totfact>
</mgrwt>
</event>
<event>
 6    1  0.3017327E-006  0.3621233E+04  0.7818608E-02  0.8085645E-01
          2   -1    0    0  501    0  0.00000000000E+00  0.00000000000E+00  0.32076575456E+04  0.32076575456E+04  0.00000000000E+00 0. -1.
         -2   -1    0    0    0  501 -0.00000000000E+00 -0.00000000000E+00 -0.10220328301E+04  0.10220328301E+04  0.00000000000E+00 0.  1.
         23    2    1    2    0    0 -0.99463726060E+03  0.11383567294E+04  0.22550979699E+04  0.27164204537E+04  0.91180613571E+02 0.  0.
         13    1    3    3    0    0 -0.36997727130E+03  0.35919521199E+03  0.78398211735E+03  0.93836684827E+03  0.00000000000E+00 0. -1.
        -13    1    3    3    0    0 -0.62465998929E+03  0.77916151740E+03  0.14711158525E+04  0.17780536055E+04  0.00000000000E+00 0.  1.
         22    1    1    2    0    0  0.99463726060E+03 -0.11383567294E+04 -0.69473254318E+02  0.15132699219E+04  0.00000000000E+00 0.  1.
<mgrwt>
<rscale>  0 0.36212326E+04</rscale>
<asrwt>0</asrwt>
<pdfrwt beam="1">  1        2 0.49348577E+00 0.36212326E+04</pdfrwt>
<pdfrwt beam="2">  1       -2 0.15723582E+00 0.36212326E+04</pdfrwt>
<totfact> 0.27516666E-01</totfact>
</mgrwt>
</event>
<event>
 6    1  0.3017327E-006  0.2173241E+04  0.7818608E-02  0.8529649E-01
         -2   -1    0    0    0  501 -0.00000000000E+00  0.00000000000E+00  0.80522288714E+03  0.80522288714E+03  0.00000000000E+00 0.  1.
          2   -1    0    0  501    0  0.00000000000E+00 -0.00000000000E+00 -0.14663564722E+04  0.14663564722E+04  0.00000000000E+00 0. -1.
         23    2    1    2    0    0 -0.52026075439E+03 -0.22278821733E+03 -0.12983703560E+04  0.14193020896E+04  0.91361905625E+02 0.  0.
         11    1    3    3    0    0 -0.38663328888E+03 -0.16369634045E+03 -0.10545001157E+04  0.11350120202E+04  0.00000000000E+00 0. -1.
        -11    1    3    3    0    0 -0.13362746551E+03 -0.59091876882E+02 -0.24387024028E+03  0.28429006937E+03  0.00000000000E+00 0.  1.
         22    1    1    2    0    0  0.52026075439E+03  0.22278821733E+03  0.63723677094E+03  0.85227726977E+03  0.00000000000E+00 0.  1.
<mgrwt>
<rscale>  0 0.21732407E+04</rscale>
<asrwt>0</asrwt>
<pdfrwt beam="1">  1        2 0.22559330E+00 0.21732407E+04</pdfrwt>
<pdfrwt beam="2">  1       -2 0.12388044E+00 0.21732407E+04</pdfrwt>
<totfact> 0.59596492E+00</totfact>
</mgrwt>
</event>
<event>
 6    1  0.3017327E-006  0.2449952E+04  0.7818608E-02  0.8421036E-01
         -2   -1    0    0    0  501 -0.00000000000E+00  0.00000000000E+00  0.38864073501E+03  0.38864073501E+03  0.00000000000E+00 0.  1.
          2   -1    0    0  501    0  0.00000000000E+00 -0.00000000000E+00 -0.38610614168E+04  0.38610614168E+04  0.00000000000E+00 0. -1.
         23    2    1    2    0    0  0.92908131389E+03  0.79545394665E+03 -0.17014753657E+04  0.20974506838E+04  0.91333902634E+02 0.  0.
         13    1    3    3    0    0  0.27044809497E+03  0.21676571119E+03 -0.41620420262E+03  0.54162300902E+03  0.00000000000E+00 0. -1.
        -13    1    3    3    0    0  0.65863321892E+03  0.57868823546E+03 -0.12852711631E+04  0.15558276748E+04  0.00000000000E+00 0.  1.
         22    1    1    2    0    0 -0.92908131389E+03 -0.79545394665E+03 -0.17709453161E+04  0.21522514681E+04  0.00000000000E+00 0.  1.
<mgrwt>
<rscale>  0 0.24499516E+04</rscale>
<asrwt>0</asrwt>
<pdfrwt beam="1">  1        2 0.59400946E+00 0.24499516E+04</pdfrwt>
<pdfrwt beam="2">  1       -2 0.59790881E-01 0.24499516E+04</pdfrwt>
<totfact> 0.10334471E+00</totfact>
</mgrwt>
</event>
<event>
 6    1  0.3017327E-006  0.2504818E+04  0.7818608E-02  0.8401271E-01
         -2   -1    0    0    0  501 -0.00000000000E+00  0.00000000000E+00  0.87705318918E+03  0.87705318918E+03  0.00000000000E+00 0.  1.
          2   -1    0    0  501    0  0.00000000000E+00 -0.00000000000E+00 -0.17884073456E+04  0.17884073456E+04  0.00000000000E+00 0. -1.
         23    2    1    2    0    0  0.71991055376E+03 -0.10220549350E+04 -0.49522250659E+03  0.13478744671E+04  0.93020172419E+02 0.  0.
         13    1    3    3    0    0  0.57401389418E+03 -0.79988865899E+03 -0.34931006453E+03  0.10446680519E+04  0.00000000000E+00 0.  1.
        -13    1    3    3    0    0  0.14589665958E+03 -0.22216627606E+03 -0.14591244206E+03  0.30320641524E+03  0.00000000000E+00 0. -1.
         22    1    1    2    0    0 -0.71991055376E+03  0.10220549350E+04 -0.41613164984E+03  0.13175860676E+04  0.00000000000E+00 0.  1.
<mgrwt>
<rscale>  0 0.25048181E+04</rscale>
<asrwt>0</asrwt>
<pdfrwt beam="1">  1        2 0.27513959E+00 0.25048181E+04</pdfrwt>
<pdfrwt beam="2">  1       -2 0.13493126E+00 0.25048181E+04</pdfrwt>
<totfact> 0.30846215E+00</totfact>
</mgrwt>
</event>
<event>
 6    1  0.3017327E-006  0.1265468E+04  0.7818608E-02  0.9057407E-01
         -2   -1    0    0    0  501 -0.00000000000E+00  0.00000000000E+00  0.39248432891E+03  0.39248432891E+03  0.00000000000E+00 0. -1.
          2   -1    0    0  501    0  0.00000000000E+00 -0.00000000000E+00 -0.10200458893E+04  0.10200458893E+04  0.00000000000E+00 0.  1.
         23    2    1    2    0    0 -0.57544531640E+03 -0.10885992313E+02 -0.31653808582E+02  0.58406062572E+03  0.94175548447E+02 0.  0.
         11    1    3    3    0    0 -0.23933694360E+03  0.39992203530E+02 -0.26351866818E+02  0.24408189158E+03  0.00000000000E+00 0.  1.
        -11    1    3    3    0    0 -0.33610837280E+03 -0.50878195843E+02 -0.53019417639E+01  0.33997873414E+03  0.00000000000E+00 0. -1.
         22    1    1    2    0    0  0.57544531640E+03  0.10885992313E+02 -0.59590775179E+03  0.82846959246E+03  0.00000000000E+00 0.  1.
<mgrwt>
<rscale>  0 0.12654675E+04</rscale>
<asrwt>0</asrwt>
<pdfrwt beam="1">  1        2 0.15693014E+00 0.12654675E+04</pdfrwt>
<pdfrwt beam="2">  1       -2 0.60382205E-01 0.12654675E+04</pdfrwt>
<totfact> 0.61401097E+01</totfact>
</mgrwt>
</event>
<event>
 6    1  0.3017327E-006  0.7921432E+03  0.7818608E-02  0.9571460E-01
          2   -1    0    0  501    0  0.00000000000E+00  0.00000000000E+00  0.22504918262E+04  0.22504918262E+04  0.00000000000E+00 0. -1.
         -2   -1    0    0    0  501 -0.00000000000E+00 -0.00000000000E+00 -0.69705966434E+02  0.69705966434E+02  0.00000000000E+00 0.  1.
         23    2    1    2    0    0 -0.30029256672E+03 -0.23303111867E+03  0.84300353164E+03  0.92946392689E+03  0.93643521589E+02 0.  0.
         11    1    3    3    0    0 -0.10537281437E+03 -0.36063756150E+02  0.29631591036E+03  0.31655511881E+03  0.00000000000E+00 0. -1.
        -11    1    3    3    0    0 -0.19491975234E+03 -0.19696736252E+03  0.54668762128E+03  0.61290880807E+03  0.00000000000E+00 0.  1.
         22    1    1    2    0    0  0.30029256672E+03  0.23303111867E+03  0.13377823282E+04  0.13907338658E+04  0.00000000000E+00 0. -1.
<mgrwt>
<rscale>  0 0.79214319E+03</rscale>
<asrwt>0</asrwt>
<pdfrwt beam="1">  1        2 0.34622946E+00 0.79214319E+03</pdfrwt>
<pdfrwt beam="2">  1       -2 0.10723997E-01 0.79214319E+03</pdfrwt>
<totfact> 0.30405983E+02</totfact>
</mgrwt>
</event>
<event>
 6    1  0.4398788E-006  0.3399116E+04  0.7818608E-02  0.8138123E-01
         -2   -1    0    0    0  501 -0.00000000000E+00  0.00000000000E+00  0.12609643328E+04  0.12609643328E+04  0.00000000000E+00 0.  1.
          2   -1    0    0  501    0  0.00000000000E+00 -0.00000000000E+00 -0.22907048960E+04  0.22907048960E+04  0.00000000000E+00 0. -1.
         23    2    1    2    0    0 -0.11202343331E+04 -0.46526954806E+03  0.72669839815E+03  0.14170782754E+04  0.92841603556E+02 0.  0.
         11    1    3    3    0    0 -0.62302066324E+03 -0.24200748285E+03  0.34940534551E+03  0.75419259082E+03  0.00000000000E+00 0. -1.
        -11    1    3    3    0    0 -0.49721366983E+03 -0.22326206521E+03  0.37729305264E+03  0.66288568457E+03  0.00000000000E+00 0.  1.
         22    1    1    2    0    0  0.11202343331E+04  0.46526954806E+03 -0.17564389614E+04  0.21345909534E+04  0.00000000000E+00 0. -1.
<mgrwt>
<rscale>  0 0.33991159E+04</rscale>
<asrwt>0</asrwt>
<pdfrwt beam="1">  1        2 0.35241613E+00 0.33991159E+04</pdfrwt>
<pdfrwt beam="2">  1       -2 0.19399451E+00 0.33991159E+04</pdfrwt>
<totfact> 0.55412251E-01</totfact>
</mgrwt>
</event>
<event>
 6    1  0.3017327E-006  0.1717880E+04  0.7818608E-02  0.8751232E-01
         -4   -1    0    0    0  501 -0.00000000000E+00  0.00000000000E+00  0.96778661531E+03  0.96778661531E+03  0.00000000000E+00 0.  1.
          4   -1    0    0  501    0  0.00000000000E+00 -0.00000000000E+00 -0.76233548199E+03  0.76233548199E+03  0.00000000000E+00 0. -1.
         23    2    1    2    0    0 -0.40122148858E+03 -0.72281596696E+03  0.32831252511E+03  0.89433712102E+03  0.92780207499E+02 0.  0.
         11    1    3    3    0    0 -0.18524572681E+03 -0.26014241530E+03  0.15618358728E+03  0.35550438601E+03  0.00000000000E+00 0. -1.
        -11    1    3    3    0    0 -0.21597576176E+03 -0.46267355166E+03  0.17212893784E+03  0.53883273501E+03  0.00000000000E+00 0.  1.
         22    1    1    2    0    0  0.40122148858E+03  0.72281596696E+03 -0.12286139179E+03  0.83578497628E+03  0.00000000000E+00 0.  1.
<mgrwt>
<rscale>  0 0.17178802E+04</rscale>
<asrwt>0</asrwt>
<pdfrwt beam="1">  1        4 0.11728238E+00 0.17178802E+04</pdfrwt>
<pdfrwt beam="2">  1       -4 0.14889025E+00 0.17178802E+04</pdfrwt>
<totfact> 0.32372488E-01</totfact>
</mgrwt>
</event>
<event>
 6    1  0.3017327E-006  0.2255267E+04  0.7818608E-02  0.8495770E-01
          2   -1    0    0  501    0  0.00000000000E+00  0.00000000000E+00  0.22008058325E+04  0.22008058325E+04  0.00000000000E+00 0. -1.
         -2   -1    0    0    0  501 -0.00000000000E+00 -0.00000000000E+00 -0.57776900465E+03  0.57776900465E+03  0.00000000000E+00 0.  1.
         23    2    1    2    0    0 -0.87156642763E+03 -0.73804629575E+02  0.16861323808E+04  0.19016163376E+04  0.89594243992E+02 0.  0.
         11    1    3    3    0    0 -0.49536722080E+03 -0.85227885764E+02  0.94192855422E+03  0.10676525077E+04  0.00000000000E+00 0.  1.
        -11    1    3    3    0    0 -0.37619920684E+03  0.11423256189E+02  0.74420382658E+03  0.83396382985E+03  0.00000000000E+00 0. -1.
         22    1    1    2    0    0  0.87156642763E+03  0.73804629575E+02 -0.63095552993E+02  0.87695849955E+03  0.00000000000E+00 0.  1.
<mgrwt>
<rscale>  0 0.22552671E+04</rscale>
<asrwt>0</asrwt>
<pdfrwt beam="1">  1        2 0.33858551E+00 0.22552671E+04</pdfrwt>
<pdfrwt beam="2">  1       -2 0.88887540E-01 0.22552671E+04</pdfrwt>
<totfact> 0.51041183E+00</totfact>
</mgrwt>
</event>
<event>
 6    1  0.3017327E-006  0.2164658E+04  0.7818608E-02  0.8533284E-01
          2   -1    0    0  501    0  0.00000000000E+00  0.00000000000E+00  0.11061751953E+04  0.11061751953E+04  0.00000000000E+00 0. -1.
         -2   -1    0    0    0  501 -0.00000000000E+00 -0.00000000000E+00 -0.10589972176E+04  0.10589972176E+04  0.00000000000E+00 0.  1.
         23    2    1    2    0    0 -0.53791791415E+02 -0.10712256254E+04 -0.10600501815E+03  0.10817136331E+04  0.91920741370E+02 0.  0.
         11    1    3    3    0    0 -0.30511256188E+02 -0.73782108662E+03 -0.30537906081E+02  0.73908284808E+03  0.00000000000E+00 0. -1.
        -11    1    3    3    0    0 -0.23280535227E+02 -0.33340453880E+03 -0.75467112071E+02  0.34263078498E+03  0.00000000000E+00 0.  1.
         22    1    1    2    0    0  0.53791791415E+02  0.10712256254E+04  0.15318299580E+03  0.10834587798E+04  0.00000000000E+00 0. -1.
<mgrwt>
<rscale>  0 0.21646584E+04</rscale>
<asrwt>0</asrwt>
<pdfrwt beam="1">  1        2 0.17018080E+00 0.21646584E+04</pdfrwt>
<pdfrwt beam="2">  1       -2 0.16292265E+00 0.21646584E+04</pdfrwt>
<totfact> 0.47456192E+00</totfact>
</mgrwt>
</event>
<event>
 6    1  0.3017327E-006  0.1374787E+04  0.7818608E-02  0.8972274E-01
         -2   -1    0    0    0  501 -0.00000000000E+00  0.00000000000E+00  0.12177414408E+03  0.12177414408E+03  0.00000000000E+00 0.  1.
          2   -1    0    0  501    0  0.00000000000E+00 -0.00000000000E+00 -0.38802130698E+04  0.38802130698E+04  0.00000000000E+00 0. -1.
         23    2    1    2    0    0  0.78756057943E+01 -0.26346032425E+02 -0.38780223685E+04  0.38792829419E+04  0.94986917235E+02 0.  0.
         13    1    3    3    0    0  0.46378311259E+02  0.51889810861E+01 -0.23086536473E+04  0.23091252752E+04  0.00000000000E+00 0. -1.
        -13    1    3    3    0    0 -0.38502705465E+02 -0.31535013511E+02 -0.15693687211E+04  0.15701576667E+04  0.00000000000E+00 0.  1.
         22    1    1    2    0    0 -0.78756057943E+01  0.26346032425E+02  0.11958344273E+03  0.12270427200E+03  0.00000000000E+00 0.  1.
<mgrwt>
<rscale>  0 0.13747867E+04</rscale>
<asrwt>0</asrwt>
<pdfrwt beam="1">  1        2 0.59695576E+00 0.13747867E+04</pdfrwt>
<pdfrwt beam="2">  1       -2 0.18734487E-01 0.13747867E+04</pdfrwt>
<totfact> 0.10222231E+01</totfact>
</mgrwt>
</event>
<event>
 6    1  0.3017327E-006  0.1694058E+04  0.7818608E-02  0.8764760E-01
          2   -1    0    0  501    0  0.00000000000E+00  0.00000000000E+00  0.12881135728E+04  0.12881135728E+04  0.00000000000E+00 0. -1.
         -2   -1    0    0    0  501 -0.00000000000E+00 -0.00000000000E+00 -0.55698387676E+03  0.55698387676E+03  0.00000000000E+00 0.  1.
         23    2    1    2    0    0 -0.51479364283E+03  0.29025582971E+03  0.10239005799E+04  0.11855705496E+04  0.89130182178E+02 0.  0.
         13    1    3    3    0    0 -0.36722688474E+03  0.19519872328E+03  0.79396814499E+03  0.89629433877E+03  0.00000000000E+00 0. -1.
        -13    1    3    3    0    0 -0.14756675809E+03  0.95057106433E+02  0.22993243486E+03  0.28927621087E+03  0.00000000000E+00 0.  1.
         22    1    1    2    0    0  0.51479364283E+03 -0.29025582971E+03 -0.29277088377E+03  0.65952689995E+03  0.00000000000E+00 0.  1.
<mgrwt>
<rscale>  0 0.16940584E+04</rscale>
<asrwt>0</asrwt>
<pdfrwt beam="1">  1        2 0.19817132E+00 0.16940584E+04</pdfrwt>
<pdfrwt beam="2">  1       -2 0.85689827E-01 0.16940584E+04</pdfrwt>
<totfact> 0.18918453E+01</totfact>
</mgrwt>
</event>
<event>
 6    1  0.3017327E-006  0.2605387E+04  0.7818608E-02  0.8366374E-01
         -2   -1    0    0    0  501 -0.00000000000E+00  0.00000000000E+00  0.11031775439E+04  0.11031775439E+04  0.00000000000E+00 0.  1.
          2   -1    0    0  501    0  0.00000000000E+00 -0.00000000000E+00 -0.15382929376E+04  0.15382929376E+04  0.00000000000E+00 0. -1.
         23    2    1    2    0    0 -0.27883099436E+03 -0.11791977841E+02  0.10705953153E+04  0.11101147054E+04  0.91074451760E+02 0.  0.
         13    1    3    3    0    0 -0.12737086527E+03  0.26368518504E+02  0.36632910154E+03  0.38873596016E+03  0.00000000000E+00 0.  1.
        -13    1    3    3    0    0 -0.15146012909E+03 -0.38160496345E+02  0.70426621375E+03  0.72137874519E+03  0.00000000000E+00 0. -1.
         22    1    1    2    0    0  0.27883099436E+03  0.11791977841E+02 -0.15057107090E+04  0.15313557762E+04  0.00000000000E+00 0. -1.
<mgrwt>
<rscale>  0 0.26053869E+04</rscale>
<asrwt>0</asrwt>
<pdfrwt beam="1">  1        2 0.23666045E+00 0.26053869E+04</pdfrwt>
<pdfrwt beam="2">  1       -2 0.16971962E+00 0.26053869E+04</pdfrwt>
<totfact> 0.22868838E+00</totfact>
</mgrwt>
</event>
<event>
 6    1  0.3017327E-006  0.6184356E+04  0.7818608E-02  0.7667955E-01
         -2   -1    0    0    0  501 -0.00000000000E+00  0.00000000000E+00  0.22465496567E+04  0.22465496567E+04  0.00000000000E+00 0.  1.
          2   -1    0    0  501    0  0.00000000000E+00 -0.00000000000E+00 -0.42561111564E+04  0.42561111564E+04  0.00000000000E+00 0. -1.
         23    2    1    2    0    0  0.20508341605E+04  0.23131367680E+04 -0.10304035699E+04  0.32599346895E+04  0.94446818010E+02 0.  0.
         13    1    3    3    0    0  0.25078212233E+03  0.24946015970E+03 -0.13945492444E+03  0.38022325035E+03  0.00000000000E+00 0. -1.
        -13    1    3    3    0    0  0.18000520382E+04  0.20636766083E+04 -0.89094864547E+03  0.28797114391E+04  0.00000000000E+00 0.  1.
         22    1    1    2    0    0 -0.20508341605E+04 -0.23131367680E+04 -0.97915792982E+03  0.32427261236E+04  0.00000000000E+00 0.  1.
<mgrwt>
<rscale>  0 0.61843561E+04</rscale>
<asrwt>0</asrwt>
<pdfrwt beam="1">  1        2 0.65478632E+00 0.61843561E+04</pdfrwt>
<pdfrwt beam="2">  1       -2 0.34562303E+00 0.61843561E+04</pdfrwt>
<totfact> 0.22651040E-03</totfact>
</mgrwt>
</event>
<event>
 6    1  0.3017327E-006  0.5180123E+03  0.7818608E-02  0.1009182E+00
         -2   -1    0    0    0  501 -0.00000000000E+00  0.00000000000E+00  0.16094192128E+03  0.16094192128E+03  0.00000000000E+00 0.  1.
          2   -1    0    0  501    0  0.00000000000E+00 -0.00000000000E+00 -0.41682237814E+03  0.41682237814E+03  0.00000000000E+00 0. -1.
         23    2    1    2    0    0 -0.11621708752E+03  0.16955684862E+03 -0.29082933485E+03  0.36925204458E+03  0.97516327193E+02 0.  0.
         13    1    3    3    0    0 -0.79410518636E+02  0.16015727610E+03 -0.18703599196E+03  0.25872542559E+03  0.00000000000E+00 0. -1.
        -13    1    3    3    0    0 -0.36806568885E+02  0.93995725216E+01 -0.10379334290E+03  0.11052661899E+03  0.00000000000E+00 0.  1.
         22    1    1    2    0    0  0.11621708752E+03 -0.16955684862E+03  0.34948877988E+02  0.20851225484E+03  0.00000000000E+00 0.  1.
<mgrwt>
<rscale>  0 0.51801233E+03</rscale>
<asrwt>0</asrwt>
<pdfrwt beam="1">  1        2 0.64126518E-01 0.51801233E+03</pdfrwt>
<pdfrwt beam="2">  1       -2 0.24760296E-01 0.51801233E+03</pdfrwt>
<totfact> 0.11083726E+03</totfact>
</mgrwt>
</event>
<event>
 6    1  0.3017327E-006  0.8692622E+03  0.7818608E-02  0.9464842E-01
         -1   -1    0    0    0  501 -0.00000000000E+00  0.00000000000E+00  0.16180538946E+03  0.16180538946E+03  0.00000000000E+00 0.  1.
          1   -1    0    0  501    0  0.00000000000E+00 -0.00000000000E+00 -0.11674778165E+04  0.11674778165E+04  0.00000000000E+00 0. -1.
         23    2    1    2    0    0 -0.42775481315E+03  0.33771573396E+02 -0.49967738845E+03  0.66584844773E+03  0.97785292684E+02 0.  0.
         11    1    3    3    0    0 -0.12420681682E+03 -0.10197162669E+02 -0.88393097693E+02  0.15278957815E+03  0.00000000000E+00 0.  1.
        -11    1    3    3    0    0 -0.30354799634E+03  0.43968736065E+02 -0.41128429076E+03  0.51305886958E+03  0.00000000000E+00 0. -1.
         22    1    1    2    0    0  0.42775481315E+03 -0.33771573396E+02 -0.50599503858E+03  0.66343475822E+03  0.00000000000E+00 0.  1.
<mgrwt>
<rscale>  0 0.86926222E+03</rscale>
<asrwt>0</asrwt>
<pdfrwt beam="1">  1        1 0.17961197E+00 0.86926222E+03</pdfrwt>
<pdfrwt beam="2">  1       -1 0.24893137E-01 0.86926222E+03</pdfrwt>
<totfact> 0.16057202E+02</totfact>
</mgrwt>
</event>
<event>
 6    1  0.3017327E-006  0.1120662E+04  0.7818608E-02  0.9185284E-01
         -2   -1    0    0    0  501 -0.00000000000E+00  0.00000000000E+00  0.91342137043E+02  0.91342137043E+02  0.00000000000E+00 0.  1.
          2   -1    0    0  501    0  0.00000000000E+00 -0.00000000000E+00 -0.34373041272E+04  0.34373041272E+04  0.00000000000E+00 0. -1.
         23    2    1    2    0    0  0.12544300846E+03  0.14182882285E+01 -0.33917434532E+04  0.33951026299E+04  0.84025325374E+02 0.  0.
         13    1    3    3    0    0  0.56400968209E+02 -0.39450063851E+02 -0.18392960505E+04  0.18405834233E+04  0.00000000000E+00 0. -1.
        -13    1    3    3    0    0  0.69042040251E+02  0.40868352080E+02 -0.15524474027E+04  0.15545192066E+04  0.00000000000E+00 0.  1.
         22    1    1    2    0    0 -0.12544300846E+03 -0.14182882285E+01  0.45781463050E+02  0.13354363434E+03  0.00000000000E+00 0.  1.
<mgrwt>
<rscale>  0 0.11206618E+04</rscale>
<asrwt>0</asrwt>
<pdfrwt beam="1">  1        2 0.52881605E+00 0.11206618E+04</pdfrwt>
<pdfrwt beam="2">  1       -2 0.14052636E-01 0.11206618E+04</pdfrwt>
<totfact> 0.35960119E+01</totfact>
</mgrwt>
</event>
<event>
 6    1  0.3017327E-006  0.2459041E+04  0.7818608E-02  0.8417724E-01
         -2   -1    0    0    0  501 -0.00000000000E+00  0.00000000000E+00  0.73183700902E+03  0.73183700902E+03  0.00000000000E+00 0. -1.
          2   -1    0    0  501    0  0.00000000000E+00 -0.00000000000E+00 -0.20656517068E+04  0.20656517068E+04  0.00000000000E+00 0.  1.
         23    2    1    2    0    0  0.46673095679E+03  0.99857958269E+03 -0.52461024110E+02  0.11072620429E+04  0.90984083911E+02 0.  0.
         11    1    3    3    0    0  0.19195682595E+03  0.50289112056E+03 -0.48909424699E+02  0.54049887511E+03  0.00000000000E+00 0.  1.
        -11    1    3    3    0    0  0.27477413084E+03  0.49568846212E+03 -0.35515994109E+01  0.56676316775E+03  0.00000000000E+00 0. -1.
         22    1    1    2    0    0 -0.46673095679E+03 -0.99857958269E+03 -0.12813536737E+04  0.16902266730E+04  0.00000000000E+00 0.  1.
<mgrwt>
<rscale>  0 0.24590408E+04</rscale>
<asrwt>0</asrwt>
<pdfrwt beam="1">  1        2 0.31779257E+00 0.24590408E+04</pdfrwt>
<pdfrwt beam="2">  1       -2 0.11259031E+00 0.24590408E+04</pdfrwt>
<totfact> 0.34121778E+00</totfact>
</mgrwt>
</event>
<event>
 6    1  0.3017327E-006  0.2041147E+04  0.7818608E-02  0.8587621E-01
         -2   -1    0    0    0  501 -0.00000000000E+00  0.00000000000E+00  0.40873825586E+03  0.40873825586E+03  0.00000000000E+00 0.  1.
          2   -1    0    0  501    0  0.00000000000E+00 -0.00000000000E+00 -0.25482570832E+04  0.25482570832E+04  0.00000000000E+00 0. -1.
         23    2    1    2    0    0  0.87951004553E+03  0.45235941104E+03 -0.71895547772E+03  0.12260513229E+04  0.90210367550E+02 0.  0.
         13    1    3    3    0    0  0.99354858663E+02  0.79619370045E+02 -0.72882709662E+02  0.14670556020E+03  0.00000000000E+00 0. -1.
        -13    1    3    3    0    0  0.78015518686E+03  0.37274004100E+03 -0.64607276806E+03  0.10793457627E+04  0.00000000000E+00 0.  1.
         22    1    1    2    0    0 -0.87951004553E+03 -0.45235941104E+03 -0.14205633497E+04  0.17309440162E+04  0.00000000000E+00 0.  1.
<mgrwt>
<rscale>  0 0.20411469E+04</rscale>
<asrwt>0</asrwt>
<pdfrwt beam="1">  1        2 0.39203955E+00 0.20411469E+04</pdfrwt>
<pdfrwt beam="2">  1       -2 0.62882809E-01 0.20411469E+04</pdfrwt>
<totfact> 0.70861503E+00</totfact>
</mgrwt>
</event>
<event>
 6    1  0.3017327E-006  0.6901100E+03  0.7818608E-02  0.9734296E-01
         -2   -1    0    0    0  501 -0.00000000000E+00  0.00000000000E+00  0.89625446667E+02  0.89625446667E+02  0.00000000000E+00 0. -1.
          2   -1    0    0  501    0  0.00000000000E+00 -0.00000000000E+00 -0.13284504794E+04  0.13284504794E+04  0.00000000000E+00 0.  1.
         23    2    1    2    0    0 -0.18573653858E+03 -0.23220397668E+03 -0.29506555501E+03  0.42858176219E+03  0.90564322912E+02 0.  0.
         11    1    3    3    0    0 -0.84875241637E+02 -0.98734019534E+02 -0.69020319062E+02  0.14736355621E+03  0.00000000000E+00 0. -1.
        -11    1    3    3    0    0 -0.10086129694E+03 -0.13346995714E+03 -0.22604523595E+03  0.28121820598E+03  0.00000000000E+00 0.  1.
         22    1    1    2    0    0  0.18573653858E+03  0.23220397668E+03 -0.94375947770E+03  0.98949416385E+03  0.00000000000E+00 0.  1.
<mgrwt>
<rscale>  0 0.69011004E+03</rscale>
<asrwt>0</asrwt>
<pdfrwt beam="1">  1        2 0.20437699E+00 0.69011004E+03</pdfrwt>
<pdfrwt beam="2">  1       -2 0.13788531E-01 0.69011004E+03</pdfrwt>
<totfact> 0.65022311E+02</totfact>
</mgrwt>
</event>
<event>
 6    1  0.3017327E-006  0.1272915E+04  0.7818608E-02  0.9051324E-01
         -2   -1    0    0    0  501 -0.00000000000E+00  0.00000000000E+00  0.25419732215E+03  0.25419732215E+03  0.00000000000E+00 0. -1.
          2   -1    0    0  501    0  0.00000000000E+00 -0.00000000000E+00 -0.15935567164E+04  0.15935567164E+04  0.00000000000E+00 0.  1.
         23    2    1    2    0    0  0.40493898308E+03 -0.12884037806E+02  0.32962542020E+02  0.41687700847E+03  0.92511256420E+02 0.  0.
         13    1    3    3    0    0  0.24824945001E+02 -0.18367008038E+02  0.19425403514E+02  0.36482477715E+02  0.00000000000E+00 0. -1.
        -13    1    3    3    0    0  0.38011403808E+03  0.54829702319E+01  0.13537138506E+02  0.38039453076E+03  0.00000000000E+00 0.  1.
         22    1    1    2    0    0 -0.40493898308E+03  0.12884037806E+02 -0.13723219363E+04  0.14308770301E+04  0.00000000000E+00 0.  1.
<mgrwt>
<rscale>  0 0.12729145E+04</rscale>
<asrwt>0</asrwt>
<pdfrwt beam="1">  1        2 0.24516257E+00 0.12729145E+04</pdfrwt>
<pdfrwt beam="2">  1       -2 0.39107281E-01 0.12729145E+04</pdfrwt>
<totfact> 0.68232017E+01</totfact>
</mgrwt>
</event>
<event>
 6    1  0.3017327E-006  0.1107566E+04  0.7818608E-02  0.9197849E-01
         -1   -1    0    0    0  501 -0.00000000000E+00  0.00000000000E+00  0.30184663917E+03  0.30184663917E+03  0.00000000000E+00 0.  1.
          1   -1    0    0  501    0  0.00000000000E+00 -0.00000000000E+00 -0.10159980552E+04  0.10159980552E+04  0.00000000000E+00 0. -1.
         23    2    1    2    0    0 -0.95383012944E+02 -0.32670504519E+03 -0.87375946417E+03  0.94193402045E+03  0.89162727317E+02 0.  0.
         13    1    3    3    0    0 -0.40227065677E+02 -0.52992164185E+02 -0.24681620839E+03  0.25562595135E+03  0.00000000000E+00 0. -1.
        -13    1    3    3    0    0 -0.55155947267E+02 -0.27371288101E+03 -0.62694325578E+03  0.68630806910E+03  0.00000000000E+00 0.  1.
         22    1    1    2    0    0  0.95383012944E+02  0.32670504519E+03  0.15960804817E+03  0.37591067390E+03  0.00000000000E+00 0.  1.
<mgrwt>
<rscale>  0 0.11075660E+04</rscale>
<asrwt>0</asrwt>
<pdfrwt beam="1">  1        1 0.15630739E+00 0.11075660E+04</pdfrwt>
<pdfrwt beam="2">  1       -1 0.46437944E-01 0.11075660E+04</pdfrwt>
<totfact> 0.67572549E+01</totfact>
</mgrwt>
</event>
<event>
 6    1  0.3017327E-006  0.2825910E+04  0.7818608E-02  0.8295269E-01
         -2   -1    0    0    0  501 -0.00000000000E+00  0.00000000000E+00  0.19592466469E+04  0.19592466469E+04  0.00000000000E+00 0.  1.
          2   -1    0    0  501    0  0.00000000000E+00 -0.00000000000E+00 -0.10189844774E+04  0.10189844774E+04  0.00000000000E+00 0. -1.
         23    2    1    2    0    0 -0.67952016056E+03  0.57405056332E+03  0.16256071372E+04  0.18552977236E+04  0.90826101432E+02 0.  0.
         13    1    3    3    0    0 -0.45560471239E+03  0.32744523124E+03  0.10176734955E+04  0.11620909503E+04  0.00000000000E+00 0. -1.
        -13    1    3    3    0    0 -0.22391544817E+03  0.24660533209E+03  0.60793364174E+03  0.69320677326E+03  0.00000000000E+00 0.  1.
         22    1    1    2    0    0  0.67952016056E+03 -0.57405056332E+03 -0.68534496772E+03  0.11229334008E+04  0.00000000000E+00 0. -1.
<mgrwt>
<rscale>  0 0.28259101E+04</rscale>
<asrwt>0</asrwt>
<pdfrwt beam="1">  1        2 0.15676684E+00 0.28259101E+04</pdfrwt>
<pdfrwt beam="2">  1       -2 0.30142256E+00 0.28259101E+04</pdfrwt>
<totfact> 0.66251297E-01</totfact>
</mgrwt>
</event>
<event>
 6    1  0.3017327E-006  0.2075750E+04  0.7818608E-02  0.8572002E-01
         -2   -1    0    0    0  501 -0.00000000000E+00  0.00000000000E+00  0.89949819775E+03  0.89949819775E+03  0.00000000000E+00 0.  1.
          2   -1    0    0  501    0  0.00000000000E+00 -0.00000000000E+00 -0.11975394656E+04  0.11975394656E+04  0.00000000000E+00 0. -1.
         23    2    1    2    0    0 -0.43952859597E+03  0.77638197816E+01  0.79827346295E+03  0.91587228435E+03  0.91300909158E+02 0.  0.
         11    1    3    3    0    0 -0.12720434995E+03 -0.34032033674E+02  0.19561586906E+03  0.23580647614E+03  0.00000000000E+00 0.  1.
        -11    1    3    3    0    0 -0.31232424602E+03  0.41795853456E+02  0.60265759389E+03  0.68006580821E+03  0.00000000000E+00 0. -1.
         22    1    1    2    0    0  0.43952859597E+03 -0.77638197816E+01 -0.10963147308E+04  0.11811653790E+04  0.00000000000E+00 0. -1.
<mgrwt>
<rscale>  0 0.20757501E+04</rscale>
<asrwt>0</asrwt>
<pdfrwt beam="1">  1        2 0.18423684E+00 0.20757501E+04</pdfrwt>
<pdfrwt beam="2">  1       -2 0.13838434E+00 0.20757501E+04</pdfrwt>
<totfact> 0.64964585E+00</totfact>
</mgrwt>
</event>
<event>
 6    1  0.3017327E-006  0.2506942E+04  0.7818608E-02  0.8400517E-01
          2   -1    0    0  501    0  0.00000000000E+00  0.00000000000E+00  0.22241200458E+04  0.22241200458E+04  0.00000000000E+00 0. -1.
         -2   -1    0    0    0  501 -0.00000000000E+00 -0.00000000000E+00 -0.70643210462E+03  0.70643210462E+03  0.00000000000E+00 0.  1.
         23    2    1    2    0    0 -0.39744642772E+02  0.82129865976E+03 -0.34353184863E+03  0.89579166547E+03  0.91200064408E+02 0.  0.
         13    1    3    3    0    0 -0.59548473101E+01  0.14338560235E+03 -0.23680248397E+02  0.14544980348E+03  0.00000000000E+00 0. -1.
        -13    1    3    3    0    0 -0.33789795462E+02  0.67791305741E+03 -0.31985160023E+03  0.75034186199E+03  0.00000000000E+00 0.  1.
         22    1    1    2    0    0  0.39744642772E+02 -0.82129865976E+03  0.18612197898E+04  0.20347604849E+04  0.00000000000E+00 0. -1.
<mgrwt>
<rscale>  0 0.25069422E+04</rscale>
<asrwt>0</asrwt>
<pdfrwt beam="1">  1        2 0.34217231E+00 0.25069422E+04</pdfrwt>
<pdfrwt beam="2">  1       -2 0.10868186E+00 0.25069422E+04</pdfrwt>
<totfact> 0.30174149E+00</totfact>
</mgrwt>
</event>
<event>
 6    1  0.3017327E-006  0.6752718E+03  0.7818608E-02  0.9760481E-01
          3   -1    0    0  501    0  0.00000000000E+00  0.00000000000E+00  0.26626000439E+03  0.26626000439E+03  0.00000000000E+00 0. -1.
         -3   -1    0    0    0  501 -0.00000000000E+00 -0.00000000000E+00 -0.42814535696E+03  0.42814535696E+03  0.00000000000E+00 0.  1.
         23    2    1    2    0    0  0.23717313978E+03  0.13478702475E+03 -0.27674487107E+03  0.39841321743E+03  0.87901808208E+02 0.  0.
         13    1    3    3    0    0  0.13350442052E+03  0.11001210860E+03 -0.12698638440E+03  0.21459644955E+03  0.00000000000E+00 0. -1.
        -13    1    3    3    0    0  0.10366871926E+03  0.24774916149E+02 -0.14975848668E+03  0.18381676788E+03  0.00000000000E+00 0.  1.
         22    1    1    2    0    0 -0.23717313978E+03 -0.13478702475E+03  0.11485951851E+03  0.29599214392E+03  0.00000000000E+00 0. -1.
<mgrwt>
<rscale>  0 0.67527175E+03</rscale>
<asrwt>0</asrwt>
<pdfrwt beam="1">  1        3 0.40963078E-01 0.67527175E+03</pdfrwt>
<pdfrwt beam="2">  1       -3 0.65868516E-01 0.67527175E+03</pdfrwt>
<totfact> 0.34750625E+01</totfact>
</mgrwt>
</event>
<event>
 6    1  0.3017327E-006  0.4214812E+04  0.7818608E-02  0.7962561E-01
          1   -1    0    0  501    0  0.00000000000E+00  0.00000000000E+00  0.33105788256E+04  0.33105788256E+04  0.00000000000E+00 0. -1.
         -1   -1    0    0    0  501 -0.00000000000E+00 -0.00000000000E+00 -0.13415054318E+04  0.13415054318E+04  0.00000000000E+00 0.  1.
         23    2    1    2    0    0 -0.12210236932E+04 -0.13178610331E+02 -0.90944816085E+03  0.15252713631E+04  0.91017792746E+02 0.  0.
         11    1    3    3    0    0 -0.95909477187E+03  0.27040634489E+02 -0.71041192571E+03  0.11938505273E+04  0.00000000000E+00 0. -1.
        -11    1    3    3    0    0 -0.26192892132E+03 -0.40219244820E+02 -0.19903623514E+03  0.33142083576E+03  0.00000000000E+00 0.  1.
         22    1    1    2    0    0  0.12210236932E+04  0.13178610331E+02  0.28785215547E+04  0.31268128943E+04  0.00000000000E+00 0. -1.
<mgrwt>
<rscale>  0 0.42148117E+04</rscale>
<asrwt>0</asrwt>
<pdfrwt beam="1">  1        1 0.50931982E+00 0.42148117E+04</pdfrwt>
<pdfrwt beam="2">  1       -1 0.20638545E+00 0.42148117E+04</pdfrwt>
<totfact> 0.36642584E-02</totfact>
</mgrwt>
</event>
<event>
 6    1  0.3017327E-006  0.3339077E+04  0.7818608E-02  0.8153023E-01
          2   -1    0    0  501    0  0.00000000000E+00  0.00000000000E+00  0.21304190573E+04  0.21304190573E+04  0.00000000000E+00 0. -1.
         -2   -1    0    0    0  501 -0.00000000000E+00 -0.00000000000E+00 -0.13083615720E+04  0.13083615720E+04  0.00000000000E+00 0.  1.
         23    2    1    2    0    0  0.29827855274E+02 -0.85254289861E+03  0.18878630903E+04  0.20736210479E+04  0.90322244487E+02 0.  0.
         11    1    3    3    0    0  0.40919735911E+02 -0.16000218737E+03  0.35458784067E+03  0.39116193770E+03  0.00000000000E+00 0.  1.
        -11    1    3    3    0    0 -0.11091880637E+02 -0.69254071124E+03  0.15332752496E+04  0.16824591102E+04  0.00000000000E+00 0. -1.
         22    1    1    2    0    0 -0.29827855274E+02  0.85254289861E+03 -0.10658056050E+04  0.13651595813E+04  0.00000000000E+00 0.  1.
<mgrwt>
<rscale>  0 0.33390768E+04</rscale>
<asrwt>0</asrwt>
<pdfrwt beam="1">  1        2 0.32775678E+00 0.33390768E+04</pdfrwt>
<pdfrwt beam="2">  1       -2 0.20128640E+00 0.33390768E+04</pdfrwt>
<totfact> 0.61360134E-01</totfact>
</mgrwt>
</event>
<event>
 6    1  0.3017327E-006  0.3614261E+04  0.7818608E-02  0.8087233E-01
         -2   -1    0    0    0  501 -0.00000000000E+00  0.00000000000E+00  0.24560226964E+04  0.24560226964E+04  0.00000000000E+00 0.  1.
          2   -1    0    0  501    0  0.00000000000E+00 -0.00000000000E+00 -0.13296784377E+04  0.13296784377E+04  0.00000000000E+00 0. -1.
         23    2    1    2    0    0 -0.85248013511E+02  0.10855401464E+04  0.20726778359E+04  0.23430605438E+04  0.90965198747E+02 0.  0.
         13    1    3    3    0    0 -0.69879063898E+02  0.43995442130E+03  0.78756566805E+03  0.90482189290E+03  0.00000000000E+00 0. -1.
        -13    1    3    3    0    0 -0.15368949613E+02  0.64558572515E+03  0.12851121678E+04  0.14382386509E+04  0.00000000000E+00 0.  1.
         22    1    1    2    0    0  0.85248013511E+02 -0.10855401464E+04 -0.94633357716E+03  0.14426405902E+04  0.00000000000E+00 0. -1.
<mgrwt>
<rscale>  0 0.36142609E+04</rscale>
<asrwt>0</asrwt>
<pdfrwt beam="1">  1        2 0.20456591E+00 0.36142609E+04</pdfrwt>
<pdfrwt beam="2">  1       -2 0.37784964E+00 0.36142609E+04</pdfrwt>
<totfact> 0.13360583E-01</totfact>
</mgrwt>
</event>
<event>
 6    1  0.3017327E-006  0.1112917E+04  0.7818608E-02  0.9192693E-01
         -2   -1    0    0    0  501 -0.00000000000E+00  0.00000000000E+00  0.97045337974E+02  0.97045337974E+02  0.00000000000E+00 0.  1.
          2   -1    0    0  501    0  0.00000000000E+00 -0.00000000000E+00 -0.31907364129E+04  0.31907364129E+04  0.00000000000E+00 0. -1.
         23    2    1    2    0    0 -0.28012432213E+03 -0.38632813132E+03 -0.73559575782E+03  0.88188636964E+03  0.94357771984E+02 0.  0.
         11    1    3    3    0    0 -0.21621461396E+03 -0.35342617547E+03 -0.61676159199E+03  0.74300315083E+03  0.00000000000E+00 0. -1.
        -11    1    3    3    0    0 -0.63909708161E+02 -0.32901955852E+02 -0.11883416584E+03  0.13888321881E+03  0.00000000000E+00 0.  1.
         22    1    1    2    0    0  0.28012432213E+03  0.38632813132E+03 -0.23580953171E+04  0.24058953813E+04  0.00000000000E+00 0. -1.
<mgrwt>
<rscale>  0 0.11129171E+04</rscale>
<asrwt>0</asrwt>
<pdfrwt beam="1">  1        2 0.49088259E+00 0.11129171E+04</pdfrwt>
<pdfrwt beam="2">  1       -2 0.14930050E-01 0.11129171E+04</pdfrwt>
<totfact> 0.47233279E+01</totfact>
</mgrwt>
</event>
<event>
 6    1  0.3017327E-006  0.1866475E+04  0.7818608E-02  0.8671726E-01
         -1   -1    0    0    0  501 -0.00000000000E+00  0.00000000000E+00  0.30395579679E+03  0.30395579679E+03  0.00000000000E+00 0.  1.
          1   -1    0    0  501    0  0.00000000000E+00 -0.00000000000E+00 -0.28653247215E+04  0.28653247215E+04  0.00000000000E+00 0. -1.
         23    2    1    2    0    0  0.34712645318E+03  0.39958106370E+03  0.16942446066E+02  0.53719934066E+03  0.90190266463E+02 0.  0.
         13    1    3    3    0    0  0.21111201875E+02  0.68995881471E+02 -0.54731736520E+01  0.72360694679E+02  0.00000000000E+00 0. -1.
        -13    1    3    3    0    0  0.32601525130E+03  0.33058518223E+03  0.22415619718E+02  0.46483864599E+03  0.00000000000E+00 0.  1.
         22    1    1    2    0    0 -0.34712645318E+03 -0.39958106370E+03 -0.25783113708E+04  0.26320811776E+04  0.00000000000E+00 0. -1.
<mgrwt>
<rscale>  0 0.18664748E+04</rscale>
<asrwt>0</asrwt>
<pdfrwt beam="1">  1        1 0.44081916E+00 0.18664748E+04</pdfrwt>
<pdfrwt beam="2">  1       -1 0.46762433E-01 0.18664748E+04</pdfrwt>
<totfact> 0.32059700E+00</totfact>
</mgrwt>
</event>
<event>
 6    1  0.3017327E-006  0.2605203E+04  0.7818608E-02  0.8366436E-01
         -2   -1    0    0    0  501 -0.00000000000E+00  0.00000000000E+00  0.44892276266E+03  0.44892276266E+03  0.00000000000E+00 0.  1.
          2   -1    0    0  501    0  0.00000000000E+00 -0.00000000000E+00 -0.37796505863E+04  0.37796505863E+04  0.00000000000E+00 0. -1.
         23    2    1    2    0    0 -0.66967997088E+03 -0.86173976640E+03 -0.28169171951E+04  0.30223113334E+04  0.90975947451E+02 0.  0.
         11    1    3    3    0    0 -0.49398849097E+03 -0.66396392828E+03 -0.22269483369E+04  0.23757465401E+04  0.00000000000E+00 0.  1.
        -11    1    3    3    0    0 -0.17569147991E+03 -0.19777583812E+03 -0.58996885821E+03  0.64656479328E+03  0.00000000000E+00 0. -1.
         22    1    1    2    0    0  0.66967997088E+03  0.86173976640E+03 -0.51381062852E+03  0.12062620156E+04  0.00000000000E+00 0.  1.
<mgrwt>
<rscale>  0 0.26052034E+04</rscale>
<asrwt>0</asrwt>
<pdfrwt beam="1">  1        2 0.58148473E+00 0.26052034E+04</pdfrwt>
<pdfrwt beam="2">  1       -2 0.69065038E-01 0.26052034E+04</pdfrwt>
<totfact> 0.86265608E-01</totfact>
</mgrwt>
</event>
<event>
 6    1  0.3017327E-006  0.2571913E+04  0.7818608E-02  0.8377805E-01
          2   -1    0    0  501    0  0.00000000000E+00  0.00000000000E+00  0.10216657920E+04  0.10216657920E+04  0.00000000000E+00 0.  1.
         -2   -1    0    0    0  501 -0.00000000000E+00 -0.00000000000E+00 -0.16186151931E+04  0.16186151931E+04  0.00000000000E+00 0. -1.
         23    2    1    2    0    0  0.12086984418E+04  0.40417567668E+03 -0.46177135882E+03  0.13586480409E+04  0.91552228277E+02 0.  0.
         13    1    3    3    0    0  0.56753599828E+03  0.14640646892E+03 -0.19095450917E+03  0.61643782173E+03  0.00000000000E+00 0. -1.
        -13    1    3    3    0    0  0.64116244348E+03  0.25776920776E+03 -0.27081684965E+03  0.74221021917E+03  0.00000000000E+00 0.  1.
         22    1    1    2    0    0 -0.12086984418E+04 -0.40417567668E+03 -0.13517804227E+03  0.12816329443E+04  0.00000000000E+00 0.  1.
<mgrwt>
<rscale>  0 0.25719127E+04</rscale>
<asrwt>0</asrwt>
<pdfrwt beam="1">  1        2 0.15717935E+00 0.25719127E+04</pdfrwt>
<pdfrwt beam="2">  1       -2 0.24901772E+00 0.25719127E+04</pdfrwt>
<totfact> 0.14093443E+00</totfact>
</mgrwt>
</event>
<event>
 6    1  0.3017327E-006  0.1843270E+04  0.7818608E-02  0.8683622E-01
         -2   -1    0    0    0  501 -0.00000000000E+00  0.00000000000E+00  0.20340233953E+04  0.20340233953E+04  0.00000000000E+00 0.  1.
          2   -1    0    0  501    0  0.00000000000E+00 -0.00000000000E+00 -0.41760122690E+03  0.41760122690E+03  0.00000000000E+00 0. -1.
         23    2    1    2    0    0 -0.55219424164E+03 -0.71895940756E+03  0.10135674685E+04  0.13629304964E+04  0.91866287365E+02 0.  0.
         11    1    3    3    0    0 -0.36058634872E+03 -0.40259800872E+03  0.63056181816E+03  0.83049134735E+03  0.00000000000E+00 0. -1.
        -11    1    3    3    0    0 -0.19160789292E+03 -0.31636139884E+03  0.38300565032E+03  0.53243914909E+03  0.00000000000E+00 0.  1.
         22    1    1    2    0    0  0.55219424164E+03  0.71895940756E+03  0.60285469992E+03  0.10886941257E+04  0.00000000000E+00 0. -1.
<mgrwt>
<rscale>  0 0.18432696E+04</rscale>
<asrwt>0</asrwt>
<pdfrwt beam="1">  1        2 0.64246344E-01 0.18432696E+04</pdfrwt>
<pdfrwt beam="2">  1       -2 0.31292667E+00 0.18432696E+04</pdfrwt>
<totfact> 0.18901341E+00</totfact>
</mgrwt>
</event>
<event>
 6    1  0.3017327E-006  0.3211851E+04  0.7818608E-02  0.8185694E-01
         -1   -1    0    0    0  501 -0.00000000000E+00  0.00000000000E+00  0.11891019940E+04  0.11891019940E+04  0.00000000000E+00 0.  1.
          1   -1    0    0  501    0  0.00000000000E+00 -0.00000000000E+00 -0.21688612280E+04  0.21688612280E+04  0.00000000000E+00 0. -1.
         23    2    1    2    0    0  0.95062792762E+03  0.26941907981E+03 -0.18121118819E+04  0.20660301634E+04  0.91929679924E+02 0.  0.
         13    1    3    3    0    0  0.42692734285E+03  0.74932960986E+02 -0.81408137197E+03  0.92228541401E+03  0.00000000000E+00 0. -1.
        -13    1    3    3    0    0  0.52370058477E+03  0.19448611882E+03 -0.99803050994E+03  0.11437447494E+04  0.00000000000E+00 0.  1.
         22    1    1    2    0    0 -0.95062792762E+03 -0.26941907981E+03  0.83235264798E+03  0.12919330586E+04  0.00000000000E+00 0.  1.
<mgrwt>
<rscale>  0 0.32118513E+04</rscale>
<asrwt>0</asrwt>
<pdfrwt beam="1">  1        1 0.33367095E+00 0.32118513E+04</pdfrwt>
<pdfrwt beam="2">  1       -1 0.18293877E+00 0.32118513E+04</pdfrwt>
<totfact> 0.37907471E-01</totfact>
</mgrwt>
</event>
<event>
 6    1  0.3017327E-006  0.2145178E+04  0.7818608E-02  0.8541599E-01
         -2   -1    0    0    0  501 -0.00000000000E+00  0.00000000000E+00  0.36014115476E+03  0.36014115476E+03  0.00000000000E+00 0.  1.
          2   -1    0    0  501    0  0.00000000000E+00 -0.00000000000E+00 -0.31944333722E+04  0.31944333722E+04  0.00000000000E+00 0. -1.
         23    2    1    2    0    0 -0.19866972712E+03  0.15334052228E+03 -0.31443842786E+04  0.31556508969E+04  0.89426589404E+02 0.  0.
         13    1    3    3    0    0 -0.13330259683E+03  0.74719500606E+02 -0.23054282839E+04  0.23104874287E+04  0.00000000000E+00 0. -1.
        -13    1    3    3    0    0 -0.65367130286E+02  0.78621021669E+02 -0.83895599474E+03  0.84516346814E+03  0.00000000000E+00 0.  1.
         22    1    1    2    0    0  0.19866972712E+03 -0.15334052228E+03  0.31009206119E+03  0.39892363011E+03  0.00000000000E+00 0.  1.
<mgrwt>
<rscale>  0 0.21451778E+04</rscale>
<asrwt>0</asrwt>
<pdfrwt beam="1">  1        2 0.49145129E+00 0.21451778E+04</pdfrwt>
<pdfrwt beam="2">  1       -2 0.55406332E-01 0.21451778E+04</pdfrwt>
<totfact> 0.36846393E+00</totfact>
</mgrwt>
</event>
<event>
 6    1  0.3017327E-006  0.1333529E+04  0.7818608E-02  0.9003391E-01
          2   -1    0    0  501    0  0.00000000000E+00  0.00000000000E+00  0.12886496664E+04  0.12886496664E+04  0.00000000000E+00 0. -1.
         -2   -1    0    0    0  501 -0.00000000000E+00 -0.00000000000E+00 -0.34499292777E+03  0.34499292777E+03  0.00000000000E+00 0.  1.
         23    2    1    2    0    0 -0.36323702022E+03 -0.16088371640E+03 -0.17726718245E+03  0.44440118052E+03  0.90796763234E+02 0.  0.
         13    1    3    3    0    0 -0.10150221117E+03 -0.74846744976E+02 -0.21593248964E+02  0.12794921847E+03  0.00000000000E+00 0. -1.
        -13    1    3    3    0    0 -0.26173480905E+03 -0.86036971428E+02 -0.15567393348E+03  0.31645196205E+03  0.00000000000E+00 0.  1.
         22    1    1    2    0    0  0.36323702022E+03  0.16088371640E+03  0.11209239210E+04  0.11892414136E+04  0.00000000000E+00 0. -1.
<mgrwt>
<rscale>  0 0.13335292E+04</rscale>
<asrwt>0</asrwt>
<pdfrwt beam="1">  1        2 0.19825379E+00 0.13335292E+04</pdfrwt>
<pdfrwt beam="2">  1       -2 0.53075835E-01 0.13335292E+04</pdfrwt>
<totfact> 0.54936472E+01</totfact>
</mgrwt>
</event>
<event>
 6    1  0.3017327E-006  0.1714198E+04  0.7818608E-02  0.8753308E-01
         -2   -1    0    0    0  501 -0.00000000000E+00  0.00000000000E+00  0.27203647817E+03  0.27203647817E+03  0.00000000000E+00 0.  1.
          2   -1    0    0  501    0  0.00000000000E+00 -0.00000000000E+00 -0.27004405882E+04  0.27004405882E+04  0.00000000000E+00 0. -1.
         23    2    1    2    0    0 -0.87674485801E+02 -0.71901888685E+03 -0.20043434312E+04  0.21331306335E+04  0.90436353567E+02 0.  0.
         11    1    3    3    0    0 -0.10372572350E+03 -0.59402676207E+03 -0.16970497666E+04  0.18010010356E+04  0.00000000000E+00 0. -1.
        -11    1    3    3    0    0  0.16051237703E+02 -0.12499212478E+03 -0.30729366459E+03  0.33212959788E+03  0.00000000000E+00 0.  1.
         22    1    1    2    0    0  0.87674485801E+02  0.71901888685E+03 -0.42406067881E+03  0.83934643290E+03  0.00000000000E+00 0.  1.
<mgrwt>
<rscale>  0 0.17141976E+04</rscale>
<asrwt>0</asrwt>
<pdfrwt beam="1">  1        2 0.41545242E+00 0.17141976E+04</pdfrwt>
<pdfrwt beam="2">  1       -2 0.41851764E-01 0.17141976E+04</pdfrwt>
<totfact> 0.13683030E+01</totfact>
</mgrwt>
</event>
<event>
 6    1  0.3017327E-006  0.1578939E+04  0.7818608E-02  0.8833592E-01
         -2   -1    0    0    0  501 -0.00000000000E+00  0.00000000000E+00  0.14099501466E+04  0.14099501466E+04  0.00000000000E+00 0. -1.
          2   -1    0    0  501    0  0.00000000000E+00 -0.00000000000E+00 -0.44204553816E+03  0.44204553816E+03  0.00000000000E+00 0.  1.
         23    2    1    2    0    0 -0.79671535784E+02 -0.75216183299E+03  0.23101241579E+03  0.79601032493E+03  0.90392060040E+02 0.  0.
         13    1    3    3    0    0 -0.58410126724E+02 -0.21312165052E+03  0.46091324693E+02  0.22573655229E+03  0.00000000000E+00 0. -1.
        -13    1    3    3    0    0 -0.21261409060E+02 -0.53904018247E+03  0.18492109110E+03  0.57027377264E+03  0.00000000000E+00 0.  1.
         22    1    1    2    0    0  0.79671535784E+02  0.75216183299E+03  0.73689219268E+03  0.10559853599E+04  0.00000000000E+00 0. -1.
<mgrwt>
<rscale>  0 0.15789391E+04</rscale>
<asrwt>0</asrwt>
<pdfrwt beam="1">  1        2 0.68007007E-01 0.15789391E+04</pdfrwt>
<pdfrwt beam="2">  1       -2 0.21691540E+00 0.15789391E+04</pdfrwt>
<totfact> 0.70441573E+00</totfact>
</mgrwt>
</event>
<event>
 6    1  0.3017327E-006  0.2570072E+04  0.7818608E-02  0.8378439E-01
         -1   -1    0    0    0  501 -0.00000000000E+00  0.00000000000E+00  0.14546278778E+04  0.14546278778E+04  0.00000000000E+00 0.  1.
          1   -1    0    0  501    0  0.00000000000E+00 -0.00000000000E+00 -0.11352166043E+04  0.11352166043E+04  0.00000000000E+00 0. -1.
         23    2    1    2    0    0  0.55153289951E+03  0.13871644473E+03  0.13193577861E+04  0.14394863555E+04  0.89359993383E+02 0.  0.
         11    1    3    3    0    0  0.22130006734E+03  0.10000969550E+03  0.58162202950E+03  0.63028552593E+03  0.00000000000E+00 0.  1.
        -11    1    3    3    0    0  0.33023283217E+03  0.38706749224E+02  0.73773575665E+03  0.80920082953E+03  0.00000000000E+00 0. -1.
         22    1    1    2    0    0 -0.55153289951E+03 -0.13871644473E+03 -0.99994651268E+03  0.11503581266E+04  0.00000000000E+00 0. -1.
<mgrwt>
<rscale>  0 0.25700722E+04</rscale>
<asrwt>0</asrwt>
<pdfrwt beam="1">  1        1 0.17464871E+00 0.25700722E+04</pdfrwt>
<pdfrwt beam="2">  1       -1 0.22378891E+00 0.25700722E+04</pdfrwt>
<totfact> 0.10936652E+00</totfact>
</mgrwt>
</event>
<event>
 6    1  0.3017327E-006  0.2773043E+04  0.7818608E-02  0.8311687E-01
         -1   -1    0    0    0  501 -0.00000000000E+00  0.00000000000E+00  0.12014909468E+04  0.12014909468E+04  0.00000000000E+00 0.  1.
          1   -1    0    0  501    0  0.00000000000E+00 -0.00000000000E+00 -0.16000469391E+04  0.16000469391E+04  0.00000000000E+00 0. -1.
         23    2    1    2    0    0 -0.72957512317E+03 -0.48252944506E+03 -0.12844227246E+04  0.15565983720E+04  0.90234309298E+02 0.  0.
         13    1    3    3    0    0 -0.44533714108E+03 -0.29744068174E+03 -0.86258271464E+03  0.10153054063E+04  0.00000000000E+00 0. -1.
        -13    1    3    3    0    0 -0.28423798209E+03 -0.18508876333E+03 -0.42184000998E+03  0.54129296577E+03  0.00000000000E+00 0.  1.
         22    1    1    2    0    0  0.72957512317E+03  0.48252944506E+03  0.88586673239E+03  0.12449395139E+04  0.00000000000E+00 0.  1.
<mgrwt>
<rscale>  0 0.27730430E+04</rscale>
<asrwt>0</asrwt>
<pdfrwt beam="1">  1        1 0.24616107E+00 0.27730430E+04</pdfrwt>
<pdfrwt beam="2">  1       -1 0.18484476E+00 0.27730430E+04</pdfrwt>
<totfact> 0.93041259E-01</totfact>
</mgrwt>
</event>
<event>
 6    1  0.3017327E-006  0.3492691E+04  0.7818608E-02  0.8115524E-01
          2   -1    0    0  501    0  0.00000000000E+00  0.00000000000E+00  0.28734608875E+04  0.28734608875E+04  0.00000000000E+00 0. -1.
         -2   -1    0    0    0  501 -0.00000000000E+00 -0.00000000000E+00 -0.10613412638E+04  0.10613412638E+04  0.00000000000E+00 0.  1.
         23    2    1    2    0    0 -0.13201020223E+04  0.83036110234E+03  0.17891094946E+04  0.23750911602E+04  0.89310278166E+02 0.  0.
         13    1    3    3    0    0 -0.32229097641E+03  0.18049585974E+03  0.37460029693E+03  0.52609467905E+03  0.00000000000E+00 0.  1.
        -13    1    3    3    0    0 -0.99781104589E+03  0.64986524260E+03  0.14145091977E+04  0.18489964811E+04  0.00000000000E+00 0. -1.
         22    1    1    2    0    0  0.13201020223E+04 -0.83036110234E+03  0.23010129060E+02  0.15597109910E+04  0.00000000000E+00 0.  1.
<mgrwt>
<rscale>  0 0.34926910E+04</rscale>
<asrwt>0</asrwt>
<pdfrwt beam="1">  1        2 0.44207090E+00 0.34926910E+04</pdfrwt>
<pdfrwt beam="2">  1       -2 0.16328327E+00 0.34926910E+04</pdfrwt>
<totfact> 0.40844483E-01</totfact>
</mgrwt>
</event>
<event>
 6    1  0.3017327E-006  0.2226250E+04  0.7818608E-02  0.8507581E-01
          2   -1    0    0  501    0  0.00000000000E+00  0.00000000000E+00  0.13433837291E+04  0.13433837291E+04  0.00000000000E+00 0. -1.
         -2   -1    0    0    0  501 -0.00000000000E+00 -0.00000000000E+00 -0.92233317774E+03  0.92233317774E+03  0.00000000000E+00 0.  1.
         23    2    1    2    0    0 -0.10225629436E+04  0.27543223076E+03  0.55378970306E+03  0.11984223975E+04  0.89639946991E+02 0.  0.
         13    1    3    3    0    0 -0.54813946672E+03  0.11460953129E+03  0.25686058775E+03  0.61609218562E+03  0.00000000000E+00 0. -1.
        -13    1    3    3    0    0 -0.47442347690E+03  0.16082269947E+03  0.29692911531E+03  0.58233021184E+03  0.00000000000E+00 0.  1.
         22    1    1    2    0    0  0.10225629436E+04 -0.27543223076E+03 -0.13273915167E+03  0.10672945094E+04  0.00000000000E+00 0.  1.
<mgrwt>
<rscale>  0 0.22262501E+04</rscale>
<asrwt>0</asrwt>
<pdfrwt beam="1">  1        2 0.20667442E+00 0.22262501E+04</pdfrwt>
<pdfrwt beam="2">  1       -2 0.14189741E+00 0.22262501E+04</pdfrwt>
<totfact> 0.49345106E+00</totfact>
</mgrwt>
</event>
<event>
 6    1  0.3017327E-006  0.2856087E+04  0.7818608E-02  0.8286064E-01
         -2   -1    0    0    0  501 -0.00000000000E+00  0.00000000000E+00  0.65855433335E+03  0.65855433335E+03  0.00000000000E+00 0.  1.
          2   -1    0    0  501    0  0.00000000000E+00 -0.00000000000E+00 -0.30966428924E+04  0.30966428924E+04  0.00000000000E+00 0. -1.
         23    2    1    2    0    0 -0.39940560360E+03 -0.30085418731E+03  0.53637520244E+03  0.73899551721E+03  0.91531079172E+02 0.  0.
         13    1    3    3    0    0 -0.34714894398E+03 -0.25770137859E+03  0.50355901310E+03  0.66369727249E+03  0.00000000000E+00 0.  1.
        -13    1    3    3    0    0 -0.52256659622E+02 -0.43152808721E+02  0.32816189335E+02  0.75298244719E+02  0.00000000000E+00 0. -1.
         22    1    1    2    0    0  0.39940560360E+03  0.30085418731E+03 -0.29744637615E+04  0.30162017086E+04  0.00000000000E+00 0. -1.
<mgrwt>
<rscale>  0 0.28560866E+04</rscale>
<asrwt>0</asrwt>
<pdfrwt beam="1">  1        2 0.47640660E+00 0.28560866E+04</pdfrwt>
<pdfrwt beam="2">  1       -2 0.10131605E+00 0.28560866E+04</pdfrwt>
<totfact> 0.10483391E+00</totfact>
</mgrwt>
</event>
<event>
 6    1  0.3017327E-006  0.9215926E+03  0.7818608E-02  0.9398985E-01
          1   -1    0    0  501    0  0.00000000000E+00  0.00000000000E+00  0.78539807393E+03  0.78539807393E+03  0.00000000000E+00 0. -1.
         -1   -1    0    0    0  501 -0.00000000000E+00 -0.00000000000E+00 -0.27035110783E+03  0.27035110783E+03  0.00000000000E+00 0.  1.
         23    2    1    2    0    0 -0.21673790424E+03  0.47785554669E+02  0.71667018905E+03  0.75589804803E+03  0.92232970086E+02 0.  0.
         11    1    3    3    0    0 -0.16192279978E+03  0.71782348898E+02  0.47554448293E+03  0.50745862289E+03  0.00000000000E+00 0. -1.
        -11    1    3    3    0    0 -0.54815104458E+02 -0.23996794229E+02  0.24112570612E+03  0.24843942514E+03  0.00000000000E+00 0.  1.
         22    1    1    2    0    0  0.21673790424E+03 -0.47785554669E+02 -0.20162322295E+03  0.29985113373E+03  0.00000000000E+00 0.  1.
<mgrwt>
<rscale>  0 0.92159262E+03</rscale>
<asrwt>0</asrwt>
<pdfrwt beam="1">  1        1 0.12083047E+00 0.92159262E+03</pdfrwt>
<pdfrwt beam="2">  1       -1 0.41592478E-01 0.92159262E+03</pdfrwt>
<totfact> 0.12984698E+02</totfact>
</mgrwt>
</event>
<event>
 6    1  0.3017327E-006  0.1045803E+04  0.7818608E-02  0.9259688E-01
         -2   -1    0    0    0  501 -0.00000000000E+00  0.00000000000E+00  0.20870743705E+03  0.20870743705E+03  0.00000000000E+00 0. -1.
          2   -1    0    0  501    0  0.00000000000E+00 -0.00000000000E+00 -0.13100909565E+04  0.13100909565E+04  0.00000000000E+00 0.  1.
         23    2    1    2    0    0  0.47152654025E+03  0.12399795029E+03 -0.81592388118E+03  0.95382054005E+03  0.79555470635E+02 0.  0.
         11    1    3    3    0    0  0.16299678847E+02  0.53099820010E+01 -0.80191816876E+01  0.18925715688E+02  0.00000000000E+00 0. -1.
        -11    1    3    3    0    0  0.45522686141E+03  0.11868796828E+03 -0.80790469949E+03  0.93489482436E+03  0.00000000000E+00 0.  1.
         22    1    1    2    0    0 -0.47152654025E+03 -0.12399795029E+03 -0.28545963823E+03  0.56497785345E+03  0.00000000000E+00 0. -1.
<mgrwt>
<rscale>  0 0.10458025E+04</rscale>
<asrwt>0</asrwt>
<pdfrwt beam="1">  1        2 0.20155245E+00 0.10458025E+04</pdfrwt>
<pdfrwt beam="2">  1       -2 0.32108836E-01 0.10458025E+04</pdfrwt>
<totfact> 0.14643166E+02</totfact>
</mgrwt>
</event>
<event>
 6    1  0.3017327E-006  0.2638483E+04  0.7818608E-02  0.8355246E-01
         -2   -1    0    0    0  501 -0.00000000000E+00  0.00000000000E+00  0.31632434051E+03  0.31632434051E+03  0.00000000000E+00 0.  1.
          2   -1    0    0  501    0  0.00000000000E+00 -0.00000000000E+00 -0.55019434210E+04  0.55019434210E+04  0.00000000000E+00 0. -1.
         23    2    1    2    0    0  0.19576824959E+03 -0.12025713930E+04 -0.14899213697E+04  0.19269074939E+04  0.92755804255E+02 0.  0.
         11    1    3    3    0    0  0.13075159241E+03 -0.51865095847E+03 -0.66045229501E+03  0.84987765568E+03  0.00000000000E+00 0.  1.
        -11    1    3    3    0    0  0.65016657179E+02 -0.68392043457E+03 -0.82946907471E+03  0.10770298382E+04  0.00000000000E+00 0. -1.
         22    1    1    2    0    0 -0.19576824959E+03  0.12025713930E+04 -0.36956977107E+04  0.38913602676E+04  0.00000000000E+00 0. -1.
<mgrwt>
<rscale>  0 0.26384834E+04</rscale>
<asrwt>0</asrwt>
<pdfrwt beam="1">  1        2 0.84645283E+00 0.26384834E+04</pdfrwt>
<pdfrwt beam="2">  1       -2 0.48665284E-01 0.26384834E+04</pdfrwt>
<totfact> 0.21164266E-02</totfact>
</mgrwt>
</event>
<event>
 6    1  0.3017327E-006  0.4994574E+04  0.7818608E-02  0.7829345E-01
         -4   -1    0    0    0  501 -0.00000000000E+00  0.00000000000E+00  0.18208346028E+04  0.18208346028E+04  0.00000000000E+00 0. -1.
          4   -1    0    0  501    0  0.00000000000E+00 -0.00000000000E+00 -0.34250457674E+04  0.34250457674E+04  0.00000000000E+00 0.  1.
         23    2    1    2    0    0 -0.67592161479E+03 -0.54131613737E+03 -0.32616528000E+04  0.33758520376E+04  0.90026673982E+02 0.  0.
         13    1    3    3    0    0 -0.27348695123E+03 -0.27347986238E+03 -0.15039250151E+04  0.15528608433E+04  0.00000000000E+00 0.  1.
        -13    1    3    3    0    0 -0.40243466356E+03 -0.26783627500E+03 -0.17577277850E+04  0.18229911944E+04  0.00000000000E+00 0. -1.
         22    1    1    2    0    0  0.67592161479E+03  0.54131613737E+03  0.16574416354E+04  0.18700283326E+04  0.00000000000E+00 0. -1.
<mgrwt>
<rscale>  0 0.49945738E+04</rscale>
<asrwt>0</asrwt>
<pdfrwt beam="1">  1        4 0.52693012E+00 0.49945738E+04</pdfrwt>
<pdfrwt beam="2">  1       -4 0.28012840E+00 0.49945738E+04</pdfrwt>
<totfact> 0.41826447E-05</totfact>
</mgrwt>
</event>
<event>
 6    1  0.3017327E-006  0.5962635E+04  0.7818608E-02  0.7695052E-01
          2   -1    0    0  501    0  0.00000000000E+00  0.00000000000E+00  0.41421712144E+04  0.41421712144E+04  0.00000000000E+00 0. -1.
         -2   -1    0    0    0  501 -0.00000000000E+00 -0.00000000000E+00 -0.21457958896E+04  0.21457958896E+04  0.00000000000E+00 0.  1.
         23    2    1    2    0    0  0.91423531007E+03  0.10707811763E+04 -0.17718914014E+04  0.22652525168E+04  0.96805458951E+02 0.  0.
         13    1    3    3    0    0  0.47170605475E+03  0.51245930352E+03 -0.94150707925E+03  0.11711348002E+04  0.00000000000E+00 0. -1.
        -13    1    3    3    0    0  0.44252925533E+03  0.55832187278E+03 -0.83038432213E+03  0.10941177166E+04  0.00000000000E+00 0.  1.
         22    1    1    2    0    0 -0.91423531007E+03 -0.10707811763E+04  0.37682667263E+04  0.40227145872E+04  0.00000000000E+00 0. -1.
<mgrwt>
<rscale>  0 0.59626350E+04</rscale>
<asrwt>0</asrwt>
<pdfrwt beam="1">  1        2 0.63725711E+00 0.59626350E+04</pdfrwt>
<pdfrwt beam="2">  1       -2 0.33012245E+00 0.59626350E+04</pdfrwt>
<totfact> 0.36223311E-03</totfact>
</mgrwt>
</event>
<event>
 6    1  0.3017327E-006  0.1980138E+04  0.7818608E-02  0.8615964E-01
         -2   -1    0    0    0  501 -0.00000000000E+00  0.00000000000E+00  0.58498754025E+03  0.58498754025E+03  0.00000000000E+00 0.  1.
          2   -1    0    0  501    0  0.00000000000E+00 -0.00000000000E+00 -0.16756530669E+04  0.16756530669E+04  0.00000000000E+00 0. -1.
         23    2    1    2    0    0 -0.74785022363E+03 -0.56447314226E+03 -0.18877121275E+03  0.96013176875E+03  0.91151287916E+02 0.  0.
         13    1    3    3    0    0 -0.36853738761E+03 -0.30747282279E+03 -0.13644263480E+03  0.49897488455E+03  0.00000000000E+00 0.  1.
        -13    1    3    3    0    0 -0.37931283602E+03 -0.25700031947E+03 -0.52328577955E+02  0.46115688421E+03  0.00000000000E+00 0. -1.
         22    1    1    2    0    0  0.74785022363E+03  0.56447314226E+03 -0.90189431391E+03  0.13005088384E+04  0.00000000000E+00 0.  1.
<mgrwt>
<rscale>  0 0.19801375E+04</rscale>
<asrwt>0</asrwt>
<pdfrwt beam="1">  1        2 0.25779278E+00 0.19801375E+04</pdfrwt>
<pdfrwt beam="2">  1       -2 0.89998083E-01 0.19801375E+04</pdfrwt>
<totfact> 0.99506746E+00</totfact>
</mgrwt>
</event>
<event>
 6    1  0.3017327E-006  0.1704366E+04  0.7818608E-02  0.8758878E-01
         -2   -1    0    0    0  501 -0.00000000000E+00  0.00000000000E+00  0.67644695126E+03  0.67644695126E+03  0.00000000000E+00 0.  1.
          2   -1    0    0  501    0  0.00000000000E+00 -0.00000000000E+00 -0.10735734773E+04  0.10735734773E+04  0.00000000000E+00 0. -1.
         23    2    1    2    0    0 -0.31146575977E+03 -0.77078430430E+03 -0.37993249262E+03  0.91850674974E+03  0.90479760698E+02 0.  0.
         11    1    3    3    0    0 -0.11281574227E+03 -0.25283059942E+03 -0.81599010139E+02  0.28863316193E+03  0.00000000000E+00 0. -1.
        -11    1    3    3    0    0 -0.19865001750E+03 -0.51795370488E+03 -0.29833348248E+03  0.62987358781E+03  0.00000000000E+00 0.  1.
         22    1    1    2    0    0  0.31146575977E+03  0.77078430430E+03 -0.17194033402E+02  0.83151367881E+03  0.00000000000E+00 0.  1.
<mgrwt>
<rscale>  0 0.17043656E+04</rscale>
<asrwt>0</asrwt>
<pdfrwt beam="1">  1        2 0.16516515E+00 0.17043656E+04</pdfrwt>
<pdfrwt beam="2">  1       -2 0.10406876E+00 0.17043656E+04</pdfrwt>
<totfact> 0.16164950E+01</totfact>
</mgrwt>
</event>
<event>
 6    1  0.3017327E-006  0.1568371E+04  0.7818608E-02  0.8840218E-01
         -2   -1    0    0    0  501 -0.00000000000E+00  0.00000000000E+00  0.36201861108E+03  0.36201861108E+03  0.00000000000E+00 0.  1.
          2   -1    0    0  501    0  0.00000000000E+00 -0.00000000000E+00 -0.16986607269E+04  0.16986607269E+04  0.00000000000E+00 0. -1.
         23    2    1    2    0    0  0.77215141878E+03  0.72842957177E+02 -0.79843148347E+03  0.11166483032E+04  0.88807033632E+02 0.  0.
         11    1    3    3    0    0  0.33424912579E+03 -0.11290261828E+02 -0.32700094070E+03  0.46773877680E+03  0.00000000000E+00 0. -1.
        -11    1    3    3    0    0  0.43790229299E+03  0.84133219004E+02 -0.47143054277E+03  0.64890952636E+03  0.00000000000E+00 0.  1.
         22    1    1    2    0    0 -0.77215141878E+03 -0.72842957177E+02 -0.53821063238E+03  0.94403103484E+03  0.00000000000E+00 0.  1.
<mgrwt>
<rscale>  0 0.15683709E+04</rscale>
<asrwt>0</asrwt>
<pdfrwt beam="1">  1        2 0.26133242E+00 0.15683709E+04</pdfrwt>
<pdfrwt beam="2">  1       -2 0.55695170E-01 0.15683709E+04</pdfrwt>
<totfact> 0.28595988E+01</totfact>
</mgrwt>
</event>
<event>
 6    1  0.3017327E-006  0.2522432E+04  0.7818608E-02  0.8395037E-01
         -1   -1    0    0    0  501 -0.00000000000E+00  0.00000000000E+00  0.84575478113E+03  0.84575478113E+03  0.00000000000E+00 0.  1.
          1   -1    0    0  501    0  0.00000000000E+00 -0.00000000000E+00 -0.18807652701E+04  0.18807652701E+04  0.00000000000E+00 0. -1.
         23    2    1    2    0    0 -0.26792985202E+03 -0.12086411199E+04 -0.26710993477E+03  0.12697184094E+04  0.90759900440E+02 0.  0.
         11    1    3    3    0    0 -0.19571275108E+03 -0.10310381246E+04 -0.23251090484E+03  0.10748973980E+04  0.00000000000E+00 0. -1.
        -11    1    3    3    0    0 -0.72217100941E+02 -0.17760299531E+03 -0.34599029927E+02  0.19482101140E+03  0.00000000000E+00 0.  1.
         22    1    1    2    0    0  0.26792985202E+03  0.12086411199E+04 -0.76790055421E+03  0.14568016418E+04  0.00000000000E+00 0. -1.
<mgrwt>
<rscale>  0 0.25224323E+04</rscale>
<asrwt>0</asrwt>
<pdfrwt beam="1">  1        1 0.28934850E+00 0.25224323E+04</pdfrwt>
<pdfrwt beam="2">  1       -1 0.13011612E+00 0.25224323E+04</pdfrwt>
<totfact> 0.16107145E+00</totfact>
</mgrwt>
</event>
<event>
 6    1  0.3017327E-006  0.1647015E+04  0.7818608E-02  0.8792174E-01
         -2   -1    0    0    0  501 -0.00000000000E+00  0.00000000000E+00  0.73183796589E+03  0.73183796589E+03  0.00000000000E+00 0.  1.
          2   -1    0    0  501    0  0.00000000000E+00 -0.00000000000E+00 -0.92665954623E+03  0.92665954623E+03  0.00000000000E+00 0. -1.
         23    2    1    2    0    0  0.40009737240E+02  0.16943939438E+03  0.71011647123E+03  0.73696435231E+03  0.92415185048E+02 0.  0.
         11    1    3    3    0    0 -0.24468423563E+02  0.72222593656E+02  0.20980906783E+03  0.22323676160E+03  0.00000000000E+00 0.  1.
        -11    1    3    3    0    0  0.64478160802E+02  0.97216800720E+02  0.50030740340E+03  0.51372759071E+03  0.00000000000E+00 0. -1.
         22    1    1    2    0    0 -0.40009737240E+02 -0.16943939438E+03 -0.90493805157E+03  0.92153315980E+03  0.00000000000E+00 0. -1.
<mgrwt>
<rscale>  0 0.16470150E+04</rscale>
<asrwt>0</asrwt>
<pdfrwt beam="1">  1        2 0.14256301E+00 0.16470150E+04</pdfrwt>
<pdfrwt beam="2">  1       -2 0.11259046E+00 0.16470150E+04</pdfrwt>
<totfact> 0.16693133E+01</totfact>
</mgrwt>
</event>
<event>
 6    1  0.3017327E-006  0.5487168E+04  0.7818608E-02  0.7757457E-01
          2   -1    0    0  501    0  0.00000000000E+00  0.00000000000E+00  0.37604655929E+04  0.37604655929E+04  0.00000000000E+00 0. -1.
         -2   -1    0    0    0  501 -0.00000000000E+00 -0.00000000000E+00 -0.20016808563E+04  0.20016808563E+04  0.00000000000E+00 0.  1.
         23    2    1    2    0    0  0.83817958382E+03 -0.24589046409E+04 -0.44497774673E+02  0.25997763153E+04  0.89998832796E+02 0.  0.
         13    1    3    3    0    0  0.43336310527E+03 -0.13502707898E+04 -0.61156642837E+02  0.14194276740E+04  0.00000000000E+00 0. -1.
        -13    1    3    3    0    0  0.40481647855E+03 -0.11086338511E+04  0.16658868164E+02  0.11803486413E+04  0.00000000000E+00 0.  1.
         22    1    1    2    0    0 -0.83817958382E+03  0.24589046409E+04  0.18032825113E+04  0.31623701338E+04  0.00000000000E+00 0. -1.
<mgrwt>
<rscale>  0 0.54871676E+04</rscale>
<asrwt>0</asrwt>
<pdfrwt beam="1">  1        2 0.57853317E+00 0.54871676E+04</pdfrwt>
<pdfrwt beam="2">  1       -2 0.30795090E+00 0.54871676E+04</pdfrwt>
<totfact> 0.10434168E-02</totfact>
</mgrwt>
</event>
<event>
 6    1  0.3017327E-006  0.3499334E+04  0.7818608E-02  0.8113948E-01
         -2   -1    0    0    0  501 -0.00000000000E+00  0.00000000000E+00  0.87273715107E+03  0.87273715107E+03  0.00000000000E+00 0.  1.
          2   -1    0    0  501    0  0.00000000000E+00 -0.00000000000E+00 -0.35077388516E+04  0.35077388516E+04  0.00000000000E+00 0. -1.
         23    2    1    2    0    0 -0.46738987407E+03  0.16649813566E+04 -0.16414641052E+04  0.23860504800E+04  0.90643653932E+02 0.  0.
         13    1    3    3    0    0 -0.20269272959E+03  0.56324817972E+03 -0.56195663973E+03  0.82105305524E+03  0.00000000000E+00 0. -1.
        -13    1    3    3    0    0 -0.26469714448E+03  0.11017331769E+04 -0.10795074655E+04  0.15649974247E+04  0.00000000000E+00 0.  1.
         22    1    1    2    0    0  0.46738987407E+03 -0.16649813566E+04 -0.99353759537E+03  0.19944255227E+04  0.00000000000E+00 0. -1.
<mgrwt>
<rscale>  0 0.34993337E+04</rscale>
<asrwt>0</asrwt>
<pdfrwt beam="1">  1        2 0.53965213E+00 0.34993337E+04</pdfrwt>
<pdfrwt beam="2">  1       -2 0.13426725E+00 0.34993337E+04</pdfrwt>
<totfact> 0.26350794E-01</totfact>
</mgrwt>
</event>
<event>
 6    1  0.3017327E-006  0.3102879E+04  0.7818608E-02  0.8214948E-01
         -2   -1    0    0    0  501 -0.00000000000E+00  0.00000000000E+00  0.10447699510E+04  0.10447699510E+04  0.00000000000E+00 0.  1.
          2   -1    0    0  501    0  0.00000000000E+00 -0.00000000000E+00 -0.23038223113E+04  0.23038223113E+04  0.00000000000E+00 0. -1.
         23    2    1    2    0    0  0.70970266870E+03 -0.13453338997E+04 -0.95206077105E+03  0.17968690218E+04  0.93366964784E+02 0.  0.
         13    1    3    3    0    0  0.54503902556E+03 -0.10236797762E+04 -0.77155421784E+03  0.13929406788E+04  0.00000000000E+00 0. -1.
        -13    1    3    3    0    0  0.16466364314E+03 -0.32165412342E+03 -0.18050655321E+03  0.40392834295E+03  0.00000000000E+00 0.  1.
         22    1    1    2    0    0 -0.70970266870E+03  0.13453338997E+04 -0.30699158925E+03  0.15517232406E+04  0.00000000000E+00 0. -1.
<mgrwt>
<rscale>  0 0.31028789E+04</rscale>
<asrwt>0</asrwt>
<pdfrwt beam="1">  1        2 0.35443420E+00 0.31028789E+04</pdfrwt>
<pdfrwt beam="2">  1       -2 0.16073384E+00 0.31028789E+04</pdfrwt>
<totfact> 0.95246759E-01</totfact>
</mgrwt>
</event>
<event>
 6    1  0.3017327E-006  0.2711202E+04  0.7818608E-02  0.8331379E-01
         -2   -1    0    0    0  501 -0.00000000000E+00  0.00000000000E+00  0.57468400227E+03  0.57468400227E+03  0.00000000000E+00 0.  1.
          2   -1    0    0  501    0  0.00000000000E+00 -0.00000000000E+00 -0.31976781224E+04  0.31976781224E+04  0.00000000000E+00 0. -1.
         23    2    1    2    0    0  0.47903304280E+03 -0.11449408528E+04 -0.55977869125E+03  0.13646204196E+04  0.92057013467E+02 0.  0.
         13    1    3    3    0    0  0.20754660123E+03 -0.61517101868E+03 -0.29091044866E+03  0.71143507296E+03  0.00000000000E+00 0.  1.
        -13    1    3    3    0    0  0.27148644157E+03 -0.52976983415E+03 -0.26886824259E+03  0.65318534659E+03  0.00000000000E+00 0. -1.
         22    1    1    2    0    0 -0.47903304280E+03  0.11449408528E+04 -0.20632154289E+04  0.24077417051E+04  0.00000000000E+00 0. -1.
<mgrwt>
<rscale>  0 0.27112023E+04</rscale>
<asrwt>0</asrwt>
<pdfrwt beam="1">  1        2 0.49195047E+00 0.27112023E+04</pdfrwt>
<pdfrwt beam="2">  1       -2 0.88412924E-01 0.27112023E+04</pdfrwt>
<totfact> 0.12555926E+00</totfact>
</mgrwt>
</event>
<event>
 6    1  0.3017327E-006  0.3488301E+04  0.7818608E-02  0.8116568E-01
         -2   -1    0    0    0  501 -0.00000000000E+00  0.00000000000E+00  0.28171703667E+04  0.28171703667E+04  0.00000000000E+00 0.  1.
          2   -1    0    0  501    0  0.00000000000E+00 -0.00000000000E+00 -0.10798287860E+04  0.10798287860E+04  0.00000000000E+00 0. -1.
         23    2    1    2    0    0  0.12861827271E+04 -0.11388937358E+04  0.54032986947E+03  0.18031553224E+04  0.89820934281E+02 0.  0.
         11    1    3    3    0    0  0.77469105715E+03 -0.72311181492E+03  0.29771699848E+03  0.11007598930E+04  0.00000000000E+00 0.  1.
        -11    1    3    3    0    0  0.51149166991E+03 -0.41578192085E+03  0.24261287100E+03  0.70239542941E+03  0.00000000000E+00 0. -1.
         22    1    1    2    0    0 -0.12861827271E+04  0.11388937358E+04  0.11970117112E+04  0.20938438303E+04  0.00000000000E+00 0.  1.
<mgrwt>
<rscale>  0 0.34883014E+04</rscale>
<asrwt>0</asrwt>
<pdfrwt beam="1">  1        2 0.16612751E+00 0.34883014E+04</pdfrwt>
<pdfrwt beam="2">  1       -2 0.43341082E+00 0.34883014E+04</pdfrwt>
<totfact> 0.82348135E-02</totfact>
</mgrwt>
</event>
<event>
 6    1  0.3017327E-006  0.3881758E+03  0.7818608E-02  0.1047953E+00
         -1   -1    0    0    0  501 -0.00000000000E+00  0.00000000000E+00  0.41219725595E+02  0.41219725595E+02  0.00000000000E+00 0.  1.
          1   -1    0    0  501    0  0.00000000000E+00 -0.00000000000E+00 -0.91388562713E+03  0.91388562713E+03  0.00000000000E+00 0. -1.
         23    2    1    2    0    0 -0.28049957525E+01 -0.17375724257E+03 -0.32090375777E+03  0.37662379672E+03  0.93095731139E+02 0.  0.
         11    1    3    3    0    0  0.32669072098E+01 -0.89637389042E+02 -0.25273586586E+03  0.26818081976E+03  0.00000000000E+00 0. -1.
        -11    1    3    3    0    0 -0.60719029623E+01 -0.84119853530E+02 -0.68167891912E+02  0.10844297696E+03  0.00000000000E+00 0.  1.
         22    1    1    2    0    0  0.28049957525E+01  0.17375724257E+03 -0.55176214377E+03  0.57848155601E+03  0.00000000000E+00 0. -1.
<mgrwt>
<rscale>  0 0.38817581E+03</rscale>
<asrwt>0</asrwt>
<pdfrwt beam="1">  1        1 0.14059779E+00 0.38817581E+03</pdfrwt>
<pdfrwt beam="2">  1       -1 0.63414961E-02 0.38817581E+03</pdfrwt>
<totfact> 0.22926398E+03</totfact>
</mgrwt>
</event>
<event>
 6    1  0.3017327E-006  0.1188046E+04  0.7818608E-02  0.9123384E-01
         -2   -1    0    0    0  501 -0.00000000000E+00  0.00000000000E+00  0.37830673542E+03  0.37830673542E+03  0.00000000000E+00 0.  1.
          2   -1    0    0  501    0  0.00000000000E+00 -0.00000000000E+00 -0.93274450408E+03  0.93274450408E+03  0.00000000000E+00 0. -1.
         23    2    1    2    0    0  0.53152761270E+03 -0.20281993815E+03 -0.10416760377E+03  0.58551643554E+03  0.91219933317E+02 0.  0.
         13    1    3    3    0    0  0.24081488037E+03 -0.13280506168E+03 -0.24713186615E+02  0.27611543348E+03  0.00000000000E+00 0.  1.
        -13    1    3    3    0    0  0.29071273234E+03 -0.70014876472E+02 -0.79454417155E+02  0.30940100206E+03  0.00000000000E+00 0. -1.
         22    1    1    2    0    0 -0.53152761270E+03  0.20281993815E+03 -0.45027016489E+03  0.72553480396E+03  0.00000000000E+00 0.  1.
<mgrwt>
<rscale>  0 0.11880463E+04</rscale>
<asrwt>0</asrwt>
<pdfrwt beam="1">  1        2 0.14349915E+00 0.11880463E+04</pdfrwt>
<pdfrwt beam="2">  1       -2 0.58201037E-01 0.11880463E+04</pdfrwt>
<totfact> 0.76031303E+01</totfact>
</mgrwt>
</event>
<event>
 6    1  0.3017327E-006  0.1833997E+04  0.7818608E-02  0.8688426E-01
          2   -1    0    0  501    0  0.00000000000E+00  0.00000000000E+00  0.13230530963E+04  0.13230530963E+04  0.00000000000E+00 0. -1.
         -2   -1    0    0    0  501 -0.00000000000E+00 -0.00000000000E+00 -0.63556521872E+03  0.63556521872E+03  0.00000000000E+00 0.  1.
         23    2    1    2    0    0  0.79935601327E+03 -0.14535894587E+03 -0.10412639521E+03  0.82426721593E+03  0.92059100479E+02 0.  0.
         13    1    3    3    0    0  0.55220951764E+03 -0.64991256757E+02 -0.96053536738E+02  0.56425658768E+03  0.00000000000E+00 0.  1.
        -13    1    3    3    0    0  0.24714649563E+03 -0.80367689115E+02 -0.80728584720E+01  0.26001062825E+03  0.00000000000E+00 0. -1.
         22    1    1    2    0    0 -0.79935601327E+03  0.14535894587E+03  0.79161427278E+03  0.11343510991E+04  0.00000000000E+00 0. -1.
<mgrwt>
<rscale>  0 0.18339973E+04</rscale>
<asrwt>0</asrwt>
<pdfrwt beam="1">  1        2 0.20354663E+00 0.18339973E+04</pdfrwt>
<pdfrwt beam="2">  1       -2 0.97779264E-01 0.18339973E+04</pdfrwt>
<totfact> 0.13145998E+01</totfact>
</mgrwt>
</event>
<event>
 6    1  0.3017327E-006  0.2758622E+04  0.7818608E-02  0.8316231E-01
         -2   -1    0    0    0  501 -0.00000000000E+00  0.00000000000E+00  0.84029431131E+03  0.84029431131E+03  0.00000000000E+00 0.  1.
          2   -1    0    0  501    0  0.00000000000E+00 -0.00000000000E+00 -0.22640870586E+04  0.22640870586E+04  0.00000000000E+00 0. -1.
         23    2    1    2    0    0  0.10919751766E+04  0.64820914664E+03 -0.11125725995E+03  0.12780916093E+04  0.92493782129E+02 0.  0.
         11    1    3    3    0    0  0.56715247071E+03  0.29517420039E+03 -0.26394998084E+02  0.63991126692E+03  0.00000000000E+00 0. -1.
        -11    1    3    3    0    0  0.52482270593E+03  0.35303494625E+03 -0.84862261866E+02  0.63818034240E+03  0.00000000000E+00 0.  1.
         22    1    1    2    0    0 -0.10919751766E+04 -0.64820914664E+03 -0.13125354874E+04  0.18262897606E+04  0.00000000000E+00 0. -1.
<mgrwt>
<rscale>  0 0.27586225E+04</rscale>
<asrwt>0</asrwt>
<pdfrwt beam="1">  1        2 0.34832108E+00 0.27586225E+04</pdfrwt>
<pdfrwt beam="2">  1       -2 0.12927605E+00 0.27586225E+04</pdfrwt>
<totfact> 0.18270797E+00</totfact>
</mgrwt>
</event>
<event>
 6    1  0.3017327E-006  0.3266574E+04  0.7818608E-02  0.8171453E-01
          2   -1    0    0  501    0  0.00000000000E+00  0.00000000000E+00  0.18984404970E+04  0.18984404970E+04  0.00000000000E+00 0. -1.
         -2   -1    0    0    0  501 -0.00000000000E+00 -0.00000000000E+00 -0.14051671967E+04  0.14051671967E+04  0.00000000000E+00 0.  1.
         23    2    1    2    0    0 -0.13441427401E+04  0.21595323502E+02 -0.68900525853E+03  0.15133650693E+04  0.91430426784E+02 0.  0.
         13    1    3    3    0    0 -0.38459311511E+03 -0.23310190156E+02 -0.23010391714E+03  0.44877950247E+03  0.00000000000E+00 0. -1.
        -13    1    3    3    0    0 -0.95954962498E+03  0.44905513658E+02 -0.45890134139E+03  0.10645855668E+04  0.00000000000E+00 0.  1.
         22    1    1    2    0    0  0.13441427401E+04 -0.21595323502E+02  0.11822785589E+04  0.17902426245E+04  0.00000000000E+00 0. -1.
<mgrwt>
<rscale>  0 0.32665739E+04</rscale>
<asrwt>0</asrwt>
<pdfrwt beam="1">  1        2 0.29206777E+00 0.32665739E+04</pdfrwt>
<pdfrwt beam="2">  1       -2 0.21617957E+00 0.32665739E+04</pdfrwt>
<totfact> 0.66607708E-01</totfact>
</mgrwt>
</event>
<event>
 6    1  0.3017327E-006  0.1424545E+04  0.7818608E-02  0.8936241E-01
         -2   -1    0    0    0  501 -0.00000000000E+00  0.00000000000E+00  0.24973196832E+03  0.24973196832E+03  0.00000000000E+00 0.  1.
          2   -1    0    0  501    0  0.00000000000E+00 -0.00000000000E+00 -0.20315051824E+04  0.20315051824E+04  0.00000000000E+00 0. -1.
         23    2    1    2    0    0  0.20365723773E+03  0.50845343126E+03 -0.17232333745E+03  0.58114007477E+03  0.89595154087E+02 0.  0.
         13    1    3    3    0    0  0.16214001345E+03  0.47211290055E+03 -0.14658516583E+03  0.52025684587E+03  0.00000000000E+00 0.  1.
        -13    1    3    3    0    0  0.41517224273E+02  0.36340530709E+02 -0.25738171615E+02  0.60883228903E+02  0.00000000000E+00 0. -1.
         22    1    1    2    0    0 -0.20365723773E+03 -0.50845343126E+03 -0.16094498766E+04  0.17000970759E+04  0.00000000000E+00 0. -1.
<mgrwt>
<rscale>  0 0.14245445E+04</rscale>
<asrwt>0</asrwt>
<pdfrwt beam="1">  1        2 0.31253927E+00 0.14245445E+04</pdfrwt>
<pdfrwt beam="2">  1       -2 0.38420301E-01 0.14245445E+04</pdfrwt>
<totfact> 0.39917273E+01</totfact>
</mgrwt>
</event>
<event>
 6    1  0.3017327E-006  0.2629309E+04  0.7818608E-02  0.8358313E-01
         -2   -1    0    0    0  501 -0.00000000000E+00  0.00000000000E+00  0.80264203462E+03  0.80264203462E+03  0.00000000000E+00 0.  1.
          2   -1    0    0  501    0  0.00000000000E+00 -0.00000000000E+00 -0.21532838003E+04  0.21532838003E+04  0.00000000000E+00 0. -1.
         23    2    1    2    0    0  0.12133467002E+04  0.16424194678E+03 -0.14256626010E+03  0.12358583772E+04  0.88516427937E+02 0.  0.
         13    1    3    3    0    0  0.30338247788E+03  0.69175814823E+02 -0.63052375833E+02  0.31749302881E+03  0.00000000000E+00 0.  1.
        -13    1    3    3    0    0  0.90996422231E+03  0.95066131952E+02 -0.79513884262E+02  0.91836534838E+03  0.00000000000E+00 0. -1.
         22    1    1    2    0    0 -0.12133467002E+04 -0.16424194678E+03 -0.12080755056E+04  0.17200674577E+04  0.00000000000E+00 0.  1.
<mgrwt>
<rscale>  0 0.26293087E+04</rscale>
<asrwt>0</asrwt>
<pdfrwt beam="1">  1        2 0.33127442E+00 0.26293087E+04</pdfrwt>
<pdfrwt beam="2">  1       -2 0.12348339E+00 0.26293087E+04</pdfrwt>
<totfact> 0.23930251E+00</totfact>
</mgrwt>
</event>
<event>
 6    1  0.3017327E-006  0.2816723E+04  0.7818608E-02  0.8298095E-01
          2   -1    0    0  501    0  0.00000000000E+00  0.00000000000E+00  0.24165404756E+04  0.24165404756E+04  0.00000000000E+00 0. -1.
         -2   -1    0    0    0  501 -0.00000000000E+00 -0.00000000000E+00 -0.82079429535E+03  0.82079429535E+03  0.00000000000E+00 0.  1.
         23    2    1    2    0    0 -0.49301747970E+03  0.53360952488E+03  0.21834049406E+04  0.23029107885E+04  0.91299535467E+02 0.  0.
         13    1    3    3    0    0 -0.38206155449E+03  0.44293149375E+03  0.18421923493E+04  0.19328300472E+04  0.00000000000E+00 0.  1.
        -13    1    3    3    0    0 -0.11095592522E+03  0.90678031132E+02  0.34121259126E+03  0.37008074133E+03  0.00000000000E+00 0. -1.
         22    1    1    2    0    0  0.49301747970E+03 -0.53360952488E+03 -0.58765876031E+03  0.93442398241E+03  0.00000000000E+00 0.  1.
<mgrwt>
<rscale>  0 0.28167234E+04</rscale>
<asrwt>0</asrwt>
<pdfrwt beam="1">  1        2 0.37177545E+00 0.28167234E+04</pdfrwt>
<pdfrwt beam="2">  1       -2 0.12627605E+00 0.28167234E+04</pdfrwt>
<totfact> 0.15794280E+00</totfact>
</mgrwt>
</event>
<event>
 6    1  0.3017327E-006  0.3211137E+04  0.7818608E-02  0.8185882E-01
         -2   -1    0    0    0  501 -0.00000000000E+00  0.00000000000E+00  0.26337246021E+04  0.26337246021E+04  0.00000000000E+00 0.  1.
          2   -1    0    0  501    0  0.00000000000E+00 -0.00000000000E+00 -0.97878503651E+03  0.97878503651E+03  0.00000000000E+00 0. -1.
         23    2    1    2    0    0 -0.29951691885E+03 -0.33775382226E+03  0.25600738236E+04  0.26010473041E+04  0.87641693940E+02 0.  0.
         11    1    3    3    0    0 -0.87215123178E+02 -0.16293252020E+03  0.10443954833E+04  0.10606202947E+04  0.00000000000E+00 0. -1.
        -11    1    3    3    0    0 -0.21230179567E+03 -0.17482130206E+03  0.15156783403E+04  0.15404270094E+04  0.00000000000E+00 0.  1.
         22    1    1    2    0    0  0.29951691885E+03  0.33775382226E+03 -0.90513425803E+03  0.10114623345E+04  0.00000000000E+00 0. -1.
<mgrwt>
<rscale>  0 0.32111370E+04</rscale>
<asrwt>0</asrwt>
<pdfrwt beam="1">  1        2 0.15058231E+00 0.32111370E+04</pdfrwt>
<pdfrwt beam="2">  1       -2 0.40518840E+00 0.32111370E+04</pdfrwt>
<totfact> 0.14997022E-01</totfact>
</mgrwt>
</event>
<event>
 6    1  0.3017327E-006  0.2839754E+04  0.7818608E-02  0.8291032E-01
         -2   -1    0    0    0  501 -0.00000000000E+00  0.00000000000E+00  0.22342000300E+04  0.22342000300E+04  0.00000000000E+00 0.  1.
          2   -1    0    0  501    0  0.00000000000E+00 -0.00000000000E+00 -0.90235893513E+03  0.90235893513E+03  0.00000000000E+00 0. -1.
         23    2    1    2    0    0 -0.38445222895E+03  0.13544649527E+04  0.85643322200E+03  0.16504931961E+04  0.90945600029E+02 0.  0.
         13    1    3    3    0    0 -0.14668376371E+03  0.45727334586E+03  0.33922950755E+03  0.58795552396E+03  0.00000000000E+00 0.  1.
        -13    1    3    3    0    0 -0.23776846525E+03  0.89719160683E+03  0.51720371445E+03  0.10625376721E+04  0.00000000000E+00 0. -1.
         22    1    1    2    0    0  0.38445222895E+03 -0.13544649527E+04  0.47540787290E+03  0.14860657691E+04  0.00000000000E+00 0. -1.
<mgrwt>
<rscale>  0 0.28397538E+04</rscale>
<asrwt>0</asrwt>
<pdfrwt beam="1">  1        2 0.13882445E+00 0.28397538E+04</pdfrwt>
<pdfrwt beam="2">  1       -2 0.34372308E+00 0.28397538E+04</pdfrwt>
<totfact> 0.43172249E-01</totfact>
</mgrwt>
</event>
<event>
 6    1  0.3017327E-006  0.2746968E+04  0.7818608E-02  0.8319925E-01
          2   -1    0    0  501    0  0.00000000000E+00  0.00000000000E+00  0.68713553192E+03  0.68713553192E+03  0.00000000000E+00 0. -1.
         -2   -1    0    0    0  501 -0.00000000000E+00 -0.00000000000E+00 -0.27453939609E+04  0.27453939609E+04  0.00000000000E+00 0.  1.
         23    2    1    2    0    0  0.83651586137E+03 -0.98693329892E+03 -0.16007505484E+04  0.20602650928E+04  0.92161876932E+02 0.  0.
         11    1    3    3    0    0  0.65020683906E+02 -0.12010084766E+03 -0.16451284296E+03  0.21381388739E+03  0.00000000000E+00 0. -1.
        -11    1    3    3    0    0  0.77149517747E+03 -0.86683245126E+03 -0.14362377054E+04  0.18464512054E+04  0.00000000000E+00 0.  1.
         22    1    1    2    0    0 -0.83651586137E+03  0.98693329892E+03 -0.45750788064E+03  0.13722644001E+04  0.00000000000E+00 0. -1.
<mgrwt>
<rscale>  0 0.27469676E+04</rscale>
<asrwt>0</asrwt>
<pdfrwt beam="1">  1        2 0.10571316E+00 0.27469676E+04</pdfrwt>
<pdfrwt beam="2">  1       -2 0.42236830E+00 0.27469676E+04</pdfrwt>
<totfact> 0.19374715E-01</totfact>
</mgrwt>
</event>
<event>
 6    1  0.3017327E-006  0.8821126E+03  0.7818608E-02  0.9448222E-01
          2   -1    0    0  501    0  0.00000000000E+00  0.00000000000E+00  0.65830222345E+03  0.65830222345E+03  0.00000000000E+00 0.  1.
         -2   -1    0    0    0  501 -0.00000000000E+00 -0.00000000000E+00 -0.29550354517E+03  0.29550354517E+03  0.00000000000E+00 0. -1.
         23    2    1    2    0    0 -0.16510856653E+03 -0.12456405785E+03  0.59901569635E+03  0.63983837720E+03  0.88296665885E+02 0.  0.
         11    1    3    3    0    0 -0.98180210173E+02 -0.96246047931E+02  0.48920832730E+03  0.50816084354E+03  0.00000000000E+00 0. -1.
        -11    1    3    3    0    0 -0.66928356357E+02 -0.28318009920E+02  0.10980736906E+03  0.13167753365E+03  0.00000000000E+00 0.  1.
         22    1    1    2    0    0  0.16510856653E+03  0.12456405785E+03 -0.23621701807E+03  0.31396739142E+03  0.00000000000E+00 0. -1.
<mgrwt>
<rscale>  0 0.88211256E+03</rscale>
<asrwt>0</asrwt>
<pdfrwt beam="1">  1        2 0.10127726E+00 0.88211256E+03</pdfrwt>
<pdfrwt beam="2">  1       -2 0.45462084E-01 0.88211256E+03</pdfrwt>
<totfact> 0.20381769E+02</totfact>
</mgrwt>
</event>
<event>
 6    1  0.3017327E-006  0.8975918E+03  0.7818608E-02  0.9428597E-01
          2   -1    0    0  501    0  0.00000000000E+00  0.00000000000E+00  0.73203470698E+03  0.73203470698E+03  0.00000000000E+00 0. -1.
         -2   -1    0    0    0  501 -0.00000000000E+00 -0.00000000000E+00 -0.27514780533E+03  0.27514780533E+03  0.00000000000E+00 0.  1.
         23    2    1    2    0    0 -0.15089252405E+03 -0.38303531290E+03  0.43614397357E+02  0.42384833060E+03  0.90887771209E+02 0.  0.
         11    1    3    3    0    0 -0.80432988027E+02 -0.19389686843E+03 -0.23305242010E+02  0.21120747017E+03  0.00000000000E+00 0.  1.
        -11    1    3    3    0    0 -0.70459536026E+02 -0.18913844446E+03  0.66919639367E+02  0.21264086043E+03  0.00000000000E+00 0. -1.
         22    1    1    2    0    0  0.15089252405E+03  0.38303531290E+03  0.41327250429E+03  0.58333418171E+03  0.00000000000E+00 0.  1.
<mgrwt>
<rscale>  0 0.89759176E+03</rscale>
<asrwt>0</asrwt>
<pdfrwt beam="1">  1        2 0.11262072E+00 0.89759176E+03</pdfrwt>
<pdfrwt beam="2">  1       -2 0.42330432E-01 0.89759176E+03</pdfrwt>
<totfact> 0.20523375E+02</totfact>
</mgrwt>
</event>
<event>
 6    1  0.3017327E-006  0.1446672E+04  0.7818608E-02  0.8920711E-01
         -2   -1    0    0    0  501 -0.00000000000E+00  0.00000000000E+00  0.10820535558E+03  0.10820535558E+03  0.00000000000E+00 0.  1.
          2   -1    0    0  501    0  0.00000000000E+00 -0.00000000000E+00 -0.48353903513E+04  0.48353903513E+04  0.00000000000E+00 0. -1.
         23    2    1    2    0    0  0.48723557368E+03  0.36232941234E+03 -0.36993195070E+04  0.37497830875E+04  0.85013417140E+02 0.  0.
         13    1    3    3    0    0  0.24069726610E+03  0.21685506072E+03 -0.17818144791E+04  0.18110284728E+04  0.00000000000E+00 0. -1.
        -13    1    3    3    0    0  0.24653830758E+03  0.14547435162E+03 -0.19175050279E+04  0.19387546147E+04  0.00000000000E+00 0.  1.
         22    1    1    2    0    0 -0.48723557368E+03 -0.36232941234E+03 -0.10278654888E+04  0.11938126194E+04  0.00000000000E+00 0.  1.
<mgrwt>
<rscale>  0 0.14466722E+04</rscale>
<asrwt>0</asrwt>
<pdfrwt beam="1">  1        2 0.74390602E+00 0.14466722E+04</pdfrwt>
<pdfrwt beam="2">  1       -2 0.16646982E-01 0.14466722E+04</pdfrwt>
<totfact> 0.16256730E+00</totfact>
</mgrwt>
</event>
<event>
 6    1  0.5885231E-006  0.2756510E+04  0.7818608E-02  0.8316899E-01
          1   -1    0    0  501    0  0.00000000000E+00  0.00000000000E+00  0.18058413761E+04  0.18058413761E+04  0.00000000000E+00 0. -1.
         -1   -1    0    0    0  501 -0.00000000000E+00 -0.00000000000E+00 -0.10519126212E+04  0.10519126212E+04  0.00000000000E+00 0.  1.
         23    2    1    2    0    0 -0.70471096574E+03 -0.11814311514E+04  0.31800055546E+03  0.14146911069E+04  0.88484258204E+02 0.  0.
         13    1    3    3    0    0 -0.37561835178E+03 -0.59080210406E+03  0.12123449923E+03  0.71051676698E+03  0.00000000000E+00 0.  1.
        -13    1    3    3    0    0 -0.32909261396E+03 -0.59062904734E+03  0.19676605622E+03  0.70417433992E+03  0.00000000000E+00 0. -1.
         22    1    1    2    0    0  0.70471096574E+03  0.11814311514E+04  0.43592819945E+03  0.14430628905E+04  0.00000000000E+00 0.  1.
<mgrwt>
<rscale>  0 0.27565104E+04</rscale>
<asrwt>0</asrwt>
<pdfrwt beam="1">  1        1 0.27782175E+00 0.27565104E+04</pdfrwt>
<pdfrwt beam="2">  1       -1 0.16183271E+00 0.27565104E+04</pdfrwt>
<totfact> 0.99293800E-01</totfact>
</mgrwt>
</event>
<event>
 6    1  0.3017327E-006  0.1194520E+04  0.7818608E-02  0.9117667E-01
          1   -1    0    0  501    0  0.00000000000E+00  0.00000000000E+00  0.11015694881E+04  0.11015694881E+04  0.00000000000E+00 0. -1.
         -1   -1    0    0    0  501 -0.00000000000E+00 -0.00000000000E+00 -0.32382840436E+03  0.32382840436E+03  0.00000000000E+00 0.  1.
         23    2    1    2    0    0 -0.18030353799E+03 -0.16506643379E+03  0.10369384773E+04  0.10691120771E+04  0.89459121541E+02 0.  0.
         13    1    3    3    0    0 -0.70293306308E+02 -0.11655564923E+02  0.30654951246E+03  0.31472147161E+03  0.00000000000E+00 0.  1.
        -13    1    3    3    0    0 -0.11001023169E+03 -0.15341086887E+03  0.73038896481E+03  0.75439060551E+03  0.00000000000E+00 0. -1.
         22    1    1    2    0    0  0.18030353799E+03  0.16506643379E+03 -0.25919739354E+03  0.35628581532E+03  0.00000000000E+00 0.  1.
<mgrwt>
<rscale>  0 0.11945200E+04</rscale>
<asrwt>0</asrwt>
<pdfrwt beam="1">  1        1 0.16947223E+00 0.11945200E+04</pdfrwt>
<pdfrwt beam="2">  1       -1 0.49819755E-01 0.11945200E+04</pdfrwt>
<totfact> 0.50582139E+01</totfact>
</mgrwt>
</event>
<event>
 6    1  0.3017327E-006  0.1861216E+04  0.7818608E-02  0.8674406E-01
          2   -1    0    0  501    0  0.00000000000E+00  0.00000000000E+00  0.17426520335E+04  0.17426520335E+04  0.00000000000E+00 0. -1.
         -2   -1    0    0    0  501 -0.00000000000E+00 -0.00000000000E+00 -0.49696147650E+03  0.49696147650E+03  0.00000000000E+00 0.  1.
         23    2    1    2    0    0 -0.32606375393E+03 -0.18275289979E+03  0.16470386883E+04  0.16911643177E+04  0.87086822996E+02 0.  0.
         11    1    3    3    0    0 -0.16804174135E+03 -0.90336338005E+02  0.64839953398E+03  0.67588507638E+03  0.00000000000E+00 0. -1.
        -11    1    3    3    0    0 -0.15802201258E+03 -0.92416561783E+02  0.99863915430E+03  0.10152792413E+04  0.00000000000E+00 0.  1.
         22    1    1    2    0    0  0.32606375393E+03  0.18275289979E+03 -0.40134813131E+03  0.54844919228E+03  0.00000000000E+00 0.  1.
<mgrwt>
<rscale>  0 0.18612157E+04</rscale>
<asrwt>0</asrwt>
<pdfrwt beam="1">  1        2 0.26810031E+00 0.18612157E+04</pdfrwt>
<pdfrwt beam="2">  1       -2 0.76455613E-01 0.18612157E+04</pdfrwt>
<totfact> 0.13345466E+01</totfact>
</mgrwt>
</event>
<event>
 6    1  0.3017327E-006  0.1490859E+04  0.7818608E-02  0.8890555E-01
          2   -1    0    0  501    0  0.00000000000E+00  0.00000000000E+00  0.16299087199E+04  0.16299087199E+04  0.00000000000E+00 0. -1.
         -2   -1    0    0    0  501 -0.00000000000E+00 -0.00000000000E+00 -0.34091777326E+03  0.34091777326E+03  0.00000000000E+00 0.  1.
         23    2    1    2    0    0  0.52426701291E+03 -0.17210814801E+03 -0.10218597638E+02  0.55929450437E+03  0.90712774398E+02 0.  0.
         11    1    3    3    0    0  0.36592964398E+03 -0.97966897279E+02  0.29633903484E+02  0.37997392745E+03  0.00000000000E+00 0.  1.
        -11    1    3    3    0    0  0.15833736893E+03 -0.74141250733E+02 -0.39852501123E+02  0.17932057692E+03  0.00000000000E+00 0. -1.
         22    1    1    2    0    0 -0.52426701291E+03  0.17210814801E+03  0.12992095443E+04  0.14115319888E+04  0.00000000000E+00 0. -1.
<mgrwt>
<rscale>  0 0.14908586E+04</rscale>
<asrwt>0</asrwt>
<pdfrwt beam="1">  1        2 0.25075518E+00 0.14908586E+04</pdfrwt>
<pdfrwt beam="2">  1       -2 0.52448889E-01 0.14908586E+04</pdfrwt>
<totfact> 0.35584757E+01</totfact>
</mgrwt>
</event>
<event>
 6    1  0.3017327E-006  0.3242497E+04  0.7818608E-02  0.8177683E-01
         -2   -1    0    0    0  501 -0.00000000000E+00  0.00000000000E+00  0.20986376804E+04  0.20986376804E+04  0.00000000000E+00 0.  1.
          2   -1    0    0  501    0  0.00000000000E+00 -0.00000000000E+00 -0.12524534674E+04  0.12524534674E+04  0.00000000000E+00 0. -1.
         23    2    1    2    0    0 -0.12494881884E+04 -0.76657307543E+02 -0.63931318083E+03  0.14084641680E+04  0.89178998348E+02 0.  0.
         13    1    3    3    0    0 -0.88658639808E+03 -0.84706628599E+02 -0.48401810754E+03  0.10136489445E+04  0.00000000000E+00 0. -1.
        -13    1    3    3    0    0 -0.36290179030E+03  0.80493210559E+01 -0.15529507330E+03  0.39481522357E+03  0.00000000000E+00 0.  1.
         22    1    1    2    0    0  0.12494881884E+04  0.76657307543E+02  0.14854973938E+04  0.19426269798E+04  0.00000000000E+00 0.  1.
<mgrwt>
<rscale>  0 0.32424966E+04</rscale>
<asrwt>0</asrwt>
<pdfrwt beam="1">  1        2 0.19268515E+00 0.32424966E+04</pdfrwt>
<pdfrwt beam="2">  1       -2 0.32286733E+00 0.32424966E+04</pdfrwt>
<totfact> 0.33994549E-01</totfact>
</mgrwt>
</event>
<event>
 6    1  0.3017327E-006  0.3864127E+04  0.7818608E-02  0.8032532E-01
          2   -1    0    0  501    0  0.00000000000E+00  0.00000000000E+00  0.51303232615E+04  0.51303232615E+04  0.00000000000E+00 0. -1.
         -2   -1    0    0    0  501 -0.00000000000E+00 -0.00000000000E+00 -0.72760912717E+03  0.72760912717E+03  0.00000000000E+00 0.  1.
         23    2    1    2    0    0  0.28059080530E+03 -0.14618789775E+04  0.33765718494E+03  0.15289013947E+04  0.87782431546E+02 0.  0.
         13    1    3    3    0    0  0.21561650290E+03 -0.12120325995E+04  0.24936585148E+03  0.12560640216E+04  0.00000000000E+00 0. -1.
        -13    1    3    3    0    0  0.64974302404E+02 -0.24984637800E+03  0.88291333463E+02  0.27283737306E+03  0.00000000000E+00 0.  1.
         22    1    1    2    0    0 -0.28059080530E+03  0.14618789775E+04  0.40650569494E+04  0.43290309940E+04  0.00000000000E+00 0. -1.
<mgrwt>
<rscale>  0 0.38641273E+04</rscale>
<asrwt>0</asrwt>
<pdfrwt beam="1">  1        2 0.78928048E+00 0.38641273E+04</pdfrwt>
<pdfrwt beam="2">  1       -2 0.11193987E+00 0.38641273E+04</pdfrwt>
<totfact> 0.11468315E-02</totfact>
</mgrwt>
</event>
<event>
 6    1  0.3017327E-006  0.4139598E+03  0.7818608E-02  0.1039050E+00
          2   -1    0    0  501    0  0.00000000000E+00  0.00000000000E+00  0.82290389778E+03  0.82290389778E+03  0.00000000000E+00 0. -1.
         -2   -1    0    0    0  501 -0.00000000000E+00 -0.00000000000E+00 -0.52060357183E+02  0.52060357183E+02  0.00000000000E+00 0.  1.
         23    2    1    2    0    0  0.84705748546E+02  0.14585675925E+03  0.61946482257E+03  0.64832627419E+03  0.90227675079E+02 0.  0.
         11    1    3    3    0    0 -0.54856434045E+01  0.72296873296E+02  0.18978899955E+03  0.20316691296E+03  0.00000000000E+00 0.  1.
        -11    1    3    3    0    0  0.90191391951E+02  0.73559885956E+02  0.42967582302E+03  0.44515936124E+03  0.00000000000E+00 0. -1.
         22    1    1    2    0    0 -0.84705748546E+02 -0.14585675925E+03  0.15137871803E+03  0.22663798077E+03  0.00000000000E+00 0.  1.
<mgrwt>
<rscale>  0 0.41395976E+03</rscale>
<asrwt>0</asrwt>
<pdfrwt beam="1">  1        2 0.12660059E+00 0.41395976E+03</pdfrwt>
<pdfrwt beam="2">  1       -2 0.80092863E-02 0.41395976E+03</pdfrwt>
<totfact> 0.32439865E+03</totfact>
</mgrwt>
</event>
<event>
 6    1  0.3017327E-006  0.1202803E+04  0.7818608E-02  0.9110406E-01
         -2   -1    0    0    0  501 -0.00000000000E+00  0.00000000000E+00  0.60435465481E+03  0.60435465481E+03  0.00000000000E+00 0.  1.
          2   -1    0    0  501    0  0.00000000000E+00 -0.00000000000E+00 -0.59846292838E+03  0.59846292838E+03  0.00000000000E+00 0. -1.
         23    2    1    2    0    0  0.23415960679E+03 -0.11366446551E+02  0.55304951365E+03  0.60755162441E+03  0.91078505800E+02 0.  0.
         11    1    3    3    0    0  0.47599617359E+02  0.22950120955E+02  0.19890337018E+03  0.20580326114E+03  0.00000000000E+00 0. -1.
        -11    1    3    3    0    0  0.18655998943E+03 -0.34316567507E+02  0.35414614347E+03  0.40174836328E+03  0.00000000000E+00 0.  1.
         22    1    1    2    0    0 -0.23415960679E+03  0.11366446551E+02 -0.54715778722E+03  0.59526595878E+03  0.00000000000E+00 0. -1.
<mgrwt>
<rscale>  0 0.12028032E+04</rscale>
<asrwt>0</asrwt>
<pdfrwt beam="1">  1        2 0.92071219E-01 0.12028032E+04</pdfrwt>
<pdfrwt beam="2">  1       -2 0.92977640E-01 0.12028032E+04</pdfrwt>
<totfact> 0.48118848E+01</totfact>
</mgrwt>
</event>
<event>
 6    1  0.3017327E-006  0.4470853E+04  0.7818608E-02  0.7915760E-01
          2   -1    0    0  501    0  0.00000000000E+00  0.00000000000E+00  0.13600235303E+04  0.13600235303E+04  0.00000000000E+00 0. -1.
         -2   -1    0    0    0  501 -0.00000000000E+00 -0.00000000000E+00 -0.36742973176E+04  0.36742973176E+04  0.00000000000E+00 0.  1.
         23    2    1    2    0    0 -0.32006654817E+03  0.14948495300E+04 -0.29926821078E+04  0.33618210536E+04  0.93149800167E+02 0.  0.
         13    1    3    3    0    0 -0.16191803493E+03  0.72516633156E+03 -0.13534691103E+04  0.15440085139E+04  0.00000000000E+00 0. -1.
        -13    1    3    3    0    0 -0.15814851324E+03  0.76968319847E+03 -0.16392129975E+04  0.18178125397E+04  0.00000000000E+00 0.  1.
         22    1    1    2    0    0  0.32006654817E+03 -0.14948495300E+04  0.67840832050E+03  0.16724997943E+04  0.00000000000E+00 0. -1.
<mgrwt>
<rscale>  0 0.44708526E+04</rscale>
<asrwt>0</asrwt>
<pdfrwt beam="1">  1        2 0.20923439E+00 0.44708526E+04</pdfrwt>
<pdfrwt beam="2">  1       -2 0.56527651E+00 0.44708526E+04</pdfrwt>
<totfact> 0.83545580E-03</totfact>
</mgrwt>
</event>
<event>
 6    1  0.3017327E-006  0.2131955E+04  0.7818608E-02  0.8547296E-01
          2   -1    0    0  501    0  0.00000000000E+00  0.00000000000E+00  0.26444625838E+03  0.26444625838E+03  0.00000000000E+00 0.  1.
         -2   -1    0    0    0  501 -0.00000000000E+00 -0.00000000000E+00 -0.42969348409E+04  0.42969348409E+04  0.00000000000E+00 0. -1.
         23    2    1    2    0    0 -0.94622218204E+03  0.10388578406E+03 -0.30371673999E+04  0.31841400418E+04  0.90737626106E+02 0.  0.
         11    1    3    3    0    0 -0.60211237163E+03  0.10958657264E+03 -0.19265148453E+04  0.20213876358E+04  0.00000000000E+00 0.  1.
        -11    1    3    3    0    0 -0.34410981041E+03 -0.57007885755E+01 -0.11106525546E+04  0.11627524060E+04  0.00000000000E+00 0. -1.
         22    1    1    2    0    0  0.94622218204E+03 -0.10388578406E+03 -0.99532118266E+03  0.13772410575E+04  0.00000000000E+00 0.  1.
<mgrwt>
<rscale>  0 0.21319553E+04</rscale>
<asrwt>0</asrwt>
<pdfrwt beam="1">  1        2 0.40684041E-01 0.21319553E+04</pdfrwt>
<pdfrwt beam="2">  1       -2 0.66106688E+00 0.21319553E+04</pdfrwt>
<totfact> 0.35256919E-02</totfact>
</mgrwt>
</event>
<event>
 6    1  0.3017327E-006  0.2319686E+04  0.7818608E-02  0.8470199E-01
         -2   -1    0    0    0  501 -0.00000000000E+00  0.00000000000E+00  0.38008097818E+03  0.38008097818E+03  0.00000000000E+00 0.  1.
          2   -1    0    0  501    0  0.00000000000E+00 -0.00000000000E+00 -0.35393399800E+04  0.35393399800E+04  0.00000000000E+00 0. -1.
         23    2    1    2    0    0 -0.19301835636E+03 -0.38760776657E+03 -0.33968503965E+04  0.34255125280E+04  0.89708397812E+02 0.  0.
         13    1    3    3    0    0 -0.10567034066E+03 -0.25370478510E+03 -0.18292107867E+04  0.18497417228E+04  0.00000000000E+00 0.  1.
        -13    1    3    3    0    0 -0.87348015696E+02 -0.13390298147E+03 -0.15676396098E+04  0.15757708052E+04  0.00000000000E+00 0. -1.
         22    1    1    2    0    0  0.19301835636E+03  0.38760776657E+03  0.23759139467E+03  0.49390843019E+03  0.00000000000E+00 0.  1.
<mgrwt>
<rscale>  0 0.23196860E+04</rscale>
<asrwt>0</asrwt>
<pdfrwt beam="1">  1        2 0.54451382E+00 0.23196860E+04</pdfrwt>
<pdfrwt beam="2">  1       -2 0.58473999E-01 0.23196860E+04</pdfrwt>
<totfact> 0.18932293E+00</totfact>
</mgrwt>
</event>
<event>
 6    1  0.3017327E-006  0.3463720E+04  0.7818608E-02  0.8122442E-01
         -1   -1    0    0    0  501 -0.00000000000E+00  0.00000000000E+00  0.14192082152E+04  0.14192082152E+04  0.00000000000E+00 0.  1.
          1   -1    0    0  501    0  0.00000000000E+00 -0.00000000000E+00 -0.21133893509E+04  0.21133893509E+04  0.00000000000E+00 0. -1.
         23    2    1    2    0    0  0.11646218312E+04  0.51292684158E+03  0.84890465810E+03  0.15324596405E+04  0.91408296797E+02 0.  0.
         13    1    3    3    0    0  0.23124251361E+03  0.82533222536E+02  0.12690625611E+03  0.27638746492E+03  0.00000000000E+00 0. -1.
        -13    1    3    3    0    0  0.93337931755E+03  0.43039361904E+03  0.72199840199E+03  0.12560721756E+04  0.00000000000E+00 0.  1.
         22    1    1    2    0    0 -0.11646218312E+04 -0.51292684158E+03 -0.15430857939E+04  0.20001379257E+04  0.00000000000E+00 0. -1.
<mgrwt>
<rscale>  0 0.34637203E+04</rscale>
<asrwt>0</asrwt>
<pdfrwt beam="1">  1        1 0.32513682E+00 0.34637203E+04</pdfrwt>
<pdfrwt beam="2">  1       -1 0.21833973E+00 0.34637203E+04</pdfrwt>
<totfact> 0.23059800E-01</totfact>
</mgrwt>
</event>
<event>
 6    1  0.3017327E-006  0.2175734E+04  0.7818608E-02  0.8528596E-01
          1   -1    0    0  501    0  0.00000000000E+00  0.00000000000E+00  0.62508694939E+03  0.62508694939E+03  0.00000000000E+00 0. -1.
         -1   -1    0    0    0  501 -0.00000000000E+00 -0.00000000000E+00 -0.18932644926E+04  0.18932644926E+04  0.00000000000E+00 0.  1.
         23    2    1    2    0    0 -0.85368143317E+03 -0.63654380171E+03 -0.88221336784E+03  0.13856871733E+04  0.88704650421E+02 0.  0.
         13    1    3    3    0    0 -0.57863105743E+03 -0.47107224491E+03 -0.64932464809E+03  0.98911347133E+03  0.00000000000E+00 0. -1.
        -13    1    3    3    0    0 -0.27505037575E+03 -0.16547155681E+03 -0.23288871975E+03  0.39657370197E+03  0.00000000000E+00 0.  1.
         22    1    1    2    0    0  0.85368143317E+03  0.63654380171E+03 -0.38596417533E+03  0.11326642687E+04  0.00000000000E+00 0. -1.
<mgrwt>
<rscale>  0 0.21757343E+04</rscale>
<asrwt>0</asrwt>
<pdfrwt beam="1">  1        1 0.96167225E-01 0.21757343E+04</pdfrwt>
<pdfrwt beam="2">  1       -1 0.29127145E+00 0.21757343E+04</pdfrwt>
<totfact> 0.11092948E+00</totfact>
</mgrwt>
</event>
<event>
 6    1  0.3017327E-006  0.6183933E+03  0.7818608E-02  0.9867964E-01
          2   -1    0    0  501    0  0.00000000000E+00  0.00000000000E+00  0.11577797139E+04  0.11577797139E+04  0.00000000000E+00 0.  1.
         -2   -1    0    0    0  501 -0.00000000000E+00 -0.00000000000E+00 -0.82574069712E+02  0.82574069712E+02  0.00000000000E+00 0. -1.
         23    2    1    2    0    0  0.10388595131E+03  0.28259084305E+03  0.61517975372E+03  0.69055955359E+03  0.88184421622E+02 0.  0.
         11    1    3    3    0    0 -0.26966910391E+01  0.39542223957E+02  0.36305969420E+02  0.53749260772E+02  0.00000000000E+00 0.  1.
        -11    1    3    3    0    0  0.10658264235E+03  0.24304861909E+03  0.57887378430E+03  0.63681029282E+03  0.00000000000E+00 0. -1.
         22    1    1    2    0    0 -0.10388595131E+03 -0.28259084305E+03  0.46002589043E+03  0.54979422998E+03  0.00000000000E+00 0.  1.
<mgrwt>
<rscale>  0 0.61839335E+03</rscale>
<asrwt>0</asrwt>
<pdfrwt beam="1">  1        2 0.17811994E+00 0.61839335E+03</pdfrwt>
<pdfrwt beam="2">  1       -2 0.12703704E-01 0.61839335E+03</pdfrwt>
<totfact> 0.93981519E+02</totfact>
</mgrwt>
</event>
<event>
 6    1  0.3017327E-006  0.1341913E+04  0.7818608E-02  0.8996973E-01
          2   -1    0    0  501    0  0.00000000000E+00  0.00000000000E+00  0.29633097053E+04  0.29633097053E+04  0.00000000000E+00 0. -1.
         -2   -1    0    0    0  501 -0.00000000000E+00 -0.00000000000E+00 -0.15191882659E+03  0.15191882659E+03  0.00000000000E+00 0.  1.
         23    2    1    2    0    0  0.46051112551E+03  0.23274784893E+03  0.42777561778E+03  0.67640427212E+03  0.91042310363E+02 0.  0.
         13    1    3    3    0    0  0.14993467750E+03  0.11425203641E+03  0.19045339931E+03  0.26796722309E+03  0.00000000000E+00 0. -1.
        -13    1    3    3    0    0  0.31057644801E+03  0.11849581252E+03  0.23732221847E+03  0.40843704903E+03  0.00000000000E+00 0.  1.
         22    1    1    2    0    0 -0.46051112551E+03 -0.23274784893E+03  0.23836152609E+04  0.24388242598E+04  0.00000000000E+00 0. -1.
<mgrwt>
<rscale>  0 0.13419129E+04</rscale>
<asrwt>0</asrwt>
<pdfrwt beam="1">  1        2 0.45589376E+00 0.13419129E+04</pdfrwt>
<pdfrwt beam="2">  1       -2 0.23372129E-01 0.13419129E+04</pdfrwt>
<totfact> 0.29354218E+01</totfact>
</mgrwt>
</event>
<event>
 6    1  0.3017327E-006  0.1938916E+04  0.7818608E-02  0.8635724E-01
          2   -1    0    0  501    0  0.00000000000E+00  0.00000000000E+00  0.12701699995E+04  0.12701699995E+04  0.00000000000E+00 0. -1.
         -2   -1    0    0    0  501 -0.00000000000E+00 -0.00000000000E+00 -0.73993938826E+03  0.73993938826E+03  0.00000000000E+00 0.  1.
         23    2    1    2    0    0 -0.64588480083E+03 -0.16607718557E+02 -0.48089559082E+03  0.81018472815E+03  0.87725322442E+02 0.  0.
         11    1    3    3    0    0 -0.17806814735E+03 -0.12424034598E+02 -0.18253683999E+03  0.25530828363E+03  0.00000000000E+00 0. -1.
        -11    1    3    3    0    0 -0.46781665348E+03 -0.41836839594E+01 -0.29835875082E+03  0.55487644452E+03  0.00000000000E+00 0.  1.
         22    1    1    2    0    0  0.64588480083E+03  0.16607718557E+02  0.10111262021E+04  0.11999246596E+04  0.00000000000E+00 0. -1.
<mgrwt>
<rscale>  0 0.19389160E+04</rscale>
<asrwt>0</asrwt>
<pdfrwt beam="1">  1        2 0.19541077E+00 0.19389160E+04</pdfrwt>
<pdfrwt beam="2">  1       -2 0.11383683E+00 0.19389160E+04</pdfrwt>
<totfact> 0.97144561E+00</totfact>
</mgrwt>
</event>
<event>
 6    1  0.3017327E-006  0.8681763E+03  0.7818608E-02  0.9466261E-01
         -2   -1    0    0    0  501 -0.00000000000E+00  0.00000000000E+00  0.49825582554E+02  0.49825582554E+02  0.00000000000E+00 0. -1.
          2   -1    0    0  501    0  0.00000000000E+00 -0.00000000000E+00 -0.37818425207E+04  0.37818425207E+04  0.00000000000E+00 0.  1.
         23    2    1    2    0    0  0.93390711929E+02  0.11695052611E+03 -0.36623515123E+04  0.36665847237E+04  0.92874572803E+02 0.  0.
         11    1    3    3    0    0  0.88362751318E+02  0.41442223234E+02 -0.17286236322E+04  0.17313766475E+04  0.00000000000E+00 0.  1.
        -11    1    3    3    0    0  0.50279606117E+01  0.75508302876E+02 -0.19337278801E+04  0.19352080763E+04  0.00000000000E+00 0. -1.
         22    1    1    2    0    0 -0.93390711929E+02 -0.11695052611E+03 -0.69665425882E+02  0.16508337952E+03  0.00000000000E+00 0. -1.
<mgrwt>
<rscale>  0 0.86817626E+03</rscale>
<asrwt>0</asrwt>
<pdfrwt beam="1">  1        2 0.58182193E+00 0.86817626E+03</pdfrwt>
<pdfrwt beam="2">  1       -2 0.76654742E-02 0.86817626E+03</pdfrwt>
<totfact> 0.57198817E+01</totfact>
</mgrwt>
</event>
<event>
 6    1  0.3017327E-006  0.1598509E+04  0.7818608E-02  0.8821465E-01
          2   -1    0    0  501    0  0.00000000000E+00  0.00000000000E+00  0.18839000061E+04  0.18839000061E+04  0.00000000000E+00 0. -1.
         -2   -1    0    0    0  501 -0.00000000000E+00 -0.00000000000E+00 -0.33908779896E+03  0.33908779896E+03  0.00000000000E+00 0.  1.
         23    2    1    2    0    0  0.45067407749E+03 -0.11777925494E+03 -0.12394568403E+03  0.49043709113E+03  0.90481659720E+02 0.  0.
         11    1    3    3    0    0  0.39317185468E+03 -0.92527617543E+02 -0.13657374585E+03  0.42637759718E+03  0.00000000000E+00 0. -1.
        -11    1    3    3    0    0  0.57502222808E+02 -0.25251637396E+02  0.12628061819E+02  0.64059493944E+02  0.00000000000E+00 0.  1.
         22    1    1    2    0    0 -0.45067407749E+03  0.11777925494E+03  0.16687578911E+04  0.17325507139E+04  0.00000000000E+00 0. -1.
<mgrwt>
<rscale>  0 0.15985087E+04</rscale>
<asrwt>0</asrwt>
<pdfrwt beam="1">  1        2 0.28983076E+00 0.15985087E+04</pdfrwt>
<pdfrwt beam="2">  1       -2 0.52167355E-01 0.15985087E+04</pdfrwt>
<totfact> 0.25786965E+01</totfact>
</mgrwt>
</event>
<event>
 6    1  0.3017327E-006  0.1823646E+04  0.7818608E-02  0.8693825E-01
         -2   -1    0    0    0  501 -0.00000000000E+00  0.00000000000E+00  0.77938648011E+03  0.77938648011E+03  0.00000000000E+00 0.  1.
          2   -1    0    0  501    0  0.00000000000E+00 -0.00000000000E+00 -0.10667641267E+04  0.10667641267E+04  0.00000000000E+00 0. -1.
         23    2    1    2    0    0  0.53101489804E+02  0.87407204443E+03 -0.39350763057E+03  0.96405918262E+03  0.87978095052E+02 0.  0.
         13    1    3    3    0    0  0.18508715628E+02  0.56155997818E+03 -0.29480870352E+03  0.63451111363E+03  0.00000000000E+00 0. -1.
        -13    1    3    3    0    0  0.34592774176E+02  0.31251206625E+03 -0.98698927055E+02  0.32954806900E+03  0.00000000000E+00 0.  1.
         22    1    1    2    0    0 -0.53101489804E+02 -0.87407204443E+03  0.10612998401E+03  0.88209142416E+03  0.00000000000E+00 0.  1.
<mgrwt>
<rscale>  0 0.18236464E+04</rscale>
<asrwt>0</asrwt>
<pdfrwt beam="1">  1        2 0.16411756E+00 0.18236464E+04</pdfrwt>
<pdfrwt beam="2">  1       -2 0.11990561E+00 0.18236464E+04</pdfrwt>
<totfact> 0.11455727E+01</totfact>
</mgrwt>
</event>
<event>
 6    1  0.3017327E-006  0.2638839E+04  0.7818608E-02  0.8355127E-01
          2   -1    0    0  501    0  0.00000000000E+00  0.00000000000E+00  0.21321916826E+04  0.21321916826E+04  0.00000000000E+00 0. -1.
         -2   -1    0    0    0  501 -0.00000000000E+00 -0.00000000000E+00 -0.81646878708E+03  0.81646878708E+03  0.00000000000E+00 0.  1.
         23    2    1    2    0    0 -0.41913581393E+03 -0.18249363703E+03 -0.72253237812E+03  0.85977001812E+03  0.90402923318E+02 0.  0.
         11    1    3    3    0    0 -0.36901714011E+03 -0.13913256630E+03 -0.56659676701E+03  0.69033572780E+03  0.00000000000E+00 0. -1.
        -11    1    3    3    0    0 -0.50118673820E+02 -0.43361070728E+02 -0.15593561111E+03  0.16943429031E+03  0.00000000000E+00 0.  1.
         22    1    1    2    0    0  0.41913581393E+03  0.18249363703E+03  0.20382552736E+04  0.20888904515E+04  0.00000000000E+00 0. -1.
<mgrwt>
<rscale>  0 0.26388391E+04</rscale>
<asrwt>0</asrwt>
<pdfrwt beam="1">  1        2 0.32802949E+00 0.26388391E+04</pdfrwt>
<pdfrwt beam="2">  1       -2 0.12561058E+00 0.26388391E+04</pdfrwt>
<totfact> 0.23540743E+00</totfact>
</mgrwt>
</event>
<event>
 6    1  0.3017327E-006  0.2840055E+04  0.7818608E-02  0.8290940E-01
          2   -1    0    0  501    0  0.00000000000E+00  0.00000000000E+00  0.18532659470E+04  0.18532659470E+04  0.00000000000E+00 0. -1.
         -2   -1    0    0    0  501 -0.00000000000E+00 -0.00000000000E+00 -0.10880673075E+04  0.10880673075E+04  0.00000000000E+00 0.  1.
         23    2    1    2    0    0  0.10417827334E+04 -0.82710361508E+03 -0.12727509467E+03  0.13394840044E+04  0.92772811636E+02 0.  0.
         13    1    3    3    0    0  0.81328218238E+03 -0.61782857911E+03 -0.13027354219E+03  0.10296170439E+04  0.00000000000E+00 0.  1.
        -13    1    3    3    0    0  0.22850055106E+03 -0.20927503598E+03  0.29984475163E+01  0.30986696049E+03  0.00000000000E+00 0. -1.
         22    1    1    2    0    0 -0.10417827334E+04  0.82710361508E+03  0.89247373417E+03  0.16018492501E+04  0.00000000000E+00 0.  1.
<mgrwt>
<rscale>  0 0.28400550E+04</rscale>
<asrwt>0</asrwt>
<pdfrwt beam="1">  1        2 0.28511784E+00 0.28400550E+04</pdfrwt>
<pdfrwt beam="2">  1       -2 0.16739497E+00 0.28400550E+04</pdfrwt>
<totfact> 0.15556127E+00</totfact>
</mgrwt>
</event>
<event>
 6    1  0.3017327E-006  0.2957478E+04  0.7818608E-02  0.8255979E-01
         -2   -1    0    0    0  501 -0.00000000000E+00  0.00000000000E+00  0.13246264958E+04  0.13246264958E+04  0.00000000000E+00 0.  1.
          2   -1    0    0  501    0  0.00000000000E+00 -0.00000000000E+00 -0.16507817347E+04  0.16507817347E+04  0.00000000000E+00 0. -1.
         23    2    1    2    0    0  0.68088033317E+02  0.10230518892E+04 -0.12331774658E+04  0.16064814726E+04  0.93727856668E+02 0.  0.
         11    1    3    3    0    0  0.48390141501E+02  0.22368566208E+03 -0.30635102968E+03  0.38239748248E+03  0.00000000000E+00 0.  1.
        -11    1    3    3    0    0  0.19697891816E+02  0.79936622713E+03 -0.92682643616E+03  0.12240839901E+04  0.00000000000E+00 0. -1.
         22    1    1    2    0    0 -0.68088033317E+02 -0.10230518892E+04  0.90702222701E+03  0.13689267579E+04  0.00000000000E+00 0.  1.
<mgrwt>
<rscale>  0 0.29574781E+04</rscale>
<asrwt>0</asrwt>
<pdfrwt beam="1">  1        2 0.25396642E+00 0.29574781E+04</pdfrwt>
<pdfrwt beam="2">  1       -2 0.20378869E+00 0.29574781E+04</pdfrwt>
<totfact> 0.11273699E+00</totfact>
</mgrwt>
</event>
<event>
 6    1  0.3017327E-006  0.1930882E+04  0.7818608E-02  0.8639635E-01
          2   -1    0    0  501    0  0.00000000000E+00  0.00000000000E+00  0.29778168599E+04  0.29778168599E+04  0.00000000000E+00 0. -1.
         -2   -1    0    0    0  501 -0.00000000000E+00 -0.00000000000E+00 -0.31300650157E+03  0.31300650157E+03  0.00000000000E+00 0.  1.
         23    2    1    2    0    0  0.77622905690E+03 -0.49947111532E+03  0.86700005404E+03  0.12699015832E+04  0.94646676796E+02 0.  0.
         13    1    3    3    0    0  0.40077348921E+03 -0.20173280129E+03  0.42300731025E+03  0.61664470913E+03  0.00000000000E+00 0. -1.
        -13    1    3    3    0    0  0.37545556769E+03 -0.29773831404E+03  0.44399274379E+03  0.65325687405E+03  0.00000000000E+00 0.  1.
         22    1    1    2    0    0 -0.77622905690E+03  0.49947111532E+03  0.17978103043E+04  0.20209217783E+04  0.00000000000E+00 0. -1.
<mgrwt>
<rscale>  0 0.19308817E+04</rscale>
<asrwt>0</asrwt>
<pdfrwt beam="1">  1        2 0.45812565E+00 0.19308817E+04</pdfrwt>
<pdfrwt beam="2">  1       -2 0.48154848E-01 0.19308817E+04</pdfrwt>
<totfact> 0.68801323E+00</totfact>
</mgrwt>
</event>
<event>
 6    1  0.3017327E-006  0.2767972E+04  0.7818608E-02  0.8313281E-01
          2   -1    0    0  501    0  0.00000000000E+00  0.00000000000E+00  0.23073930825E+04  0.23073930825E+04  0.00000000000E+00 0. -1.
         -2   -1    0    0    0  501 -0.00000000000E+00 -0.00000000000E+00 -0.83012182499E+03  0.83012182499E+03  0.00000000000E+00 0.  1.
         23    2    1    2    0    0 -0.12170348949E+04  0.64395709052E+03  0.59895310161E+03  0.15043286190E+04  0.91679366333E+02 0.  0.
         11    1    3    3    0    0 -0.75648812545E+03  0.36319275263E+03  0.39767048929E+03  0.92861460120E+03  0.00000000000E+00 0. -1.
        -11    1    3    3    0    0 -0.46054676948E+03  0.28076433789E+03  0.20128261232E+03  0.57571401784E+03  0.00000000000E+00 0.  1.
         22    1    1    2    0    0  0.12170348949E+04 -0.64395709052E+03  0.87831815594E+03  0.16331862885E+04  0.00000000000E+00 0. -1.
<mgrwt>
<rscale>  0 0.27679721E+04</rscale>
<asrwt>0</asrwt>
<pdfrwt beam="1">  1        2 0.35498355E+00 0.27679721E+04</pdfrwt>
<pdfrwt beam="2">  1       -2 0.12771105E+00 0.27679721E+04</pdfrwt>
<totfact> 0.17792251E+00</totfact>
</mgrwt>
</event>
<event>
 6    1  0.3017327E-006  0.6187879E+04  0.7818608E-02  0.7667534E-01
          2   -1    0    0  501    0  0.00000000000E+00  0.00000000000E+00  0.39746312987E+04  0.39746312987E+04  0.00000000000E+00 0. -1.
         -2   -1    0    0    0  501 -0.00000000000E+00 -0.00000000000E+00 -0.24083896300E+04  0.24083896300E+04  0.00000000000E+00 0.  1.
         23    2    1    2    0    0  0.23090875582E+04 -0.20435491679E+04  0.10366391107E+04  0.32543698739E+04  0.91236378593E+02 0.  0.
         13    1    3    3    0    0  0.57874493932E+03 -0.46461465031E+03  0.26617841464E+03  0.78845635675E+03  0.00000000000E+00 0.  1.
        -13    1    3    3    0    0  0.17303426189E+04 -0.15789345176E+04  0.77046069602E+03  0.24659135171E+04  0.00000000000E+00 0. -1.
         22    1    1    2    0    0 -0.23090875582E+04  0.20435491679E+04  0.52960255796E+03  0.31286510548E+04  0.00000000000E+00 0. -1.
<mgrwt>
<rscale>  0 0.61878787E+04</rscale>
<asrwt>0</asrwt>
<pdfrwt beam="1">  1        2 0.61148174E+00 0.61878787E+04</pdfrwt>
<pdfrwt beam="2">  1       -2 0.37052148E+00 0.61878787E+04</pdfrwt>
<totfact> 0.27279330E-03</totfact>
</mgrwt>
</event>
<event>
 6    1  0.3017327E-006  0.7532660E+03  0.7818608E-02  0.9630240E-01
          2   -1    0    0  501    0  0.00000000000E+00  0.00000000000E+00  0.11076610136E+04  0.11076610136E+04  0.00000000000E+00 0. -1.
         -2   -1    0    0    0  501 -0.00000000000E+00 -0.00000000000E+00 -0.12806483045E+03  0.12806483045E+03  0.00000000000E+00 0.  1.
         23    2    1    2    0    0 -0.21964228923E+03  0.71650239914E+02  0.20140028827E+02  0.24884560603E+03  0.90233157891E+02 0.  0.
         13    1    3    3    0    0 -0.16537950931E+03  0.85200677232E+02 -0.80567731888E+01  0.18621076525E+03  0.00000000000E+00 0. -1.
        -13    1    3    3    0    0 -0.54262779920E+02 -0.13550437318E+02  0.28196802016E+02  0.62634840784E+02  0.00000000000E+00 0.  1.
         22    1    1    2    0    0  0.21964228923E+03 -0.71650239914E+02  0.95945615433E+03  0.98688023801E+03  0.00000000000E+00 0. -1.
<mgrwt>
<rscale>  0 0.75326601E+03</rscale>
<asrwt>0</asrwt>
<pdfrwt beam="1">  1        2 0.17040938E+00 0.75326601E+03</pdfrwt>
<pdfrwt beam="2">  1       -2 0.19702282E-01 0.75326601E+03</pdfrwt>
<totfact> 0.47531792E+02</totfact>
</mgrwt>
</event>
<event>
 6    1  0.3017327E-006  0.2418991E+04  0.7818608E-02  0.8432428E-01
          2   -1    0    0  501    0  0.00000000000E+00  0.00000000000E+00  0.84315925138E+03  0.84315925138E+03  0.00000000000E+00 0. -1.
         -2   -1    0    0    0  501 -0.00000000000E+00 -0.00000000000E+00 -0.17349970601E+04  0.17349970601E+04  0.00000000000E+00 0.  1.
         23    2    1    2    0    0 -0.26942706766E+03 -0.36874922509E+03 -0.16382316191E+04  0.17031302227E+04  0.91009791330E+02 0.  0.
         11    1    3    3    0    0 -0.17604837826E+03 -0.29504535395E+03 -0.11251668207E+04  0.11764544899E+04  0.00000000000E+00 0. -1.
        -11    1    3    3    0    0 -0.93378689396E+02 -0.73703871142E+02 -0.51306479833E+03  0.52667573282E+03  0.00000000000E+00 0.  1.
         22    1    1    2    0    0  0.26942706766E+03  0.36874922509E+03  0.74639381036E+03  0.87502608872E+03  0.00000000000E+00 0. -1.
<mgrwt>
<rscale>  0 0.24189906E+04</rscale>
<asrwt>0</asrwt>
<pdfrwt beam="1">  1        2 0.12971681E+00 0.24189906E+04</pdfrwt>
<pdfrwt beam="2">  1       -2 0.26692262E+00 0.24189906E+04</pdfrwt>
<totfact> 0.14581648E+00</totfact>
</mgrwt>
</event>
<event>
 6    1  0.3017327E-006  0.3063330E+04  0.7818608E-02  0.8225874E-01
          2   -1    0    0  501    0  0.00000000000E+00  0.00000000000E+00  0.29335671437E+04  0.29335671437E+04  0.00000000000E+00 0. -1.
         -2   -1    0    0    0  501 -0.00000000000E+00 -0.00000000000E+00 -0.79970831919E+03  0.79970831919E+03  0.00000000000E+00 0.  1.
         23    2    1    2    0    0  0.98913841300E+03  0.79689660004E+02 -0.35170073461E+03  0.10569437264E+04  0.93227635340E+02 0.  0.
         11    1    3    3    0    0  0.89912108464E+03  0.66971768558E+02 -0.29012215677E+03  0.94714033199E+03  0.00000000000E+00 0.  1.
        -11    1    3    3    0    0  0.90017328356E+02  0.12717891446E+02 -0.61578577837E+02  0.10980339437E+03  0.00000000000E+00 0. -1.
         22    1    1    2    0    0 -0.98913841300E+03 -0.79689660004E+02  0.24855595591E+04  0.26763317365E+04  0.00000000000E+00 0. -1.
<mgrwt>
<rscale>  0 0.30633302E+04</rscale>
<asrwt>0</asrwt>
<pdfrwt beam="1">  1        2 0.45131802E+00 0.30633302E+04</pdfrwt>
<pdfrwt beam="2">  1       -2 0.12303205E+00 0.30633302E+04</pdfrwt>
<totfact> 0.81335332E-01</totfact>
</mgrwt>
</event>
<event>
 6    1  0.3017327E-006  0.6490379E+04  0.7818608E-02  0.7632406E-01
          2   -1    0    0  501    0  0.00000000000E+00  0.00000000000E+00  0.22771097183E+04  0.22771097183E+04  0.00000000000E+00 0. -1.
         -2   -1    0    0    0  501 -0.00000000000E+00 -0.00000000000E+00 -0.46248338843E+04  0.46248338843E+04  0.00000000000E+00 0.  1.
         23    2    1    2    0    0  0.57999051938E+03 -0.15968736499E+03 -0.45645543474E+04  0.46049400958E+04  0.91803256978E+02 0.  0.
         13    1    3    3    0    0  0.49937169236E+03 -0.16900467143E+03 -0.39158711958E+04  0.39512000567E+04  0.00000000000E+00 0.  1.
        -13    1    3    3    0    0  0.80618827021E+02  0.93173064457E+01 -0.64868315158E+03  0.65374003902E+03  0.00000000000E+00 0. -1.
         22    1    1    2    0    0 -0.57999051938E+03  0.15968736499E+03  0.22168301814E+04  0.22970035068E+04  0.00000000000E+00 0. -1.
<mgrwt>
<rscale>  0 0.64903788E+04</rscale>
<asrwt>0</asrwt>
<pdfrwt beam="1">  1        2 0.35032458E+00 0.64903788E+04</pdfrwt>
<pdfrwt beam="2">  1       -2 0.71151289E+00 0.64903788E+04</pdfrwt>
<totfact> 0.63842190E-04</totfact>
</mgrwt>
</event>
<event>
 6    1  0.4570926E-006  0.3853853E+04  0.7818608E-02  0.8034696E-01
         -2   -1    0    0    0  501 -0.00000000000E+00  0.00000000000E+00  0.19725938595E+04  0.19725938595E+04  0.00000000000E+00 0.  1.
          2   -1    0    0  501    0  0.00000000000E+00 -0.00000000000E+00 -0.18823166220E+04  0.18823166220E+04  0.00000000000E+00 0. -1.
         23    2    1    2    0    0  0.54644704934E+03 -0.14875077821E+04  0.11398587348E+04  0.19541461354E+04  0.90141022029E+02 0.  0.
         13    1    3    3    0    0  0.40488450805E+03 -0.98180818282E+03  0.77342989725E+03  0.13138008139E+04  0.00000000000E+00 0.  1.
        -13    1    3    3    0    0  0.14156254129E+03 -0.50569959929E+03  0.36642883751E+03  0.64034532151E+03  0.00000000000E+00 0. -1.
         22    1    1    2    0    0 -0.54644704934E+03  0.14875077821E+04 -0.10495814973E+04  0.19007643460E+04  0.00000000000E+00 0. -1.
<mgrwt>
<rscale>  0 0.38538532E+04</rscale>
<asrwt>0</asrwt>
<pdfrwt beam="1">  1        2 0.28958717E+00 0.38538532E+04</pdfrwt>
<pdfrwt beam="2">  1       -2 0.30347598E+00 0.38538532E+04</pdfrwt>
<totfact> 0.18763339E-01</totfact>
</mgrwt>
</event>
<event>
 6    1  0.3017327E-006  0.2341306E+04  0.7818608E-02  0.8461810E-01
         -1   -1    0    0    0  501 -0.00000000000E+00  0.00000000000E+00  0.25530455377E+04  0.25530455377E+04  0.00000000000E+00 0.  1.
          1   -1    0    0  501    0  0.00000000000E+00 -0.00000000000E+00 -0.53678188833E+03  0.53678188833E+03  0.00000000000E+00 0. -1.
         23    2    1    2    0    0  0.61574981367E+03 -0.88268232041E+03  0.40792880623E+03  0.11546228168E+04  0.92043611495E+02 0.  0.
         13    1    3    3    0    0  0.41615072361E+03 -0.63650642883E+03  0.32510987162E+03  0.82705398090E+03  0.00000000000E+00 0. -1.
        -13    1    3    3    0    0  0.19959909005E+03 -0.24617589157E+03  0.82818934615E+02  0.32756883593E+03  0.00000000000E+00 0.  1.
         22    1    1    2    0    0 -0.61574981367E+03  0.88268232041E+03  0.16083348431E+04  0.19352046092E+04  0.00000000000E+00 0.  1.
<mgrwt>
<rscale>  0 0.23413061E+04</rscale>
<asrwt>0</asrwt>
<pdfrwt beam="1">  1        1 0.82581831E-01 0.23413061E+04</pdfrwt>
<pdfrwt beam="2">  1       -1 0.39277623E+00 0.23413061E+04</pdfrwt>
<totfact> 0.28991526E-01</totfact>
</mgrwt>
</event>
<event>
 6    1  0.3017327E-006  0.2206427E+04  0.7818608E-02  0.8515758E-01
          2   -1    0    0  501    0  0.00000000000E+00  0.00000000000E+00  0.19389912775E+04  0.19389912775E+04  0.00000000000E+00 0. -1.
         -2   -1    0    0    0  501 -0.00000000000E+00 -0.00000000000E+00 -0.62768695792E+03  0.62768695792E+03  0.00000000000E+00 0.  1.
         23    2    1    2    0    0 -0.67564474167E+03 -0.37433879951E+03  0.15699418577E+04  0.17521116452E+04  0.92479333809E+02 0.  0.
         13    1    3    3    0    0 -0.35221929220E+03 -0.24742856018E+03  0.87927729215E+03  0.97898308396E+03  0.00000000000E+00 0. -1.
        -13    1    3    3    0    0 -0.32342544947E+03 -0.12691023933E+03  0.69066456552E+03  0.77312856128E+03  0.00000000000E+00 0.  1.
         22    1    1    2    0    0  0.67564474167E+03  0.37433879951E+03 -0.25863753807E+03  0.81456659019E+03  0.00000000000E+00 0.  1.
<mgrwt>
<rscale>  0 0.22064266E+04</rscale>
<asrwt>0</asrwt>
<pdfrwt beam="1">  1        2 0.29830635E+00 0.22064266E+04</pdfrwt>
<pdfrwt beam="2">  1       -2 0.96567225E-01 0.22064266E+04</pdfrwt>
<totfact> 0.59191364E+00</totfact>
</mgrwt>
</event>
<event>
 6    1  0.3017327E-006  0.7279939E+03  0.7818608E-02  0.9670521E-01
         -2   -1    0    0    0  501 -0.00000000000E+00  0.00000000000E+00  0.11024257285E+03  0.11024257285E+03  0.00000000000E+00 0.  1.
          2   -1    0    0  501    0  0.00000000000E+00 -0.00000000000E+00 -0.12018386440E+04  0.12018386440E+04  0.00000000000E+00 0. -1.
         23    2    1    2    0    0  0.82498835165E+02  0.33802711357E+03 -0.70857479333E+03  0.79461268006E+03  0.90899319314E+02 0.  0.
         13    1    3    3    0    0  0.68603679203E+02  0.10072905745E+03 -0.23393897621E+03  0.26378068998E+03  0.00000000000E+00 0.  1.
        -13    1    3    3    0    0  0.13895155961E+02  0.23729805612E+03 -0.47463581712E+03  0.53083199008E+03  0.00000000000E+00 0. -1.
         22    1    1    2    0    0 -0.82498835165E+02 -0.33802711357E+03 -0.38302127784E+03  0.51746853682E+03  0.00000000000E+00 0.  1.
<mgrwt>
<rscale>  0 0.72799391E+03</rscale>
<asrwt>0</asrwt>
<pdfrwt beam="1">  1        2 0.18489826E+00 0.72799391E+03</pdfrwt>
<pdfrwt beam="2">  1       -2 0.16960395E-01 0.72799391E+03</pdfrwt>
<totfact> 0.54141891E+02</totfact>
</mgrwt>
</event>
<event>
 6    1  0.3017327E-006  0.3945912E+04  0.7818608E-02  0.8015548E-01
         -2   -1    0    0    0  501 -0.00000000000E+00  0.00000000000E+00  0.15729392497E+04  0.15729392497E+04  0.00000000000E+00 0.  1.
          2   -1    0    0  501    0  0.00000000000E+00 -0.00000000000E+00 -0.24747020185E+04  0.24747020185E+04  0.00000000000E+00 0. -1.
         23    2    1    2    0    0  0.93116106885E+03  0.30379764332E+03 -0.22065804070E+04  0.24161073233E+04  0.96039369994E+02 0.  0.
         13    1    3    3    0    0  0.65906396868E+03  0.21372170940E+03 -0.14491887831E+04  0.16062971123E+04  0.00000000000E+00 0.  1.
        -13    1    3    3    0    0  0.27209710017E+03  0.90075933921E+02 -0.75739162396E+03  0.80981021100E+03  0.00000000000E+00 0. -1.
         22    1    1    2    0    0 -0.93116106885E+03 -0.30379764332E+03  0.13048176382E+04  0.16315339449E+04  0.00000000000E+00 0.  1.
<mgrwt>
<rscale>  0 0.39459123E+04</rscale>
<asrwt>0</asrwt>
<pdfrwt beam="1">  1        2 0.38072339E+00 0.39459123E+04</pdfrwt>
<pdfrwt beam="2">  1       -2 0.24199065E+00 0.39459123E+04</pdfrwt>
<totfact> 0.20541606E-01</totfact>
</mgrwt>
</event>
<event>
 6    1  0.3017327E-006  0.3535072E+04  0.7818608E-02  0.8105528E-01
          2   -1    0    0  501    0  0.00000000000E+00  0.00000000000E+00  0.32519313708E+04  0.32519313708E+04  0.00000000000E+00 0. -1.
         -2   -1    0    0    0  501 -0.00000000000E+00 -0.00000000000E+00 -0.96071642742E+03  0.96071642742E+03  0.00000000000E+00 0.  1.
         23    2    1    2    0    0 -0.16824744172E+03  0.16866118122E+04  0.55398985854E+03  0.17855265400E+04  0.90739488132E+02 0.  0.
         13    1    3    3    0    0 -0.10509090341E+03  0.78486150142E+03  0.29720329981E+03  0.84580226756E+03  0.00000000000E+00 0.  1.
        -13    1    3    3    0    0 -0.63156538308E+02  0.90175031083E+03  0.25678655873E+03  0.93972427241E+03  0.00000000000E+00 0. -1.
         22    1    1    2    0    0  0.16824744172E+03 -0.16866118122E+04  0.17372250849E+04  0.24271212583E+04  0.00000000000E+00 0. -1.
<mgrwt>
<rscale>  0 0.35350722E+04</rscale>
<asrwt>0</asrwt>
<pdfrwt beam="1">  1        2 0.50029713E+00 0.35350722E+04</pdfrwt>
<pdfrwt beam="2">  1       -2 0.14780253E+00 0.35350722E+04</pdfrwt>
<totfact> 0.30568340E-01</totfact>
</mgrwt>
</event>
<event>
 6    1  0.3017327E-006  0.7867322E+03  0.7818608E-02  0.9579423E-01
          2   -1    0    0  501    0  0.00000000000E+00  0.00000000000E+00  0.15686137972E+04  0.15686137972E+04  0.00000000000E+00 0. -1.
         -2   -1    0    0    0  501 -0.00000000000E+00 -0.00000000000E+00 -0.98645630445E+02  0.98645630445E+02  0.00000000000E+00 0.  1.
         23    2    1    2    0    0  0.16204705553E+02  0.25501140932E+03  0.12551146287E+03  0.29873568288E+03  0.90534355641E+02 0.  0.
         13    1    3    3    0    0 -0.32216252932E+02  0.16641289835E+03  0.68810476141E+02  0.18293720594E+03  0.00000000000E+00 0.  1.
        -13    1    3    3    0    0  0.48420958485E+02  0.88598510967E+02  0.56700986729E+02  0.11579847694E+03  0.00000000000E+00 0. -1.
         22    1    1    2    0    0 -0.16204705553E+02 -0.25501140932E+03  0.13444567039E+04  0.13685237448E+04  0.00000000000E+00 0. -1.
<mgrwt>
<rscale>  0 0.78673222E+03</rscale>
<asrwt>0</asrwt>
<pdfrwt beam="1">  1        2 0.24132518E+00 0.78673222E+03</pdfrwt>
<pdfrwt beam="2">  1       -2 0.15176252E-01 0.78673222E+03</pdfrwt>
<totfact> 0.40353711E+02</totfact>
</mgrwt>
</event>
<event>
 6    1  0.3017327E-006  0.2347156E+04  0.7818608E-02  0.8459557E-01
         -2   -1    0    0    0  501 -0.00000000000E+00  0.00000000000E+00  0.71989663832E+03  0.71989663832E+03  0.00000000000E+00 0.  1.
          2   -1    0    0  501    0  0.00000000000E+00 -0.00000000000E+00 -0.19131705361E+04  0.19131705361E+04  0.00000000000E+00 0. -1.
         23    2    1    2    0    0 -0.33960168516E+03  0.97504412546E+03  0.24133851775E+02  0.10367833714E+04  0.91087678740E+02 0.  0.
         11    1    3    3    0    0 -0.21303875077E+03  0.60053277220E+03 -0.29274550168E+02  0.63787312148E+03  0.00000000000E+00 0. -1.
        -11    1    3    3    0    0 -0.12656293439E+03  0.37451135326E+03  0.53408401943E+02  0.39891024991E+03  0.00000000000E+00 0.  1.
         22    1    1    2    0    0  0.33960168516E+03 -0.97504412546E+03 -0.12174077496E+04  0.15962838031E+04  0.00000000000E+00 0. -1.
<mgrwt>
<rscale>  0 0.23471558E+04</rscale>
<asrwt>0</asrwt>
<pdfrwt beam="1">  1        2 0.29433393E+00 0.23471558E+04</pdfrwt>
<pdfrwt beam="2">  1       -2 0.11075333E+00 0.23471558E+04</pdfrwt>
<totfact> 0.43577735E+00</totfact>
</mgrwt>
</event>
<event>
 6    1  0.3017327E-006  0.1669806E+04  0.7818608E-02  0.8778775E-01
         -2   -1    0    0    0  501 -0.00000000000E+00  0.00000000000E+00  0.31073770995E+03  0.31073770995E+03  0.00000000000E+00 0.  1.
          2   -1    0    0  501    0  0.00000000000E+00 -0.00000000000E+00 -0.22432511023E+04  0.22432511023E+04  0.00000000000E+00 0. -1.
         23    2    1    2    0    0 -0.74252171493E+03 -0.17738273302E+03 -0.46900488120E+03  0.90333430772E+03  0.11508328200E+03 0.  0.
         13    1    3    3    0    0 -0.38959349113E+03 -0.15172257476E+03 -0.24725847024E+03  0.48573612088E+03  0.00000000000E+00 0. -1.
        -13    1    3    3    0    0 -0.35292822381E+03 -0.25660158262E+02 -0.22174641095E+03  0.41759818684E+03  0.00000000000E+00 0.  1.
         22    1    1    2    0    0  0.74252171493E+03  0.17738273302E+03 -0.14635085111E+04  0.16506545045E+04  0.00000000000E+00 0. -1.
<mgrwt>
<rscale>  0 0.16698056E+04</rscale>
<asrwt>0</asrwt>
<pdfrwt beam="1">  1        2 0.34511556E+00 0.16698056E+04</pdfrwt>
<pdfrwt beam="2">  1       -2 0.47805801E-01 0.16698056E+04</pdfrwt>
<totfact> 0.19318702E+01</totfact>
</mgrwt>
</event>
<event>
 6    1  0.3017327E-006  0.9995176E+03  0.7818608E-02  0.9309074E-01
          2   -1    0    0  501    0  0.00000000000E+00  0.00000000000E+00  0.30489289842E+04  0.30489289842E+04  0.00000000000E+00 0.  1.
         -2   -1    0    0    0  501 -0.00000000000E+00 -0.00000000000E+00 -0.81916908226E+02  0.81916908226E+02  0.00000000000E+00 0. -1.
         23    2    1    2    0    0 -0.36644839859E+03  0.32708131325E+03  0.17042152822E+04  0.17758837687E+04  0.90259723237E+02 0.  0.
         11    1    3    3    0    0 -0.36859582377E+03  0.30962846400E+03  0.16566111986E+04  0.17251357425E+04  0.00000000000E+00 0. -1.
        -11    1    3    3    0    0  0.21474251794E+01  0.17452849253E+02  0.47604083595E+02  0.50748026137E+02  0.00000000000E+00 0.  1.
         22    1    1    2    0    0  0.36644839859E+03 -0.32708131325E+03  0.12627967938E+04  0.13549621238E+04  0.00000000000E+00 0.  1.
<mgrwt>
<rscale>  0 0.99951756E+03</rscale>
<asrwt>0</asrwt>
<pdfrwt beam="1">  1        2 0.46906591E+00 0.99951756E+03</pdfrwt>
<pdfrwt beam="2">  1       -2 0.12602604E-01 0.99951756E+03</pdfrwt>
<totfact> 0.78141727E+01</totfact>
</mgrwt>
</event>
<event>
 6    1  0.3017327E-006  0.1414311E+04  0.7818608E-02  0.8943524E-01
          2   -1    0    0  501    0  0.00000000000E+00  0.00000000000E+00  0.10882455448E+04  0.10882455448E+04  0.00000000000E+00 0. -1.
         -2   -1    0    0    0  501 -0.00000000000E+00 -0.00000000000E+00 -0.45951841938E+03  0.45951841938E+03  0.00000000000E+00 0.  1.
         23    2    1    2    0    0  0.43338698738E+03 -0.51799523486E+03  0.97578696770E+02  0.68854222479E+03  0.91790245095E+02 0.  0.
         13    1    3    3    0    0  0.31576309962E+03 -0.39217469823E+03  0.11166306207E+03  0.51572858021E+03  0.00000000000E+00 0. -1.
        -13    1    3    3    0    0  0.11762388776E+03 -0.12582053662E+03 -0.14084365296E+02  0.17281364458E+03  0.00000000000E+00 0.  1.
         22    1    1    2    0    0 -0.43338698738E+03  0.51799523486E+03  0.53114842861E+03  0.85922173936E+03  0.00000000000E+00 0. -1.
<mgrwt>
<rscale>  0 0.14143110E+04</rscale>
<asrwt>0</asrwt>
<pdfrwt beam="1">  1        2 0.16742239E+00 0.14143110E+04</pdfrwt>
<pdfrwt beam="2">  1       -2 0.70695142E-01 0.14143110E+04</pdfrwt>
<totfact> 0.39192483E+01</totfact>
</mgrwt>
</event>
<event>
 6    1  0.3017327E-006  0.2159462E+04  0.7818608E-02  0.8535493E-01
          2   -1    0    0  501    0  0.00000000000E+00  0.00000000000E+00  0.81154274483E+03  0.81154274483E+03  0.00000000000E+00 0. -1.
         -2   -1    0    0    0  501 -0.00000000000E+00 -0.00000000000E+00 -0.14365470505E+04  0.14365470505E+04  0.00000000000E+00 0.  1.
         23    2    1    2    0    0  0.89634136714E+03 -0.31420696893E+03  0.21719691188E+03  0.97865812855E+03  0.91887802707E+02 0.  0.
         13    1    3    3    0    0  0.30617353932E+03 -0.14757387268E+03  0.54733838331E+02  0.34426164052E+03  0.00000000000E+00 0. -1.
        -13    1    3    3    0    0  0.59016782782E+03 -0.16663309625E+03  0.16246307354E+03  0.63439648803E+03  0.00000000000E+00 0.  1.
         22    1    1    2    0    0 -0.89634136714E+03  0.31420696893E+03 -0.84220121754E+03  0.12694316668E+04  0.00000000000E+00 0.  1.
<mgrwt>
<rscale>  0 0.21594623E+04</rscale>
<asrwt>0</asrwt>
<pdfrwt beam="1">  1        2 0.12485273E+00 0.21594623E+04</pdfrwt>
<pdfrwt beam="2">  1       -2 0.22100724E+00 0.21594623E+04</pdfrwt>
<totfact> 0.30171092E+00</totfact>
</mgrwt>
</event>
<event>
 6    1  0.3017327E-006  0.3228881E+04  0.7818608E-02  0.8181231E-01
         -2   -1    0    0    0  501 -0.00000000000E+00  0.00000000000E+00  0.70502850472E+03  0.70502850472E+03  0.00000000000E+00 0. -1.
          2   -1    0    0  501    0  0.00000000000E+00 -0.00000000000E+00 -0.36968976909E+04  0.36968976909E+04  0.00000000000E+00 0.  1.
         23    2    1    2    0    0  0.90164695210E+03 -0.71424735434E+03  0.46667097287E+02  0.11529541651E+04  0.63316501390E+02 0.  0.
         13    1    3    3    0    0  0.52386119658E+02 -0.48234178858E+02  0.17330596040E+02  0.73288410421E+02  0.00000000000E+00 0.  1.
        -13    1    3    3    0    0  0.84926083244E+03 -0.66601317548E+03  0.29336501247E+02  0.10796657546E+04  0.00000000000E+00 0. -1.
         22    1    1    2    0    0 -0.90164695210E+03  0.71424735434E+03 -0.30385362835E+04  0.32489720305E+04  0.00000000000E+00 0.  1.
<mgrwt>
<rscale>  0 0.32288811E+04</rscale>
<asrwt>0</asrwt>
<pdfrwt beam="1">  1        2 0.56875349E+00 0.32288811E+04</pdfrwt>
<pdfrwt beam="2">  1       -2 0.10846592E+00 0.32288811E+04</pdfrwt>
<totfact> 0.33455234E-01</totfact>
</mgrwt>
</event>
<event>
 6    1  0.3032924E-006  0.2299102E+04  0.7818608E-02  0.8478275E-01
         -2   -1    0    0    0  501 -0.00000000000E+00  0.00000000000E+00  0.54152480252E+03  0.54152480252E+03  0.00000000000E+00 0.  1.
          2   -1    0    0  501    0  0.00000000000E+00 -0.00000000000E+00 -0.24402708784E+04  0.24402708784E+04  0.00000000000E+00 0. -1.
         23    2    1    2    0    0 -0.74189457597E+03  0.11325652267E+03 -0.20766016034E+04  0.22105193423E+04  0.10434050892E+03 0.  0.
         13    1    3    3    0    0 -0.52956299095E+03  0.71001628651E+02 -0.13346172884E+04  0.14375957357E+04  0.00000000000E+00 0. -1.
        -13    1    3    3    0    0 -0.21233158502E+03  0.42254894019E+02 -0.74198431498E+03  0.77292360666E+03  0.00000000000E+00 0.  1.
         22    1    1    2    0    0  0.74189457597E+03 -0.11325652267E+03  0.17785552753E+03  0.77127633858E+03  0.00000000000E+00 0.  1.
<mgrwt>
<rscale>  0 0.22991017E+04</rscale>
<asrwt>0</asrwt>
<pdfrwt beam="1">  1        2 0.37542629E+00 0.22991017E+04</pdfrwt>
<pdfrwt beam="2">  1       -2 0.83311508E-01 0.22991017E+04</pdfrwt>
<totfact> 0.43096602E+00</totfact>
</mgrwt>
</event>
<event>
 6    1  0.3161222E-006  0.2908198E+04  0.7818608E-02  0.8270443E-01
          1   -1    0    0  501    0  0.00000000000E+00  0.00000000000E+00  0.19338288823E+04  0.19338288823E+04  0.00000000000E+00 0. -1.
         -1   -1    0    0    0  501 -0.00000000000E+00 -0.00000000000E+00 -0.10933767265E+04  0.10933767265E+04  0.00000000000E+00 0.  1.
         23    2    1    2    0    0  0.42534264925E+03 -0.63029917057E+03  0.17090506883E+04  0.18727980446E+04  0.91240600467E+02 0.  0.
         13    1    3    3    0    0  0.32927271143E+03 -0.41464018215E+03  0.12050424707E+04  0.13162349165E+04  0.00000000000E+00 0. -1.
        -13    1    3    3    0    0  0.96069937812E+02 -0.21565898843E+03  0.50400821758E+03  0.55656312816E+03  0.00000000000E+00 0.  1.
         22    1    1    2    0    0 -0.42534264925E+03  0.63029917057E+03 -0.86859853245E+03  0.11544075642E+04  0.00000000000E+00 0.  1.
<mgrwt>
<rscale>  0 0.29081977E+04</rscale>
<asrwt>0</asrwt>
<pdfrwt beam="1">  1        1 0.29751214E+00 0.29081977E+04</pdfrwt>
<pdfrwt beam="2">  1       -1 0.16821180E+00 0.29081977E+04</pdfrwt>
<totfact> 0.71899690E-01</totfact>
</mgrwt>
</event>
<event>
 6    1  0.3017327E-006  0.4525101E+03  0.7818608E-02  0.1026976E+00
          4   -1    0    0  501    0  0.00000000000E+00  0.00000000000E+00  0.13851845229E+03  0.13851845229E+03  0.00000000000E+00 0. -1.
         -4   -1    0    0    0  501 -0.00000000000E+00 -0.00000000000E+00 -0.36956333298E+03  0.36956333298E+03  0.00000000000E+00 0.  1.
         23    2    1    2    0    0 -0.69967779235E+02  0.15749135209E+03  0.28421251674E+02  0.19659873604E+03  0.90245661129E+02 0.  0.
         13    1    3    3    0    0 -0.73823907372E+02  0.11502102693E+03  0.53904244572E+02  0.14691995617E+03  0.00000000000E+00 0.  1.
        -13    1    3    3    0    0  0.38561281379E+01  0.42470325157E+02 -0.25482992898E+02  0.49678779878E+02  0.00000000000E+00 0. -1.
         22    1    1    2    0    0  0.69967779235E+02 -0.15749135209E+03 -0.25946613236E+03  0.31148304923E+03  0.00000000000E+00 0. -1.
<mgrwt>
<rscale>  0 0.45251007E+03</rscale>
<asrwt>0</asrwt>
<pdfrwt beam="1">  1        4 0.21310531E-01 0.45251007E+03</pdfrwt>
<pdfrwt beam="2">  1       -4 0.56855897E-01 0.45251007E+03</pdfrwt>
<totfact> 0.11662988E+02</totfact>
</mgrwt>
</event>
<event>
 6    1  0.3017327E-006  0.1314418E+04  0.7818608E-02  0.9018209E-01
         -1   -1    0    0    0  501 -0.00000000000E+00  0.00000000000E+00  0.49351406647E+03  0.49351406647E+03  0.00000000000E+00 0.  1.
          1   -1    0    0  501    0  0.00000000000E+00 -0.00000000000E+00 -0.87520080848E+03  0.87520080848E+03  0.00000000000E+00 0. -1.
         23    2    1    2    0    0  0.39152557268E+03  0.51961012493E+03 -0.12082424909E+03  0.66776109886E+03  0.89551270142E+02 0.  0.
         13    1    3    3    0    0  0.33673404594E+03  0.42534547618E+03 -0.13148708430E+03  0.55820914104E+03  0.00000000000E+00 0. -1.
        -13    1    3    3    0    0  0.54791526739E+02  0.94264648755E+02  0.10662835211E+02  0.10955195782E+03  0.00000000000E+00 0.  1.
         22    1    1    2    0    0 -0.39152557268E+03 -0.51961012493E+03 -0.26086249292E+03  0.70095377609E+03  0.00000000000E+00 0. -1.
<mgrwt>
<rscale>  0 0.13144184E+04</rscale>
<asrwt>0</asrwt>
<pdfrwt beam="1">  1        1 0.13464628E+00 0.13144184E+04</pdfrwt>
<pdfrwt beam="2">  1       -1 0.75925241E-01 0.13144184E+04</pdfrwt>
<totfact> 0.32634686E+01</totfact>
</mgrwt>
</event>
<event>
 6    1  0.3017327E-006  0.2627069E+04  0.7818608E-02  0.8359064E-01
         -2   -1    0    0    0  501 -0.00000000000E+00  0.00000000000E+00  0.12467970861E+04  0.12467970861E+04  0.00000000000E+00 0.  1.
          2   -1    0    0  501    0  0.00000000000E+00 -0.00000000000E+00 -0.13838445100E+04  0.13838445100E+04  0.00000000000E+00 0. -1.
         23    2    1    2    0    0 -0.11300117357E+04  0.65810660983E+03  0.24235045643E+02  0.13130518011E+04  0.11613295069E+03 0.  0.
         11    1    3    3    0    0 -0.45555442629E+03  0.32057735174E+03  0.42154915930E+02  0.55863826462E+03  0.00000000000E+00 0. -1.
        -11    1    3    3    0    0 -0.67445730946E+03  0.33752925809E+03 -0.17919870286E+02  0.75441353653E+03  0.00000000000E+00 0.  1.
         22    1    1    2    0    0  0.11300117357E+04 -0.65810660983E+03 -0.16128246958E+03  0.13175897950E+04  0.00000000000E+00 0. -1.
<mgrwt>
<rscale>  0 0.26270693E+04</rscale>
<asrwt>0</asrwt>
<pdfrwt beam="1">  1        2 0.21289915E+00 0.26270693E+04</pdfrwt>
<pdfrwt beam="2">  1       -2 0.19181494E+00 0.26270693E+04</pdfrwt>
<totfact> 0.19666511E+00</totfact>
</mgrwt>
</event>
<event>
 6    1  0.3017327E-006  0.3998013E+04  0.7818608E-02  0.8004948E-01
          2   -1    0    0  501    0  0.00000000000E+00  0.00000000000E+00  0.28101301715E+04  0.28101301715E+04  0.00000000000E+00 0. -1.
         -2   -1    0    0    0  501 -0.00000000000E+00 -0.00000000000E+00 -0.14220077682E+04  0.14220077682E+04  0.00000000000E+00 0.  1.
         23    2    1    2    0    0  0.17821967669E+04  0.77866682966E+02 -0.25816968153E+03  0.18046770925E+04  0.88990376880E+02 0.  0.
         11    1    3    3    0    0  0.12977153161E+04  0.50370864465E+02 -0.22731277837E+03  0.13184359541E+04  0.00000000000E+00 0.  1.
        -11    1    3    3    0    0  0.48448145081E+03  0.27495818501E+02 -0.30856903154E+02  0.48624113841E+03  0.00000000000E+00 0. -1.
         22    1    1    2    0    0 -0.17821967669E+04 -0.77866682966E+02  0.16462920848E+04  0.24274608472E+04  0.00000000000E+00 0. -1.
<mgrwt>
<rscale>  0 0.39980130E+04</rscale>
<asrwt>0</asrwt>
<pdfrwt beam="1">  1        2 0.43232772E+00 0.39980130E+04</pdfrwt>
<pdfrwt beam="2">  1       -2 0.21877043E+00 0.39980130E+04</pdfrwt>
<totfact> 0.18096426E-01</totfact>
</mgrwt>
</event>
<event>
 6    1  0.3017327E-006  0.2111483E+04  0.7818608E-02  0.8556202E-01
         -2   -1    0    0    0  501 -0.00000000000E+00  0.00000000000E+00  0.12881913151E+04  0.12881913151E+04  0.00000000000E+00 0.  1.
          2   -1    0    0  501    0  0.00000000000E+00 -0.00000000000E+00 -0.86523610891E+03  0.86523610891E+03  0.00000000000E+00 0. -1.
         23    2    1    2    0    0 -0.95935315492E+03  0.81704046723E+02  0.64878367719E+03  0.11644721544E+04  0.89672244407E+02 0.  0.
         13    1    3    3    0    0 -0.28953361158E+03 -0.16536608723E+02  0.19354288624E+03  0.34865745435E+03  0.00000000000E+00 0.  1.
        -13    1    3    3    0    0 -0.66981954334E+03  0.98240655446E+02  0.45524079095E+03  0.81581470002E+03  0.00000000000E+00 0. -1.
         22    1    1    2    0    0  0.95935315492E+03 -0.81704046723E+02 -0.22582847096E+03  0.98895526967E+03  0.00000000000E+00 0. -1.
<mgrwt>
<rscale>  0 0.21114826E+04</rscale>
<asrwt>0</asrwt>
<pdfrwt beam="1">  1        2 0.13311325E+00 0.21114826E+04</pdfrwt>
<pdfrwt beam="2">  1       -2 0.19818328E+00 0.21114826E+04</pdfrwt>
<totfact> 0.38971192E+00</totfact>
</mgrwt>
</event>
<event>
 6    1  0.3017327E-006  0.7576037E+03  0.7818608E-02  0.9623496E-01
          2   -1    0    0  501    0  0.00000000000E+00  0.00000000000E+00  0.13611592583E+04  0.13611592583E+04  0.00000000000E+00 0.  1.
         -2   -1    0    0    0  501 -0.00000000000E+00 -0.00000000000E+00 -0.10541810105E+03  0.10541810105E+03  0.00000000000E+00 0. -1.
         23    2    1    2    0    0 -0.36762377126E+03 -0.50490254856E+02  0.71528258161E+03  0.81099214367E+03  0.91556444351E+02 0.  0.
         11    1    3    3    0    0 -0.52802848749E+02  0.24584643508E+02  0.97769021831E+02  0.11380389783E+03  0.00000000000E+00 0. -1.
        -11    1    3    3    0    0 -0.31482092251E+03 -0.75074898364E+02  0.61751355978E+03  0.69718824583E+03  0.00000000000E+00 0.  1.
         22    1    1    2    0    0  0.36762377126E+03  0.50490254856E+02  0.54045857560E+03  0.65558521564E+03  0.00000000000E+00 0.  1.
<mgrwt>
<rscale>  0 0.75760365E+03</rscale>
<asrwt>0</asrwt>
<pdfrwt beam="1">  1        2 0.20940910E+00 0.75760365E+03</pdfrwt>
<pdfrwt beam="2">  1       -2 0.16218170E-01 0.75760365E+03</pdfrwt>
<totfact> 0.47188253E+02</totfact>
</mgrwt>
</event>
<event>
 6    1  0.3017327E-006  0.1377500E+04  0.7818608E-02  0.8970268E-01
         -2   -1    0    0    0  501 -0.00000000000E+00  0.00000000000E+00  0.39580003807E+03  0.39580003807E+03  0.00000000000E+00 0.  1.
          2   -1    0    0  501    0  0.00000000000E+00 -0.00000000000E+00 -0.11985265787E+04  0.11985265787E+04  0.00000000000E+00 0. -1.
         23    2    1    2    0    0 -0.44101208653E+03  0.38110814250E+03 -0.82064996786E+03  0.10111831301E+04  0.96384003311E+02 0.  0.
         11    1    3    3    0    0 -0.24099630324E+03  0.19302801308E+03 -0.35384021546E+03  0.46961892007E+03  0.00000000000E+00 0.  1.
        -11    1    3    3    0    0 -0.20001578330E+03  0.18808012942E+03 -0.46680975239E+03  0.54156421003E+03  0.00000000000E+00 0. -1.
         22    1    1    2    0    0  0.44101208653E+03 -0.38110814250E+03  0.17923427267E+02  0.58314348663E+03  0.00000000000E+00 0.  1.
<mgrwt>
<rscale>  0 0.13775004E+04</rscale>
<asrwt>0</asrwt>
<pdfrwt beam="1">  1        2 0.18438870E+00 0.13775004E+04</pdfrwt>
<pdfrwt beam="2">  1       -2 0.60892315E-01 0.13775004E+04</pdfrwt>
<totfact> 0.46443703E+01</totfact>
</mgrwt>
</event>
<event>
 6    1  0.3017327E-006  0.2186570E+04  0.7818608E-02  0.8524039E-01
          4   -1    0    0  501    0  0.00000000000E+00  0.00000000000E+00  0.86276842325E+03  0.86276842325E+03  0.00000000000E+00 0. -1.
         -4   -1    0    0    0  501 -0.00000000000E+00 -0.00000000000E+00 -0.13853914261E+04  0.13853914261E+04  0.00000000000E+00 0.  1.
         23    2    1    2    0    0 -0.52397556001E+01  0.86449803441E+03 -0.94679965009E+03  0.12851904134E+04  0.88884840199E+02 0.  0.
         11    1    3    3    0    0 -0.45758763065E+01  0.29246925792E+03 -0.38402379536E+03  0.48273541498E+03  0.00000000000E+00 0. -1.
        -11    1    3    3    0    0 -0.66387929356E+00  0.57202877648E+03 -0.56277585473E+03  0.80245499844E+03  0.00000000000E+00 0.  1.
         22    1    1    2    0    0  0.52397556001E+01 -0.86449803441E+03  0.42417664722E+03  0.96296943595E+03  0.00000000000E+00 0. -1.
<mgrwt>
<rscale>  0 0.21865699E+04</rscale>
<asrwt>0</asrwt>
<pdfrwt beam="1">  1        4 0.13273360E+00 0.21865699E+04</pdfrwt>
<pdfrwt beam="2">  1       -4 0.21313714E+00 0.21865699E+04</pdfrwt>
<totfact> 0.81010406E-02</totfact>
</mgrwt>
</event>
<event>
 6    1  0.3017327E-006  0.3004265E+04  0.7818608E-02  0.8242514E-01
          1   -1    0    0  501    0  0.00000000000E+00  0.00000000000E+00  0.97504274683E+03  0.97504274683E+03  0.00000000000E+00 0. -1.
         -1   -1    0    0    0  501 -0.00000000000E+00 -0.00000000000E+00 -0.23141575677E+04  0.23141575677E+04  0.00000000000E+00 0.  1.
         23    2    1    2    0    0  0.53980710471E+03  0.98893439649E+03 -0.17555885462E+04  0.20880203469E+04  0.91405004108E+02 0.  0.
         11    1    3    3    0    0  0.44270080653E+03  0.72927169958E+03 -0.13196447637E+04  0.15713954048E+04  0.00000000000E+00 0.  1.
        -11    1    3    3    0    0  0.97106298186E+02  0.25966269691E+03 -0.43594378253E+03  0.51662494214E+03  0.00000000000E+00 0. -1.
         22    1    1    2    0    0 -0.53980710471E+03 -0.98893439649E+03  0.41647372527E+03  0.12011799677E+04  0.00000000000E+00 0. -1.
<mgrwt>
<rscale>  0 0.30042653E+04</rscale>
<asrwt>0</asrwt>
<pdfrwt beam="1">  1        1 0.15000658E+00 0.30042653E+04</pdfrwt>
<pdfrwt beam="2">  1       -1 0.35602424E+00 0.30042653E+04</pdfrwt>
<totfact> 0.19078194E-01</totfact>
</mgrwt>
</event>
<event>
 6    1  0.3017327E-006  0.2166230E+04  0.7818608E-02  0.8532617E-01
         -2   -1    0    0    0  501 -0.00000000000E+00  0.00000000000E+00  0.27012492904E+03  0.27012492904E+03  0.00000000000E+00 0.  1.
          2   -1    0    0  501    0  0.00000000000E+00 -0.00000000000E+00 -0.43429471794E+04  0.43429471794E+04  0.00000000000E+00 0. -1.
         23    2    1    2    0    0  0.10351793989E+04 -0.25603418199E+03 -0.24199841618E+04  0.26460887234E+04  0.91171805782E+02 0.  0.
         13    1    3    3    0    0  0.99780201031E+03 -0.26320554929E+03 -0.23223052093E+04  0.25412570705E+04  0.00000000000E+00 0.  1.
        -13    1    3    3    0    0  0.37377388582E+02  0.71713672982E+01 -0.97678952494E+02  0.10483165288E+03  0.00000000000E+00 0. -1.
         22    1    1    2    0    0 -0.10351793989E+04  0.25603418199E+03 -0.16528380885E+04  0.19669833850E+04  0.00000000000E+00 0.  1.
<mgrwt>
<rscale>  0 0.21662302E+04</rscale>
<asrwt>0</asrwt>
<pdfrwt beam="1">  1        2 0.66814567E+00 0.21662302E+04</pdfrwt>
<pdfrwt beam="2">  1       -2 0.41557684E-01 0.21662302E+04</pdfrwt>
<totfact> 0.88125574E-01</totfact>
</mgrwt>
</event>
<event>
 6    1  0.3017327E-006  0.1771314E+04  0.7818608E-02  0.8721705E-01
         -2   -1    0    0    0  501 -0.00000000000E+00  0.00000000000E+00  0.45625720256E+03  0.45625720256E+03  0.00000000000E+00 0.  1.
          2   -1    0    0  501    0  0.00000000000E+00 -0.00000000000E+00 -0.17191796604E+04  0.17191796604E+04  0.00000000000E+00 0. -1.
         23    2    1    2    0    0  0.67310003731E+03  0.32021774749E+03 -0.12154682696E+04  0.14285399718E+04  0.88092397610E+02 0.  0.
         13    1    3    3    0    0  0.26184749160E+03  0.15819272332E+03 -0.43913927120E+03  0.53519374630E+03  0.00000000000E+00 0. -1.
        -13    1    3    3    0    0  0.41125254571E+03  0.16202502416E+03 -0.77632899840E+03  0.89334622547E+03  0.00000000000E+00 0.  1.
         22    1    1    2    0    0 -0.67310003731E+03 -0.32021774749E+03 -0.47454188216E+02  0.74689689116E+03  0.00000000000E+00 0.  1.
<mgrwt>
<rscale>  0 0.17713138E+04</rscale>
<asrwt>0</asrwt>
<pdfrwt beam="1">  1        2 0.26448918E+00 0.17713138E+04</pdfrwt>
<pdfrwt beam="2">  1       -2 0.70193417E-01 0.17713138E+04</pdfrwt>
<totfact> 0.16728079E+01</totfact>
</mgrwt>
</event>
<event>
 6    1  0.3017327E-006  0.5851666E+04  0.7818608E-02  0.7709070E-01
         -1   -1    0    0    0  501 -0.00000000000E+00  0.00000000000E+00  0.21295094136E+04  0.21295094136E+04  0.00000000000E+00 0.  1.
          1   -1    0    0  501    0  0.00000000000E+00 -0.00000000000E+00 -0.40199388932E+04  0.40199388932E+04  0.00000000000E+00 0. -1.
         23    2    1    2    0    0  0.27330383133E+04  0.65249362628E+03 -0.17997565789E+04  0.33381375931E+04  0.93768295375E+02 0.  0.
         11    1    3    3    0    0  0.23559070623E+04  0.53537346773E+03 -0.15239012123E+04  0.28564309445E+04  0.00000000000E+00 0.  1.
        -11    1    3    3    0    0  0.37713125095E+03  0.11712015855E+03 -0.27585536665E+03  0.48170664859E+03  0.00000000000E+00 0. -1.
         22    1    1    2    0    0 -0.27330383133E+04 -0.65249362628E+03 -0.90672900768E+02  0.28113107137E+04  0.00000000000E+00 0.  1.
<mgrwt>
<rscale>  0 0.58516656E+04</rscale>
<asrwt>0</asrwt>
<pdfrwt beam="1">  1        1 0.61845213E+00 0.58516656E+04</pdfrwt>
<pdfrwt beam="2">  1       -1 0.32761684E+00 0.58516656E+04</pdfrwt>
<totfact> 0.13531977E-03</totfact>
</mgrwt>
</event>
<event>
 6    1  0.3017327E-006  0.5644389E+04  0.7818608E-02  0.7736128E-01
          2   -1    0    0  501    0  0.00000000000E+00  0.00000000000E+00  0.44003322652E+04  0.44003322652E+04  0.00000000000E+00 0. -1.
         -2   -1    0    0    0  501 -0.00000000000E+00 -0.00000000000E+00 -0.18100409592E+04  0.18100409592E+04  0.00000000000E+00 0.  1.
         23    2    1    2    0    0 -0.20003860759E+04  0.18385586868E+04  0.45841643321E+03  0.27568629853E+04  0.91133945196E+02 0.  0.
         11    1    3    3    0    0 -0.13423148206E+04  0.12134030572E+04  0.26433688483E+03  0.18286689273E+04  0.00000000000E+00 0. -1.
        -11    1    3    3    0    0 -0.65807125531E+03  0.62515562966E+03  0.19407954838E+03  0.92819405808E+03  0.00000000000E+00 0.  1.
         22    1    1    2    0    0  0.20003860759E+04 -0.18385586868E+04  0.21318748729E+04  0.34535102391E+04  0.00000000000E+00 0.  1.
<mgrwt>
<rscale>  0 0.56443889E+04</rscale>
<asrwt>0</asrwt>
<pdfrwt beam="1">  1        2 0.67697419E+00 0.56443889E+04</pdfrwt>
<pdfrwt beam="2">  1       -2 0.27846784E+00 0.56443889E+04</pdfrwt>
<totfact> 0.45217714E-03</totfact>
</mgrwt>
</event>
<event>
 6    1  0.3017327E-006  0.4614791E+04  0.7818608E-02  0.7890843E-01
         -2   -1    0    0    0  501 -0.00000000000E+00  0.00000000000E+00  0.16961652726E+04  0.16961652726E+04  0.00000000000E+00 0.  1.
          2   -1    0    0  501    0  0.00000000000E+00 -0.00000000000E+00 -0.31388885628E+04  0.31388885628E+04  0.00000000000E+00 0. -1.
         23    2    1    2    0    0  0.18280785882E+04 -0.11879818202E+04 -0.15103840008E+04  0.26538270931E+04  0.91467373427E+02 0.  0.
         13    1    3    3    0    0  0.13021608054E+03 -0.11361525058E+03 -0.11469413798E+03  0.20741118119E+03  0.00000000000E+00 0.  1.
        -13    1    3    3    0    0  0.16978625076E+04 -0.10743665696E+04 -0.13956898628E+04  0.24464159119E+04  0.00000000000E+00 0. -1.
         22    1    1    2    0    0 -0.18280785882E+04  0.11879818202E+04  0.67660710700E+02  0.21812267423E+04  0.00000000000E+00 0.  1.
<mgrwt>
<rscale>  0 0.46147909E+04</rscale>
<asrwt>0</asrwt>
<pdfrwt beam="1">  1        2 0.48290593E+00 0.46147909E+04</pdfrwt>
<pdfrwt beam="2">  1       -2 0.26094850E+00 0.46147909E+04</pdfrwt>
<totfact> 0.58669579E-02</totfact>
</mgrwt>
</event>
<event>
 6    1  0.3017327E-006  0.3111645E+03  0.7818608E-02  0.1079789E+00
          2   -1    0    0  501    0  0.00000000000E+00  0.00000000000E+00  0.10283833385E+03  0.10283833385E+03  0.00000000000E+00 0. -1.
         -2   -1    0    0    0  501 -0.00000000000E+00 -0.00000000000E+00 -0.23537753108E+03  0.23537753108E+03  0.00000000000E+00 0.  1.
         23    2    1    2    0    0  0.46305239020E+02 -0.45301192027E+02 -0.20947912744E+03  0.23763691077E+03  0.91615628416E+02 0.  0.
         11    1    3    3    0    0 -0.23851464717E+02 -0.25928808963E+02 -0.40678582909E+02  0.53813962973E+02  0.00000000000E+00 0.  1.
        -11    1    3    3    0    0  0.70156703737E+02 -0.19372383065E+02 -0.16880054453E+03  0.18382294780E+03  0.00000000000E+00 0. -1.
         22    1    1    2    0    0 -0.46305239020E+02  0.45301192027E+02  0.76939930206E+02  0.10057895416E+03  0.00000000000E+00 0. -1.
<mgrwt>
<rscale>  0 0.31116448E+03</rscale>
<asrwt>0</asrwt>
<pdfrwt beam="1">  1        2 0.15821282E-01 0.31116448E+03</pdfrwt>
<pdfrwt beam="2">  1       -2 0.36211928E-01 0.31116448E+03</pdfrwt>
<totfact> 0.26367065E+03</totfact>
</mgrwt>
</event>
<event>
 6    1  0.3017327E-006  0.4412586E+04  0.7818608E-02  0.7926122E-01
         -2   -1    0    0    0  501 -0.00000000000E+00  0.00000000000E+00  0.16925392312E+04  0.16925392312E+04  0.00000000000E+00 0.  1.
          2   -1    0    0  501    0  0.00000000000E+00 -0.00000000000E+00 -0.28759920277E+04  0.28759920277E+04  0.00000000000E+00 0. -1.
         23    2    1    2    0    0 -0.20966928654E+04 -0.59935896484E+03 -0.93249063532E+03  0.23734608393E+04  0.91790142679E+02 0.  0.
         11    1    3    3    0    0 -0.90024340460E+03 -0.29279535864E+03 -0.43741409691E+03  0.10428319144E+04  0.00000000000E+00 0.  1.
        -11    1    3    3    0    0 -0.11964494608E+04 -0.30656360620E+03 -0.49507653840E+03  0.13306289249E+04  0.00000000000E+00 0. -1.
         22    1    1    2    0    0  0.20966928654E+04  0.59935896484E+03 -0.25096216127E+03  0.21950704196E+04  0.00000000000E+00 0. -1.
<mgrwt>
<rscale>  0 0.44125862E+04</rscale>
<asrwt>0</asrwt>
<pdfrwt beam="1">  1        2 0.44246031E+00 0.44125862E+04</pdfrwt>
<pdfrwt beam="2">  1       -2 0.26039065E+00 0.44125862E+04</pdfrwt>
<totfact> 0.87975018E-02</totfact>
</mgrwt>
</event>
<event>
 6    1  0.3017327E-006  0.1259144E+04  0.7818608E-02  0.9062607E-01
          2   -1    0    0  501    0  0.00000000000E+00  0.00000000000E+00  0.17873273076E+04  0.17873273076E+04  0.00000000000E+00 0. -1.
         -2   -1    0    0    0  501 -0.00000000000E+00 -0.00000000000E+00 -0.22176191579E+03  0.22176191579E+03  0.00000000000E+00 0.  1.
         23    2    1    2    0    0 -0.14230345586E+03 -0.59172810709E+03  0.54819156343E+03  0.82357586077E+03  0.85853258370E+02 0.  0.
         11    1    3    3    0    0 -0.72312794067E+02 -0.43405420589E+03  0.36253995852E+03  0.57014683667E+03  0.00000000000E+00 0. -1.
        -11    1    3    3    0    0 -0.69990661793E+02 -0.15767390120E+03  0.18565160490E+03  0.25342902411E+03  0.00000000000E+00 0.  1.
         22    1    1    2    0    0  0.14230345586E+03  0.59172810709E+03  0.10173738284E+04  0.11855133626E+04  0.00000000000E+00 0. -1.
<mgrwt>
<rscale>  0 0.12591444E+04</rscale>
<asrwt>0</asrwt>
<pdfrwt beam="1">  1        2 0.27497342E+00 0.12591444E+04</pdfrwt>
<pdfrwt beam="2">  1       -2 0.34117219E-01 0.12591444E+04</pdfrwt>
<totfact> 0.69344591E+01</totfact>
</mgrwt>
</event>
<event>
 6    1  0.3017327E-006  0.1615115E+04  0.7818608E-02  0.8811316E-01
          3   -1    0    0  501    0  0.00000000000E+00  0.00000000000E+00  0.44079352870E+03  0.44079352870E+03  0.00000000000E+00 0. -1.
         -3   -1    0    0    0  501 -0.00000000000E+00 -0.00000000000E+00 -0.14794884783E+04  0.14794884783E+04  0.00000000000E+00 0.  1.
         23    2    1    2    0    0  0.17193642430E+03  0.31197423745E+03 -0.13791956418E+04  0.14275033749E+04  0.93248099322E+02 0.  0.
         13    1    3    3    0    0  0.92133544176E+02  0.15024446320E+03 -0.86009867876E+03  0.87797023064E+03  0.00000000000E+00 0. -1.
        -13    1    3    3    0    0  0.79802880123E+02  0.16172977425E+03 -0.51909696309E+03  0.54953314426E+03  0.00000000000E+00 0.  1.
         22    1    1    2    0    0 -0.17193642430E+03 -0.31197423745E+03  0.34050069225E+03  0.49277863210E+03  0.00000000000E+00 0. -1.
<mgrwt>
<rscale>  0 0.16151148E+04</rscale>
<asrwt>0</asrwt>
<pdfrwt beam="1">  1        3 0.67814388E-01 0.16151148E+04</pdfrwt>
<pdfrwt beam="2">  1       -3 0.22761361E+00 0.16151148E+04</pdfrwt>
<totfact> 0.51965172E-01</totfact>
</mgrwt>
</event>
<event>
 6    1  0.3017327E-006  0.2592742E+04  0.7818608E-02  0.8370671E-01
         -2   -1    0    0    0  501 -0.00000000000E+00  0.00000000000E+00  0.12024718060E+04  0.12024718060E+04  0.00000000000E+00 0.  1.
          2   -1    0    0  501    0  0.00000000000E+00 -0.00000000000E+00 -0.13976022367E+04  0.13976022367E+04  0.00000000000E+00 0. -1.
         23    2    1    2    0    0  0.17130298675E+03 -0.68185426787E+03  0.99263247100E+03  0.12198383141E+04  0.91740580554E+02 0.  0.
         11    1    3    3    0    0  0.10571698473E+03 -0.46529634435E+03  0.59914644448E+03  0.76593291537E+03  0.00000000000E+00 0. -1.
        -11    1    3    3    0    0  0.65586002017E+02 -0.21655792352E+03  0.39348602652E+03  0.45390539870E+03  0.00000000000E+00 0.  1.
         22    1    1    2    0    0 -0.17130298675E+03  0.68185426787E+03 -0.11877629017E+04  0.13802357286E+04  0.00000000000E+00 0. -1.
<mgrwt>
<rscale>  0 0.25927416E+04</rscale>
<asrwt>0</asrwt>
<pdfrwt beam="1">  1        2 0.21501573E+00 0.25927416E+04</pdfrwt>
<pdfrwt beam="2">  1       -2 0.18499566E+00 0.25927416E+04</pdfrwt>
<totfact> 0.21531497E+00</totfact>
</mgrwt>
</event>
<event>
 6    1  0.3017327E-006  0.1677402E+04  0.7818608E-02  0.8774359E-01
          2   -1    0    0  501    0  0.00000000000E+00  0.00000000000E+00  0.23242745166E+04  0.23242745166E+04  0.00000000000E+00 0. -1.
         -2   -1    0    0    0  501 -0.00000000000E+00 -0.00000000000E+00 -0.30264049810E+03  0.30264049810E+03  0.00000000000E+00 0.  1.
         23    2    1    2    0    0 -0.15962049578E+03 -0.81306800095E+03  0.11904792221E+04  0.14532981383E+04  0.90974852616E+02 0.  0.
         11    1    3    3    0    0 -0.83984355892E+02 -0.51940050517E+03  0.82355457968E+03  0.97727805794E+03  0.00000000000E+00 0.  1.
        -11    1    3    3    0    0 -0.75636139892E+02 -0.29366749578E+03  0.36692464241E+03  0.47602008040E+03  0.00000000000E+00 0. -1.
         22    1    1    2    0    0  0.15962049578E+03  0.81306800095E+03  0.83115479637E+03  0.11736168763E+04  0.00000000000E+00 0. -1.
<mgrwt>
<rscale>  0 0.16774023E+04</rscale>
<asrwt>0</asrwt>
<pdfrwt beam="1">  1        2 0.35758068E+00 0.16774023E+04</pdfrwt>
<pdfrwt beam="2">  1       -2 0.46560078E-01 0.16774023E+04</pdfrwt>
<totfact> 0.18326116E+01</totfact>
</mgrwt>
</event>
<event>
 6    1  0.3017327E-006  0.1474063E+04  0.7818608E-02  0.8901886E-01
         -2   -1    0    0    0  501 -0.00000000000E+00  0.00000000000E+00  0.11072572136E+04  0.11072572136E+04  0.00000000000E+00 0.  1.
          2   -1    0    0  501    0  0.00000000000E+00 -0.00000000000E+00 -0.49059534111E+03  0.49059534111E+03  0.00000000000E+00 0. -1.
         23    2    1    2    0    0 -0.17808933457E+03 -0.99209644826E+02  0.10741234449E+04  0.10970237867E+04  0.90341844295E+02 0.  0.
         13    1    3    3    0    0 -0.21383858717E+02 -0.55145723358E+02  0.24153619157E+03  0.24867258003E+03  0.00000000000E+00 0.  1.
        -13    1    3    3    0    0 -0.15670547585E+03 -0.44063921468E+02  0.83258725338E+03  0.84835120665E+03  0.00000000000E+00 0. -1.
         22    1    1    2    0    0  0.17808933457E+03  0.99209644826E+02 -0.45746157240E+03  0.50082876808E+03  0.00000000000E+00 0. -1.
<mgrwt>
<rscale>  0 0.14740627E+04</rscale>
<asrwt>0</asrwt>
<pdfrwt beam="1">  1        2 0.75476207E-01 0.14740627E+04</pdfrwt>
<pdfrwt beam="2">  1       -2 0.17034726E+00 0.14740627E+04</pdfrwt>
<totfact> 0.12901506E+01</totfact>
</mgrwt>
</event>
<event>
 6    1  0.3017327E-006  0.9882078E+03  0.7818608E-02  0.9321574E-01
          2   -1    0    0  501    0  0.00000000000E+00  0.00000000000E+00  0.15671855783E+04  0.15671855783E+04  0.00000000000E+00 0. -1.
         -2   -1    0    0    0  501 -0.00000000000E+00 -0.00000000000E+00 -0.15578157734E+03  0.15578157734E+03  0.00000000000E+00 0.  1.
         23    2    1    2    0    0  0.14282616102E+03 -0.46799661407E+03  0.68565392535E+03  0.84767673794E+03  0.94944213353E+02 0.  0.
         13    1    3    3    0    0  0.11892552844E+03 -0.40809164944E+03  0.53146452285E+03  0.68054141293E+03  0.00000000000E+00 0.  1.
        -13    1    3    3    0    0  0.23900632578E+02 -0.59904964622E+02  0.15418940250E+03  0.16713532501E+03  0.00000000000E+00 0. -1.
         22    1    1    2    0    0 -0.14282616102E+03  0.46799661407E+03  0.72575007556E+03  0.87529041765E+03  0.00000000000E+00 0. -1.
<mgrwt>
<rscale>  0 0.98820775E+03</rscale>
<asrwt>0</asrwt>
<pdfrwt beam="1">  1        2 0.24110546E+00 0.98820775E+03</pdfrwt>
<pdfrwt beam="2">  1       -2 0.23966398E-01 0.98820775E+03</pdfrwt>
<totfact> 0.17990386E+02</totfact>
</mgrwt>
</event>
<event>
 6    1  0.3017327E-006  0.1508774E+04  0.7818608E-02  0.8878639E-01
          2   -1    0    0  501    0  0.00000000000E+00  0.00000000000E+00  0.15897307708E+04  0.15897307708E+04  0.00000000000E+00 0. -1.
         -2   -1    0    0    0  501 -0.00000000000E+00 -0.00000000000E+00 -0.35798502703E+03  0.35798502703E+03  0.00000000000E+00 0.  1.
         23    2    1    2    0    0 -0.71946387715E+02  0.74802627523E+03  0.63663847783E+03  0.98913755423E+03  0.91460147473E+02 0.  0.
         13    1    3    3    0    0 -0.42965176835E+02  0.29008846597E+03  0.19422694725E+03  0.35174057421E+03  0.00000000000E+00 0.  1.
        -13    1    3    3    0    0 -0.28981210880E+02  0.45793780926E+03  0.44241153058E+03  0.63739698001E+03  0.00000000000E+00 0. -1.
         22    1    1    2    0    0  0.71946387715E+02 -0.74802627523E+03  0.59510726594E+03  0.95857824361E+03  0.00000000000E+00 0. -1.
<mgrwt>
<rscale>  0 0.15087741E+04</rscale>
<asrwt>0</asrwt>
<pdfrwt beam="1">  1        2 0.24457396E+00 0.15087741E+04</pdfrwt>
<pdfrwt beam="2">  1       -2 0.55074620E-01 0.15087741E+04</pdfrwt>
<totfact> 0.33822204E+01</totfact>
</mgrwt>
</event>
<event>
 6    1  0.3017327E-006  0.2102395E+04  0.7818608E-02  0.8560189E-01
         -2   -1    0    0    0  501 -0.00000000000E+00  0.00000000000E+00  0.53070932980E+03  0.53070932980E+03  0.00000000000E+00 0.  1.
          2   -1    0    0  501    0  0.00000000000E+00 -0.00000000000E+00 -0.20821505246E+04  0.20821505246E+04  0.00000000000E+00 0. -1.
         23    2    1    2    0    0 -0.10403648610E+04 -0.11442692512E+03 -0.86675842004E+03  0.13621628218E+04  0.93620666024E+02 0.  0.
         11    1    3    3    0    0 -0.54006651849E+02  0.72024613935E+01 -0.67957821903E+02  0.87102580053E+02  0.00000000000E+00 0. -1.
        -11    1    3    3    0    0 -0.98635820920E+03 -0.12162938651E+03 -0.79880059814E+03  0.12750602418E+04  0.00000000000E+00 0.  1.
         22    1    1    2    0    0  0.10403648610E+04  0.11442692512E+03 -0.68468277475E+03  0.12506970326E+04  0.00000000000E+00 0.  1.
<mgrwt>
<rscale>  0 0.21023955E+04</rscale>
<asrwt>0</asrwt>
<pdfrwt beam="1">  1        2 0.32033085E+00 0.21023955E+04</pdfrwt>
<pdfrwt beam="2">  1       -2 0.81647589E-01 0.21023955E+04</pdfrwt>
<totfact> 0.73125398E+00</totfact>
</mgrwt>
</event>
<event>
 6    1  0.3017327E-006  0.3301877E+04  0.7818608E-02  0.8162418E-01
          2   -1    0    0  501    0  0.00000000000E+00  0.00000000000E+00  0.12791979109E+04  0.12791979109E+04  0.00000000000E+00 0.  1.
         -2   -1    0    0    0  501 -0.00000000000E+00 -0.00000000000E+00 -0.21307080134E+04  0.21307080134E+04  0.00000000000E+00 0. -1.
         23    2    1    2    0    0  0.14437468352E+04  0.12627581964E+03 -0.12398346525E+04  0.19095238187E+04  0.93491935544E+02 0.  0.
         13    1    3    3    0    0  0.60472217960E+03  0.39189246675E+02 -0.57663107100E+03  0.83649752158E+03  0.00000000000E+00 0. -1.
        -13    1    3    3    0    0  0.83902465556E+03  0.87086572961E+02 -0.66320358150E+03  0.10730262971E+04  0.00000000000E+00 0.  1.
         22    1    1    2    0    0 -0.14437468352E+04 -0.12627581964E+03  0.38832454998E+03  0.15003821056E+04  0.00000000000E+00 0.  1.
<mgrwt>
<rscale>  0 0.33018766E+04</rscale>
<asrwt>0</asrwt>
<pdfrwt beam="1">  1        2 0.19679968E+00 0.33018766E+04</pdfrwt>
<pdfrwt beam="2">  1       -2 0.32780123E+00 0.33018766E+04</pdfrwt>
<totfact> 0.30406140E-01</totfact>
</mgrwt>
</event>
<event>
 6    1  0.4223412E-006  0.4147690E+04  0.7818608E-02  0.7975398E-01
          2   -1    0    0  501    0  0.00000000000E+00  0.00000000000E+00  0.22512445829E+04  0.22512445829E+04  0.00000000000E+00 0. -1.
         -2   -1    0    0    0  501 -0.00000000000E+00 -0.00000000000E+00 -0.19104245097E+04  0.19104245097E+04  0.00000000000E+00 0.  1.
         23    2    1    2    0    0 -0.59930758678E+02  0.11187141442E+04  0.19202055583E+04  0.22252880499E+04  0.98002482440E+02 0.  0.
         13    1    3    3    0    0 -0.59901377948E+02  0.47916807520E+03  0.89476486440E+03  0.10167567959E+04  0.00000000000E+00 0.  1.
        -13    1    3    3    0    0 -0.29380730420E-01  0.63954606903E+03  0.10254406939E+04  0.12085312540E+04  0.00000000000E+00 0. -1.
         22    1    1    2    0    0  0.59930758678E+02 -0.11187141442E+04 -0.15793854851E+04  0.19363810428E+04  0.00000000000E+00 0.  1.
<mgrwt>
<rscale>  0 0.41476899E+04</rscale>
<asrwt>0</asrwt>
<pdfrwt beam="1">  1        2 0.34634532E+00 0.41476899E+04</pdfrwt>
<pdfrwt beam="2">  1       -2 0.29391146E+00 0.41476899E+04</pdfrwt>
<totfact> 0.13043028E-01</totfact>
</mgrwt>
</event>
<event>
 6    1  0.3017327E-006  0.2241547E+04  0.7818608E-02  0.8501331E-01
         -2   -1    0    0    0  501 -0.00000000000E+00  0.00000000000E+00  0.49548048028E+03  0.49548048028E+03  0.00000000000E+00 0.  1.
          2   -1    0    0  501    0  0.00000000000E+00 -0.00000000000E+00 -0.25351831290E+04  0.25351831290E+04  0.00000000000E+00 0. -1.
         23    2    1    2    0    0  0.58874540872E+03  0.70846948505E+03 -0.18796071674E+04  0.20956872830E+04  0.10213675716E+03 0.  0.
         13    1    3    3    0    0  0.34379449914E+03  0.33994988459E+03 -0.93721237731E+03  0.10545746165E+04  0.00000000000E+00 0.  1.
        -13    1    3    3    0    0  0.24495090958E+03  0.36851960046E+03 -0.94239479006E+03  0.10411126665E+04  0.00000000000E+00 0. -1.
         22    1    1    2    0    0 -0.58874540872E+03 -0.70846948505E+03 -0.16009548139E+03  0.93497632628E+03  0.00000000000E+00 0.  1.
<mgrwt>
<rscale>  0 0.22415475E+04</rscale>
<asrwt>0</asrwt>
<pdfrwt beam="1">  1        2 0.39002818E+00 0.22415475E+04</pdfrwt>
<pdfrwt beam="2">  1       -2 0.76227765E-01 0.22415475E+04</pdfrwt>
<totfact> 0.46597195E+00</totfact>
</mgrwt>
</event>
<event>
 6    1  0.3017327E-006  0.3490290E+04  0.7818608E-02  0.8116095E-01
          2   -1    0    0  501    0  0.00000000000E+00  0.00000000000E+00  0.16175857331E+04  0.16175857331E+04  0.00000000000E+00 0. -1.
         -2   -1    0    0    0  501 -0.00000000000E+00 -0.00000000000E+00 -0.18827632255E+04  0.18827632255E+04  0.00000000000E+00 0.  1.
         23    2    1    2    0    0  0.41456525735E+02 -0.64917637071E+03 -0.17554956391E+04  0.18742503200E+04  0.88885988864E+02 0.  0.
         13    1    3    3    0    0 -0.57770071635E+01 -0.84654892154E+02 -0.31890350635E+03  0.32999889536E+03  0.00000000000E+00 0.  1.
        -13    1    3    3    0    0  0.47233532898E+02 -0.56452147856E+03 -0.14365921328E+04  0.15442514246E+04  0.00000000000E+00 0. -1.
         22    1    1    2    0    0 -0.41456525735E+02  0.64917637071E+03  0.14903181467E+04  0.16260986386E+04  0.00000000000E+00 0. -1.
<mgrwt>
<rscale>  0 0.34902899E+04</rscale>
<asrwt>0</asrwt>
<pdfrwt beam="1">  1        2 0.24885934E+00 0.34902899E+04</pdfrwt>
<pdfrwt beam="2">  1       -2 0.28965588E+00 0.34902899E+04</pdfrwt>
<totfact> 0.32961870E-01</totfact>
</mgrwt>
</event>
<event>
 6    1  0.4103816E-006  0.2820083E+04  0.7818608E-02  0.8297060E-01
         -2   -1    0    0    0  501 -0.00000000000E+00  0.00000000000E+00  0.10163562316E+04  0.10163562316E+04  0.00000000000E+00 0.  1.
          2   -1    0    0  501    0  0.00000000000E+00 -0.00000000000E+00 -0.19562211702E+04  0.19562211702E+04  0.00000000000E+00 0. -1.
         23    2    1    2    0    0  0.70603421413E+03 -0.37212672219E+03 -0.16938521431E+04  0.18746432902E+04  0.90497369826E+02 0.  0.
         11    1    3    3    0    0  0.18854129941E+03 -0.91083070745E+02 -0.54072284989E+03  0.57984924571E+03  0.00000000000E+00 0.  1.
        -11    1    3    3    0    0  0.51749291471E+03 -0.28104365145E+03 -0.11531292932E+04  0.12947940445E+04  0.00000000000E+00 0. -1.
         22    1    1    2    0    0 -0.70603421413E+03  0.37212672219E+03  0.75398720451E+03  0.10979341116E+04  0.00000000000E+00 0.  1.
<mgrwt>
<rscale>  0 0.28200834E+04</rscale>
<asrwt>0</asrwt>
<pdfrwt beam="1">  1        2 0.30095710E+00 0.28200834E+04</pdfrwt>
<pdfrwt beam="2">  1       -2 0.15636250E+00 0.28200834E+04</pdfrwt>
<totfact> 0.16461031E+00</totfact>
</mgrwt>
</event>
<event>
 6    1  0.3017327E-006  0.1900369E+04  0.7818608E-02  0.8654673E-01
         -2   -1    0    0    0  501 -0.00000000000E+00  0.00000000000E+00  0.37577038020E+03  0.37577038020E+03  0.00000000000E+00 0.  1.
          2   -1    0    0  501    0  0.00000000000E+00 -0.00000000000E+00 -0.24026666103E+04  0.24026666103E+04  0.00000000000E+00 0. -1.
         23    2    1    2    0    0  0.25048860508E+03 -0.81903316013E+03 -0.42266619693E+03  0.95988980717E+03  0.95822070567E+02 0.  0.
         13    1    3    3    0    0  0.16416597518E+03 -0.57705156590E+03 -0.34212483133E+03  0.69064345167E+03  0.00000000000E+00 0.  1.
        -13    1    3    3    0    0  0.86322629899E+02 -0.24198159423E+03 -0.80541365605E+02  0.26924635550E+03  0.00000000000E+00 0. -1.
         22    1    1    2    0    0 -0.25048860508E+03  0.81903316013E+03 -0.16042300331E+04  0.18185471833E+04  0.00000000000E+00 0. -1.
<mgrwt>
<rscale>  0 0.19003694E+04</rscale>
<asrwt>0</asrwt>
<pdfrwt beam="1">  1        2 0.36964102E+00 0.19003694E+04</pdfrwt>
<pdfrwt beam="2">  1       -2 0.57810827E-01 0.19003694E+04</pdfrwt>
<totfact> 0.10398319E+01</totfact>
</mgrwt>
</event>
<event>
 6    1  0.3017327E-006  0.2173673E+04  0.7818608E-02  0.8529467E-01
          2   -1    0    0  501    0  0.00000000000E+00  0.00000000000E+00  0.20533799910E+04  0.20533799910E+04  0.00000000000E+00 0. -1.
         -2   -1    0    0    0  501 -0.00000000000E+00 -0.00000000000E+00 -0.57525327478E+03  0.57525327478E+03  0.00000000000E+00 0.  1.
         23    2    1    2    0    0 -0.44590302837E+03  0.61052963127E+03  0.16813910492E+04  0.18457588630E+04  0.90410058206E+02 0.  0.
         11    1    3    3    0    0 -0.36272482520E+03  0.54335551296E+03  0.14070385082E+04  0.15513097292E+04  0.00000000000E+00 0. -1.
        -11    1    3    3    0    0 -0.83178203174E+02  0.67174118318E+02  0.27435254101E+03  0.29444913383E+03  0.00000000000E+00 0.  1.
         22    1    1    2    0    0  0.44590302837E+03 -0.61052963127E+03 -0.20326433304E+03  0.78287440274E+03  0.00000000000E+00 0.  1.
<mgrwt>
<rscale>  0 0.21736730E+04</rscale>
<asrwt>0</asrwt>
<pdfrwt beam="1">  1        2 0.31590461E+00 0.21736730E+04</pdfrwt>
<pdfrwt beam="2">  1       -2 0.88500505E-01 0.21736730E+04</pdfrwt>
<totfact> 0.62774959E+00</totfact>
</mgrwt>
</event>
<event>
 6    1  0.3089171E-006  0.4306786E+04  0.7818608E-02  0.7945365E-01
          2   -1    0    0  501    0  0.00000000000E+00  0.00000000000E+00  0.35873130386E+04  0.35873130386E+04  0.00000000000E+00 0. -1.
         -2   -1    0    0    0  501 -0.00000000000E+00 -0.00000000000E+00 -0.12926391123E+04  0.12926391123E+04  0.00000000000E+00 0.  1.
         23    2    1    2    0    0  0.18774134138E+04  0.88994638713E+03  0.17849008666E+04  0.27406638883E+04  0.93175894541E+02 0.  0.
         13    1    3    3    0    0  0.12807636672E+04  0.63766065521E+03  0.11844923934E+04  0.18574145775E+04  0.00000000000E+00 0. -1.
        -13    1    3    3    0    0  0.59664974651E+03  0.25228573192E+03  0.60040847312E+03  0.88324931086E+03  0.00000000000E+00 0.  1.
         22    1    1    2    0    0 -0.18774134138E+04 -0.88994638713E+03  0.50977305970E+03  0.21392882626E+04  0.00000000000E+00 0.  1.
<mgrwt>
<rscale>  0 0.43067859E+04</rscale>
<asrwt>0</asrwt>
<pdfrwt beam="1">  1        2 0.55189431E+00 0.43067859E+04</pdfrwt>
<pdfrwt beam="2">  1       -2 0.19886756E+00 0.43067859E+04</pdfrwt>
<totfact> 0.73254544E-02</totfact>
</mgrwt>
</event>
<event>
 6    1  0.3017327E-006  0.1932948E+04  0.7818608E-02  0.8638628E-01
         -2   -1    0    0    0  501 -0.00000000000E+00  0.00000000000E+00  0.28885051591E+03  0.28885051591E+03  0.00000000000E+00 0.  1.
          2   -1    0    0  501    0  0.00000000000E+00 -0.00000000000E+00 -0.32337556697E+04  0.32337556697E+04  0.00000000000E+00 0. -1.
         23    2    1    2    0    0 -0.37127306356E+03 -0.67881282900E+03 -0.25248064600E+04  0.26422009056E+04  0.89148305948E+02 0.  0.
         11    1    3    3    0    0 -0.22342944031E+03 -0.40670207792E+03 -0.16591399863E+04  0.17228095626E+04  0.00000000000E+00 0. -1.
        -11    1    3    3    0    0 -0.14784362325E+03 -0.27211075108E+03 -0.86566647375E+03  0.91939134298E+03  0.00000000000E+00 0.  1.
         22    1    1    2    0    0  0.37127306356E+03  0.67881282900E+03 -0.42009869372E+03  0.88040527997E+03  0.00000000000E+00 0.  1.
<mgrwt>
<rscale>  0 0.19329480E+04</rscale>
<asrwt>0</asrwt>
<pdfrwt beam="1">  1        2 0.49750085E+00 0.19329480E+04</pdfrwt>
<pdfrwt beam="2">  1       -2 0.44438543E-01 0.19329480E+04</pdfrwt>
<totfact> 0.55520002E+00</totfact>
</mgrwt>
</event>
<event>
 6    1  0.3017327E-006  0.1789469E+04  0.7818608E-02  0.8711920E-01
          2   -1    0    0  501    0  0.00000000000E+00  0.00000000000E+00  0.64356906985E+03  0.64356906985E+03  0.00000000000E+00 0. -1.
         -2   -1    0    0    0  501 -0.00000000000E+00 -0.00000000000E+00 -0.12439226145E+04  0.12439226145E+04  0.00000000000E+00 0.  1.
         23    2    1    2    0    0 -0.24391697424E+03  0.32009571794E+03  0.53965417145E+03  0.67853579113E+03  0.85014328873E+02 0.  0.
         11    1    3    3    0    0 -0.25895861527E+02  0.78203358942E+02  0.14608032828E+03  0.16770755292E+03  0.00000000000E+00 0. -1.
        -11    1    3    3    0    0 -0.21802111271E+03  0.24189235900E+03  0.39357384317E+03  0.51082823822E+03  0.00000000000E+00 0.  1.
         22    1    1    2    0    0  0.24391697424E+03 -0.32009571794E+03 -0.11400077161E+04  0.12089558932E+04  0.00000000000E+00 0.  1.
<mgrwt>
<rscale>  0 0.17894693E+04</rscale>
<asrwt>0</asrwt>
<pdfrwt beam="1">  1        2 0.99010626E-01 0.17894693E+04</pdfrwt>
<pdfrwt beam="2">  1       -2 0.19137271E+00 0.17894693E+04</pdfrwt>
<totfact> 0.65213414E+00</totfact>
</mgrwt>
</event>
<event>
 6    1  0.3017327E-006  0.1582641E+04  0.7818608E-02  0.8831284E-01
          2   -1    0    0  501    0  0.00000000000E+00  0.00000000000E+00  0.67595899140E+03  0.67595899140E+03  0.00000000000E+00 0.  1.
         -2   -1    0    0    0  501 -0.00000000000E+00 -0.00000000000E+00 -0.92636991097E+03  0.92636991097E+03  0.00000000000E+00 0. -1.
         23    2    1    2    0    0 -0.16345148946E+03  0.55350722697E+03 -0.66976555932E+03  0.88892512218E+03  0.92278538522E+02 0.  0.
         13    1    3    3    0    0 -0.10830332346E+02  0.18525901415E+03 -0.20030532633E+03  0.27305754372E+03  0.00000000000E+00 0. -1.
        -13    1    3    3    0    0 -0.15262115711E+03  0.36824821282E+03 -0.46946023299E+03  0.61586757846E+03  0.00000000000E+00 0.  1.
         22    1    1    2    0    0  0.16345148946E+03 -0.55350722697E+03  0.41935463975E+03  0.71340378020E+03  0.00000000000E+00 0.  1.
<mgrwt>
<rscale>  0 0.15826409E+04</rscale>
<asrwt>0</asrwt>
<pdfrwt beam="1">  1        2 0.10399369E+00 0.15826409E+04</pdfrwt>
<pdfrwt beam="2">  1       -2 0.14251845E+00 0.15826409E+04</pdfrwt>
<totfact> 0.14089017E+01</totfact>
</mgrwt>
</event>
<event>
 6    1  0.3017327E-006  0.2131229E+04  0.7818608E-02  0.8547610E-01
          2   -1    0    0  501    0  0.00000000000E+00  0.00000000000E+00  0.19564192189E+04  0.19564192189E+04  0.00000000000E+00 0. -1.
         -2   -1    0    0    0  501 -0.00000000000E+00 -0.00000000000E+00 -0.58041473619E+03  0.58041473619E+03  0.00000000000E+00 0.  1.
         23    2    1    2    0    0  0.97916278745E+03  0.18767410598E+03  0.11309176853E+04  0.15101651319E+04  0.87421851847E+02 0.  0.
         13    1    3    3    0    0  0.79110766414E+03  0.15867151582E+03  0.96344107766E+03  0.12566808252E+04  0.00000000000E+00 0.  1.
        -13    1    3    3    0    0  0.18805512331E+03  0.29002590157E+02  0.16747660766E+03  0.25348430672E+03  0.00000000000E+00 0. -1.
         22    1    1    2    0    0 -0.97916278745E+03 -0.18767410598E+03  0.24508679745E+03  0.10266688233E+04  0.00000000000E+00 0.  1.
<mgrwt>
<rscale>  0 0.21312293E+04</rscale>
<asrwt>0</asrwt>
<pdfrwt beam="1">  1        2 0.30098757E+00 0.21312293E+04</pdfrwt>
<pdfrwt beam="2">  1       -2 0.89294576E-01 0.21312293E+04</pdfrwt>
<totfact> 0.69880577E+00</totfact>
</mgrwt>
</event>
<event>
 6    1  0.3017327E-006  0.3281053E+04  0.7818608E-02  0.8167733E-01
          2   -1    0    0  501    0  0.00000000000E+00  0.00000000000E+00  0.26501990551E+04  0.26501990551E+04  0.00000000000E+00 0. -1.
         -2   -1    0    0    0  501 -0.00000000000E+00 -0.00000000000E+00 -0.10155189069E+04  0.10155189069E+04  0.00000000000E+00 0.  1.
         23    2    1    2    0    0 -0.15228152757E+04 -0.76612551011E+02  0.14608394778E+03  0.15348133431E+04  0.97342855688E+02 0.  0.
         11    1    3    3    0    0 -0.12400909997E+04 -0.52311048941E+02  0.81994506839E+02  0.12438992052E+04  0.00000000000E+00 0.  1.
        -11    1    3    3    0    0 -0.28272427599E+03 -0.24301502070E+02  0.64089440941E+02  0.29091413798E+03  0.00000000000E+00 0. -1.
         22    1    1    2    0    0  0.15228152757E+04  0.76612551011E+02  0.14885962004E+04  0.21309046189E+04  0.00000000000E+00 0. -1.
<mgrwt>
<rscale>  0 0.32810530E+04</rscale>
<asrwt>0</asrwt>
<pdfrwt beam="1">  1        2 0.40772293E+00 0.32810530E+04</pdfrwt>
<pdfrwt beam="2">  1       -2 0.15623368E+00 0.32810530E+04</pdfrwt>
<totfact> 0.63878022E-01</totfact>
</mgrwt>
</event>
<event>
 6    1  0.3017327E-006  0.2228862E+04  0.7818608E-02  0.8506510E-01
         -2   -1    0    0    0  501 -0.00000000000E+00  0.00000000000E+00  0.52724971094E+03  0.52724971094E+03  0.00000000000E+00 0.  1.
          2   -1    0    0  501    0  0.00000000000E+00 -0.00000000000E+00 -0.23555379875E+04  0.23555379875E+04  0.00000000000E+00 0. -1.
         23    2    1    2    0    0 -0.60743912403E+03 -0.92659286980E+03 -0.10454913721E+04  0.15262009414E+04  0.93169032386E+02 0.  0.
         13    1    3    3    0    0 -0.21006564155E+03 -0.34108695024E+03 -0.43832745523E+03  0.59380033630E+03  0.00000000000E+00 0.  1.
        -13    1    3    3    0    0 -0.39737348249E+03 -0.58550591956E+03 -0.60716391687E+03  0.93240060509E+03  0.00000000000E+00 0. -1.
         22    1    1    2    0    0  0.60743912403E+03  0.92659286980E+03 -0.78279690447E+03  0.13565867571E+04  0.00000000000E+00 0.  1.
<mgrwt>
<rscale>  0 0.22288622E+04</rscale>
<asrwt>0</asrwt>
<pdfrwt beam="1">  1        2 0.36239046E+00 0.22288622E+04</pdfrwt>
<pdfrwt beam="2">  1       -2 0.81115339E-01 0.22288622E+04</pdfrwt>
<totfact> 0.51496773E+00</totfact>
</mgrwt>
</event>
<event>
 6    1  0.3017327E-006  0.1567562E+04  0.7818608E-02  0.8840728E-01
          2   -1    0    0  501    0  0.00000000000E+00  0.00000000000E+00  0.74181599145E+03  0.74181599145E+03  0.00000000000E+00 0. -1.
         -2   -1    0    0    0  501 -0.00000000000E+00 -0.00000000000E+00 -0.82811982768E+03  0.82811982768E+03  0.00000000000E+00 0.  1.
         23    2    1    2    0    0 -0.73103860932E+03 -0.26755344882E+03 -0.10825584099E+03  0.79116487282E+03  0.90665498346E+02 0.  0.
         11    1    3    3    0    0 -0.79328242894E+02 -0.29219320317E+02 -0.41099524828E+02  0.93999519901E+02  0.00000000000E+00 0. -1.
        -11    1    3    3    0    0 -0.65171036642E+03 -0.23833412851E+03 -0.67156316161E+02  0.69716535292E+03  0.00000000000E+00 0.  1.
         22    1    1    2    0    0  0.73103860932E+03  0.26755344882E+03  0.21952004757E+02  0.77877094630E+03  0.00000000000E+00 0.  1.
<mgrwt>
<rscale>  0 0.15675618E+04</rscale>
<asrwt>0</asrwt>
<pdfrwt beam="1">  1        2 0.11412554E+00 0.15675618E+04</pdfrwt>
<pdfrwt beam="2">  1       -2 0.12740305E+00 0.15675618E+04</pdfrwt>
<totfact> 0.16708270E+01</totfact>
</mgrwt>
</event>
<event>
 6    1  0.3017327E-006  0.2083879E+04  0.7818608E-02  0.8568378E-01
          4   -1    0    0  501    0  0.00000000000E+00  0.00000000000E+00  0.10433500131E+04  0.10433500131E+04  0.00000000000E+00 0. -1.
         -4   -1    0    0    0  501 -0.00000000000E+00 -0.00000000000E+00 -0.10405303961E+04  0.10405303961E+04  0.00000000000E+00 0.  1.
         23    2    1    2    0    0 -0.19324975770E+03  0.10040025984E+04 -0.18905665519E+03  0.10436000671E+04  0.89397956909E+02 0.  0.
         11    1    3    3    0    0 -0.13574977774E+03  0.46912911516E+03 -0.88843723385E+02  0.49639030614E+03  0.00000000000E+00 0. -1.
        -11    1    3    3    0    0 -0.57499979966E+02  0.53487348324E+03 -0.10021293180E+03  0.54720976094E+03  0.00000000000E+00 0.  1.
         22    1    1    2    0    0  0.19324975770E+03 -0.10040025984E+04  0.19187627220E+03  0.10402803422E+04  0.00000000000E+00 0. -1.
<mgrwt>
<rscale>  0 0.20838785E+04</rscale>
<asrwt>0</asrwt>
<pdfrwt beam="1">  1        4 0.16051539E+00 0.20838785E+04</pdfrwt>
<pdfrwt beam="2">  1       -4 0.16008160E+00 0.20838785E+04</pdfrwt>
<totfact> 0.11434094E-01</totfact>
</mgrwt>
</event>
<event>
 6    1  0.3017327E-006  0.2349389E+04  0.7818608E-02  0.8458699E-01
          2   -1    0    0  501    0  0.00000000000E+00  0.00000000000E+00  0.33609942180E+04  0.33609942180E+04  0.00000000000E+00 0. -1.
         -2   -1    0    0    0  501 -0.00000000000E+00 -0.00000000000E+00 -0.41056502698E+03  0.41056502698E+03  0.00000000000E+00 0.  1.
         23    2    1    2    0    0 -0.72676577137E+02  0.11403210512E+04  0.10510318402E+04  0.15549572778E+04  0.87236585710E+02 0.  0.
         13    1    3    3    0    0 -0.21369173152E+02  0.28745319047E+03  0.31792432745E+03  0.42914083499E+03  0.00000000000E+00 0. -1.
        -13    1    3    3    0    0 -0.51307403985E+02  0.85286786075E+03  0.73310751278E+03  0.11258164428E+04  0.00000000000E+00 0.  1.
         22    1    1    2    0    0  0.72676577137E+02 -0.11403210512E+04  0.18993973507E+04  0.22166019671E+04  0.00000000000E+00 0.  1.
<mgrwt>
<rscale>  0 0.23493886E+04</rscale>
<asrwt>0</asrwt>
<pdfrwt beam="1">  1        2 0.51707602E+00 0.23493886E+04</pdfrwt>
<pdfrwt beam="2">  1       -2 0.63163852E-01 0.23493886E+04</pdfrwt>
<totfact> 0.21282937E+00</totfact>
</mgrwt>
</event>
<event>
 6    1  0.3017327E-006  0.1646628E+04  0.7818608E-02  0.8792404E-01
          2   -1    0    0  501    0  0.00000000000E+00  0.00000000000E+00  0.15852621899E+04  0.15852621899E+04  0.00000000000E+00 0. -1.
         -2   -1    0    0    0  501 -0.00000000000E+00 -0.00000000000E+00 -0.42759246520E+03  0.42759246520E+03  0.00000000000E+00 0.  1.
         23    2    1    2    0    0 -0.77471752436E+03  0.19463440098E+03  0.81110633456E+03  0.11421216443E+04  0.92079161022E+02 0.  0.
         11    1    3    3    0    0 -0.32620723951E+03  0.77559989536E+02  0.27702274463E+03  0.43493484124E+03  0.00000000000E+00 0.  1.
        -11    1    3    3    0    0 -0.44851028486E+03  0.11707441144E+03  0.53408358993E+03  0.70718680309E+03  0.00000000000E+00 0. -1.
         22    1    1    2    0    0  0.77471752436E+03 -0.19463440098E+03  0.34656339009E+03  0.87073301071E+03  0.00000000000E+00 0.  1.
<mgrwt>
<rscale>  0 0.16466283E+04</rscale>
<asrwt>0</asrwt>
<pdfrwt beam="1">  1        2 0.24388649E+00 0.16466283E+04</pdfrwt>
<pdfrwt beam="2">  1       -2 0.65783457E-01 0.16466283E+04</pdfrwt>
<totfact> 0.23102690E+01</totfact>
</mgrwt>
</event>
<event>
 6    1  0.3017327E-006  0.1968631E+04  0.7818608E-02  0.8621429E-01
          1   -1    0    0  501    0  0.00000000000E+00  0.00000000000E+00  0.84509598930E+03  0.84509598930E+03  0.00000000000E+00 0. -1.
         -1   -1    0    0    0  501 -0.00000000000E+00 -0.00000000000E+00 -0.11464695726E+04  0.11464695726E+04  0.00000000000E+00 0.  1.
         23    2    1    2    0    0  0.93854099915E+02 -0.56929547997E+03  0.65305291581E+03  0.87629165932E+03  0.92211852581E+02 0.  0.
         11    1    3    3    0    0  0.31967366900E+02 -0.41436796614E+03  0.49681136222E+03  0.64772235837E+03  0.00000000000E+00 0. -1.
        -11    1    3    3    0    0  0.61886733014E+02 -0.15492751383E+03  0.15624155359E+03  0.22856930094E+03  0.00000000000E+00 0.  1.
         22    1    1    2    0    0 -0.93854099915E+02  0.56929547997E+03 -0.95442649912E+03  0.11152739026E+04  0.00000000000E+00 0.  1.
<mgrwt>
<rscale>  0 0.19686308E+04</rscale>
<asrwt>0</asrwt>
<pdfrwt beam="1">  1        1 0.13001477E+00 0.19686308E+04</pdfrwt>
<pdfrwt beam="2">  1       -1 0.17637993E+00 0.19686308E+04</pdfrwt>
<totfact> 0.41568378E+00</totfact>
</mgrwt>
</event>
<event>
 6    1  0.3017327E-006  0.2787821E+04  0.7818608E-02  0.8307059E-01
          2   -1    0    0  501    0  0.00000000000E+00  0.00000000000E+00  0.24934584963E+04  0.24934584963E+04  0.00000000000E+00 0. -1.
         -2   -1    0    0    0  501 -0.00000000000E+00 -0.00000000000E+00 -0.77923363507E+03  0.77923363507E+03  0.00000000000E+00 0.  1.
         23    2    1    2    0    0  0.92021893292E+03  0.32250351811E+03  0.20247984086E+04  0.22493313290E+04  0.94188259485E+02 0.  0.
         13    1    3    3    0    0  0.45507468926E+03  0.11563809861E+03  0.10230212310E+04  0.11256276390E+04  0.00000000000E+00 0. -1.
        -13    1    3    3    0    0  0.46514424365E+03  0.20686541951E+03  0.10017771777E+04  0.11237036900E+04  0.00000000000E+00 0.  1.
         22    1    1    2    0    0 -0.92021893292E+03 -0.32250351811E+03 -0.31057354734E+03  0.10233608025E+04  0.00000000000E+00 0.  1.
<mgrwt>
<rscale>  0 0.27878212E+04</rscale>
<asrwt>0</asrwt>
<pdfrwt beam="1">  1        2 0.38360900E+00 0.27878212E+04</pdfrwt>
<pdfrwt beam="2">  1       -2 0.11988210E+00 0.27878212E+04</pdfrwt>
<totfact> 0.16278080E+00</totfact>
</mgrwt>
</event>
<event>
 6    1  0.3017327E-006  0.3066014E+04  0.7818608E-02  0.8225127E-01
         -2   -1    0    0    0  501 -0.00000000000E+00  0.00000000000E+00  0.11857883041E+04  0.11857883041E+04  0.00000000000E+00 0.  1.
          2   -1    0    0  501    0  0.00000000000E+00 -0.00000000000E+00 -0.19818974216E+04  0.19818974216E+04  0.00000000000E+00 0. -1.
         23    2    1    2    0    0  0.36031902991E+03  0.11496041104E+04 -0.13756018380E+04  0.18308120492E+04  0.90404252112E+02 0.  0.
         11    1    3    3    0    0  0.33110140513E+03  0.94612191217E+03 -0.11294164345E+04  0.15100848637E+04  0.00000000000E+00 0. -1.
        -11    1    3    3    0    0  0.29217624781E+02  0.20348219821E+03 -0.24618540356E+03  0.32072718549E+03  0.00000000000E+00 0.  1.
         22    1    1    2    0    0 -0.36031902991E+03 -0.11496041104E+04  0.57949272044E+03  0.13368736765E+04  0.00000000000E+00 0.  1.
<mgrwt>
<rscale>  0 0.30660142E+04</rscale>
<asrwt>0</asrwt>
<pdfrwt beam="1">  1        2 0.30490729E+00 0.30660142E+04</pdfrwt>
<pdfrwt beam="2">  1       -2 0.18242897E+00 0.30660142E+04</pdfrwt>
<totfact> 0.10158391E+00</totfact>
</mgrwt>
</event>
<event>
 6    1  0.3017327E-006  0.1858622E+04  0.7818608E-02  0.8675731E-01
         -2   -1    0    0    0  501 -0.00000000000E+00  0.00000000000E+00  0.96991172669E+03  0.96991172669E+03  0.00000000000E+00 0.  1.
          2   -1    0    0  501    0  0.00000000000E+00 -0.00000000000E+00 -0.89041027022E+03  0.89041027022E+03  0.00000000000E+00 0. -1.
         23    2    1    2    0    0 -0.13639739375E+03  0.12892077143E+03  0.94853213748E+03  0.97125555457E+03  0.91647815709E+02 0.  0.
         11    1    3    3    0    0 -0.88942211639E+02  0.12953434725E+03  0.63501048861E+03  0.65416220066E+03  0.00000000000E+00 0. -1.
        -11    1    3    3    0    0 -0.47455182111E+02 -0.61357581273E+00  0.31352164887E+03  0.31709335391E+03  0.00000000000E+00 0.  1.
         22    1    1    2    0    0  0.13639739375E+03 -0.12892077143E+03 -0.86903068102E+03  0.88906644233E+03  0.00000000000E+00 0. -1.
<mgrwt>
<rscale>  0 0.18586225E+04</rscale>
<asrwt>0</asrwt>
<pdfrwt beam="1">  1        2 0.13698619E+00 0.18586225E+04</pdfrwt>
<pdfrwt beam="2">  1       -2 0.14921719E+00 0.18586225E+04</pdfrwt>
<totfact> 0.84950269E+00</totfact>
</mgrwt>
</event>
<event>
 6    1  0.3017327E-006  0.3564177E+04  0.7818608E-02  0.8098747E-01
         -2   -1    0    0    0  501 -0.00000000000E+00  0.00000000000E+00  0.94126451329E+03  0.94126451329E+03  0.00000000000E+00 0.  1.
          2   -1    0    0  501    0  0.00000000000E+00 -0.00000000000E+00 -0.33740140968E+04  0.33740140968E+04  0.00000000000E+00 0. -1.
         23    2    1    2    0    0 -0.56087894333E+03 -0.11674724360E+04  0.26276665250E+03  0.13247293534E+04  0.91019054026E+02 0.  0.
         11    1    3    3    0    0 -0.30609974646E+03 -0.66504531085E+03  0.10406476650E+03  0.73946723788E+03  0.00000000000E+00 0.  1.
        -11    1    3    3    0    0 -0.25477919687E+03 -0.50242712518E+03  0.15870188600E+03  0.58526211555E+03  0.00000000000E+00 0. -1.
         22    1    1    2    0    0  0.56087894333E+03  0.11674724360E+04 -0.26955162360E+04  0.29905492566E+04  0.00000000000E+00 0. -1.
<mgrwt>
<rscale>  0 0.35641772E+04</rscale>
<asrwt>0</asrwt>
<pdfrwt beam="1">  1        2 0.51907910E+00 0.35641772E+04</pdfrwt>
<pdfrwt beam="2">  1       -2 0.14480992E+00 0.35641772E+04</pdfrwt>
<totfact> 0.26654311E-01</totfact>
</mgrwt>
</event>
<event>
 6    1  0.3017327E-006  0.3246577E+04  0.7818608E-02  0.8176623E-01
         -2   -1    0    0    0  501 -0.00000000000E+00  0.00000000000E+00  0.96674819949E+03  0.96674819949E+03  0.00000000000E+00 0.  1.
          2   -1    0    0  501    0  0.00000000000E+00 -0.00000000000E+00 -0.27256999321E+04  0.27256999321E+04  0.00000000000E+00 0. -1.
         23    2    1    2    0    0  0.10597258258E+04 -0.32933337120E+02  0.51534536002E+03  0.11831592490E+04  0.10090360737E+03 0.  0.
         13    1    3    3    0    0  0.17885736813E+03 -0.34285523029E+02  0.61288322788E+02  0.19215023740E+03  0.00000000000E+00 0.  1.
        -13    1    3    3    0    0  0.88086845765E+03  0.13521859090E+01  0.45405703724E+03  0.99100901164E+03  0.00000000000E+00 0. -1.
         22    1    1    2    0    0 -0.10597258258E+04  0.32933337120E+02 -0.22742970926E+04  0.25092888825E+04  0.00000000000E+00 0. -1.
<mgrwt>
<rscale>  0 0.32465770E+04</rscale>
<asrwt>0</asrwt>
<pdfrwt beam="1">  1        2 0.41933844E+00 0.32465770E+04</pdfrwt>
<pdfrwt beam="2">  1       -2 0.14873050E+00 0.32465770E+04</pdfrwt>
<totfact> 0.65864905E-01</totfact>
</mgrwt>
</event>
<event>
 6    1  0.3017327E-006  0.1800489E+04  0.7818608E-02  0.8706039E-01
         -2   -1    0    0    0  501 -0.00000000000E+00  0.00000000000E+00  0.55883937797E+03  0.55883937797E+03  0.00000000000E+00 0.  1.
          2   -1    0    0  501    0  0.00000000000E+00 -0.00000000000E+00 -0.14502208326E+04  0.14502208326E+04  0.00000000000E+00 0. -1.
         23    2    1    2    0    0 -0.72830776941E+03  0.21686910971E+02 -0.10327612757E+04  0.12668400391E+04  0.85937785599E+02 0.  0.
         11    1    3    3    0    0 -0.62154136033E+03 -0.11525105068E+02 -0.86395236959E+03  0.10643590501E+04  0.00000000000E+00 0. -1.
        -11    1    3    3    0    0 -0.10676640908E+03  0.33212016039E+02 -0.16880890614E+03  0.20248098900E+03  0.00000000000E+00 0.  1.
         22    1    1    2    0    0  0.72830776941E+03 -0.21686910971E+02  0.14137982109E+03  0.74222017145E+03  0.00000000000E+00 0. -1.
<mgrwt>
<rscale>  0 0.18004894E+04</rscale>
<asrwt>0</asrwt>
<pdfrwt beam="1">  1        2 0.22311089E+00 0.18004894E+04</pdfrwt>
<pdfrwt beam="2">  1       -2 0.85975290E-01 0.18004894E+04</pdfrwt>
<totfact> 0.15013013E+01</totfact>
</mgrwt>
</event>
<event>
 6    1  0.3017327E-006  0.2601769E+04  0.7818608E-02  0.8367600E-01
         -2   -1    0    0    0  501 -0.00000000000E+00  0.00000000000E+00  0.21659165909E+04  0.21659165909E+04  0.00000000000E+00 0.  1.
          2   -1    0    0  501    0  0.00000000000E+00 -0.00000000000E+00 -0.78133239226E+03  0.78133239226E+03  0.00000000000E+00 0. -1.
         23    2    1    2    0    0  0.94160310958E+03  0.82188498875E+03  0.10957521064E+04  0.16644647736E+04  0.87515445419E+02 0.  0.
         13    1    3    3    0    0  0.24749185177E+03  0.19049551878E+03  0.31800896786E+03  0.44572464932E+03  0.00000000000E+00 0.  1.
        -13    1    3    3    0    0  0.69411125781E+03  0.63138946997E+03  0.77774313857E+03  0.12187401243E+04  0.00000000000E+00 0. -1.
         22    1    1    2    0    0 -0.94160310958E+03 -0.82188498875E+03  0.28883209218E+03  0.12827842095E+04  0.00000000000E+00 0. -1.
<mgrwt>
<rscale>  0 0.26017692E+04</rscale>
<asrwt>0</asrwt>
<pdfrwt beam="1">  1        2 0.12020498E+00 0.26017692E+04</pdfrwt>
<pdfrwt beam="2">  1       -2 0.33321794E+00 0.26017692E+04</pdfrwt>
<totfact> 0.62327993E-01</totfact>
</mgrwt>
</event>
<event>
 6    1  0.3017327E-006  0.5925152E+03  0.7818608E-02  0.9921058E-01
         -2   -1    0    0    0  501 -0.00000000000E+00  0.00000000000E+00  0.66840850153E+03  0.66840850153E+03  0.00000000000E+00 0.  1.
          2   -1    0    0  501    0  0.00000000000E+00 -0.00000000000E+00 -0.13130974636E+03  0.13130974636E+03  0.00000000000E+00 0. -1.
         23    2    1    2    0    0  0.17011180018E+03 -0.20120026465E+03  0.11247605776E+03  0.29999431790E+03  0.89028962402E+02 0.  0.
         11    1    3    3    0    0  0.12857635105E+03 -0.14979673944E+03  0.12369416730E+03  0.23296177416E+03  0.00000000000E+00 0. -1.
        -11    1    3    3    0    0  0.41535449136E+02 -0.51403525214E+02 -0.11218109536E+02  0.67032543745E+02  0.00000000000E+00 0.  1.
         22    1    1    2    0    0 -0.17011180018E+03  0.20120026465E+03  0.42462269740E+03  0.49972392999E+03  0.00000000000E+00 0.  1.
<mgrwt>
<rscale>  0 0.59251515E+03</rscale>
<asrwt>0</asrwt>
<pdfrwt beam="1">  1        2 0.20201500E-01 0.59251515E+03</pdfrwt>
<pdfrwt beam="2">  1       -2 0.10283207E+00 0.59251515E+03</pdfrwt>
<totfact> 0.21970395E+02</totfact>
</mgrwt>
</event>
<event>
 6    1  0.3017327E-006  0.2432436E+04  0.7818608E-02  0.8427459E-01
         -2   -1    0    0    0  501 -0.00000000000E+00  0.00000000000E+00  0.14650540555E+04  0.14650540555E+04  0.00000000000E+00 0.  1.
          2   -1    0    0  501    0  0.00000000000E+00 -0.00000000000E+00 -0.10096465288E+04  0.10096465288E+04  0.00000000000E+00 0. -1.
         23    2    1    2    0    0 -0.62149116738E+03  0.12575733440E+03 -0.82581096841E+03  0.10451597452E+04  0.91263131491E+02 0.  0.
         11    1    3    3    0    0 -0.59246545188E+03  0.12433987939E+03 -0.74913107686E+03  0.96315787263E+03  0.00000000000E+00 0. -1.
        -11    1    3    3    0    0 -0.29025715492E+02  0.14174550091E+01 -0.76679891547E+02  0.82001872577E+02  0.00000000000E+00 0.  1.
         22    1    1    2    0    0  0.62149116738E+03 -0.12575733440E+03  0.12812184951E+04  0.14295408390E+04  0.00000000000E+00 0.  1.
<mgrwt>
<rscale>  0 0.24324364E+04</rscale>
<asrwt>0</asrwt>
<pdfrwt beam="1">  1        2 0.15533023E+00 0.24324364E+04</pdfrwt>
<pdfrwt beam="2">  1       -2 0.22539293E+00 0.24324364E+04</pdfrwt>
<totfact> 0.20347324E+00</totfact>
</mgrwt>
</event>
<event>
 6    1  0.3017327E-006  0.1059229E+04  0.7818608E-02  0.9245868E-01
          2   -1    0    0  501    0  0.00000000000E+00  0.00000000000E+00  0.86288700351E+03  0.86288700351E+03  0.00000000000E+00 0. -1.
         -2   -1    0    0    0  501 -0.00000000000E+00 -0.00000000000E+00 -0.32506144056E+03  0.32506144056E+03  0.00000000000E+00 0.  1.
         23    2    1    2    0    0  0.19370497170E+03 -0.48083900739E+03  0.17285221874E+03  0.55396633937E+03  0.90956300197E+02 0.  0.
         11    1    3    3    0    0  0.96931167657E+02 -0.15830179127E+03  0.94222346127E+02  0.20816570057E+03  0.00000000000E+00 0. -1.
        -11    1    3    3    0    0  0.96773804038E+02 -0.32253721612E+03  0.78629872610E+02  0.34580063880E+03  0.00000000000E+00 0.  1.
         22    1    1    2    0    0 -0.19370497170E+03  0.48083900739E+03  0.36497334421E+03  0.63398210470E+03  0.00000000000E+00 0.  1.
<mgrwt>
<rscale>  0 0.10592286E+04</rscale>
<asrwt>0</asrwt>
<pdfrwt beam="1">  1        2 0.13275185E+00 0.10592286E+04</pdfrwt>
<pdfrwt beam="2">  1       -2 0.50009453E-01 0.10592286E+04</pdfrwt>
<totfact> 0.11703271E+02</totfact>
</mgrwt>
</event>
<event>
 6    1  0.3020125E-006  0.2891024E+04  0.7818608E-02  0.8275553E-01
          2   -1    0    0  501    0  0.00000000000E+00  0.00000000000E+00  0.20519189941E+04  0.20519189941E+04  0.00000000000E+00 0. -1.
         -2   -1    0    0    0  501 -0.00000000000E+00 -0.00000000000E+00 -0.10183177422E+04  0.10183177422E+04  0.00000000000E+00 0.  1.
         23    2    1    2    0    0  0.10231788126E+02 -0.12328588769E+04  0.13156916085E+04  0.18054756248E+04  0.93016790651E+02 0.  0.
         13    1    3    3    0    0  0.42998586792E+02 -0.38980039192E+03  0.39275039032E+03  0.55501900247E+03  0.00000000000E+00 0. -1.
        -13    1    3    3    0    0 -0.32766798666E+02 -0.84305848503E+03  0.92294121814E+03  0.12504566224E+04  0.00000000000E+00 0.  1.
         22    1    1    2    0    0 -0.10231788126E+02  0.12328588769E+04 -0.28209035654E+03  0.12647611115E+04  0.00000000000E+00 0.  1.
<mgrwt>
<rscale>  0 0.28910244E+04</rscale>
<asrwt>0</asrwt>
<pdfrwt beam="1">  1        2 0.31567985E+00 0.28910244E+04</pdfrwt>
<pdfrwt beam="2">  1       -2 0.15666427E+00 0.28910244E+04</pdfrwt>
<totfact> 0.14400348E+00</totfact>
</mgrwt>
</event>
<event>
 6    1  0.3017327E-006  0.1359927E+04  0.7818608E-02  0.8983347E-01
         -2   -1    0    0    0  501 -0.00000000000E+00  0.00000000000E+00  0.47026287595E+03  0.47026287595E+03  0.00000000000E+00 0.  1.
          2   -1    0    0  501    0  0.00000000000E+00 -0.00000000000E+00 -0.98317444612E+03  0.98317444612E+03  0.00000000000E+00 0. -1.
         23    2    1    2    0    0  0.39390752262E+03 -0.15499792742E+03  0.30709308655E+03  0.53061820061E+03  0.89788736119E+02 0.  0.
         13    1    3    3    0    0  0.20452179431E+03 -0.11124481540E+03  0.20912832497E+03  0.31295243985E+03  0.00000000000E+00 0.  1.
        -13    1    3    3    0    0  0.18938572831E+03 -0.43753112019E+02  0.97964761583E+02  0.21766576077E+03  0.00000000000E+00 0. -1.
         22    1    1    2    0    0 -0.39390752262E+03  0.15499792742E+03 -0.82000465672E+03  0.92281912145E+03  0.00000000000E+00 0. -1.
<mgrwt>
<rscale>  0 0.13599271E+04</rscale>
<asrwt>0</asrwt>
<pdfrwt beam="1">  1        2 0.15125761E+00 0.13599271E+04</pdfrwt>
<pdfrwt beam="2">  1       -2 0.72348135E-01 0.13599271E+04</pdfrwt>
<totfact> 0.43600830E+01</totfact>
</mgrwt>
</event>
<event>
 6    1  0.3017327E-006  0.2447280E+04  0.7818608E-02  0.8422012E-01
         -2   -1    0    0    0  501 -0.00000000000E+00  0.00000000000E+00  0.11057242173E+04  0.11057242173E+04  0.00000000000E+00 0.  1.
          2   -1    0    0  501    0  0.00000000000E+00 -0.00000000000E+00 -0.13541300568E+04  0.13541300568E+04  0.00000000000E+00 0. -1.
         23    2    1    2    0    0 -0.11903014687E+04 -0.25279138790E+03 -0.23192619028E+03  0.12428938594E+04  0.10136230019E+03 0.  0.
         13    1    3    3    0    0 -0.67359942231E+03 -0.19176067030E+03 -0.11720337448E+03  0.71010208238E+03  0.00000000000E+00 0. -1.
        -13    1    3    3    0    0 -0.51670204636E+03 -0.61030717598E+02 -0.11472281580E+03  0.53279177703E+03  0.00000000000E+00 0.  1.
         22    1    1    2    0    0  0.11903014687E+04  0.25279138790E+03 -0.16479649204E+02  0.12169604147E+04  0.00000000000E+00 0.  1.
<mgrwt>
<rscale>  0 0.24472796E+04</rscale>
<asrwt>0</asrwt>
<pdfrwt beam="1">  1        2 0.20832770E+00 0.24472796E+04</pdfrwt>
<pdfrwt beam="2">  1       -2 0.17011142E+00 0.24472796E+04</pdfrwt>
<totfact> 0.29306880E+00</totfact>
</mgrwt>
</event>
<event>
 6    1  0.3017327E-006  0.5544959E+04  0.7818608E-02  0.7749533E-01
         -1   -1    0    0    0  501 -0.00000000000E+00  0.00000000000E+00  0.26479617191E+04  0.26479617191E+04  0.00000000000E+00 0.  1.
          1   -1    0    0  501    0  0.00000000000E+00 -0.00000000000E+00 -0.29028523538E+04  0.29028523538E+04  0.00000000000E+00 0. -1.
         23    2    1    2    0    0  0.24271899361E+04 -0.52253733662E+03  0.11061026292E+04  0.27194541667E+04  0.87588152382E+02 0.  0.
         13    1    3    3    0    0  0.17654452110E+04 -0.34194000420E+03  0.81375476405E+03  0.19738076339E+04  0.00000000000E+00 0.  1.
        -13    1    3    3    0    0  0.66174472511E+03 -0.18059733242E+03  0.29234786518E+03  0.74564653286E+03  0.00000000000E+00 0. -1.
         22    1    1    2    0    0 -0.24271899361E+04  0.52253733662E+03 -0.13609932639E+04  0.28313599062E+04  0.00000000000E+00 0. -1.
<mgrwt>
<rscale>  0 0.55449588E+04</rscale>
<asrwt>0</asrwt>
<pdfrwt beam="1">  1        1 0.44659267E+00 0.55449588E+04</pdfrwt>
<pdfrwt beam="2">  1       -1 0.40737873E+00 0.55449588E+04</pdfrwt>
<totfact> 0.31001650E-03</totfact>
</mgrwt>
</event>
<event>
 6    1  0.3017327E-006  0.1276434E+04  0.7818608E-02  0.9048465E-01
          2   -1    0    0  501    0  0.00000000000E+00  0.00000000000E+00  0.11225074032E+04  0.11225074032E+04  0.00000000000E+00 0.  1.
         -2   -1    0    0    0  501 -0.00000000000E+00 -0.00000000000E+00 -0.36286695210E+03  0.36286695210E+03  0.00000000000E+00 0. -1.
         23    2    1    2    0    0 -0.62455338389E+02 -0.29695558786E+03  0.10307976644E+04  0.10784228536E+04  0.91480795185E+02 0.  0.
         11    1    3    3    0    0  0.19258406180E+02 -0.12149439810E+03  0.42637602973E+03  0.44376603488E+03  0.00000000000E+00 0. -1.
        -11    1    3    3    0    0 -0.81713744569E+02 -0.17546118976E+03  0.60442163465E+03  0.63465681876E+03  0.00000000000E+00 0.  1.
         22    1    1    2    0    0  0.62455338389E+02  0.29695558786E+03 -0.27115721324E+03  0.40695150171E+03  0.00000000000E+00 0. -1.
<mgrwt>
<rscale>  0 0.12764338E+04</rscale>
<asrwt>0</asrwt>
<pdfrwt beam="1">  1        2 0.17269344E+00 0.12764338E+04</pdfrwt>
<pdfrwt beam="2">  1       -2 0.55825685E-01 0.12764338E+04</pdfrwt>
<totfact> 0.62435109E+01</totfact>
</mgrwt>
</event>
<event>
 6    1  0.3017327E-006  0.1538781E+04  0.7818608E-02  0.8859066E-01
          1   -1    0    0  501    0  0.00000000000E+00  0.00000000000E+00  0.12240219297E+04  0.12240219297E+04  0.00000000000E+00 0. -1.
         -1   -1    0    0    0  501 -0.00000000000E+00 -0.00000000000E+00 -0.48362017795E+03  0.48362017795E+03  0.00000000000E+00 0.  1.
         23    2    1    2    0    0 -0.53137900608E+03 -0.40780966827E+02  0.98308157501E+03  0.11220481937E+04  0.92282341821E+02 0.  0.
         13    1    3    3    0    0 -0.20722529723E+03 -0.59097886194E+02  0.42066827230E+03  0.47264857906E+03  0.00000000000E+00 0.  1.
        -13    1    3    3    0    0 -0.32415370885E+03  0.18316919367E+02  0.56241330271E+03  0.64939961469E+03  0.00000000000E+00 0. -1.
         22    1    1    2    0    0  0.53137900608E+03  0.40780966827E+02 -0.24267982328E+03  0.58559391389E+03  0.00000000000E+00 0.  1.
<mgrwt>
<rscale>  0 0.15387810E+04</rscale>
<asrwt>0</asrwt>
<pdfrwt beam="1">  1        1 0.18831106E+00 0.15387810E+04</pdfrwt>
<pdfrwt beam="2">  1       -1 0.74403105E-01 0.15387810E+04</pdfrwt>
<totfact> 0.17993565E+01</totfact>
</mgrwt>
</event>
<event>
 6    1  0.3017327E-006  0.4735287E+04  0.7818608E-02  0.7870692E-01
         -2   -1    0    0    0  501 -0.00000000000E+00  0.00000000000E+00  0.26830714377E+04  0.26830714377E+04  0.00000000000E+00 0.  1.
          2   -1    0    0  501    0  0.00000000000E+00 -0.00000000000E+00 -0.20892977243E+04  0.20892977243E+04  0.00000000000E+00 0. -1.
         23    2    1    2    0    0 -0.55693145626E+03  0.13058235773E+04  0.22055496264E+04  0.26245401521E+04  0.91727825622E+02 0.  0.
         11    1    3    3    0    0 -0.35237429330E+03  0.74520434364E+03  0.12194865023E+04  0.14719526099E+04  0.00000000000E+00 0.  1.
        -11    1    3    3    0    0 -0.20455716296E+03  0.56061923362E+03  0.98606312404E+03  0.11525875423E+04  0.00000000000E+00 0. -1.
         22    1    1    2    0    0  0.55693145626E+03 -0.13058235773E+04 -0.16117759130E+04  0.21478290098E+04  0.00000000000E+00 0. -1.
<mgrwt>
<rscale>  0 0.47352867E+04</rscale>
<asrwt>0</asrwt>
<pdfrwt beam="1">  1        2 0.32143042E+00 0.47352867E+04</pdfrwt>
<pdfrwt beam="2">  1       -2 0.41278022E+00 0.47352867E+04</pdfrwt>
<totfact> 0.27118041E-02</totfact>
</mgrwt>
</event>
<event>
 6    1  0.3017327E-006  0.3410501E+04  0.7818608E-02  0.8135334E-01
         -2   -1    0    0    0  501 -0.00000000000E+00  0.00000000000E+00  0.13723223840E+04  0.13723223840E+04  0.00000000000E+00 0.  1.
          2   -1    0    0  501    0  0.00000000000E+00 -0.00000000000E+00 -0.21189478570E+04  0.21189478570E+04  0.00000000000E+00 0. -1.
         23    2    1    2    0    0  0.16290985660E+02  0.62006234167E+03  0.12511763996E+04  0.13993918923E+04  0.90069869895E+02 0.  0.
         13    1    3    3    0    0  0.53364053459E+02  0.32270542160E+03  0.66031939527E+03  0.73689091126E+03  0.00000000000E+00 0. -1.
        -13    1    3    3    0    0 -0.37073067799E+02  0.29735692008E+03  0.59085700435E+03  0.66250098103E+03  0.00000000000E+00 0.  1.
         22    1    1    2    0    0 -0.16290985660E+02 -0.62006234167E+03 -0.19978018725E+04  0.20918783487E+04  0.00000000000E+00 0. -1.
<mgrwt>
<rscale>  0 0.34105012E+04</rscale>
<asrwt>0</asrwt>
<pdfrwt beam="1">  1        2 0.32599198E+00 0.34105012E+04</pdfrwt>
<pdfrwt beam="2">  1       -2 0.21112652E+00 0.34105012E+04</pdfrwt>
<totfact> 0.53452203E-01</totfact>
</mgrwt>
</event>
<event>
 6    1  0.3017327E-006  0.1192365E+04  0.7818608E-02  0.9119566E-01
          2   -1    0    0  501    0  0.00000000000E+00  0.00000000000E+00  0.44904350681E+03  0.44904350681E+03  0.00000000000E+00 0. -1.
         -2   -1    0    0    0  501 -0.00000000000E+00 -0.00000000000E+00 -0.79153448925E+03  0.79153448925E+03  0.00000000000E+00 0.  1.
         23    2    1    2    0    0 -0.58262305542E+03 -0.10369457038E+03 -0.13766435120E+03  0.61435428404E+03  0.90980899573E+02 0.  0.
         11    1    3    3    0    0 -0.30024332954E+03 -0.99238613593E+02 -0.67168364451E+02  0.32327379811E+03  0.00000000000E+00 0. -1.
        -11    1    3    3    0    0 -0.28237972589E+03 -0.44559567913E+01 -0.70495986748E+02  0.29108048593E+03  0.00000000000E+00 0.  1.
         22    1    1    2    0    0  0.58262305542E+03  0.10369457038E+03 -0.20482663124E+03  0.62622371203E+03  0.00000000000E+00 0. -1.
<mgrwt>
<rscale>  0 0.11923647E+04</rscale>
<asrwt>0</asrwt>
<pdfrwt beam="1">  1        2 0.69083617E-01 0.11923647E+04</pdfrwt>
<pdfrwt beam="2">  1       -2 0.12177454E+00 0.11923647E+04</pdfrwt>
<totfact> 0.35220578E+01</totfact>
</mgrwt>
</event>
<event>
 6    1  0.3017327E-006  0.1671481E+04  0.7818608E-02  0.8777799E-01
         -2   -1    0    0    0  501 -0.00000000000E+00  0.00000000000E+00  0.33129246334E+03  0.33129246334E+03  0.00000000000E+00 0. -1.
          2   -1    0    0  501    0  0.00000000000E+00 -0.00000000000E+00 -0.21082938341E+04  0.21082938341E+04  0.00000000000E+00 0.  1.
         23    2    1    2    0    0  0.12618333472E+03  0.32081709694E+03  0.21501373283E+03  0.41796070981E+03  0.98053077422E+02 0.  0.
         13    1    3    3    0    0  0.82252556489E+02  0.98018161524E+02  0.10551696702E+03  0.16585196220E+03  0.00000000000E+00 0. -1.
        -13    1    3    3    0    0  0.43930778230E+02  0.22279893541E+03  0.10949676581E+03  0.25210874761E+03  0.00000000000E+00 0.  1.
         22    1    1    2    0    0 -0.12618333472E+03 -0.32081709694E+03 -0.19920151036E+04  0.20216255877E+04  0.00000000000E+00 0.  1.
<mgrwt>
<rscale>  0 0.16714806E+04</rscale>
<asrwt>0</asrwt>
<pdfrwt beam="1">  1        2 0.32435288E+00 0.16714806E+04</pdfrwt>
<pdfrwt beam="2">  1       -2 0.50968074E-01 0.16714806E+04</pdfrwt>
<totfact> 0.20179629E+01</totfact>
</mgrwt>
</event>
<event>
 6    1  0.3017327E-006  0.2510915E+04  0.7818608E-02  0.8399107E-01
         -2   -1    0    0    0  501 -0.00000000000E+00  0.00000000000E+00  0.85217804536E+03  0.85217804536E+03  0.00000000000E+00 0.  1.
          2   -1    0    0  501    0  0.00000000000E+00 -0.00000000000E+00 -0.18495816896E+04  0.18495816896E+04  0.00000000000E+00 0. -1.
         23    2    1    2    0    0  0.63451406503E+03  0.69313531633E+03  0.39378595861E+03  0.10229347957E+04  0.91014008122E+02 0.  0.
         11    1    3    3    0    0  0.22785620056E+03  0.25700538179E+03  0.19154001739E+03  0.39326554981E+03  0.00000000000E+00 0. -1.
        -11    1    3    3    0    0  0.40665786448E+03  0.43612993454E+03  0.20224594123E+03  0.62966924594E+03  0.00000000000E+00 0.  1.
         22    1    1    2    0    0 -0.63451406503E+03 -0.69313531633E+03 -0.13911896029E+04  0.16788249393E+04  0.00000000000E+00 0. -1.
<mgrwt>
<rscale>  0 0.25109145E+04</rscale>
<asrwt>0</asrwt>
<pdfrwt beam="1">  1        2 0.28455103E+00 0.25109145E+04</pdfrwt>
<pdfrwt beam="2">  1       -2 0.13110432E+00 0.25109145E+04</pdfrwt>
<totfact> 0.30679888E+00</totfact>
</mgrwt>
</event>
<event>
 6    1  0.3017327E-006  0.3732124E+04  0.7818608E-02  0.8060880E-01
         -2   -1    0    0    0  501 -0.00000000000E+00  0.00000000000E+00  0.26756866016E+04  0.26756866016E+04  0.00000000000E+00 0.  1.
          2   -1    0    0  501    0  0.00000000000E+00 -0.00000000000E+00 -0.13014185600E+04  0.13014185600E+04  0.00000000000E+00 0. -1.
         23    2    1    2    0    0 -0.17848979219E+04  0.48084858592E+03  0.94957973735E+03  0.20804143302E+04  0.96675507100E+02 0.  0.
         13    1    3    3    0    0 -0.92904363012E+03  0.29881035161E+03  0.51368237270E+03  0.11028505216E+04  0.00000000000E+00 0.  1.
        -13    1    3    3    0    0 -0.85585429175E+03  0.18203823431E+03  0.43589736464E+03  0.97756380864E+03  0.00000000000E+00 0. -1.
         22    1    1    2    0    0  0.17848979219E+04 -0.48084858592E+03  0.42468830419E+03  0.18966908314E+04  0.00000000000E+00 0. -1.
<mgrwt>
<rscale>  0 0.37321244E+04</rscale>
<asrwt>0</asrwt>
<pdfrwt beam="1">  1        2 0.20021824E+00 0.37321244E+04</pdfrwt>
<pdfrwt beam="2">  1       -2 0.41164409E+00 0.37321244E+04</pdfrwt>
<totfact> 0.82749513E-02</totfact>
</mgrwt>
</event>
<event>
 6    1  0.3017327E-006  0.3792608E+04  0.7818608E-02  0.8047743E-01
          2   -1    0    0  501    0  0.00000000000E+00  0.00000000000E+00  0.29051320132E+04  0.29051320132E+04  0.00000000000E+00 0. -1.
         -2   -1    0    0    0  501 -0.00000000000E+00 -0.00000000000E+00 -0.12377986805E+04  0.12377986805E+04  0.00000000000E+00 0.  1.
         23    2    1    2    0    0  0.40305637727E+03 -0.13358214199E+04  0.22350496510E+04  0.26365525448E+04  0.95336614156E+02 0.  0.
         13    1    3    3    0    0  0.16578711572E+03 -0.62320251938E+03  0.95271931923E+03  0.11504524541E+04  0.00000000000E+00 0. -1.
        -13    1    3    3    0    0  0.23726926154E+03 -0.71261890056E+03  0.12823303318E+04  0.14861000907E+04  0.00000000000E+00 0.  1.
         22    1    1    2    0    0 -0.40305637727E+03  0.13358214199E+04 -0.56771631825E+03  0.15063781488E+04  0.00000000000E+00 0.  1.
<mgrwt>
<rscale>  0 0.37926078E+04</rscale>
<asrwt>0</asrwt>
<pdfrwt beam="1">  1        2 0.44694338E+00 0.37926078E+04</pdfrwt>
<pdfrwt beam="2">  1       -2 0.19043057E+00 0.37926078E+04</pdfrwt>
<totfact> 0.24626270E-01</totfact>
</mgrwt>
</event>
<event>
 6    1  0.3017327E-006  0.9246269E+03  0.7818608E-02  0.9395310E-01
         -2   -1    0    0    0  501 -0.00000000000E+00  0.00000000000E+00  0.22427769759E+03  0.22427769759E+03  0.00000000000E+00 0.  1.
          2   -1    0    0  501    0  0.00000000000E+00 -0.00000000000E+00 -0.95298705346E+03  0.95298705346E+03  0.00000000000E+00 0. -1.
         23    2    1    2    0    0  0.33427557724E+03  0.17269010820E+03 -0.35839123262E+02  0.38882883467E+03  0.91331182524E+02 0.  0.
         11    1    3    3    0    0  0.13095914456E+03  0.19416233635E+02 -0.17645359629E+02  0.13356139558E+03  0.00000000000E+00 0. -1.
        -11    1    3    3    0    0  0.20331643268E+03  0.15327387457E+03 -0.18193763634E+02  0.25526743909E+03  0.00000000000E+00 0.  1.
         22    1    1    2    0    0 -0.33427557724E+03 -0.17269010820E+03 -0.69287023261E+03  0.78843591639E+03  0.00000000000E+00 0. -1.
<mgrwt>
<rscale>  0 0.92462693E+03</rscale>
<asrwt>0</asrwt>
<pdfrwt beam="1">  1        2 0.14661339E+00 0.92462693E+03</pdfrwt>
<pdfrwt beam="2">  1       -2 0.34504261E-01 0.92462693E+03</pdfrwt>
<totfact> 0.21289416E+02</totfact>
</mgrwt>
</event>
<event>
 6    1  0.3017327E-006  0.5489886E+04  0.7818608E-02  0.7757082E-01
          2   -1    0    0  501    0  0.00000000000E+00  0.00000000000E+00  0.25143608487E+04  0.25143608487E+04  0.00000000000E+00 0. -1.
         -2   -1    0    0    0  501 -0.00000000000E+00 -0.00000000000E+00 -0.29966704604E+04  0.29966704604E+04  0.00000000000E+00 0.  1.
         23    2    1    2    0    0  0.20685849569E+03 -0.16836498361E+04  0.19242181867E+04  0.25667413690E+04  0.89880016691E+02 0.  0.
         11    1    3    3    0    0  0.18808885995E+03 -0.12707551281E+04  0.14885034945E+04  0.19661736108E+04  0.00000000000E+00 0.  1.
        -11    1    3    3    0    0  0.18769635742E+02 -0.41289470805E+03  0.43571469213E+03  0.60056775813E+03  0.00000000000E+00 0. -1.
         22    1    1    2    0    0 -0.20685849569E+03  0.16836498361E+04 -0.24065277984E+04  0.29442899402E+04  0.00000000000E+00 0.  1.
<mgrwt>
<rscale>  0 0.54898856E+04</rscale>
<asrwt>0</asrwt>
<pdfrwt beam="1">  1        2 0.38682475E+00 0.54898856E+04</pdfrwt>
<pdfrwt beam="2">  1       -2 0.46102622E+00 0.54898856E+04</pdfrwt>
<totfact> 0.70556475E-03</totfact>
</mgrwt>
</event>
<event>
 6    1  0.3017327E-006  0.2505132E+04  0.7818608E-02  0.8401159E-01
          2   -1    0    0  501    0  0.00000000000E+00  0.00000000000E+00  0.10266799167E+04  0.10266799167E+04  0.00000000000E+00 0.  1.
         -2   -1    0    0    0  501 -0.00000000000E+00 -0.00000000000E+00 -0.15281510737E+04  0.15281510737E+04  0.00000000000E+00 0. -1.
         23    2    1    2    0    0  0.20470454541E+03  0.11142276135E+04  0.29002133569E+03  0.11728514349E+04  0.89783002805E+02 0.  0.
         13    1    3    3    0    0  0.19621497422E+02  0.31384957494E+03  0.95372331681E+02  0.32860681749E+03  0.00000000000E+00 0.  1.
        -13    1    3    3    0    0  0.18508304799E+03  0.80037803857E+03  0.19464900401E+03  0.84424461742E+03  0.00000000000E+00 0. -1.
         22    1    1    2    0    0 -0.20470454541E+03 -0.11142276135E+04 -0.79149249271E+03  0.13819795554E+04  0.00000000000E+00 0. -1.
<mgrwt>
<rscale>  0 0.25051323E+04</rscale>
<asrwt>0</asrwt>
<pdfrwt beam="1">  1        2 0.15795076E+00 0.25051323E+04</pdfrwt>
<pdfrwt beam="2">  1       -2 0.23510016E+00 0.25051323E+04</pdfrwt>
<totfact> 0.17151554E+00</totfact>
</mgrwt>
</event>
<event>
 6    1  0.3017327E-006  0.2973399E+04  0.7818608E-02  0.8251368E-01
          2   -1    0    0  501    0  0.00000000000E+00  0.00000000000E+00  0.20574285235E+04  0.20574285235E+04  0.00000000000E+00 0. -1.
         -2   -1    0    0    0  501 -0.00000000000E+00 -0.00000000000E+00 -0.10742899761E+04  0.10742899761E+04  0.00000000000E+00 0.  1.
         23    2    1    2    0    0 -0.58367337079E+02  0.86777108924E+03 -0.77618917541E+03  0.11691519540E+04  0.89516736698E+02 0.  0.
         11    1    3    3    0    0  0.22300225612E+02  0.11677250415E+03 -0.11241376476E+03  0.16361531803E+03  0.00000000000E+00 0. -1.
        -11    1    3    3    0    0 -0.80667562690E+02  0.75099858509E+03 -0.66377541066E+03  0.10055366360E+04  0.00000000000E+00 0.  1.
         22    1    1    2    0    0  0.58367337079E+02 -0.86777108924E+03  0.17593277228E+04  0.19625665455E+04  0.00000000000E+00 0. -1.
<mgrwt>
<rscale>  0 0.29733986E+04</rscale>
<asrwt>0</asrwt>
<pdfrwt beam="1">  1        2 0.31652746E+00 0.29733986E+04</pdfrwt>
<pdfrwt beam="2">  1       -2 0.16527538E+00 0.29733986E+04</pdfrwt>
<totfact> 0.12271424E+00</totfact>
</mgrwt>
</event>
<event>
 6    1  0.3017327E-006  0.2663920E+04  0.7818608E-02  0.8346807E-01
          2   -1    0    0  501    0  0.00000000000E+00  0.00000000000E+00  0.10106721223E+04  0.10106721223E+04  0.00000000000E+00 0.  1.
         -2   -1    0    0    0  501 -0.00000000000E+00 -0.00000000000E+00 -0.17553841856E+04  0.17553841856E+04  0.00000000000E+00 0. -1.
         23    2    1    2    0    0  0.23382959940E+03 -0.50365544079E+03 -0.16281929377E+04  0.17225604814E+04  0.88641327856E+02 0.  0.
         13    1    3    3    0    0  0.16912676763E+03 -0.28094745444E+03 -0.10320372790E+04  0.10828833183E+04  0.00000000000E+00 0. -1.
        -13    1    3    3    0    0  0.64702831770E+02 -0.22270798635E+03 -0.59615565870E+03  0.63967716312E+03  0.00000000000E+00 0.  1.
         22    1    1    2    0    0 -0.23382959940E+03  0.50365544079E+03  0.88348087440E+03  0.10434958265E+04  0.00000000000E+00 0.  1.
<mgrwt>
<rscale>  0 0.26639203E+04</rscale>
<asrwt>0</asrwt>
<pdfrwt beam="1">  1        2 0.15548802E+00 0.26639203E+04</pdfrwt>
<pdfrwt beam="2">  1       -2 0.27005910E+00 0.26639203E+04</pdfrwt>
<totfact> 0.10564522E+00</totfact>
</mgrwt>
</event>
<event>
 6    1  0.3017327E-006  0.2772017E+04  0.7818608E-02  0.8312009E-01
          2   -1    0    0  501    0  0.00000000000E+00  0.00000000000E+00  0.25157485350E+04  0.25157485350E+04  0.00000000000E+00 0. -1.
         -2   -1    0    0    0  501 -0.00000000000E+00 -0.00000000000E+00 -0.76359749664E+03  0.76359749664E+03  0.00000000000E+00 0.  1.
         23    2    1    2    0    0  0.59046663984E+03 -0.11176290363E+02  0.23584339037E+04  0.24329686483E+04  0.91379447614E+02 0.  0.
         11    1    3    3    0    0  0.53398441478E+03  0.35755358740E+01  0.20123262517E+04  0.20819724021E+04  0.00000000000E+00 0. -1.
        -11    1    3    3    0    0  0.56482225060E+02 -0.14751826237E+02  0.34610765193E+03  0.35099624621E+03  0.00000000000E+00 0.  1.
         22    1    1    2    0    0 -0.59046663984E+03  0.11176290363E+02 -0.60628286532E+03  0.84637738333E+03  0.00000000000E+00 0.  1.
<mgrwt>
<rscale>  0 0.27720168E+04</rscale>
<asrwt>0</asrwt>
<pdfrwt beam="1">  1        2 0.38703823E+00 0.27720168E+04</pdfrwt>
<pdfrwt beam="2">  1       -2 0.11747654E+00 0.27720168E+04</pdfrwt>
<totfact> 0.16633882E+00</totfact>
</mgrwt>
</event>
<event>
 6    1  0.3017327E-006  0.1022078E+04  0.7818608E-02  0.9284656E-01
          2   -1    0    0  501    0  0.00000000000E+00  0.00000000000E+00  0.13517812154E+04  0.13517812154E+04  0.00000000000E+00 0. -1.
         -2   -1    0    0    0  501 -0.00000000000E+00 -0.00000000000E+00 -0.19319769936E+03  0.19319769936E+03  0.00000000000E+00 0.  1.
         23    2    1    2    0    0  0.32034127609E+03  0.28101408807E+03  0.16781977085E+03  0.46646129801E+03  0.88516756537E+02 0.  0.
         13    1    3    3    0    0  0.17949547089E+03  0.13196641870E+03  0.12998118588E+03  0.25793190655E+03  0.00000000000E+00 0. -1.
        -13    1    3    3    0    0  0.14084580519E+03  0.14904766938E+03  0.37838584970E+02  0.20852939145E+03  0.00000000000E+00 0.  1.
         22    1    1    2    0    0 -0.32034127609E+03 -0.28101408807E+03  0.99076374522E+03  0.10785176168E+04  0.00000000000E+00 0. -1.
<mgrwt>
<rscale>  0 0.10220783E+04</rscale>
<asrwt>0</asrwt>
<pdfrwt beam="1">  1        2 0.20796634E+00 0.10220783E+04</pdfrwt>
<pdfrwt beam="2">  1       -2 0.29722724E-01 0.10220783E+04</pdfrwt>
<totfact> 0.16029793E+02</totfact>
</mgrwt>
</event>
<event>
 6    1  0.3017327E-006  0.2506551E+04  0.7818608E-02  0.8400655E-01
          2   -1    0    0  501    0  0.00000000000E+00  0.00000000000E+00  0.25145872081E+04  0.25145872081E+04  0.00000000000E+00 0. -1.
         -2   -1    0    0    0  501 -0.00000000000E+00 -0.00000000000E+00 -0.62463525999E+03  0.62463525999E+03  0.00000000000E+00 0.  1.
         23    2    1    2    0    0  0.59266264385E+03 -0.31218544593E+03  0.22703539292E+04  0.23688884956E+04  0.91744093596E+02 0.  0.
         11    1    3    3    0    0  0.11318406533E+03 -0.85167160217E+02  0.38143948531E+03  0.40689084381E+03  0.00000000000E+00 0.  1.
        -11    1    3    3    0    0  0.47947857852E+03 -0.22701828572E+03  0.18889144439E+04  0.19619976518E+04  0.00000000000E+00 0. -1.
         22    1    1    2    0    0 -0.59266264385E+03  0.31218544593E+03 -0.38040198104E+03  0.77033397254E+03  0.00000000000E+00 0.  1.
<mgrwt>
<rscale>  0 0.25065513E+04</rscale>
<asrwt>0</asrwt>
<pdfrwt beam="1">  1        2 0.38685957E+00 0.25065513E+04</pdfrwt>
<pdfrwt beam="2">  1       -2 0.96097734E-01 0.25065513E+04</pdfrwt>
<totfact> 0.27604335E+00</totfact>
</mgrwt>
</event>
<event>
 6    1  0.3017327E-006  0.2202358E+04  0.7818608E-02  0.8517447E-01
         -2   -1    0    0    0  501 -0.00000000000E+00  0.00000000000E+00  0.58400694005E+03  0.58400694005E+03  0.00000000000E+00 0.  1.
          2   -1    0    0  501    0  0.00000000000E+00 -0.00000000000E+00 -0.20763375111E+04  0.20763375111E+04  0.00000000000E+00 0. -1.
         23    2    1    2    0    0  0.54968668521E+03  0.55206837453E+03  0.18955470672E+03  0.80678759213E+03  0.89667663751E+02 0.  0.
         13    1    3    3    0    0  0.25243099056E+03  0.20439115255E+03  0.10696889425E+03  0.34196416855E+03  0.00000000000E+00 0. -1.
        -13    1    3    3    0    0  0.29725569465E+03  0.34767722198E+03  0.82585812463E+02  0.46482342358E+03  0.00000000000E+00 0.  1.
         22    1    1    2    0    0 -0.54968668521E+03 -0.55206837453E+03 -0.16818852778E+04  0.18535568591E+04  0.00000000000E+00 0. -1.
<mgrwt>
<rscale>  0 0.22023583E+04</rscale>
<asrwt>0</asrwt>
<pdfrwt beam="1">  1        2 0.31943654E+00 0.22023583E+04</pdfrwt>
<pdfrwt beam="2">  1       -2 0.89847222E-01 0.22023583E+04</pdfrwt>
<totfact> 0.58725965E+00</totfact>
</mgrwt>
</event>
<event>
 6    1  0.3017327E-006  0.2666379E+04  0.7818608E-02  0.8345997E-01
          2   -1    0    0  501    0  0.00000000000E+00  0.00000000000E+00  0.70628989612E+03  0.70628989612E+03  0.00000000000E+00 0. -1.
         -2   -1    0    0    0  501 -0.00000000000E+00 -0.00000000000E+00 -0.25165218229E+04  0.25165218229E+04  0.00000000000E+00 0.  1.
         23    2    1    2    0    0  0.11245376998E+04 -0.49284257776E+03 -0.28302970082E+03  0.12632644540E+04  0.90842856145E+02 0.  0.
         13    1    3    3    0    0  0.47524504236E+03 -0.22101232539E+03 -0.76375783972E+02  0.52965796382E+03  0.00000000000E+00 0.  1.
        -13    1    3    3    0    0  0.64929265745E+03 -0.27183025237E+03 -0.20665391685E+03  0.73360649021E+03  0.00000000000E+00 0. -1.
         22    1    1    2    0    0 -0.11245376998E+04  0.49284257776E+03 -0.15272022259E+04  0.19595472650E+04  0.00000000000E+00 0.  1.
<mgrwt>
<rscale>  0 0.26663788E+04</rscale>
<asrwt>0</asrwt>
<pdfrwt beam="1">  1        2 0.10865998E+00 0.26663788E+04</pdfrwt>
<pdfrwt beam="2">  1       -2 0.38715720E+00 0.26663788E+04</pdfrwt>
<totfact> 0.32070687E-01</totfact>
</mgrwt>
</event>
<event>
 6    1  0.3017327E-006  0.2217719E+04  0.7818608E-02  0.8511089E-01
         -2   -1    0    0    0  501 -0.00000000000E+00  0.00000000000E+00  0.68373276947E+03  0.68373276947E+03  0.00000000000E+00 0.  1.
          2   -1    0    0  501    0  0.00000000000E+00 -0.00000000000E+00 -0.17983187206E+04  0.17983187206E+04  0.00000000000E+00 0. -1.
         23    2    1    2    0    0 -0.86255796384E+01  0.10978869133E+04 -0.40336971220E+03  0.11739006526E+04  0.99526592280E+02 0.  0.
         13    1    3    3    0    0 -0.52453315165E+02  0.65254964128E+03 -0.22659508517E+03  0.69276093800E+03  0.00000000000E+00 0. -1.
        -13    1    3    3    0    0  0.43827735526E+02  0.44533727201E+03 -0.17677462704E+03  0.48113971464E+03  0.00000000000E+00 0.  1.
         22    1    1    2    0    0  0.86255796384E+01 -0.10978869133E+04 -0.71121623896E+03  0.13081508375E+04  0.00000000000E+00 0.  1.
<mgrwt>
<rscale>  0 0.22177190E+04</rscale>
<asrwt>0</asrwt>
<pdfrwt beam="1">  1        2 0.27666442E+00 0.22177190E+04</pdfrwt>
<pdfrwt beam="2">  1       -2 0.10518966E+00 0.22177190E+04</pdfrwt>
<totfact> 0.57767146E+00</totfact>
</mgrwt>
</event>
<event>
 6    1  0.3017327E-006  0.3711137E+04  0.7818608E-02  0.8065498E-01
          2   -1    0    0  501    0  0.00000000000E+00  0.00000000000E+00  0.32488350495E+04  0.32488350495E+04  0.00000000000E+00 0. -1.
         -2   -1    0    0    0  501 -0.00000000000E+00 -0.00000000000E+00 -0.10598056538E+04  0.10598056538E+04  0.00000000000E+00 0.  1.
         23    2    1    2    0    0 -0.15957784509E+04 -0.79398621913E+03  0.50065738563E+03  0.18535392747E+04  0.89593775031E+02 0.  0.
         13    1    3    3    0    0 -0.12371471264E+04 -0.65229098227E+03  0.37510085542E+03  0.14480045544E+04  0.00000000000E+00 0.  1.
        -13    1    3    3    0    0 -0.35863132454E+03 -0.14169523686E+03  0.12555653021E+03  0.40553472030E+03  0.00000000000E+00 0. -1.
         22    1    1    2    0    0  0.15957784509E+04  0.79398621913E+03  0.16883720100E+04  0.24551014286E+04  0.00000000000E+00 0. -1.
<mgrwt>
<rscale>  0 0.37111366E+04</rscale>
<asrwt>0</asrwt>
<pdfrwt beam="1">  1        2 0.49982077E+00 0.37111366E+04</pdfrwt>
<pdfrwt beam="2">  1       -2 0.16304702E+00 0.37111366E+04</pdfrwt>
<totfact> 0.23245207E-01</totfact>
</mgrwt>
</event>
<event>
 6    1  0.3017327E-006  0.4182914E+04  0.7818608E-02  0.7968630E-01
         -1   -1    0    0    0  501 -0.00000000000E+00  0.00000000000E+00  0.10853373353E+04  0.10853373353E+04  0.00000000000E+00 0.  1.
          1   -1    0    0  501    0  0.00000000000E+00 -0.00000000000E+00 -0.40302599818E+04  0.40302599818E+04  0.00000000000E+00 0. -1.
         23    2    1    2    0    0  0.63557469438E+03 -0.15877208160E+03  0.95455147842E+03  0.11614776657E+04  0.93263481825E+02 0.  0.
         13    1    3    3    0    0  0.72487208926E+02 -0.50156476529E+02  0.12055688011E+03  0.14934533451E+03  0.00000000000E+00 0. -1.
        -13    1    3    3    0    0  0.56308748546E+03 -0.10861560507E+03  0.83399459831E+03  0.10121323312E+04  0.00000000000E+00 0.  1.
         22    1    1    2    0    0 -0.63557469438E+03  0.15877208160E+03 -0.38994741249E+04  0.39541196513E+04  0.00000000000E+00 0. -1.
<mgrwt>
<rscale>  0 0.41829136E+04</rscale>
<asrwt>0</asrwt>
<pdfrwt beam="1">  1        1 0.62003999E+00 0.41829136E+04</pdfrwt>
<pdfrwt beam="2">  1       -1 0.16697498E+00 0.41829136E+04</pdfrwt>
<totfact> 0.17957776E-02</totfact>
</mgrwt>
</event>
<event>
 6    1  0.3017327E-006  0.1991089E+04  0.7818608E-02  0.8610798E-01
          1   -1    0    0  501    0  0.00000000000E+00  0.00000000000E+00  0.21212653302E+04  0.21212653302E+04  0.00000000000E+00 0. -1.
         -1   -1    0    0    0  501 -0.00000000000E+00 -0.00000000000E+00 -0.46722546795E+03  0.46722546795E+03  0.00000000000E+00 0.  1.
         23    2    1    2    0    0 -0.66842931578E+03 -0.37282135013E+02  0.17830854679E+04  0.19066986919E+04  0.88985438798E+02 0.  0.
         11    1    3    3    0    0 -0.51800533928E+03 -0.52740716401E+02  0.12961426185E+04  0.13968166673E+04  0.00000000000E+00 0. -1.
        -11    1    3    3    0    0 -0.15042397650E+03  0.15458581388E+02  0.48694284943E+03  0.50988202465E+03  0.00000000000E+00 0.  1.
         22    1    1    2    0    0  0.66842931578E+03  0.37282135013E+02 -0.12904560561E+03  0.68179210623E+03  0.00000000000E+00 0.  1.
<mgrwt>
<rscale>  0 0.19910893E+04</rscale>
<asrwt>0</asrwt>
<pdfrwt beam="1">  1        1 0.32634851E+00 0.19910893E+04</pdfrwt>
<pdfrwt beam="2">  1       -1 0.71880842E-01 0.19910893E+04</pdfrwt>
<totfact> 0.44699873E+00</totfact>
</mgrwt>
</event>
<event>
 6    1  0.3017327E-006  0.1088449E+04  0.7818608E-02  0.9216523E-01
         -2   -1    0    0    0  501 -0.00000000000E+00  0.00000000000E+00  0.27366608676E+03  0.27366608676E+03  0.00000000000E+00 0.  1.
          2   -1    0    0  501    0  0.00000000000E+00 -0.00000000000E+00 -0.10822698176E+04  0.10822698176E+04  0.00000000000E+00 0. -1.
         23    2    1    2    0    0  0.15448780636E+03 -0.47056900214E+03 -0.67650215386E+03  0.84334201563E+03  0.90933618974E+02 0.  0.
         13    1    3    3    0    0  0.11163115725E+03 -0.41475671755E+03 -0.54210659047E+03  0.69163878250E+03  0.00000000000E+00 0. -1.
        -13    1    3    3    0    0  0.42856649112E+02 -0.55812284587E+02 -0.13439556338E+03  0.15170323313E+03  0.00000000000E+00 0.  1.
         22    1    1    2    0    0 -0.15448780636E+03  0.47056900214E+03 -0.13210157693E+03  0.51259388868E+03  0.00000000000E+00 0. -1.
<mgrwt>
<rscale>  0 0.10884494E+04</rscale>
<asrwt>0</asrwt>
<pdfrwt beam="1">  1        2 0.16650305E+00 0.10884494E+04</pdfrwt>
<pdfrwt beam="2">  1       -2 0.42102474E-01 0.10884494E+04</pdfrwt>
<totfact> 0.11861705E+02</totfact>
</mgrwt>
</event>
<event>
 6    1  0.3017327E-006  0.1638920E+04  0.7818608E-02  0.8796989E-01
          2   -1    0    0  501    0  0.00000000000E+00  0.00000000000E+00  0.13762188585E+04  0.13762188585E+04  0.00000000000E+00 0. -1.
         -2   -1    0    0    0  501 -0.00000000000E+00 -0.00000000000E+00 -0.48794162600E+03  0.48794162600E+03  0.00000000000E+00 0.  1.
         23    2    1    2    0    0 -0.64971714606E+03 -0.44705705521E+03  0.20334891131E+03  0.81959397842E+03  0.91603107127E+02 0.  0.
         13    1    3    3    0    0 -0.28518352613E+03 -0.24406235706E+03  0.72353557507E+02  0.38227099680E+03  0.00000000000E+00 0.  1.
        -13    1    3    3    0    0 -0.36453361993E+03 -0.20299469815E+03  0.13099535381E+03  0.43732298162E+03  0.00000000000E+00 0. -1.
         22    1    1    2    0    0  0.64971714606E+03  0.44705705521E+03  0.68492832121E+03  0.10445665061E+04  0.00000000000E+00 0. -1.
<mgrwt>
<rscale>  0 0.16389197E+04</rscale>
<asrwt>0</asrwt>
<pdfrwt beam="1">  1        2 0.21172598E+00 0.16389197E+04</pdfrwt>
<pdfrwt beam="2">  1       -2 0.75067943E-01 0.16389197E+04</pdfrwt>
<totfact> 0.22751990E+01</totfact>
</mgrwt>
</event>
<event>
 6    1  0.3017327E-006  0.1820610E+04  0.7818608E-02  0.8695415E-01
         -2   -1    0    0    0  501 -0.00000000000E+00  0.00000000000E+00  0.56036507985E+03  0.56036507985E+03  0.00000000000E+00 0.  1.
          2   -1    0    0  501    0  0.00000000000E+00 -0.00000000000E+00 -0.14787773745E+04  0.14787773745E+04  0.00000000000E+00 0. -1.
         23    2    1    2    0    0  0.30264097431E+03  0.69729796491E+02 -0.14162413567E+04  0.14523822147E+04  0.84974780077E+02 0.  0.
         11    1    3    3    0    0  0.91450306719E+02 -0.72433678653E+01 -0.29914133158E+03  0.31289161260E+03  0.00000000000E+00 0.  1.
        -11    1    3    3    0    0  0.21119066760E+03  0.76973164356E+02 -0.11171000251E+04  0.11394906021E+04  0.00000000000E+00 0. -1.
         22    1    1    2    0    0 -0.30264097431E+03 -0.69729796491E+02  0.49782906204E+03  0.58676023968E+03  0.00000000000E+00 0.  1.
<mgrwt>
<rscale>  0 0.18206100E+04</rscale>
<asrwt>0</asrwt>
<pdfrwt beam="1">  1        2 0.22750421E+00 0.18206100E+04</pdfrwt>
<pdfrwt beam="2">  1       -2 0.86210014E-01 0.18206100E+04</pdfrwt>
<totfact> 0.14349805E+01</totfact>
</mgrwt>
</event>
<event>
 6    1  0.3017327E-006  0.2086116E+04  0.7818608E-02  0.8567384E-01
         -2   -1    0    0    0  501 -0.00000000000E+00  0.00000000000E+00  0.75249579175E+03  0.75249579175E+03  0.00000000000E+00 0. -1.
          2   -1    0    0  501    0  0.00000000000E+00 -0.00000000000E+00 -0.14458158751E+04  0.14458158751E+04  0.00000000000E+00 0.  1.
         23    2    1    2    0    0  0.87653077607E+03 -0.54429224382E+03 -0.49288464993E+03  0.11472481050E+04  0.93180943973E+02 0.  0.
         13    1    3    3    0    0  0.52283173073E+03 -0.27474234277E+03 -0.30122169011E+03  0.66300141791E+03  0.00000000000E+00 0. -1.
        -13    1    3    3    0    0  0.35369904534E+03 -0.26954990104E+03 -0.19166295983E+03  0.48424668713E+03  0.00000000000E+00 0.  1.
         22    1    1    2    0    0 -0.87653077607E+03  0.54429224382E+03 -0.20043543346E+03  0.10510635619E+04  0.00000000000E+00 0. -1.
<mgrwt>
<rscale>  0 0.20861164E+04</rscale>
<asrwt>0</asrwt>
<pdfrwt beam="1">  1        2 0.22243321E+00 0.20861164E+04</pdfrwt>
<pdfrwt beam="2">  1       -2 0.11576858E+00 0.20861164E+04</pdfrwt>
<totfact> 0.72933200E+00</totfact>
</mgrwt>
</event>
<event>
 6    1  0.3017327E-006  0.3121844E+04  0.7818608E-02  0.8209768E-01
         -2   -1    0    0    0  501 -0.00000000000E+00  0.00000000000E+00  0.13648577945E+04  0.13648577945E+04  0.00000000000E+00 0.  1.
          2   -1    0    0  501    0  0.00000000000E+00 -0.00000000000E+00 -0.17851514497E+04  0.17851514497E+04  0.00000000000E+00 0. -1.
         23    2    1    2    0    0 -0.14660249520E+04 -0.52589186969E+03 -0.29193502921E+03  0.15872337147E+04  0.91068025395E+02 0.  0.
         11    1    3    3    0    0 -0.75471639949E+03 -0.31333288868E+03 -0.17479606798E+03  0.83566022292E+03  0.00000000000E+00 0. -1.
        -11    1    3    3    0    0 -0.71130855252E+03 -0.21255898101E+03 -0.11713896123E+03  0.75157349177E+03  0.00000000000E+00 0.  1.
         22    1    1    2    0    0  0.14660249520E+04  0.52589186969E+03 -0.12835862598E+03  0.15627755294E+04  0.00000000000E+00 0. -1.
<mgrwt>
<rscale>  0 0.31218442E+04</rscale>
<asrwt>0</asrwt>
<pdfrwt beam="1">  1        2 0.27463868E+00 0.31218442E+04</pdfrwt>
<pdfrwt beam="2">  1       -2 0.20997812E+00 0.31218442E+04</pdfrwt>
<totfact> 0.85380098E-01</totfact>
</mgrwt>
</event>
<event>
 6    1  0.3017327E-006  0.6400740E+04  0.7818608E-02  0.7642608E-01
         -2   -1    0    0    0  501 -0.00000000000E+00  0.00000000000E+00  0.27472438537E+04  0.27472438537E+04  0.00000000000E+00 0.  1.
          2   -1    0    0  501    0  0.00000000000E+00 -0.00000000000E+00 -0.37282340528E+04  0.37282340528E+04  0.00000000000E+00 0. -1.
         23    2    1    2    0    0 -0.13839357092E+04 -0.18096121750E+04  0.17824997010E+04  0.28940186092E+04  0.89801198306E+02 0.  0.
         13    1    3    3    0    0 -0.15345492572E+03 -0.18720188548E+03  0.22397404333E+03  0.32978376588E+03  0.00000000000E+00 0. -1.
        -13    1    3    3    0    0 -0.12304807835E+04 -0.16224102895E+04  0.15585256576E+04  0.25642348433E+04  0.00000000000E+00 0.  1.
         22    1    1    2    0    0  0.13839357092E+04  0.18096121750E+04 -0.27634899000E+04  0.35814592973E+04  0.00000000000E+00 0. -1.
<mgrwt>
<rscale>  0 0.64007400E+04</rscale>
<asrwt>0</asrwt>
<pdfrwt beam="1">  1        2 0.57357447E+00 0.64007400E+04</pdfrwt>
<pdfrwt beam="2">  1       -2 0.42265290E+00 0.64007400E+04</pdfrwt>
<totfact> 0.19104535E-03</totfact>
</mgrwt>
</event>
<event>
 6    1  0.3400317E-006  0.3101517E+04  0.7818608E-02  0.8215322E-01
         -1   -1    0    0    0  501 -0.00000000000E+00  0.00000000000E+00  0.11354741158E+04  0.11354741158E+04  0.00000000000E+00 0.  1.
          1   -1    0    0  501    0  0.00000000000E+00 -0.00000000000E+00 -0.21179276585E+04  0.21179276585E+04  0.00000000000E+00 0. -1.
         23    2    1    2    0    0  0.13914286780E+04  0.31734288876E+02 -0.12058869219E+04  0.18437907264E+04  0.91214819857E+02 0.  0.
         13    1    3    3    0    0  0.43522213590E+03  0.44283074044E+02 -0.41152104995E+03  0.60060708685E+03  0.00000000000E+00 0. -1.
        -13    1    3    3    0    0  0.95620654212E+03 -0.12548785168E+02 -0.79436587195E+03  0.12431836396E+04  0.00000000000E+00 0.  1.
         22    1    1    2    0    0 -0.13914286780E+04 -0.31734288876E+02  0.22343337920E+03  0.14096110478E+04  0.00000000000E+00 0.  1.
<mgrwt>
<rscale>  0 0.31015171E+04</rscale>
<asrwt>0</asrwt>
<pdfrwt beam="1">  1        1 0.32583502E+00 0.31015171E+04</pdfrwt>
<pdfrwt beam="2">  1       -1 0.17468833E+00 0.31015171E+04</pdfrwt>
<totfact> 0.47532924E-01</totfact>
</mgrwt>
</event>
<event>
 6    1  0.3017327E-006  0.2046583E+04  0.7818608E-02  0.8585146E-01
          2   -1    0    0  501    0  0.00000000000E+00  0.00000000000E+00  0.31480517066E+04  0.31480517066E+04  0.00000000000E+00 0. -1.
         -2   -1    0    0    0  501 -0.00000000000E+00 -0.00000000000E+00 -0.33262638574E+03  0.33262638574E+03  0.00000000000E+00 0.  1.
         23    2    1    2    0    0  0.80431972867E+03  0.75557581957E+02  0.34848709544E+03  0.88483075821E+03  0.94037443925E+02 0.  0.
         11    1    3    3    0    0  0.44746150033E+03 -0.39448303231E+01  0.18131708816E+03  0.48281802206E+03  0.00000000000E+00 0. -1.
        -11    1    3    3    0    0  0.35685822834E+03  0.79502412280E+02  0.16717000727E+03  0.40201273615E+03  0.00000000000E+00 0.  1.
         22    1    1    2    0    0 -0.80431972867E+03 -0.75557581957E+02  0.24669382254E+04  0.25958473341E+04  0.00000000000E+00 0. -1.
<mgrwt>
<rscale>  0 0.20465826E+04</rscale>
<asrwt>0</asrwt>
<pdfrwt beam="1">  1        2 0.48431563E+00 0.20465826E+04</pdfrwt>
<pdfrwt beam="2">  1       -2 0.51173292E-01 0.20465826E+04</pdfrwt>
<totfact> 0.46945987E+00</totfact>
</mgrwt>
</event>
<event>
 6    1  0.3017327E-006  0.2516798E+04  0.7818608E-02  0.8397026E-01
         -2   -1    0    0    0  501 -0.00000000000E+00  0.00000000000E+00  0.69512153306E+03  0.69512153306E+03  0.00000000000E+00 0.  1.
          2   -1    0    0  501    0  0.00000000000E+00 -0.00000000000E+00 -0.22781160718E+04  0.22781160718E+04  0.00000000000E+00 0. -1.
         23    2    1    2    0    0 -0.11805112978E+04  0.32973250284E+03 -0.46512501453E+03  0.13143335327E+04  0.93813156106E+02 0.  0.
         13    1    3    3    0    0 -0.39618669941E+03  0.68520385166E+02 -0.17044836634E+03  0.43670538073E+03  0.00000000000E+00 0. -1.
        -13    1    3    3    0    0 -0.78432459840E+03  0.26121211767E+03 -0.29467664818E+03  0.87762815193E+03  0.00000000000E+00 0.  1.
         22    1    1    2    0    0  0.11805112978E+04 -0.32973250284E+03 -0.11178695243E+04  0.16589040723E+04  0.00000000000E+00 0.  1.
<mgrwt>
<rscale>  0 0.25167976E+04</rscale>
<asrwt>0</asrwt>
<pdfrwt beam="1">  1        2 0.35047939E+00 0.25167976E+04</pdfrwt>
<pdfrwt beam="2">  1       -2 0.10694178E+00 0.25167976E+04</pdfrwt>
<totfact> 0.29219854E+00</totfact>
</mgrwt>
</event>
<event>
 6    1  0.3017327E-006  0.1118410E+04  0.7818608E-02  0.9187432E-01
          1   -1    0    0  501    0  0.00000000000E+00  0.00000000000E+00  0.10722382141E+04  0.10722382141E+04  0.00000000000E+00 0. -1.
         -1   -1    0    0    0  501 -0.00000000000E+00 -0.00000000000E+00 -0.29164237350E+03  0.29164237350E+03  0.00000000000E+00 0.  1.
         23    2    1    2    0    0 -0.26837284677E+03  0.26488598128E+03  0.89031608998E+03  0.97116300328E+03  0.91138745383E+02 0.  0.
         13    1    3    3    0    0 -0.15869048919E+03  0.14283187399E+03  0.61078687292E+03  0.64702721714E+03  0.00000000000E+00 0.  1.
        -13    1    3    3    0    0 -0.10968235758E+03  0.12205410728E+03  0.27952921705E+03  0.32413578614E+03  0.00000000000E+00 0. -1.
         22    1    1    2    0    0  0.26837284677E+03 -0.26488598128E+03 -0.10972024933E+03  0.39271758437E+03  0.00000000000E+00 0.  1.
<mgrwt>
<rscale>  0 0.11184098E+04</rscale>
<asrwt>0</asrwt>
<pdfrwt beam="1">  1        1 0.16495972E+00 0.11184098E+04</pdfrwt>
<pdfrwt beam="2">  1       -1 0.44868058E-01 0.11184098E+04</pdfrwt>
<totfact> 0.65188905E+01</totfact>
</mgrwt>
</event>
<event>
 6    1  0.3017327E-006  0.1030270E+04  0.7818608E-02  0.9275954E-01
         -2   -1    0    0    0  501 -0.00000000000E+00  0.00000000000E+00  0.15753437137E+03  0.15753437137E+03  0.00000000000E+00 0.  1.
          2   -1    0    0  501    0  0.00000000000E+00 -0.00000000000E+00 -0.16844833924E+04  0.16844833924E+04  0.00000000000E+00 0. -1.
         23    2    1    2    0    0  0.40301989422E+03 -0.40153670561E+02 -0.13266623729E+04  0.13901858328E+04  0.92445907288E+02 0.  0.
         13    1    3    3    0    0  0.10549855440E+03  0.29952382579E+02 -0.36349850235E+03  0.37968177651E+03  0.00000000000E+00 0. -1.
        -13    1    3    3    0    0  0.29752133982E+03 -0.70106053140E+02 -0.96316387054E+03  0.10105040563E+04  0.00000000000E+00 0.  1.
         22    1    1    2    0    0 -0.40301989422E+03  0.40153670561E+02 -0.20028664817E+03  0.45183193096E+03  0.00000000000E+00 0.  1.
<mgrwt>
<rscale>  0 0.10302699E+04</rscale>
<asrwt>0</asrwt>
<pdfrwt beam="1">  1        2 0.25915127E+00 0.10302699E+04</pdfrwt>
<pdfrwt beam="2">  1       -2 0.24236059E-01 0.10302699E+04</pdfrwt>
<totfact> 0.15134984E+02</totfact>
</mgrwt>
</event>
<event>
 6    1  0.3017327E-006  0.1826510E+04  0.7818608E-02  0.8692327E-01
         -2   -1    0    0    0  501 -0.00000000000E+00  0.00000000000E+00  0.49933988199E+03  0.49933988199E+03  0.00000000000E+00 0.  1.
          2   -1    0    0  501    0  0.00000000000E+00 -0.00000000000E+00 -0.16702744206E+04  0.16702744206E+04  0.00000000000E+00 0. -1.
         23    2    1    2    0    0 -0.12586684686E+03 -0.86316725647E+03 -0.27519490619E+03  0.91931447261E+03  0.92231704881E+02 0.  0.
         11    1    3    3    0    0 -0.31488206548E+02 -0.22081179545E+03 -0.28873442449E+02  0.22490671809E+03  0.00000000000E+00 0. -1.
        -11    1    3    3    0    0 -0.94378640313E+02 -0.64235546102E+03 -0.24632146374E+03  0.69440775453E+03  0.00000000000E+00 0.  1.
         22    1    1    2    0    0  0.12586684686E+03  0.86316725647E+03 -0.89573963246E+03  0.12502998300E+04  0.00000000000E+00 0. -1.
<mgrwt>
<rscale>  0 0.18265099E+04</rscale>
<asrwt>0</asrwt>
<pdfrwt beam="1">  1        2 0.25696529E+00 0.18265099E+04</pdfrwt>
<pdfrwt beam="2">  1       -2 0.76821522E-01 0.18265099E+04</pdfrwt>
<totfact> 0.14527912E+01</totfact>
</mgrwt>
</event>
<event>
 6    1  0.3017327E-006  0.2756848E+04  0.7818608E-02  0.8316792E-01
         -2   -1    0    0    0  501 -0.00000000000E+00  0.00000000000E+00  0.16569218239E+04  0.16569218239E+04  0.00000000000E+00 0.  1.
          2   -1    0    0  501    0  0.00000000000E+00 -0.00000000000E+00 -0.11467360980E+04  0.11467360980E+04  0.00000000000E+00 0. -1.
         23    2    1    2    0    0 -0.53153233718E+03 -0.12513955866E+04  0.32806041636E+02  0.13626829386E+04  0.85504475104E+02 0.  0.
         13    1    3    3    0    0 -0.13626121705E+03 -0.25531245227E+03  0.30838997331E+02  0.29103713047E+03  0.00000000000E+00 0.  1.
        -13    1    3    3    0    0 -0.39527112013E+03 -0.99608313429E+03  0.19670443048E+01  0.10716458081E+04  0.00000000000E+00 0. -1.
         22    1    1    2    0    0  0.53153233718E+03  0.12513955866E+04  0.47737968432E+03  0.14409749833E+04  0.00000000000E+00 0. -1.
<mgrwt>
<rscale>  0 0.27568475E+04</rscale>
<asrwt>0</asrwt>
<pdfrwt beam="1">  1        2 0.17642094E+00 0.27568475E+04</pdfrwt>
<pdfrwt beam="2">  1       -2 0.25491105E+00 0.27568475E+04</pdfrwt>
<totfact> 0.10676140E+00</totfact>
</mgrwt>
</event>
<event>
 6    1  0.3017327E-006  0.4545426E+04  0.7818608E-02  0.7902732E-01
          2   -1    0    0  501    0  0.00000000000E+00  0.00000000000E+00  0.23865748850E+04  0.23865748850E+04  0.00000000000E+00 0. -1.
         -2   -1    0    0    0  501 -0.00000000000E+00 -0.00000000000E+00 -0.21642832182E+04  0.21642832182E+04  0.00000000000E+00 0.  1.
         23    2    1    2    0    0 -0.31191296388E+03 -0.82978683957E+03  0.22053810801E+04  0.23786519627E+04  0.91888818313E+02 0.  0.
         11    1    3    3    0    0 -0.23177822791E+03 -0.62529744301E+03  0.17588708886E+04  0.18810488675E+04  0.00000000000E+00 0. -1.
        -11    1    3    3    0    0 -0.80134735970E+02 -0.20448939656E+03  0.44651019147E+03  0.49760309515E+03  0.00000000000E+00 0.  1.
         22    1    1    2    0    0  0.31191296388E+03  0.82978683957E+03 -0.19830894132E+04  0.21722061406E+04  0.00000000000E+00 0.  1.
<mgrwt>
<rscale>  0 0.45454258E+04</rscale>
<asrwt>0</asrwt>
<pdfrwt beam="1">  1        2 0.36716537E+00 0.45454258E+04</pdfrwt>
<pdfrwt beam="2">  1       -2 0.33296665E+00 0.45454258E+04</pdfrwt>
<totfact> 0.60776002E-02</totfact>
</mgrwt>
</event>
<event>
 6    1  0.3017327E-006  0.2532420E+04  0.7818608E-02  0.8391526E-01
         -2   -1    0    0    0  501 -0.00000000000E+00  0.00000000000E+00  0.67475763348E+03  0.67475763348E+03  0.00000000000E+00 0.  1.
          2   -1    0    0  501    0  0.00000000000E+00 -0.00000000000E+00 -0.23760941066E+04  0.23760941066E+04  0.00000000000E+00 0. -1.
         23    2    1    2    0    0 -0.14782416156E+03 -0.12510204745E+04 -0.98547702216E+03  0.16019352608E+04  0.90152139738E+02 0.  0.
         13    1    3    3    0    0 -0.40869123093E+02 -0.65514288561E+03 -0.47879301425E+03  0.81248091441E+03  0.00000000000E+00 0. -1.
        -13    1    3    3    0    0 -0.10695503847E+03 -0.59587758890E+03 -0.50668400791E+03  0.78945434642E+03  0.00000000000E+00 0.  1.
         22    1    1    2    0    0  0.14782416156E+03  0.12510204745E+04 -0.71585945101E+03  0.14489164793E+04  0.00000000000E+00 0.  1.
<mgrwt>
<rscale>  0 0.25324199E+04</rscale>
<asrwt>0</asrwt>
<pdfrwt beam="1">  1        2 0.36555294E+00 0.25324199E+04</pdfrwt>
<pdfrwt beam="2">  1       -2 0.10380887E+00 0.25324199E+04</pdfrwt>
<totfact> 0.27566481E+00</totfact>
</mgrwt>
</event>
<event>
 6    1  0.3017327E-006  0.4992411E+04  0.7818608E-02  0.7829679E-01
          2   -1    0    0  501    0  0.00000000000E+00  0.00000000000E+00  0.37879949349E+04  0.37879949349E+04  0.00000000000E+00 0. -1.
         -2   -1    0    0    0  501 -0.00000000000E+00 -0.00000000000E+00 -0.16449445200E+04  0.16449445200E+04  0.00000000000E+00 0.  1.
         23    2    1    2    0    0 -0.13203297084E+04  0.14776101874E+04 -0.57876830519E+03  0.20662051990E+04  0.87342821769E+02 0.  0.
         13    1    3    3    0    0 -0.60397095892E+03  0.61914323982E+03 -0.27443418005E+03  0.90743230591E+03  0.00000000000E+00 0. -1.
        -13    1    3    3    0    0 -0.71635874948E+03  0.85846694757E+03 -0.30433412513E+03  0.11587728931E+04  0.00000000000E+00 0.  1.
         22    1    1    2    0    0  0.13203297084E+04 -0.14776101874E+04  0.27218187201E+04  0.33667342559E+04  0.00000000000E+00 0.  1.
<mgrwt>
<rscale>  0 0.49924108E+04</rscale>
<asrwt>0</asrwt>
<pdfrwt beam="1">  1        2 0.58276845E+00 0.49924108E+04</pdfrwt>
<pdfrwt beam="2">  1       -2 0.25306839E+00 0.49924108E+04</pdfrwt>
<totfact> 0.22405082E-02</totfact>
</mgrwt>
</event>
<event>
 6    1  0.3017327E-006  0.2457996E+04  0.7818608E-02  0.8418104E-01
         -2   -1    0    0    0  501 -0.00000000000E+00  0.00000000000E+00  0.81246228664E+03  0.81246228664E+03  0.00000000000E+00 0.  1.
          2   -1    0    0  501    0  0.00000000000E+00 -0.00000000000E+00 -0.18590845656E+04  0.18590845656E+04  0.00000000000E+00 0. -1.
         23    2    1    2    0    0  0.41986747758E+02 -0.93884764910E+03 -0.13819425036E+04  0.16737305123E+04  0.91711227790E+02 0.  0.
         11    1    3    3    0    0  0.53203592264E+02 -0.34256234527E+03 -0.54897459213E+03  0.64927088756E+03  0.00000000000E+00 0. -1.
        -11    1    3    3    0    0 -0.11216844506E+02 -0.59628530383E+03 -0.83296791147E+03  0.10244596247E+04  0.00000000000E+00 0.  1.
         22    1    1    2    0    0 -0.41986747758E+02  0.93884764910E+03  0.33532022464E+03  0.99781633995E+03  0.00000000000E+00 0.  1.
<mgrwt>
<rscale>  0 0.24579960E+04</rscale>
<asrwt>0</asrwt>
<pdfrwt beam="1">  1        2 0.28601301E+00 0.24579960E+04</pdfrwt>
<pdfrwt beam="2">  1       -2 0.12499420E+00 0.24579960E+04</pdfrwt>
<totfact> 0.34340873E+00</totfact>
</mgrwt>
</event>
<event>
 6    1  0.3017327E-006  0.3016407E+04  0.7818608E-02  0.8239061E-01
          1   -1    0    0  501    0  0.00000000000E+00  0.00000000000E+00  0.23840826721E+04  0.23840826721E+04  0.00000000000E+00 0. -1.
         -1   -1    0    0    0  501 -0.00000000000E+00 -0.00000000000E+00 -0.95411009086E+03  0.95411009086E+03  0.00000000000E+00 0.  1.
         23    2    1    2    0    0 -0.58143981790E+03 -0.13125690471E+04  0.12222998616E+04  0.18876626103E+04  0.91342288358E+02 0.  0.
         11    1    3    3    0    0 -0.55558133673E+03 -0.11912331199E+04  0.11184692612E+04  0.17258854121E+04  0.00000000000E+00 0. -1.
        -11    1    3    3    0    0 -0.25858481163E+02 -0.12133592715E+03  0.10383060044E+03  0.16177719818E+03  0.00000000000E+00 0.  1.
         22    1    1    2    0    0  0.58143981790E+03  0.13125690471E+04  0.20767271963E+03  0.14505301526E+04  0.00000000000E+00 0.  1.
<mgrwt>
<rscale>  0 0.30164067E+04</rscale>
<asrwt>0</asrwt>
<pdfrwt beam="1">  1        1 0.36678195E+00 0.30164067E+04</pdfrwt>
<pdfrwt beam="2">  1       -1 0.14678617E+00 0.30164067E+04</pdfrwt>
<totfact> 0.51192796E-01</totfact>
</mgrwt>
</event>
<event>
 6    1  0.3017327E-006  0.4138825E+04  0.7818608E-02  0.7977112E-01
         -2   -1    0    0    0  501 -0.00000000000E+00  0.00000000000E+00  0.14213755454E+04  0.14213755454E+04  0.00000000000E+00 0.  1.
          2   -1    0    0  501    0  0.00000000000E+00 -0.00000000000E+00 -0.30129046844E+04  0.30129046844E+04  0.00000000000E+00 0. -1.
         23    2    1    2    0    0 -0.12166497246E+04  0.13044874138E+04 -0.19178805405E+04  0.26208775711E+04  0.93858991384E+02 0.  0.
         11    1    3    3    0    0 -0.10235378183E+04  0.11031907952E+04 -0.16659202840E+04  0.22449832937E+04  0.00000000000E+00 0. -1.
        -11    1    3    3    0    0 -0.19311190625E+03  0.20129661863E+03 -0.25196025648E+03  0.37589427749E+03  0.00000000000E+00 0.  1.
         22    1    1    2    0    0  0.12166497246E+04 -0.13044874138E+04  0.32635140142E+03  0.18134026586E+04  0.00000000000E+00 0.  1.
<mgrwt>
<rscale>  0 0.41388255E+04</rscale>
<asrwt>0</asrwt>
<pdfrwt beam="1">  1        2 0.46352379E+00 0.41388255E+04</pdfrwt>
<pdfrwt beam="2">  1       -2 0.21867316E+00 0.41388255E+04</pdfrwt>
<totfact> 0.13426268E-01</totfact>
</mgrwt>
</event>
<event>
 6    1  0.3017327E-006  0.2476998E+04  0.7818608E-02  0.8411226E-01
          2   -1    0    0  501    0  0.00000000000E+00  0.00000000000E+00  0.11756756610E+04  0.11756756610E+04  0.00000000000E+00 0. -1.
         -2   -1    0    0    0  501 -0.00000000000E+00 -0.00000000000E+00 -0.13046789389E+04  0.13046789389E+04  0.00000000000E+00 0.  1.
         23    2    1    2    0    0  0.11198605871E+03  0.54450747621E+03 -0.11709269442E+04  0.12994082864E+04  0.91447893261E+02 0.  0.
         13    1    3    3    0    0  0.54836042039E+02  0.35790839091E+03 -0.84838379876E+03  0.92242098728E+03  0.00000000000E+00 0. -1.
        -13    1    3    3    0    0  0.57150016669E+02  0.18659908530E+03 -0.32254314543E+03  0.37698729912E+03  0.00000000000E+00 0.  1.
         22    1    1    2    0    0 -0.11198605871E+03 -0.54450747621E+03  0.10419236663E+04  0.11809463135E+04  0.00000000000E+00 0. -1.
<mgrwt>
<rscale>  0 0.24769976E+04</rscale>
<asrwt>0</asrwt>
<pdfrwt beam="1">  1        2 0.18087318E+00 0.24769976E+04</pdfrwt>
<pdfrwt beam="2">  1       -2 0.20071984E+00 0.24769976E+04</pdfrwt>
<totfact> 0.23027123E+00</totfact>
</mgrwt>
</event>
<event>
 6    1  0.3017327E-006  0.3594248E+04  0.7818608E-02  0.8091811E-01
         -2   -1    0    0    0  501 -0.00000000000E+00  0.00000000000E+00  0.18936182973E+04  0.18936182973E+04  0.00000000000E+00 0.  1.
          2   -1    0    0  501    0  0.00000000000E+00 -0.00000000000E+00 -0.17055464876E+04  0.17055464876E+04  0.00000000000E+00 0. -1.
         23    2    1    2    0    0  0.72850539973E+03  0.12090766121E+04  0.12058825492E+04  0.18588989797E+04  0.93628642635E+02 0.  0.
         13    1    3    3    0    0  0.20219915978E+03  0.26616385514E+03  0.30794809854E+03  0.45448842602E+03  0.00000000000E+00 0.  1.
        -13    1    3    3    0    0  0.52630623995E+03  0.94291275699E+03  0.89793445069E+03  0.14044105537E+04  0.00000000000E+00 0. -1.
         22    1    1    2    0    0 -0.72850539973E+03 -0.12090766121E+04 -0.10178107394E+04  0.17402658052E+04  0.00000000000E+00 0. -1.
<mgrwt>
<rscale>  0 0.35942476E+04</rscale>
<asrwt>0</asrwt>
<pdfrwt beam="1">  1        2 0.26239177E+00 0.35942476E+04</pdfrwt>
<pdfrwt beam="2">  1       -2 0.29132589E+00 0.35942476E+04</pdfrwt>
<totfact> 0.28514463E-01</totfact>
</mgrwt>
</event>
<event>
 6    1  0.3017327E-006  0.2539127E+04  0.7818608E-02  0.8389177E-01
          2   -1    0    0  501    0  0.00000000000E+00  0.00000000000E+00  0.23229437562E+04  0.23229437562E+04  0.00000000000E+00 0. -1.
         -2   -1    0    0    0  501 -0.00000000000E+00 -0.00000000000E+00 -0.69385731409E+03  0.69385731409E+03  0.00000000000E+00 0.  1.
         23    2    1    2    0    0 -0.65474946161E+03 -0.10721124560E+04  0.10196874876E+04  0.16205600232E+04  0.91270151462E+02 0.  0.
         11    1    3    3    0    0 -0.45973831114E+03 -0.71597024038E+03  0.73858951086E+03  0.11267152104E+04  0.00000000000E+00 0. -1.
        -11    1    3    3    0    0 -0.19501115047E+03 -0.35614221566E+03  0.28109797677E+03  0.49384481280E+03  0.00000000000E+00 0.  1.
         22    1    1    2    0    0  0.65474946161E+03  0.10721124560E+04  0.60939895452E+03  0.13962410471E+04  0.00000000000E+00 0. -1.
<mgrwt>
<rscale>  0 0.25391270E+04</rscale>
<asrwt>0</asrwt>
<pdfrwt beam="1">  1        2 0.35737596E+00 0.25391270E+04</pdfrwt>
<pdfrwt beam="2">  1       -2 0.10674728E+00 0.25391270E+04</pdfrwt>
<totfact> 0.27626525E+00</totfact>
</mgrwt>
</event>
<event>
 6    1  0.3017327E-006  0.5133684E+04  0.7818608E-02  0.7808210E-01
          2   -1    0    0  501    0  0.00000000000E+00  0.00000000000E+00  0.39633299642E+04  0.39633299642E+04  0.00000000000E+00 0. -1.
         -2   -1    0    0    0  501 -0.00000000000E+00 -0.00000000000E+00 -0.16624099129E+04  0.16624099129E+04  0.00000000000E+00 0.  1.
         23    2    1    2    0    0 -0.39196921629E+03  0.13220019099E+02  0.39297529462E+04  0.39503559704E+04  0.92409083888E+02 0.  0.
         11    1    3    3    0    0 -0.12674284407E+03 -0.19524576127E+02  0.16545277977E+04  0.16594900394E+04  0.00000000000E+00 0. -1.
        -11    1    3    3    0    0 -0.26522637222E+03  0.32744595226E+02  0.22752251486E+04  0.22908659310E+04  0.00000000000E+00 0.  1.
         22    1    1    2    0    0  0.39196921629E+03 -0.13220019099E+02 -0.16288328949E+04  0.16753839067E+04  0.00000000000E+00 0.  1.
<mgrwt>
<rscale>  0 0.51336845E+04</rscale>
<asrwt>0</asrwt>
<pdfrwt beam="1">  1        2 0.60974307E+00 0.51336845E+04</pdfrwt>
<pdfrwt beam="2">  1       -2 0.25575537E+00 0.51336845E+04</pdfrwt>
<totfact> 0.15555917E-02</totfact>
</mgrwt>
</event>
<event>
 6    1  0.3506937E-006  0.1528302E+04  0.7818608E-02  0.8865847E-01
          2   -1    0    0  501    0  0.00000000000E+00  0.00000000000E+00  0.20634432718E+04  0.20634432718E+04  0.00000000000E+00 0.  1.
         -2   -1    0    0    0  501 -0.00000000000E+00 -0.00000000000E+00 -0.28298675208E+03  0.28298675208E+03  0.00000000000E+00 0. -1.
         23    2    1    2    0    0 -0.56534125859E+03  0.46657363969E+03  0.12098070724E+04  0.14174830438E+04  0.91232271338E+02 0.  0.
         13    1    3    3    0    0 -0.26461990791E+03  0.21059429323E+03  0.47228847382E+03  0.58088729932E+03  0.00000000000E+00 0. -1.
        -13    1    3    3    0    0 -0.30072135068E+03  0.25597934646E+03  0.73751859854E+03  0.83659574452E+03  0.00000000000E+00 0.  1.
         22    1    1    2    0    0  0.56534125859E+03 -0.46657363969E+03  0.57064944732E+03  0.92894697999E+03  0.00000000000E+00 0.  1.
<mgrwt>
<rscale>  0 0.15283025E+04</rscale>
<asrwt>0</asrwt>
<pdfrwt beam="1">  1        2 0.31745280E+00 0.15283025E+04</pdfrwt>
<pdfrwt beam="2">  1       -2 0.43536425E-01 0.15283025E+04</pdfrwt>
<totfact> 0.29721205E+01</totfact>
</mgrwt>
</event>
<event>
 6    1  0.3017327E-006  0.6517968E+04  0.7818608E-02  0.7629299E-01
         -2   -1    0    0    0  501 -0.00000000000E+00  0.00000000000E+00  0.45151311966E+04  0.45151311966E+04  0.00000000000E+00 0.  1.
          2   -1    0    0  501    0  0.00000000000E+00 -0.00000000000E+00 -0.23523076253E+04  0.23523076253E+04  0.00000000000E+00 0. -1.
         23    2    1    2    0    0 -0.26699499232E+04 -0.44478397158E+03 -0.82975896523E+03  0.28323408539E+04  0.84790320865E+02 0.  0.
         11    1    3    3    0    0 -0.18047499758E+04 -0.27886381864E+03 -0.52468852536E+03  0.19000488292E+04  0.00000000000E+00 0. -1.
        -11    1    3    3    0    0 -0.86519994737E+03 -0.16592015294E+03 -0.30507043987E+03  0.93229202472E+03  0.00000000000E+00 0.  1.
         22    1    1    2    0    0  0.26699499232E+04  0.44478397158E+03  0.29925825365E+04  0.40350979680E+04  0.00000000000E+00 0.  1.
<mgrwt>
<rscale>  0 0.65179683E+04</rscale>
<asrwt>0</asrwt>
<pdfrwt beam="1">  1        2 0.36189348E+00 0.65179683E+04</pdfrwt>
<pdfrwt beam="2">  1       -2 0.69463557E+00 0.65179683E+04</pdfrwt>
<totfact> 0.66574071E-04</totfact>
</mgrwt>
</event>
<event>
 6    1  0.3017327E-006  0.6295100E+04  0.7818608E-02  0.7654852E-01
          2   -1    0    0  501    0  0.00000000000E+00  0.00000000000E+00  0.24269739259E+04  0.24269739259E+04  0.00000000000E+00 0. -1.
         -2   -1    0    0    0  501 -0.00000000000E+00 -0.00000000000E+00 -0.40820677163E+04  0.40820677163E+04  0.00000000000E+00 0.  1.
         23    2    1    2    0    0 -0.20601767102E+04  0.76879688802E+03 -0.31553491802E+04  0.38470606193E+04  0.90940788155E+02 0.  0.
         13    1    3    3    0    0 -0.54095508291E+03  0.16399239688E+03 -0.77961076929E+03  0.96297396619E+03  0.00000000000E+00 0. -1.
        -13    1    3    3    0    0 -0.15192216272E+04  0.60480449113E+03 -0.23757384109E+04  0.28840866531E+04  0.00000000000E+00 0.  1.
         22    1    1    2    0    0  0.20601767102E+04 -0.76879688802E+03  0.15002553898E+04  0.26619810230E+04  0.00000000000E+00 0. -1.
<mgrwt>
<rscale>  0 0.62951003E+04</rscale>
<asrwt>0</asrwt>
<pdfrwt beam="1">  1        2 0.37338061E+00 0.62951003E+04</pdfrwt>
<pdfrwt beam="2">  1       -2 0.62801041E+00 0.62951003E+04</pdfrwt>
<totfact> 0.10332178E-03</totfact>
</mgrwt>
</event>
<event>
 6    1  0.3017327E-006  0.2030821E+04  0.7818608E-02  0.8592345E-01
         -2   -1    0    0    0  501 -0.00000000000E+00  0.00000000000E+00  0.86373090986E+03  0.86373090986E+03  0.00000000000E+00 0.  1.
          2   -1    0    0  501    0  0.00000000000E+00 -0.00000000000E+00 -0.11937261370E+04  0.11937261370E+04  0.00000000000E+00 0. -1.
         23    2    1    2    0    0 -0.73210136414E+03 -0.46722777989E+03  0.36394030017E+03  0.94578230949E+03  0.88189734017E+02 0.  0.
         13    1    3    3    0    0 -0.29527165931E+03 -0.18060551663E+03  0.99157324765E+02  0.36004983055E+03  0.00000000000E+00 0. -1.
        -13    1    3    3    0    0 -0.43682970483E+03 -0.28662226325E+03  0.26478297540E+03  0.58573247893E+03  0.00000000000E+00 0.  1.
         22    1    1    2    0    0  0.73210136414E+03  0.46722777989E+03 -0.69393552734E+03  0.11116747374E+04  0.00000000000E+00 0. -1.
<mgrwt>
<rscale>  0 0.20308207E+04</rscale>
<asrwt>0</asrwt>
<pdfrwt beam="1">  1        2 0.18365017E+00 0.20308207E+04</pdfrwt>
<pdfrwt beam="2">  1       -2 0.13288168E+00 0.20308207E+04</pdfrwt>
<totfact> 0.72739377E+00</totfact>
</mgrwt>
</event>
<event>
 6    1  0.3017327E-006  0.1843757E+04  0.7818608E-02  0.8683370E-01
         -2   -1    0    0    0  501 -0.00000000000E+00  0.00000000000E+00  0.59494689397E+03  0.59494689397E+03  0.00000000000E+00 0.  1.
          2   -1    0    0  501    0  0.00000000000E+00 -0.00000000000E+00 -0.14284633594E+04  0.14284633594E+04  0.00000000000E+00 0. -1.
         23    2    1    2    0    0 -0.58897927740E+03 -0.27188045443E+02  0.35664873986E+03  0.69520507536E+03  0.92065162499E+02 0.  0.
         13    1    3    3    0    0 -0.26356424462E+03 -0.12943218847E+02  0.21339553676E+03  0.33936896303E+03  0.00000000000E+00 0.  1.
        -13    1    3    3    0    0 -0.32541503278E+03 -0.14244826595E+02  0.14325320309E+03  0.35583611233E+03  0.00000000000E+00 0. -1.
         22    1    1    2    0    0  0.58897927740E+03  0.27188045443E+02 -0.11901652053E+04  0.13282051780E+04  0.00000000000E+00 0. -1.
<mgrwt>
<rscale>  0 0.18437569E+04</rscale>
<asrwt>0</asrwt>
<pdfrwt beam="1">  1        2 0.21976359E+00 0.18437569E+04</pdfrwt>
<pdfrwt beam="2">  1       -2 0.91530291E-01 0.18437569E+04</pdfrwt>
<totfact> 0.13328622E+01</totfact>
</mgrwt>
</event>
<event>
 6    1  0.3017327E-006  0.1743612E+04  0.7818608E-02  0.8736874E-01
          2   -1    0    0  501    0  0.00000000000E+00  0.00000000000E+00  0.65957081822E+03  0.65957081822E+03  0.00000000000E+00 0. -1.
         -2   -1    0    0    0  501 -0.00000000000E+00 -0.00000000000E+00 -0.11523337268E+04  0.11523337268E+04  0.00000000000E+00 0.  1.
         23    2    1    2    0    0  0.20081419393E+03  0.81636477291E+03 -0.16854800574E+02  0.84584745033E+03  0.91629918712E+02 0.  0.
         11    1    3    3    0    0  0.16819362425E+03  0.76268026075E+03 -0.78488618388E+00  0.78100633251E+03  0.00000000000E+00 0. -1.
        -11    1    3    3    0    0  0.32620569680E+02  0.53684512158E+02 -0.16069914390E+02  0.64841117822E+02  0.00000000000E+00 0.  1.
         22    1    1    2    0    0 -0.20081419393E+03 -0.81636477291E+03 -0.47590810802E+03  0.96605709469E+03  0.00000000000E+00 0.  1.
<mgrwt>
<rscale>  0 0.17436120E+04</rscale>
<asrwt>0</asrwt>
<pdfrwt beam="1">  1        2 0.10147243E+00 0.17436120E+04</pdfrwt>
<pdfrwt beam="2">  1       -2 0.17728211E+00 0.17436120E+04</pdfrwt>
<totfact> 0.79232293E+00</totfact>
</mgrwt>
</event>
<event>
 6    1  0.3017327E-006  0.1124102E+04  0.7818608E-02  0.9182013E-01
          2   -1    0    0  501    0  0.00000000000E+00  0.00000000000E+00  0.22030185953E+04  0.22030185953E+04  0.00000000000E+00 0. -1.
         -2   -1    0    0    0  501 -0.00000000000E+00 -0.00000000000E+00 -0.14339486775E+03  0.14339486775E+03  0.00000000000E+00 0.  1.
         23    2    1    2    0    0 -0.15560942072E+03 -0.36373327726E+03  0.21411970933E+03  0.45898100860E+03  0.91105035700E+02 0.  0.
         11    1    3    3    0    0 -0.51807900883E+02 -0.23477559617E+03  0.12820550270E+03  0.27247071415E+03  0.00000000000E+00 0.  1.
        -11    1    3    3    0    0 -0.10380151984E+03 -0.12895768110E+03  0.85914206631E+02  0.18651029445E+03  0.00000000000E+00 0. -1.
         22    1    1    2    0    0  0.15560942072E+03  0.36373327726E+03  0.18455040182E+04  0.18874324544E+04  0.00000000000E+00 0. -1.
<mgrwt>
<rscale>  0 0.11241024E+04</rscale>
<asrwt>0</asrwt>
<pdfrwt beam="1">  1        2 0.33892591E+00 0.11241024E+04</pdfrwt>
<pdfrwt beam="2">  1       -2 0.22060751E-01 0.11241024E+04</pdfrwt>
<totfact> 0.91994534E+01</totfact>
</mgrwt>
</event>
<event>
 6    1  0.3017327E-006  0.3962897E+04  0.7818608E-02  0.8012074E-01
         -2   -1    0    0    0  501 -0.00000000000E+00  0.00000000000E+00  0.17866212175E+04  0.17866212175E+04  0.00000000000E+00 0.  1.
          2   -1    0    0  501    0  0.00000000000E+00 -0.00000000000E+00 -0.21975212214E+04  0.21975212214E+04  0.00000000000E+00 0. -1.
         23    2    1    2    0    0 -0.14530914532E+04  0.55046656889E+02  0.11459347494E+04  0.18538280595E+04  0.94905839581E+02 0.  0.
         13    1    3    3    0    0 -0.88682227284E+03  0.56882769607E+02  0.64863495610E+03  0.11001893925E+04  0.00000000000E+00 0. -1.
        -13    1    3    3    0    0 -0.56626918034E+03 -0.18361127185E+01  0.49729979334E+03  0.75363866698E+03  0.00000000000E+00 0.  1.
         22    1    1    2    0    0  0.14530914532E+04 -0.55046656889E+02 -0.15568347534E+04  0.21303143794E+04  0.00000000000E+00 0. -1.
<mgrwt>
<rscale>  0 0.39628969E+04</rscale>
<asrwt>0</asrwt>
<pdfrwt beam="1">  1        2 0.33808019E+00 0.39628969E+04</pdfrwt>
<pdfrwt beam="2">  1       -2 0.27486480E+00 0.39628969E+04</pdfrwt>
<totfact> 0.18554522E-01</totfact>
</mgrwt>
</event>
<event>
 6    1  0.3017327E-006  0.1548159E+04  0.7818608E-02  0.8853045E-01
         -2   -1    0    0    0  501 -0.00000000000E+00  0.00000000000E+00  0.42973044062E+03  0.42973044062E+03  0.00000000000E+00 0.  1.
          2   -1    0    0  501    0  0.00000000000E+00 -0.00000000000E+00 -0.13943599968E+04  0.13943599968E+04  0.00000000000E+00 0. -1.
         23    2    1    2    0    0 -0.56073639331E+03 -0.49040294972E+03 -0.72030543326E+03  0.10401168199E+04  0.89903982300E+02 0.  0.
         11    1    3    3    0    0 -0.38043789310E+03 -0.35446597040E+03 -0.44786971515E+03  0.68626991514E+03  0.00000000000E+00 0.  1.
        -11    1    3    3    0    0 -0.18029850020E+03 -0.13593697932E+03 -0.27243571811E+03  0.35384690478E+03  0.00000000000E+00 0. -1.
         22    1    1    2    0    0  0.56073639331E+03  0.49040294972E+03 -0.24432412289E+03  0.78397361747E+03  0.00000000000E+00 0.  1.
<mgrwt>
<rscale>  0 0.15481588E+04</rscale>
<asrwt>0</asrwt>
<pdfrwt beam="1">  1        2 0.21451692E+00 0.15481588E+04</pdfrwt>
<pdfrwt beam="2">  1       -2 0.66112376E-01 0.15481588E+04</pdfrwt>
<totfact> 0.29538253E+01</totfact>
</mgrwt>
</event>
<event>
 6    1  0.3017327E-006  0.2058564E+04  0.7818608E-02  0.8579719E-01
          1   -1    0    0  501    0  0.00000000000E+00  0.00000000000E+00  0.12315891392E+04  0.12315891392E+04  0.00000000000E+00 0. -1.
         -1   -1    0    0    0  501 -0.00000000000E+00 -0.00000000000E+00 -0.86020694809E+03  0.86020694809E+03  0.00000000000E+00 0.  1.
         23    2    1    2    0    0  0.78466843644E+03 -0.66302384324E+03  0.19329876985E+03  0.10491941130E+04  0.90214746083E+02 0.  0.
         13    1    3    3    0    0  0.42521203959E+03 -0.37188316828E+03  0.15080991849E+03  0.58467597948E+03  0.00000000000E+00 0.  1.
        -13    1    3    3    0    0  0.35945639684E+03 -0.29114067496E+03  0.42488851363E+02  0.46451813349E+03  0.00000000000E+00 0. -1.
         22    1    1    2    0    0 -0.78466843644E+03  0.66302384324E+03  0.17808342121E+03  0.10426019743E+04  0.00000000000E+00 0.  1.
<mgrwt>
<rscale>  0 0.20585641E+04</rscale>
<asrwt>0</asrwt>
<pdfrwt beam="1">  1        1 0.18947525E+00 0.20585641E+04</pdfrwt>
<pdfrwt beam="2">  1       -1 0.13233953E+00 0.20585641E+04</pdfrwt>
<totfact> 0.45337579E+00</totfact>
</mgrwt>
</event>
<event>
 6    1  0.3017327E-006  0.1756991E+04  0.7818608E-02  0.8729512E-01
          2   -1    0    0  501    0  0.00000000000E+00  0.00000000000E+00  0.24819275154E+04  0.24819275154E+04  0.00000000000E+00 0. -1.
         -2   -1    0    0    0  501 -0.00000000000E+00 -0.00000000000E+00 -0.31094955810E+03  0.31094955810E+03  0.00000000000E+00 0.  1.
         23    2    1    2    0    0 -0.67923701040E+02 -0.67650668384E+03  0.20803977513E+03  0.71552269125E+03  0.80107747492E+02 0.  0.
         13    1    3    3    0    0 -0.36459828328E+02 -0.60929084988E+03  0.18694070657E+03  0.63836626368E+03  0.00000000000E+00 0.  1.
        -13    1    3    3    0    0 -0.31463872712E+02 -0.67215833964E+02  0.21099068559E+02  0.77156427572E+02  0.00000000000E+00 0. -1.
         22    1    1    2    0    0  0.67923701040E+02  0.67650668384E+03  0.19629381821E+04  0.20773543822E+04  0.00000000000E+00 0. -1.
<mgrwt>
<rscale>  0 0.17569909E+04</rscale>
<asrwt>0</asrwt>
<pdfrwt beam="1">  1        2 0.38183499E+00 0.17569909E+04</pdfrwt>
<pdfrwt beam="2">  1       -2 0.47838395E-01 0.17569909E+04</pdfrwt>
<totfact> 0.14004569E+01</totfact>
</mgrwt>
</event>
<event>
 6    1  0.3017327E-006  0.1289892E+04  0.7818608E-02  0.9037619E-01
          2   -1    0    0  501    0  0.00000000000E+00  0.00000000000E+00  0.74154925824E+03  0.74154925824E+03  0.00000000000E+00 0. -1.
         -2   -1    0    0    0  501 -0.00000000000E+00 -0.00000000000E+00 -0.56092755026E+03  0.56092755026E+03  0.00000000000E+00 0.  1.
         23    2    1    2    0    0  0.36123121039E+02  0.60101941715E+03 -0.13223721101E+03  0.62394167835E+03  0.96370733894E+02 0.  0.
         11    1    3    3    0    0 -0.22975301526E+02  0.24017853126E+03 -0.23231026025E+02  0.24239074225E+03  0.00000000000E+00 0.  1.
        -11    1    3    3    0    0  0.59098422565E+02  0.36084088589E+03 -0.10900618499E+03  0.38155093611E+03  0.00000000000E+00 0. -1.
         22    1    1    2    0    0 -0.36123121039E+02 -0.60101941715E+03  0.31285891899E+03  0.67853513015E+03  0.00000000000E+00 0. -1.
<mgrwt>
<rscale>  0 0.12898921E+04</rscale>
<asrwt>0</asrwt>
<pdfrwt beam="1">  1        2 0.11408450E+00 0.12898921E+04</pdfrwt>
<pdfrwt beam="2">  1       -2 0.86296546E-01 0.12898921E+04</pdfrwt>
<totfact> 0.43464976E+01</totfact>
</mgrwt>
</event>
<event>
 6    1  0.3017327E-006  0.1422007E+04  0.7818608E-02  0.8938041E-01
         -2   -1    0    0    0  501 -0.00000000000E+00  0.00000000000E+00  0.36785592768E+03  0.36785592768E+03  0.00000000000E+00 0.  1.
          2   -1    0    0  501    0  0.00000000000E+00 -0.00000000000E+00 -0.13742494982E+04  0.13742494982E+04  0.00000000000E+00 0. -1.
         23    2    1    2    0    0  0.51251598668E+03  0.33341308446E+03 -0.94258899488E+03  0.11273632480E+04  0.92935236055E+02 0.  0.
         13    1    3    3    0    0  0.34110622303E+03  0.19367036717E+03 -0.66962067641E+03  0.77604994477E+03  0.00000000000E+00 0.  1.
        -13    1    3    3    0    0  0.17140976365E+03  0.13974271729E+03 -0.27296831848E+03  0.35131330319E+03  0.00000000000E+00 0. -1.
         22    1    1    2    0    0 -0.51251598668E+03 -0.33341308446E+03 -0.63804575685E+02  0.61474217796E+03  0.00000000000E+00 0.  1.
<mgrwt>
<rscale>  0 0.14220068E+04</rscale>
<asrwt>0</asrwt>
<pdfrwt beam="1">  1        2 0.21142300E+00 0.14220068E+04</pdfrwt>
<pdfrwt beam="2">  1       -2 0.56593220E-01 0.14220068E+04</pdfrwt>
<totfact> 0.42609191E+01</totfact>
</mgrwt>
</event>
<event>
 6    1  0.3017327E-006  0.8867175E+03  0.7818608E-02  0.9442339E-01
         -2   -1    0    0    0  501 -0.00000000000E+00  0.00000000000E+00  0.31009782765E+03  0.31009782765E+03  0.00000000000E+00 0. -1.
          2   -1    0    0  501    0  0.00000000000E+00 -0.00000000000E+00 -0.63388698398E+03  0.63388698398E+03  0.00000000000E+00 0.  1.
         23    2    1    2    0    0  0.31620329895E+03 -0.11516250587E+03 -0.46365587686E+03  0.57955425784E+03  0.87518207285E+02 0.  0.
         11    1    3    3    0    0  0.13858311452E+03 -0.95477067551E+02 -0.24351720052E+03  0.29600975829E+03  0.00000000000E+00 0.  1.
        -11    1    3    3    0    0  0.17762018443E+03 -0.19685438318E+02 -0.22013867634E+03  0.28354449954E+03  0.00000000000E+00 0. -1.
         22    1    1    2    0    0 -0.31620329895E+03  0.11516250587E+03  0.13986672053E+03  0.36443055379E+03  0.00000000000E+00 0.  1.
<mgrwt>
<rscale>  0 0.88671749E+03</rscale>
<asrwt>0</asrwt>
<pdfrwt beam="1">  1        2 0.97521073E-01 0.88671749E+03</pdfrwt>
<pdfrwt beam="2">  1       -2 0.47707359E-01 0.88671749E+03</pdfrwt>
<totfact> 0.19380213E+02</totfact>
</mgrwt>
</event>
<event>
 6    1  0.3017327E-006  0.1716250E+04  0.7818608E-02  0.8752150E-01
         -2   -1    0    0    0  501 -0.00000000000E+00  0.00000000000E+00  0.57845224917E+03  0.57845224917E+03  0.00000000000E+00 0.  1.
          2   -1    0    0  501    0  0.00000000000E+00 -0.00000000000E+00 -0.12730158624E+04  0.12730158624E+04  0.00000000000E+00 0. -1.
         23    2    1    2    0    0 -0.37947943305E+03 -0.69879714998E+03 -0.81493903084E+01  0.80099841551E+03  0.95968495680E+02 0.  0.
         11    1    3    3    0    0 -0.13125633732E+03 -0.16333179856E+03  0.17292772919E+02  0.21024876338E+03  0.00000000000E+00 0.  1.
        -11    1    3    3    0    0 -0.24822309573E+03 -0.53546535143E+03 -0.25442163228E+02  0.59074965214E+03  0.00000000000E+00 0. -1.
         22    1    1    2    0    0  0.37947943305E+03  0.69879714998E+03 -0.68641422296E+03  0.10504696961E+04  0.00000000000E+00 0. -1.
<mgrwt>
<rscale>  0 0.17162504E+04</rscale>
<asrwt>0</asrwt>
<pdfrwt beam="1">  1        2 0.19584859E+00 0.17162504E+04</pdfrwt>
<pdfrwt beam="2">  1       -2 0.88992654E-01 0.17162504E+04</pdfrwt>
<totfact> 0.17673450E+01</totfact>
</mgrwt>
</event>
<event>
 6    1  0.3017327E-006  0.3833580E+04  0.7818608E-02  0.8038987E-01
         -2   -1    0    0    0  501 -0.00000000000E+00  0.00000000000E+00  0.10579560294E+04  0.10579560294E+04  0.00000000000E+00 0.  1.
          2   -1    0    0  501    0  0.00000000000E+00 -0.00000000000E+00 -0.34728127038E+04  0.34728127038E+04  0.00000000000E+00 0. -1.
         23    2    1    2    0    0  0.99945760748E+03  0.30139103076E+03 -0.31065273965E+04  0.32785066000E+04  0.91329069217E+02 0.  0.
         11    1    3    3    0    0  0.11815838915E+03  0.57412011195E+02 -0.46350532721E+03  0.48176211174E+03  0.00000000000E+00 0.  1.
        -11    1    3    3    0    0  0.88129921832E+03  0.24397901957E+03 -0.26430220692E+04  0.27967444883E+04  0.00000000000E+00 0. -1.
         22    1    1    2    0    0 -0.99945760748E+03 -0.30139103076E+03  0.69167072197E+03  0.12522621332E+04  0.00000000000E+00 0.  1.
<mgrwt>
<rscale>  0 0.38335796E+04</rscale>
<asrwt>0</asrwt>
<pdfrwt beam="1">  1        2 0.53427888E+00 0.38335796E+04</pdfrwt>
<pdfrwt beam="2">  1       -2 0.16276247E+00 0.38335796E+04</pdfrwt>
<totfact> 0.16296125E-01</totfact>
</mgrwt>
</event>
<event>
 6    1  0.3017327E-006  0.1074281E+04  0.7818608E-02  0.9230628E-01
          1   -1    0    0  501    0  0.00000000000E+00  0.00000000000E+00  0.12344431545E+04  0.12344431545E+04  0.00000000000E+00 0. -1.
         -1   -1    0    0    0  501 -0.00000000000E+00 -0.00000000000E+00 -0.23372470560E+03  0.23372470560E+03  0.00000000000E+00 0.  1.
         23    2    1    2    0    0  0.18438688181E+03  0.37631649329E+03  0.53933200753E+02  0.43278632105E+03  0.93715442940E+02 0.  0.
         13    1    3    3    0    0  0.69846072611E+02  0.23970713189E+03  0.49031782837E+02  0.25444468685E+03  0.00000000000E+00 0. -1.
        -13    1    3    3    0    0  0.11454080920E+03  0.13660936139E+03  0.49014179160E+01  0.17834163420E+03  0.00000000000E+00 0.  1.
         22    1    1    2    0    0 -0.18438688181E+03 -0.37631649329E+03  0.94678524818E+03  0.10353815391E+04  0.00000000000E+00 0. -1.
<mgrwt>
<rscale>  0 0.10742809E+04</rscale>
<asrwt>0</asrwt>
<pdfrwt beam="1">  1        1 0.18991433E+00 0.10742809E+04</pdfrwt>
<pdfrwt beam="2">  1       -1 0.35957648E-01 0.10742809E+04</pdfrwt>
<totfact> 0.74350494E+01</totfact>
</mgrwt>
</event>
<event>
 6    1  0.3017327E-006  0.2359322E+04  0.7818608E-02  0.8454892E-01
         -2   -1    0    0    0  501 -0.00000000000E+00  0.00000000000E+00  0.50552779305E+03  0.50552779305E+03  0.00000000000E+00 0.  1.
          2   -1    0    0  501    0  0.00000000000E+00 -0.00000000000E+00 -0.27527670613E+04  0.27527670613E+04  0.00000000000E+00 0. -1.
         23    2    1    2    0    0  0.45533017386E+03 -0.10660433760E+04 -0.14138980291E+04  0.18306283430E+04  0.91205519024E+02 0.  0.
         13    1    3    3    0    0  0.38743129434E+03 -0.88405845972E+03 -0.11225322238E+04  0.14804529582E+04  0.00000000000E+00 0. -1.
        -13    1    3    3    0    0  0.67898879529E+02 -0.18198491630E+03 -0.29136580537E+03  0.35017538483E+03  0.00000000000E+00 0.  1.
         22    1    1    2    0    0 -0.45533017386E+03  0.10660433760E+04 -0.83334123916E+03  0.14276665114E+04  0.00000000000E+00 0.  1.
<mgrwt>
<rscale>  0 0.23593222E+04</rscale>
<asrwt>0</asrwt>
<pdfrwt beam="1">  1        2 0.42350262E+00 0.23593222E+04</pdfrwt>
<pdfrwt beam="2">  1       -2 0.77773507E-01 0.23593222E+04</pdfrwt>
<totfact> 0.32814017E+00</totfact>
</mgrwt>
</event>
<event>
 6    1  0.3017327E-006  0.9969332E+03  0.7818608E-02  0.9311915E-01
          2   -1    0    0  501    0  0.00000000000E+00  0.00000000000E+00  0.70797872350E+03  0.70797872350E+03  0.00000000000E+00 0. -1.
         -2   -1    0    0    0  501 -0.00000000000E+00 -0.00000000000E+00 -0.35095537446E+03  0.35095537446E+03  0.00000000000E+00 0.  1.
         23    2    1    2    0    0  0.60808626094E+02  0.12601048429E+03  0.68360839481E+03  0.70363968021E+03  0.90620256825E+02 0.  0.
         11    1    3    3    0    0 -0.88440022928E+01 -0.74051715964E+01  0.11044819820E+03  0.11104889656E+03  0.00000000000E+00 0. -1.
        -11    1    3    3    0    0  0.69652628387E+02  0.13341565589E+03  0.57316019662E+03  0.59259078365E+03  0.00000000000E+00 0.  1.
         22    1    1    2    0    0 -0.60808626094E+02 -0.12601048429E+03 -0.32658504577E+03  0.35529441774E+03  0.00000000000E+00 0.  1.
<mgrwt>
<rscale>  0 0.99693317E+03</rscale>
<asrwt>0</asrwt>
<pdfrwt beam="1">  1        2 0.10891980E+00 0.99693317E+03</pdfrwt>
<pdfrwt beam="2">  1       -2 0.53993135E-01 0.99693317E+03</pdfrwt>
<totfact> 0.13032561E+02</totfact>
</mgrwt>
</event>
<event>
 6    1  0.3017327E-006  0.2761810E+04  0.7818608E-02  0.8315224E-01
          1   -1    0    0  501    0  0.00000000000E+00  0.00000000000E+00  0.15627576471E+04  0.15627576471E+04  0.00000000000E+00 0. -1.
         -1   -1    0    0    0  501 -0.00000000000E+00 -0.00000000000E+00 -0.12202134769E+04  0.12202134769E+04  0.00000000000E+00 0.  1.
         23    2    1    2    0    0 -0.45169341386E+03 -0.11145058890E+04  0.85233204263E+03  0.14768187625E+04  0.91506445870E+02 0.  0.
         13    1    3    3    0    0 -0.18843373525E+03 -0.38605015286E+03  0.34401049890E+03  0.55035008536E+03  0.00000000000E+00 0. -1.
        -13    1    3    3    0    0 -0.26325967860E+03 -0.72845573614E+03  0.50832154373E+03  0.92646867714E+03  0.00000000000E+00 0.  1.
         22    1    1    2    0    0  0.45169341386E+03  0.11145058890E+04 -0.50978787244E+03  0.13061523616E+04  0.00000000000E+00 0.  1.
<mgrwt>
<rscale>  0 0.27618095E+04</rscale>
<asrwt>0</asrwt>
<pdfrwt beam="1">  1        1 0.24042425E+00 0.27618095E+04</pdfrwt>
<pdfrwt beam="2">  1       -1 0.18772515E+00 0.27618095E+04</pdfrwt>
<totfact> 0.94266822E-01</totfact>
</mgrwt>
</event>
<event>
 6    1  0.3017327E-006  0.1206891E+04  0.7818608E-02  0.9106846E-01
          2   -1    0    0  501    0  0.00000000000E+00  0.00000000000E+00  0.17386670097E+04  0.17386670097E+04  0.00000000000E+00 0. -1.
         -2   -1    0    0    0  501 -0.00000000000E+00 -0.00000000000E+00 -0.20944010610E+03  0.20944010610E+03  0.00000000000E+00 0.  1.
         23    2    1    2    0    0  0.33507766494E+03  0.30455433344E+03  0.14042308402E+04  0.14783684656E+04  0.93159455760E+02 0.  0.
         13    1    3    3    0    0  0.22403229021E+03  0.25677012334E+03  0.10695624669E+04  0.11225351816E+04  0.00000000000E+00 0.  1.
        -13    1    3    3    0    0  0.11104537473E+03  0.47784210103E+02  0.33466837326E+03  0.35583328406E+03  0.00000000000E+00 0. -1.
         22    1    1    2    0    0 -0.33507766494E+03 -0.30455433344E+03  0.12499606341E+03  0.46973865013E+03  0.00000000000E+00 0.  1.
<mgrwt>
<rscale>  0 0.12068912E+04</rscale>
<asrwt>0</asrwt>
<pdfrwt beam="1">  1        2 0.26748722E+00 0.12068912E+04</pdfrwt>
<pdfrwt beam="2">  1       -2 0.32221556E-01 0.12068912E+04</pdfrwt>
<totfact> 0.82535461E+01</totfact>
</mgrwt>
</event>
<event>
 6    1  0.3017327E-006  0.3010407E+04  0.7818608E-02  0.8240765E-01
          2   -1    0    0  501    0  0.00000000000E+00  0.00000000000E+00  0.27101620268E+04  0.27101620268E+04  0.00000000000E+00 0. -1.
         -2   -1    0    0    0  501 -0.00000000000E+00 -0.00000000000E+00 -0.83597888839E+03  0.83597888839E+03  0.00000000000E+00 0.  1.
         23    2    1    2    0    0  0.13088240580E+04  0.58357540869E+03  0.40067681423E+03  0.14907087076E+04  0.89943698969E+02 0.  0.
         11    1    3    3    0    0  0.44985917564E+03  0.21713213649E+03  0.98197726290E+02  0.50907998984E+03  0.00000000000E+00 0.  1.
        -11    1    3    3    0    0  0.85896488240E+03  0.36644327219E+03  0.30247908794E+03  0.98162871778E+03  0.00000000000E+00 0. -1.
         22    1    1    2    0    0 -0.13088240580E+04 -0.58357540869E+03  0.14735063242E+04  0.20554322076E+04  0.00000000000E+00 0. -1.
<mgrwt>
<rscale>  0 0.30104074E+04</rscale>
<asrwt>0</asrwt>
<pdfrwt beam="1">  1        2 0.41694800E+00 0.30104074E+04</pdfrwt>
<pdfrwt beam="2">  1       -2 0.12861214E+00 0.30104074E+04</pdfrwt>
<totfact> 0.99913149E-01</totfact>
</mgrwt>
</event>
<event>
 6    1  0.3017327E-006  0.3678794E+04  0.7818608E-02  0.8072678E-01
         -2   -1    0    0    0  501 -0.00000000000E+00  0.00000000000E+00  0.16067831427E+04  0.16067831427E+04  0.00000000000E+00 0.  1.
          2   -1    0    0  501    0  0.00000000000E+00 -0.00000000000E+00 -0.21056868254E+04  0.21056868254E+04  0.00000000000E+00 0. -1.
         23    2    1    2    0    0  0.91252729319E+03  0.39157911573E+03 -0.18107202005E+04  0.20672031688E+04  0.92633858834E+02 0.  0.
         11    1    3    3    0    0  0.75965878654E+03  0.36183664403E+03 -0.15403424344E+04  0.17551814847E+04  0.00000000000E+00 0.  1.
        -11    1    3    3    0    0  0.15286850664E+03  0.29742471702E+02 -0.27037776610E+03  0.31202168410E+03  0.00000000000E+00 0. -1.
         22    1    1    2    0    0 -0.91252729319E+03 -0.39157911573E+03  0.13118165178E+04  0.16452667993E+04  0.00000000000E+00 0.  1.
<mgrwt>
<rscale>  0 0.36787944E+04</rscale>
<asrwt>0</asrwt>
<pdfrwt beam="1">  1        2 0.32395182E+00 0.36787944E+04</pdfrwt>
<pdfrwt beam="2">  1       -2 0.24719741E+00 0.36787944E+04</pdfrwt>
<totfact> 0.31587867E-01</totfact>
</mgrwt>
</event>
<event>
 6    1  0.3017327E-006  0.1150342E+04  0.7818608E-02  0.9157468E-01
          2   -1    0    0  501    0  0.00000000000E+00  0.00000000000E+00  0.16312330425E+04  0.16312330425E+04  0.00000000000E+00 0. -1.
         -2   -1    0    0    0  501 -0.00000000000E+00 -0.00000000000E+00 -0.20280468674E+03  0.20280468674E+03  0.00000000000E+00 0.  1.
         23    2    1    2    0    0  0.39849393062E+03 -0.13778952120E+02  0.66888741580E+02  0.41531386844E+03  0.94995964654E+02 0.  0.
         13    1    3    3    0    0  0.12764719947E+03 -0.30613854554E+02 -0.14340569501E+02  0.13204797445E+03  0.00000000000E+00 0. -1.
        -13    1    3    3    0    0  0.27084673115E+03  0.16834902434E+02  0.81229311081E+02  0.28326589399E+03  0.00000000000E+00 0.  1.
         22    1    1    2    0    0 -0.39849393062E+03  0.13778952120E+02  0.13615396142E+04  0.14187238608E+04  0.00000000000E+00 0. -1.
<mgrwt>
<rscale>  0 0.11503420E+04</rscale>
<asrwt>0</asrwt>
<pdfrwt beam="1">  1        2 0.25095892E+00 0.11503420E+04</pdfrwt>
<pdfrwt beam="2">  1       -2 0.31200722E-01 0.11503420E+04</pdfrwt>
<totfact> 0.10098696E+02</totfact>
</mgrwt>
</event>
<event>
 6    1  0.3017327E-006  0.3042113E+04  0.7818608E-02  0.8231807E-01
          2   -1    0    0  501    0  0.00000000000E+00  0.00000000000E+00  0.29898448757E+04  0.29898448757E+04  0.00000000000E+00 0. -1.
         -2   -1    0    0    0  501 -0.00000000000E+00 -0.00000000000E+00 -0.77382360972E+03  0.77382360972E+03  0.00000000000E+00 0.  1.
         23    2    1    2    0    0  0.14930045282E+04  0.53792769755E+02  0.14516295179E+04  0.20854995643E+04  0.10061805147E+03 0.  0.
         11    1    3    3    0    0  0.10023905038E+04 -0.10613419744E+02  0.96125196234E+03  0.13888501366E+04  0.00000000000E+00 0.  1.
        -11    1    3    3    0    0  0.49061402442E+03  0.64406189499E+02  0.49037755552E+03  0.69664942773E+03  0.00000000000E+00 0. -1.
         22    1    1    2    0    0 -0.14930045282E+04 -0.53792769755E+02  0.76439174814E+03  0.16781689211E+04  0.00000000000E+00 0.  1.
<mgrwt>
<rscale>  0 0.30421128E+04</rscale>
<asrwt>0</asrwt>
<pdfrwt beam="1">  1        2 0.45997613E+00 0.30421128E+04</pdfrwt>
<pdfrwt beam="2">  1       -2 0.11904979E+00 0.30421128E+04</pdfrwt>
<totfact> 0.81581894E-01</totfact>
</mgrwt>
</event>
<event>
 6    1  0.3017327E-006  0.9365244E+03  0.7818608E-02  0.9381042E-01
          2   -1    0    0  501    0  0.00000000000E+00  0.00000000000E+00  0.66439041738E+03  0.66439041738E+03  0.00000000000E+00 0. -1.
         -2   -1    0    0    0  501 -0.00000000000E+00 -0.00000000000E+00 -0.33003111203E+03  0.33003111203E+03  0.00000000000E+00 0.  1.
         23    2    1    2    0    0  0.15534571203E+03 -0.20402666809E+02 -0.29490687823E+03  0.34594293388E+03  0.90321025321E+02 0.  0.
         11    1    3    3    0    0  0.52817045126E+02 -0.14181387435E+00 -0.19252893691E+03  0.19964230993E+03  0.00000000000E+00 0. -1.
        -11    1    3    3    0    0  0.10252866690E+03 -0.20260852934E+02 -0.10237794132E+03  0.14630062394E+03  0.00000000000E+00 0.  1.
         22    1    1    2    0    0 -0.15534571203E+03  0.20402666809E+02  0.62926618358E+03  0.64847859553E+03  0.00000000000E+00 0. -1.
<mgrwt>
<rscale>  0 0.93652444E+03</rscale>
<asrwt>0</asrwt>
<pdfrwt beam="1">  1        2 0.10221391E+00 0.93652444E+03</pdfrwt>
<pdfrwt beam="2">  1       -2 0.50774017E-01 0.93652444E+03</pdfrwt>
<totfact> 0.16072663E+02</totfact>
</mgrwt>
</event>
<event>
 6    1  0.3017327E-006  0.1175795E+04  0.7818608E-02  0.9134311E-01
          2   -1    0    0  501    0  0.00000000000E+00  0.00000000000E+00  0.12192543536E+04  0.12192543536E+04  0.00000000000E+00 0. -1.
         -2   -1    0    0    0  501 -0.00000000000E+00 -0.00000000000E+00 -0.28347120894E+03  0.28347120894E+03  0.00000000000E+00 0.  1.
         23    2    1    2    0    0  0.26663367745E+03 -0.22606053333E+03 -0.12744249727E+03  0.38350902927E+03  0.92955380352E+02 0.  0.
         13    1    3    3    0    0  0.25712690302E+03 -0.17820446615E+03 -0.10747064924E+03  0.33078847692E+03  0.00000000000E+00 0.  1.
        -13    1    3    3    0    0  0.95067744276E+01 -0.47856067180E+02 -0.19971848023E+02  0.52720552343E+02  0.00000000000E+00 0. -1.
         22    1    1    2    0    0 -0.26663367745E+03  0.22606053333E+03  0.10632256419E+04  0.11192165332E+04  0.00000000000E+00 0. -1.
<mgrwt>
<rscale>  0 0.11757951E+04</rscale>
<asrwt>0</asrwt>
<pdfrwt beam="1">  1        2 0.18757759E+00 0.11757951E+04</pdfrwt>
<pdfrwt beam="2">  1       -2 0.43610956E-01 0.11757951E+04</pdfrwt>
<totfact> 0.90840918E+01</totfact>
</mgrwt>
</event>
<event>
 6    1  0.3017327E-006  0.4322766E+03  0.7818608E-02  0.1033143E+00
          2   -1    0    0  501    0  0.00000000000E+00  0.00000000000E+00  0.20900528865E+03  0.20900528865E+03  0.00000000000E+00 0. -1.
         -2   -1    0    0    0  501 -0.00000000000E+00 -0.00000000000E+00 -0.22351477765E+03  0.22351477765E+03  0.00000000000E+00 0.  1.
         23    2    1    2    0    0  0.20321966281E+03 -0.14875224169E+01 -0.44505547976E+02  0.22709317510E+03  0.91050108755E+02 0.  0.
         11    1    3    3    0    0  0.18518141219E+03 -0.31057505914E+02 -0.41697895727E+02  0.19234198346E+03  0.00000000000E+00 0. -1.
        -11    1    3    3    0    0  0.18038250615E+02  0.29569983497E+02 -0.28076522496E+01  0.34751191641E+02  0.00000000000E+00 0.  1.
         22    1    1    2    0    0 -0.20321966281E+03  0.14875224169E+01  0.29996058973E+02  0.20542689120E+03  0.00000000000E+00 0.  1.
<mgrwt>
<rscale>  0 0.43227663E+03</rscale>
<asrwt>0</asrwt>
<pdfrwt beam="1">  1        2 0.32154660E-01 0.43227663E+03</pdfrwt>
<pdfrwt beam="2">  1       -2 0.34386889E-01 0.43227663E+03</pdfrwt>
<totfact> 0.12991167E+03</totfact>
</mgrwt>
</event>
<event>
 6    1  0.3017327E-006  0.8231813E+03  0.7818608E-02  0.9527056E-01
         -2   -1    0    0    0  501 -0.00000000000E+00  0.00000000000E+00  0.20223326845E+03  0.20223326845E+03  0.00000000000E+00 0.  1.
          2   -1    0    0  501    0  0.00000000000E+00 -0.00000000000E+00 -0.83768050279E+03  0.83768050279E+03  0.00000000000E+00 0. -1.
         23    2    1    2    0    0 -0.11805857466E+03  0.18448750315E+03  0.11083834153E+03  0.26215055109E+03  0.92001671791E+02 0.  0.
         13    1    3    3    0    0 -0.43774622978E+02  0.12457280976E+02  0.43719067736E+02  0.63109098788E+02  0.00000000000E+00 0. -1.
        -13    1    3    3    0    0 -0.74283951687E+02  0.17203022217E+03  0.67119273799E+02  0.19904145230E+03  0.00000000000E+00 0.  1.
         22    1    1    2    0    0  0.11805857466E+03 -0.18448750315E+03 -0.74628557587E+03  0.77776322015E+03  0.00000000000E+00 0. -1.
<mgrwt>
<rscale>  0 0.82318131E+03</rscale>
<asrwt>0</asrwt>
<pdfrwt beam="1">  1        2 0.12887392E+00 0.82318131E+03</pdfrwt>
<pdfrwt beam="2">  1       -2 0.31112810E-01 0.82318131E+03</pdfrwt>
<totfact> 0.31129279E+02</totfact>
</mgrwt>
</event>
<event>
 6    1  0.3017327E-006  0.1306732E+04  0.7818608E-02  0.9024244E-01
         -2   -1    0    0    0  501 -0.00000000000E+00  0.00000000000E+00  0.28097929007E+03  0.28097929007E+03  0.00000000000E+00 0.  1.
          2   -1    0    0  501    0  0.00000000000E+00 -0.00000000000E+00 -0.15192831561E+04  0.15192831561E+04  0.00000000000E+00 0. -1.
         23    2    1    2    0    0 -0.11549002531E+03 -0.80762871772E+02 -0.14965574764E+04  0.15060592602E+04  0.93110835125E+02 0.  0.
         11    1    3    3    0    0 -0.34317024556E+01 -0.53437394739E+02 -0.48521734832E+03  0.48816309452E+03  0.00000000000E+00 0. -1.
        -11    1    3    3    0    0 -0.11205832285E+03 -0.27325477033E+02 -0.10113401281E+04  0.10178961657E+04  0.00000000000E+00 0.  1.
         22    1    1    2    0    0  0.11549002531E+03  0.80762871772E+02  0.25825361035E+03  0.29420318601E+03  0.00000000000E+00 0.  1.
<mgrwt>
<rscale>  0 0.13067320E+04</rscale>
<asrwt>0</asrwt>
<pdfrwt beam="1">  1        2 0.23373587E+00 0.13067320E+04</pdfrwt>
<pdfrwt beam="2">  1       -2 0.43227584E-01 0.13067320E+04</pdfrwt>
<totfact> 0.61520169E+01</totfact>
</mgrwt>
</event>
<event>
 6    1  0.3017327E-006  0.2030140E+04  0.7818608E-02  0.8592657E-01
          2   -1    0    0  501    0  0.00000000000E+00  0.00000000000E+00  0.23243297969E+04  0.23243297969E+04  0.00000000000E+00 0. -1.
         -2   -1    0    0    0  501 -0.00000000000E+00 -0.00000000000E+00 -0.44329646198E+03  0.44329646198E+03  0.00000000000E+00 0.  1.
         23    2    1    2    0    0 -0.48661965048E+03 -0.87291207451E+03  0.11683663902E+04  0.15401620646E+04  0.90801924769E+02 0.  0.
         13    1    3    3    0    0 -0.14155170730E+03 -0.32812350807E+03  0.37987524779E+03  0.52154302437E+03  0.00000000000E+00 0.  1.
        -13    1    3    3    0    0 -0.34506794318E+03 -0.54478856644E+03  0.78849114237E+03  0.10186190402E+04  0.00000000000E+00 0. -1.
         22    1    1    2    0    0  0.48661965048E+03  0.87291207451E+03  0.71266694477E+03  0.12274641943E+04  0.00000000000E+00 0. -1.
<mgrwt>
<rscale>  0 0.20301401E+04</rscale>
<asrwt>0</asrwt>
<pdfrwt beam="1">  1        2 0.35758919E+00 0.20301401E+04</pdfrwt>
<pdfrwt beam="2">  1       -2 0.68199457E-01 0.20301401E+04</pdfrwt>
<totfact> 0.80093947E+00</totfact>
</mgrwt>
</event>
<event>
 6    1  0.3017327E-006  0.2057080E+04  0.7818608E-02  0.8580389E-01
          1   -1    0    0  501    0  0.00000000000E+00  0.00000000000E+00  0.22919711955E+04  0.22919711955E+04  0.00000000000E+00 0. -1.
         -1   -1    0    0    0  501 -0.00000000000E+00 -0.00000000000E+00 -0.46156545368E+03  0.46156545368E+03  0.00000000000E+00 0.  1.
         23    2    1    2    0    0  0.35909364878E+03 -0.90406095641E+03  0.47791225989E+03  0.10875495303E+04  0.89941043401E+02 0.  0.
         13    1    3    3    0    0  0.12604363120E+03 -0.23523285476E+03  0.16040811293E+03  0.31137157162E+03  0.00000000000E+00 0.  1.
        -13    1    3    3    0    0  0.23305001758E+03 -0.66882810165E+03  0.31750414696E+03  0.77617795871E+03  0.00000000000E+00 0. -1.
         22    1    1    2    0    0 -0.35909364878E+03  0.90406095641E+03  0.13524934820E+04  0.16659871189E+04  0.00000000000E+00 0. -1.
<mgrwt>
<rscale>  0 0.20570802E+04</rscale>
<asrwt>0</asrwt>
<pdfrwt beam="1">  1        1 0.35261095E+00 0.20570802E+04</pdfrwt>
<pdfrwt beam="2">  1       -1 0.71010071E-01 0.20570802E+04</pdfrwt>
<totfact> 0.34856886E+00</totfact>
</mgrwt>
</event>
<event>
 6    1  0.3017327E-006  0.3701450E+04  0.7818608E-02  0.8067641E-01
         -2   -1    0    0    0  501 -0.00000000000E+00  0.00000000000E+00  0.11116961766E+04  0.11116961766E+04  0.00000000000E+00 0.  1.
          2   -1    0    0  501    0  0.00000000000E+00 -0.00000000000E+00 -0.30810421045E+04  0.30810421045E+04  0.00000000000E+00 0. -1.
         23    2    1    2    0    0 -0.22275325086E+03 -0.94799191912E+03  0.79598250399E+03  0.12609557131E+04  0.90074826615E+02 0.  0.
         13    1    3    3    0    0 -0.15281147499E+03 -0.48097159521E+03  0.44072734039E+03  0.67001911230E+03  0.00000000000E+00 0.  1.
        -13    1    3    3    0    0 -0.69941775870E+02 -0.46702032391E+03  0.35525516360E+03  0.59093660084E+03  0.00000000000E+00 0. -1.
         22    1    1    2    0    0  0.22275325086E+03  0.94799191912E+03 -0.27653284319E+04  0.29317825679E+04  0.00000000000E+00 0. -1.
<mgrwt>
<rscale>  0 0.37014498E+04</rscale>
<asrwt>0</asrwt>
<pdfrwt beam="1">  1        2 0.47400646E+00 0.37014498E+04</pdfrwt>
<pdfrwt beam="2">  1       -2 0.17103019E+00 0.37014498E+04</pdfrwt>
<totfact> 0.26190770E-01</totfact>
</mgrwt>
</event>
<event>
 6    1  0.3017327E-006  0.2161733E+04  0.7818608E-02  0.8534527E-01
         -2   -1    0    0    0  501 -0.00000000000E+00  0.00000000000E+00  0.13455201602E+04  0.13455201602E+04  0.00000000000E+00 0.  1.
          2   -1    0    0  501    0  0.00000000000E+00 -0.00000000000E+00 -0.86826782198E+03  0.86826782198E+03  0.00000000000E+00 0. -1.
         23    2    1    2    0    0  0.41045346059E+03  0.14120060525E+03  0.12506751838E+04  0.13268874509E+04  0.89622750982E+02 0.  0.
         11    1    3    3    0    0  0.80535059372E+02  0.50739716924E+02  0.19176809393E+03  0.21409207485E+03  0.00000000000E+00 0. -1.
        -11    1    3    3    0    0  0.32991840122E+03  0.90460888327E+02  0.10589070899E+04  0.11127953760E+04  0.00000000000E+00 0.  1.
         22    1    1    2    0    0 -0.41045346059E+03 -0.14120060525E+03 -0.77342284566E+03  0.88690053130E+03  0.00000000000E+00 0. -1.
<mgrwt>
<rscale>  0 0.21617325E+04</rscale>
<asrwt>0</asrwt>
<pdfrwt beam="1">  1        2 0.13357967E+00 0.21617325E+04</pdfrwt>
<pdfrwt beam="2">  1       -2 0.20700310E+00 0.21617325E+04</pdfrwt>
<totfact> 0.33825142E+00</totfact>
</mgrwt>
</event>
<event>
 6    1  0.3017327E-006  0.3042917E+04  0.7818608E-02  0.8231581E-01
          2   -1    0    0  501    0  0.00000000000E+00  0.00000000000E+00  0.14109138015E+04  0.14109138015E+04  0.00000000000E+00 0. -1.
         -2   -1    0    0    0  501 -0.00000000000E+00 -0.00000000000E+00 -0.16406642030E+04  0.16406642030E+04  0.00000000000E+00 0.  1.
         23    2    1    2    0    0  0.68949620682E+03 -0.41234644228E+03 -0.14092106373E+04  0.16244966979E+04  0.87637283362E+02 0.  0.
         13    1    3    3    0    0  0.36992200906E+03 -0.23504558888E+03 -0.85216660442E+03  0.95826752180E+03  0.00000000000E+00 0.  1.
        -13    1    3    3    0    0  0.31957419775E+03 -0.17730085340E+03 -0.55704403293E+03  0.66622917611E+03  0.00000000000E+00 0. -1.
         22    1    1    2    0    0 -0.68949620682E+03  0.41234644228E+03  0.11794602358E+04  0.14270813066E+04  0.00000000000E+00 0. -1.
<mgrwt>
<rscale>  0 0.30429169E+04</rscale>
<asrwt>0</asrwt>
<pdfrwt beam="1">  1        2 0.21706366E+00 0.30429169E+04</pdfrwt>
<pdfrwt beam="2">  1       -2 0.25240988E+00 0.30429169E+04</pdfrwt>
<totfact> 0.75566013E-01</totfact>
</mgrwt>
</event>
<event>
 6    1  0.3017327E-006  0.1339780E+04  0.7818608E-02  0.8998601E-01
         -2   -1    0    0    0  501 -0.00000000000E+00  0.00000000000E+00  0.24739707253E+03  0.24739707253E+03  0.00000000000E+00 0.  1.
          2   -1    0    0  501    0  0.00000000000E+00 -0.00000000000E+00 -0.18138968963E+04  0.18138968963E+04  0.00000000000E+00 0. -1.
         23    2    1    2    0    0 -0.41662790364E+03  0.52040819527E+03 -0.76647904367E+03  0.10199310406E+04  0.91464218711E+02 0.  0.
         13    1    3    3    0    0 -0.13111535031E+03  0.22746626419E+03 -0.33050567790E+03  0.42209731053E+03  0.00000000000E+00 0. -1.
        -13    1    3    3    0    0 -0.28551255333E+03  0.29294193108E+03 -0.43597336577E+03  0.59783373002E+03  0.00000000000E+00 0.  1.
         22    1    1    2    0    0  0.41662790364E+03 -0.52040819527E+03 -0.80002078006E+03  0.10413629282E+04  0.00000000000E+00 0. -1.
<mgrwt>
<rscale>  0 0.13397803E+04</rscale>
<asrwt>0</asrwt>
<pdfrwt beam="1">  1        2 0.27906107E+00 0.13397803E+04</pdfrwt>
<pdfrwt beam="2">  1       -2 0.38061086E-01 0.13397803E+04</pdfrwt>
<totfact> 0.54001542E+01</totfact>
</mgrwt>
</event>
<event>
 6    1  0.3017327E-006  0.1789043E+04  0.7818608E-02  0.8712148E-01
         -2   -1    0    0    0  501 -0.00000000000E+00  0.00000000000E+00  0.62869804188E+03  0.62869804188E+03  0.00000000000E+00 0.  1.
          2   -1    0    0  501    0  0.00000000000E+00 -0.00000000000E+00 -0.12727393099E+04  0.12727393099E+04  0.00000000000E+00 0. -1.
         23    2    1    2    0    0 -0.65373320648E+03 -0.49244993832E+03  0.54616543797E+02  0.82533476140E+03  0.91216525422E+02 0.  0.
         11    1    3    3    0    0 -0.33565054004E+03 -0.24735482241E+03  0.73304432405E+02  0.42334292601E+03  0.00000000000E+00 0.  1.
        -11    1    3    3    0    0 -0.31808266645E+03 -0.24509511591E+03 -0.18687888607E+02  0.40199183538E+03  0.00000000000E+00 0. -1.
         22    1    1    2    0    0  0.65373320648E+03  0.49244993832E+03 -0.69865781180E+03  0.10761025904E+04  0.00000000000E+00 0. -1.
<mgrwt>
<rscale>  0 0.17890430E+04</rscale>
<asrwt>0</asrwt>
<pdfrwt beam="1">  1        2 0.19580605E+00 0.17890430E+04</pdfrwt>
<pdfrwt beam="2">  1       -2 0.96722776E-01 0.17890430E+04</pdfrwt>
<totfact> 0.14482666E+01</totfact>
</mgrwt>
</event>
<event>
 6    1  0.3017327E-006  0.7252963E+03  0.7818608E-02  0.9674924E-01
          2   -1    0    0  501    0  0.00000000000E+00  0.00000000000E+00  0.15507041395E+04  0.15507041395E+04  0.00000000000E+00 0. -1.
         -2   -1    0    0    0  501 -0.00000000000E+00 -0.00000000000E+00 -0.84809005283E+02  0.84809005283E+02  0.00000000000E+00 0.  1.
         23    2    1    2    0    0  0.21747254300E+03  0.26186218976E+03  0.50187717920E+03  0.61316451003E+03  0.90685720865E+02 0.  0.
         13    1    3    3    0    0  0.91188883784E+02  0.16868317380E+03  0.31882007842E+03  0.37204256215E+03  0.00000000000E+00 0.  1.
        -13    1    3    3    0    0  0.12628365922E+03  0.93179015966E+02  0.18305710078E+03  0.24112194788E+03  0.00000000000E+00 0. -1.
         22    1    1    2    0    0 -0.21747254300E+03 -0.26186218976E+03  0.96401795503E+03  0.10223486348E+04  0.00000000000E+00 0. -1.
<mgrwt>
<rscale>  0 0.72529629E+03</rscale>
<asrwt>0</asrwt>
<pdfrwt beam="1">  1        2 0.23856985E+00 0.72529629E+03</pdfrwt>
<pdfrwt beam="2">  1       -2 0.13047540E-01 0.72529629E+03</pdfrwt>
<totfact> 0.53412620E+02</totfact>
</mgrwt>
</event>
<event>
 6    1  0.3017327E-006  0.4462557E+04  0.7818608E-02  0.7917225E-01
          2   -1    0    0  501    0  0.00000000000E+00  0.00000000000E+00  0.31694743674E+04  0.31694743674E+04  0.00000000000E+00 0. -1.
         -2   -1    0    0    0  501 -0.00000000000E+00 -0.00000000000E+00 -0.15707978181E+04  0.15707978181E+04  0.00000000000E+00 0.  1.
         23    2    1    2    0    0 -0.11868061250E+04 -0.14731392603E+04 -0.45527560408E+03  0.19478955083E+04  0.91503972225E+02 0.  0.
         11    1    3    3    0    0 -0.64829155759E+03 -0.73259726256E+03 -0.22828458066E+03  0.10045369792E+04  0.00000000000E+00 0.  1.
        -11    1    3    3    0    0 -0.53851456740E+03 -0.74054199777E+03 -0.22699102342E+03  0.94335852913E+03  0.00000000000E+00 0. -1.
         22    1    1    2    0    0  0.11868061250E+04  0.14731392603E+04  0.20539521534E+04  0.27923766771E+04  0.00000000000E+00 0. -1.
<mgrwt>
<rscale>  0 0.44625569E+04</rscale>
<asrwt>0</asrwt>
<pdfrwt beam="1">  1        2 0.48761144E+00 0.44625569E+04</pdfrwt>
<pdfrwt beam="2">  1       -2 0.24166120E+00 0.44625569E+04</pdfrwt>
<totfact> 0.74566538E-02</totfact>
</mgrwt>
</event>
<event>
 6    1  0.3017327E-006  0.2664704E+04  0.7818608E-02  0.8346549E-01
          2   -1    0    0  501    0  0.00000000000E+00  0.00000000000E+00  0.39195270865E+04  0.39195270865E+04  0.00000000000E+00 0. -1.
         -2   -1    0    0    0  501 -0.00000000000E+00 -0.00000000000E+00 -0.45290197326E+03  0.45290197326E+03  0.00000000000E+00 0.  1.
         23    2    1    2    0    0 -0.56938249748E+03 -0.42002836937E+03  0.35847849590E+04  0.36550853425E+04  0.91353154574E+02 0.  0.
         13    1    3    3    0    0 -0.46561544556E+02 -0.13047421892E+02  0.33265497857E+03  0.33615107827E+03  0.00000000000E+00 0.  1.
        -13    1    3    3    0    0 -0.52282095292E+03 -0.40698094748E+03  0.32521299805E+04  0.33189342642E+04  0.00000000000E+00 0. -1.
         22    1    1    2    0    0  0.56938249748E+03  0.42002836937E+03 -0.11815984581E+03  0.71734371725E+03  0.00000000000E+00 0.  1.
<mgrwt>
<rscale>  0 0.26647038E+04</rscale>
<asrwt>0</asrwt>
<pdfrwt beam="1">  1        2 0.60300415E+00 0.26647038E+04</pdfrwt>
<pdfrwt beam="2">  1       -2 0.69677229E-01 0.26647038E+04</pdfrwt>
<totfact> 0.65652237E-01</totfact>
</mgrwt>
</event>
<event>
 6    1  0.3017327E-006  0.3002121E+04  0.7818608E-02  0.8243125E-01
         -2   -1    0    0    0  501 -0.00000000000E+00  0.00000000000E+00  0.75035529828E+03  0.75035529828E+03  0.00000000000E+00 0.  1.
          2   -1    0    0  501    0  0.00000000000E+00 -0.00000000000E+00 -0.30028209378E+04  0.30028209378E+04  0.00000000000E+00 0. -1.
         23    2    1    2    0    0 -0.31354290288E+03 -0.78954630336E+03  0.41774440363E+03  0.95108519694E+03  0.91433844754E+02 0.  0.
         13    1    3    3    0    0 -0.75100601505E+02 -0.24578450007E+03  0.86359523644E+02  0.27112375061E+03  0.00000000000E+00 0. -1.
        -13    1    3    3    0    0 -0.23844230138E+03 -0.54376180329E+03  0.33138487999E+03  0.67996144633E+03  0.00000000000E+00 0.  1.
         22    1    1    2    0    0  0.31354290288E+03  0.78954630336E+03 -0.26702100432E+04  0.28020910392E+04  0.00000000000E+00 0. -1.
<mgrwt>
<rscale>  0 0.30021210E+04</rscale>
<asrwt>0</asrwt>
<pdfrwt beam="1">  1        2 0.46197245E+00 0.30021210E+04</pdfrwt>
<pdfrwt beam="2">  1       -2 0.11543928E+00 0.30021210E+04</pdfrwt>
<totfact> 0.86647710E-01</totfact>
</mgrwt>
</event>
<event>
 6    1  0.3017327E-006  0.2330633E+04  0.7818608E-02  0.8465940E-01
         -2   -1    0    0    0  501 -0.00000000000E+00  0.00000000000E+00  0.12894857598E+04  0.12894857598E+04  0.00000000000E+00 0.  1.
          2   -1    0    0  501    0  0.00000000000E+00 -0.00000000000E+00 -0.10531039958E+04  0.10531039958E+04  0.00000000000E+00 0. -1.
         23    2    1    2    0    0 -0.84766963038E+03 -0.78468227526E+03  0.25894107167E+03  0.11872633957E+04  0.90960523625E+02 0.  0.
         11    1    3    3    0    0 -0.21595603859E+03 -0.14951495990E+03  0.67872357146E+02  0.27129023333E+03  0.00000000000E+00 0. -1.
        -11    1    3    3    0    0 -0.63171359179E+03 -0.63516731537E+03  0.19106871453E+03  0.91597316240E+03  0.00000000000E+00 0.  1.
         22    1    1    2    0    0  0.84766963038E+03  0.78468227526E+03 -0.22559307683E+02  0.11553263598E+04  0.00000000000E+00 0. -1.
<mgrwt>
<rscale>  0 0.23306331E+04</rscale>
<asrwt>0</asrwt>
<pdfrwt beam="1">  1        2 0.16201600E+00 0.23306331E+04</pdfrwt>
<pdfrwt beam="2">  1       -2 0.19838242E+00 0.23306331E+04</pdfrwt>
<totfact> 0.28719925E+00</totfact>
</mgrwt>
</event>
<event>
 6    1  0.3017327E-006  0.4674644E+04  0.7818608E-02  0.7880755E-01
          2   -1    0    0  501    0  0.00000000000E+00  0.00000000000E+00  0.17520013363E+04  0.17520013363E+04  0.00000000000E+00 0. -1.
         -2   -1    0    0    0  501 -0.00000000000E+00 -0.00000000000E+00 -0.31181912755E+04  0.31181912755E+04  0.00000000000E+00 0.  1.
         23    2    1    2    0    0  0.20456192625E+04 -0.90221385261E+03 -0.13902349957E+04  0.26343200377E+04  0.91327513563E+02 0.  0.
         13    1    3    3    0    0  0.13485373238E+04 -0.63999071190E+03 -0.91352722638E+03  0.17500494331E+04  0.00000000000E+00 0. -1.
        -13    1    3    3    0    0  0.69708193864E+03 -0.26222314071E+03 -0.47670776929E+03  0.88427060451E+03  0.00000000000E+00 0.  1.
         22    1    1    2    0    0 -0.20456192625E+04  0.90221385261E+03  0.24045056467E+02  0.22358725741E+04  0.00000000000E+00 0. -1.
<mgrwt>
<rscale>  0 0.46746445E+04</rscale>
<asrwt>0</asrwt>
<pdfrwt beam="1">  1        2 0.26953867E+00 0.46746445E+04</pdfrwt>
<pdfrwt beam="2">  1       -2 0.47972173E+00 0.46746445E+04</pdfrwt>
<totfact> 0.15253470E-02</totfact>
</mgrwt>
</event>
<event>
 6    1  0.3017327E-006  0.4924562E+04  0.7818608E-02  0.7840251E-01
          2   -1    0    0  501    0  0.00000000000E+00  0.00000000000E+00  0.34994890766E+04  0.34994890766E+04  0.00000000000E+00 0. -1.
         -2   -1    0    0    0  501 -0.00000000000E+00 -0.00000000000E+00 -0.17324894900E+04  0.17324894900E+04  0.00000000000E+00 0.  1.
         23    2    1    2    0    0  0.68813688311E+03  0.55824956252E+03  0.33235280567E+04  0.34409018452E+04  0.93764711074E+02 0.  0.
         13    1    3    3    0    0  0.50605702697E+03  0.38402164134E+03  0.25162362592E+04  0.25951900215E+04  0.00000000000E+00 0.  1.
        -13    1    3    3    0    0  0.18207985614E+03  0.17422792118E+03  0.80729179750E+03  0.84571182376E+03  0.00000000000E+00 0. -1.
         22    1    1    2    0    0 -0.68813688311E+03 -0.55824956252E+03 -0.15565284701E+04  0.17910767215E+04  0.00000000000E+00 0.  1.
<mgrwt>
<rscale>  0 0.49245621E+04</rscale>
<asrwt>0</asrwt>
<pdfrwt beam="1">  1        2 0.53838293E+00 0.49245621E+04</pdfrwt>
<pdfrwt beam="2">  1       -2 0.26653685E+00 0.49245621E+04</pdfrwt>
<totfact> 0.30264455E-02</totfact>
</mgrwt>
</event>
<event>
 6    1  0.3017327E-006  0.2273207E+04  0.7818608E-02  0.8488561E-01
         -2   -1    0    0    0  501 -0.00000000000E+00  0.00000000000E+00  0.14156084631E+04  0.14156084631E+04  0.00000000000E+00 0.  1.
          2   -1    0    0  501    0  0.00000000000E+00 -0.00000000000E+00 -0.91258812358E+03  0.91258812358E+03  0.00000000000E+00 0. -1.
         23    2    1    2    0    0  0.57620758162E+03 -0.90051044295E+03 -0.13773215321E+03  0.10818025912E+04  0.91610399743E+02 0.  0.
         13    1    3    3    0    0  0.32737122863E+03 -0.59342354736E+03 -0.89822139683E+02  0.68366032844E+03  0.00000000000E+00 0.  1.
        -13    1    3    3    0    0  0.24883635299E+03 -0.30708689559E+03 -0.47910013532E+02  0.39814226277E+03  0.00000000000E+00 0. -1.
         22    1    1    2    0    0 -0.57620758162E+03  0.90051044295E+03  0.64075249273E+03  0.12463939955E+04  0.00000000000E+00 0.  1.
<mgrwt>
<rscale>  0 0.22732070E+04</rscale>
<asrwt>0</asrwt>
<pdfrwt beam="1">  1        2 0.14039817E+00 0.22732070E+04</pdfrwt>
<pdfrwt beam="2">  1       -2 0.21778592E+00 0.22732070E+04</pdfrwt>
<totfact> 0.26662583E+00</totfact>
</mgrwt>
</event>
<event>
 6    1  0.3017327E-006  0.6996385E+03  0.7818608E-02  0.9717851E-01
         -2   -1    0    0    0  501 -0.00000000000E+00  0.00000000000E+00  0.31726923136E+03  0.31726923136E+03  0.00000000000E+00 0.  1.
          2   -1    0    0  501    0  0.00000000000E+00 -0.00000000000E+00 -0.38570875182E+03  0.38570875182E+03  0.00000000000E+00 0. -1.
         23    2    1    2    0    0  0.27558189253E+03  0.73115660956E+02 -0.22807975352E+03  0.37621157826E+03  0.90683506149E+02 0.  0.
         13    1    3    3    0    0  0.10652566588E+03  0.70736763301E+02 -0.75674342744E+02  0.14858671987E+03  0.00000000000E+00 0.  1.
        -13    1    3    3    0    0  0.16905622665E+03  0.23788976546E+01 -0.15240541078E+03  0.22762485839E+03  0.00000000000E+00 0. -1.
         22    1    1    2    0    0 -0.27558189253E+03 -0.73115660956E+02  0.15964023307E+03  0.32676640491E+03  0.00000000000E+00 0.  1.
<mgrwt>
<rscale>  0 0.69963853E+03</rscale>
<asrwt>0</asrwt>
<pdfrwt beam="1">  1        2 0.59339808E-01 0.69963853E+03</pdfrwt>
<pdfrwt beam="2">  1       -2 0.48810651E-01 0.69963853E+03</pdfrwt>
<totfact> 0.33229466E+02</totfact>
</mgrwt>
</event>
<event>
 6    1  0.3017327E-006  0.4804552E+04  0.7818608E-02  0.7859385E-01
         -2   -1    0    0    0  501 -0.00000000000E+00  0.00000000000E+00  0.14345322253E+04  0.14345322253E+04  0.00000000000E+00 0.  1.
          2   -1    0    0  501    0  0.00000000000E+00 -0.00000000000E+00 -0.40228653699E+04  0.40228653699E+04  0.00000000000E+00 0. -1.
         23    2    1    2    0    0  0.88844463813E+03 -0.56171608812E+03  0.11578389201E+04  0.15665539878E+04  0.92960168587E+02 0.  0.
         13    1    3    3    0    0  0.21070006484E+03 -0.12886557154E+03  0.33275387947E+03  0.41439835564E+03  0.00000000000E+00 0. -1.
        -13    1    3    3    0    0  0.67774457329E+03 -0.43285051658E+03  0.82508504067E+03  0.11521556321E+04  0.00000000000E+00 0.  1.
         22    1    1    2    0    0 -0.88844463813E+03  0.56171608812E+03 -0.37461720648E+04  0.38908436075E+04  0.00000000000E+00 0. -1.
<mgrwt>
<rscale>  0 0.48045520E+04</rscale>
<asrwt>0</asrwt>
<pdfrwt beam="1">  1        2 0.61890234E+00 0.48045520E+04</pdfrwt>
<pdfrwt beam="2">  1       -2 0.22069727E+00 0.48045520E+04</pdfrwt>
<totfact> 0.23600891E-02</totfact>
</mgrwt>
</event>
<event>
 6    1  0.3017327E-006  0.2219579E+04  0.7818608E-02  0.8510323E-01
         -2   -1    0    0    0  501 -0.00000000000E+00  0.00000000000E+00  0.65182414268E+03  0.65182414268E+03  0.00000000000E+00 0.  1.
          2   -1    0    0  501    0  0.00000000000E+00 -0.00000000000E+00 -0.18895170355E+04  0.18895170355E+04  0.00000000000E+00 0. -1.
         23    2    1    2    0    0 -0.70631555384E+03 -0.79620172423E+03 -0.26706297195E+03  0.11008755276E+04  0.88235191186E+02 0.  0.
         11    1    3    3    0    0 -0.50162965470E+03 -0.54157690744E+03 -0.22348060116E+03  0.77128557373E+03  0.00000000000E+00 0.  1.
        -11    1    3    3    0    0 -0.20468589913E+03 -0.25462481680E+03 -0.43582370785E+02  0.32958995385E+03  0.00000000000E+00 0. -1.
         22    1    1    2    0    0  0.70631555384E+03  0.79620172423E+03 -0.97062992084E+03  0.14404656506E+04  0.00000000000E+00 0. -1.
<mgrwt>
<rscale>  0 0.22195791E+04</rscale>
<asrwt>0</asrwt>
<pdfrwt beam="1">  1        2 0.29069493E+00 0.22195791E+04</pdfrwt>
<pdfrwt beam="2">  1       -2 0.10028064E+00 0.22195791E+04</pdfrwt>
<totfact> 0.57624834E+00</totfact>
</mgrwt>
</event>
<event>
 6    1  0.3017327E-006  0.2068476E+04  0.7818608E-02  0.8575258E-01
         -2   -1    0    0    0  501 -0.00000000000E+00  0.00000000000E+00  0.47278509245E+03  0.47278509245E+03  0.00000000000E+00 0.  1.
          2   -1    0    0  501    0  0.00000000000E+00 -0.00000000000E+00 -0.22624406698E+04  0.22624406698E+04  0.00000000000E+00 0. -1.
         23    2    1    2    0    0  0.52221604702E+03 -0.20179159139E+03 -0.20433655509E+04  0.21205728547E+04  0.89760856397E+02 0.  0.
         13    1    3    3    0    0  0.45213283398E+03 -0.17153122271E+03 -0.16300799731E+04  0.17002963796E+04  0.00000000000E+00 0. -1.
        -13    1    3    3    0    0  0.70083213037E+02 -0.30260368676E+02 -0.41328557784E+03  0.42027647509E+03  0.00000000000E+00 0.  1.
         22    1    1    2    0    0 -0.52221604702E+03  0.20179159139E+03  0.25370997353E+03  0.61465290757E+03  0.00000000000E+00 0.  1.
<mgrwt>
<rscale>  0 0.20684760E+04</rscale>
<asrwt>0</asrwt>
<pdfrwt beam="1">  1        2 0.34806779E+00 0.20684760E+04</pdfrwt>
<pdfrwt beam="2">  1       -2 0.72736168E-01 0.20684760E+04</pdfrwt>
<totfact> 0.75174568E+00</totfact>
</mgrwt>
</event>
<event>
 6    1  0.3017327E-006  0.2338119E+04  0.7818608E-02  0.8463041E-01
          1   -1    0    0  501    0  0.00000000000E+00  0.00000000000E+00  0.27403121891E+04  0.27403121891E+04  0.00000000000E+00 0. -1.
         -1   -1    0    0    0  501 -0.00000000000E+00 -0.00000000000E+00 -0.49873903610E+03  0.49873903610E+03  0.00000000000E+00 0.  1.
         23    2    1    2    0    0  0.68989835288E+03  0.92379122491E+03  0.87013410259E+03  0.14473495108E+04  0.91308736278E+02 0.  0.
         11    1    3    3    0    0  0.23910459935E+03  0.30785471258E+03  0.24172519978E+03  0.45866829593E+03  0.00000000000E+00 0. -1.
        -11    1    3    3    0    0  0.45079375353E+03  0.61593651233E+03  0.62840890281E+03  0.98868121484E+03  0.00000000000E+00 0.  1.
         22    1    1    2    0    0 -0.68989835288E+03 -0.92379122491E+03  0.13714390505E+04  0.17917017145E+04  0.00000000000E+00 0. -1.
<mgrwt>
<rscale>  0 0.23381195E+04</rscale>
<asrwt>0</asrwt>
<pdfrwt beam="1">  1        1 0.42158648E+00 0.23381195E+04</pdfrwt>
<pdfrwt beam="2">  1       -1 0.76729084E-01 0.23381195E+04</pdfrwt>
<totfact> 0.14110868E+00</totfact>
</mgrwt>
</event>
<event>
 6    1  0.3017327E-006  0.3455931E+04  0.7818608E-02  0.8124314E-01
         -2   -1    0    0    0  501 -0.00000000000E+00  0.00000000000E+00  0.58573501722E+03  0.58573501722E+03  0.00000000000E+00 0.  1.
          2   -1    0    0  501    0  0.00000000000E+00 -0.00000000000E+00 -0.50976388888E+04  0.50976388888E+04  0.00000000000E+00 0. -1.
         23    2    1    2    0    0 -0.71023028692E+03  0.99853036327E+03 -0.25676591259E+03  0.12553168833E+04  0.91661315101E+02 0.  0.
         13    1    3    3    0    0 -0.55782230201E+03  0.76522563445E+03 -0.23566333602E+03  0.97584486482E+03  0.00000000000E+00 0. -1.
        -13    1    3    3    0    0 -0.15240798491E+03  0.23330472881E+03 -0.21102576573E+02  0.27947201844E+03  0.00000000000E+00 0.  1.
         22    1    1    2    0    0  0.71023028692E+03 -0.99853036327E+03 -0.42551379590E+04  0.44280570228E+04  0.00000000000E+00 0. -1.
<mgrwt>
<rscale>  0 0.34559315E+04</rscale>
<asrwt>0</asrwt>
<pdfrwt beam="1">  1        2 0.78425217E+00 0.34559315E+04</pdfrwt>
<pdfrwt beam="2">  1       -2 0.90113076E-01 0.34559315E+04</pdfrwt>
<totfact> 0.22086847E-02</totfact>
</mgrwt>
</event>
<event>
 6    1  0.3017327E-006  0.3206512E+04  0.7818608E-02  0.8187099E-01
          2   -1    0    0  501    0  0.00000000000E+00  0.00000000000E+00  0.44394414350E+04  0.44394414350E+04  0.00000000000E+00 0. -1.
         -2   -1    0    0    0  501 -0.00000000000E+00 -0.00000000000E+00 -0.57899851427E+03  0.57899851427E+03  0.00000000000E+00 0.  1.
         23    2    1    2    0    0 -0.13801757894E+04 -0.62610048555E+03  0.27441701265E+04  0.31361668610E+04  0.90475793632E+02 0.  0.
         11    1    3    3    0    0 -0.41792354620E+03 -0.21192791268E+03  0.77405904916E+03  0.90484304840E+03  0.00000000000E+00 0. -1.
        -11    1    3    3    0    0 -0.96225224320E+03 -0.41417257287E+03  0.19701110773E+04  0.22313238126E+04  0.00000000000E+00 0.  1.
         22    1    1    2    0    0  0.13801757894E+04  0.62610048555E+03  0.11162727942E+04  0.18822730882E+04  0.00000000000E+00 0.  1.
<mgrwt>
<rscale>  0 0.32065121E+04</rscale>
<asrwt>0</asrwt>
<pdfrwt beam="1">  1        2 0.68299097E+00 0.32065121E+04</pdfrwt>
<pdfrwt beam="2">  1       -2 0.89076697E-01 0.32065121E+04</pdfrwt>
<totfact> 0.12794185E-01</totfact>
</mgrwt>
</event>
<event>
 6    1  0.3154000E-006  0.3014667E+04  0.7818608E-02  0.8239555E-01
          2   -1    0    0  501    0  0.00000000000E+00  0.00000000000E+00  0.19252005153E+04  0.19252005153E+04  0.00000000000E+00 0. -1.
         -2   -1    0    0    0  501 -0.00000000000E+00 -0.00000000000E+00 -0.11801652764E+04  0.11801652764E+04  0.00000000000E+00 0.  1.
         23    2    1    2    0    0  0.89132064712E+03 -0.12128068466E+04  0.31623575841E+03  0.15403667701E+04  0.85859120770E+02 0.  0.
         13    1    3    3    0    0  0.25782147200E+03 -0.41771088913E+03  0.95851377358E+02  0.50014176477E+03  0.00000000000E+00 0. -1.
        -13    1    3    3    0    0  0.63349917512E+03 -0.79509595742E+03  0.22038438105E+03  0.10402250054E+04  0.00000000000E+00 0.  1.
         22    1    1    2    0    0 -0.89132064712E+03  0.12128068466E+04  0.42879948053E+03  0.15649990216E+04  0.00000000000E+00 0.  1.
<mgrwt>
<rscale>  0 0.30146673E+04</rscale>
<asrwt>0</asrwt>
<pdfrwt beam="1">  1        2 0.29618469E+00 0.30146673E+04</pdfrwt>
<pdfrwt beam="2">  1       -2 0.18156389E+00 0.30146673E+04</pdfrwt>
<totfact> 0.11120490E+00</totfact>
</mgrwt>
</event>
<event>
 6    1  0.3017327E-006  0.2720325E+04  0.7818608E-02  0.8328440E-01
         -2   -1    0    0    0  501 -0.00000000000E+00  0.00000000000E+00  0.86209202329E+03  0.86209202329E+03  0.00000000000E+00 0.  1.
          2   -1    0    0  501    0  0.00000000000E+00 -0.00000000000E+00 -0.21459908714E+04  0.21459908714E+04  0.00000000000E+00 0. -1.
         23    2    1    2    0    0  0.74893817384E+03 -0.87296547775E+03  0.15761050307E+03  0.11639228357E+04  0.83055302304E+02 0.  0.
         11    1    3    3    0    0  0.10110729705E+02 -0.27813064532E+02  0.12084050708E+02  0.31965883303E+02  0.00000000000E+00 0. -1.
        -11    1    3    3    0    0  0.73882744413E+03 -0.84515241322E+03  0.14552645236E+03  0.11319569524E+04  0.00000000000E+00 0.  1.
         22    1    1    2    0    0 -0.74893817384E+03  0.87296547775E+03 -0.14415093511E+04  0.18441600589E+04  0.00000000000E+00 0.  1.
<mgrwt>
<rscale>  0 0.27203247E+04</rscale>
<asrwt>0</asrwt>
<pdfrwt beam="1">  1        2 0.33015244E+00 0.27203247E+04</pdfrwt>
<pdfrwt beam="2">  1       -2 0.13262954E+00 0.27203247E+04</pdfrwt>
<totfact> 0.20018215E+00</totfact>
</mgrwt>
</event>
<event>
 6    1  0.3017327E-006  0.1973862E+04  0.7818608E-02  0.8618939E-01
         -2   -1    0    0    0  501 -0.00000000000E+00  0.00000000000E+00  0.67012188687E+03  0.67012188687E+03  0.00000000000E+00 0. -1.
          2   -1    0    0  501    0  0.00000000000E+00 -0.00000000000E+00 -0.14535157498E+04  0.14535157498E+04  0.00000000000E+00 0.  1.
         23    2    1    2    0    0  0.18063417781E+03  0.31360595054E+03 -0.13779483577E+04  0.14275970878E+04  0.91183168758E+02 0.  0.
         11    1    3    3    0    0  0.11026351154E+03  0.10718653111E+03 -0.63060390755E+03  0.64908264700E+03  0.00000000000E+00 0. -1.
        -11    1    3    3    0    0  0.70370666276E+02  0.20641941943E+03 -0.74734445015E+03  0.77851444081E+03  0.00000000000E+00 0.  1.
         22    1    1    2    0    0 -0.18063417781E+03 -0.31360595054E+03  0.59455449476E+03  0.69604054886E+03  0.00000000000E+00 0. -1.
<mgrwt>
<rscale>  0 0.19738619E+04</rscale>
<asrwt>0</asrwt>
<pdfrwt beam="1">  1        2 0.22361781E+00 0.19738619E+04</pdfrwt>
<pdfrwt beam="2">  1       -2 0.10309567E+00 0.19738619E+04</pdfrwt>
<totfact> 0.96463202E+00</totfact>
</mgrwt>
</event>
<event>
 6    1  0.3017327E-006  0.5026158E+03  0.7818608E-02  0.1013098E+00
          1   -1    0    0  501    0  0.00000000000E+00  0.00000000000E+00  0.18038490750E+04  0.18038490750E+04  0.00000000000E+00 0. -1.
         -1   -1    0    0    0  501 -0.00000000000E+00 -0.00000000000E+00 -0.35011605117E+02  0.35011605117E+02  0.00000000000E+00 0.  1.
         23    2    1    2    0    0 -0.10203131051E+03  0.19985920887E+03  0.57221133423E+03  0.62137630640E+03  0.91261226426E+02 0.  0.
         11    1    3    3    0    0  0.94799171282E+01  0.71080461616E+02  0.15856493209E+03  0.17402625820E+03  0.00000000000E+00 0. -1.
        -11    1    3    3    0    0 -0.11151122763E+03  0.12877874726E+03  0.41364640213E+03  0.44735004821E+03  0.00000000000E+00 0.  1.
         22    1    1    2    0    0  0.10203131051E+03 -0.19985920887E+03  0.11966261356E+04  0.12174843737E+04  0.00000000000E+00 0. -1.
<mgrwt>
<rscale>  0 0.50261576E+03</rscale>
<asrwt>0</asrwt>
<pdfrwt beam="1">  1        1 0.27751517E+00 0.50261576E+03</pdfrwt>
<pdfrwt beam="2">  1       -1 0.53864022E-02 0.50261576E+03</pdfrwt>
<totfact> 0.69745637E+02</totfact>
</mgrwt>
</event>
<event>
 6    1  0.3017327E-006  0.1771154E+04  0.7818608E-02  0.8721792E-01
          1   -1    0    0  501    0  0.00000000000E+00  0.00000000000E+00  0.95221718269E+03  0.95221718269E+03  0.00000000000E+00 0. -1.
         -1   -1    0    0    0  501 -0.00000000000E+00 -0.00000000000E+00 -0.82360051310E+03  0.82360051310E+03  0.00000000000E+00 0.  1.
         23    2    1    2    0    0  0.50285848878E+03 -0.69335690392E+03 -0.15064330614E+03  0.87493113801E+03  0.95919938581E+02 0.  0.
         13    1    3    3    0    0  0.30250982823E+03 -0.33967976512E+03 -0.94817319694E+02  0.46463411748E+03  0.00000000000E+00 0. -1.
        -13    1    3    3    0    0  0.20034866055E+03 -0.35367713880E+03 -0.55825986446E+02  0.41029702053E+03  0.00000000000E+00 0.  1.
         22    1    1    2    0    0 -0.50285848878E+03  0.69335690392E+03  0.27925997573E+03  0.90088655778E+03  0.00000000000E+00 0. -1.
<mgrwt>
<rscale>  0 0.17711539E+04</rscale>
<asrwt>0</asrwt>
<pdfrwt beam="1">  1        1 0.14649495E+00 0.17711539E+04</pdfrwt>
<pdfrwt beam="2">  1       -1 0.12670777E+00 0.17711539E+04</pdfrwt>
<totfact> 0.84484917E+00</totfact>
</mgrwt>
</event>
<event>
 6    1  0.3017327E-006  0.1137174E+04  0.7818608E-02  0.9169698E-01
         -4   -1    0    0    0  501 -0.00000000000E+00  0.00000000000E+00  0.72018183430E+03  0.72018183430E+03  0.00000000000E+00 0.  1.
          4   -1    0    0  501    0  0.00000000000E+00 -0.00000000000E+00 -0.44890227994E+03  0.44890227994E+03  0.00000000000E+00 0. -1.
         23    2    1    2    0    0  0.12918411508E+03 -0.48296196331E+03  0.40648817514E+03  0.65118242016E+03  0.94154735444E+02 0.  0.
         13    1    3    3    0    0  0.18033096493E+02 -0.22626285569E+03  0.15342962090E+03  0.27397211720E+03  0.00000000000E+00 0. -1.
        -13    1    3    3    0    0  0.11115101859E+03 -0.25669910762E+03  0.25305855425E+03  0.37721030297E+03  0.00000000000E+00 0.  1.
         22    1    1    2    0    0 -0.12918411508E+03  0.48296196331E+03 -0.13520862078E+03  0.51790169407E+03  0.00000000000E+00 0. -1.
<mgrwt>
<rscale>  0 0.11371742E+04</rscale>
<asrwt>0</asrwt>
<pdfrwt beam="1">  1        4 0.69061889E-01 0.11371742E+04</pdfrwt>
<pdfrwt beam="2">  1       -4 0.11079720E+00 0.11371742E+04</pdfrwt>
<totfact> 0.24531644E+00</totfact>
</mgrwt>
</event>
<event>
 6    1  0.3017327E-006  0.2017553E+04  0.7818608E-02  0.8598458E-01
         -2   -1    0    0    0  501 -0.00000000000E+00  0.00000000000E+00  0.46826570280E+03  0.46826570280E+03  0.00000000000E+00 0.  1.
          2   -1    0    0  501    0  0.00000000000E+00 -0.00000000000E+00 -0.21731893334E+04  0.21731893334E+04  0.00000000000E+00 0. -1.
         23    2    1    2    0    0  0.45787194639E+03  0.26156909224E+03 -0.19771920168E+04  0.20479946892E+04  0.83239813505E+02 0.  0.
         13    1    3    3    0    0  0.19915850600E+03  0.72529611212E+02 -0.71382265801E+03  0.74462570604E+03  0.00000000000E+00 0.  1.
        -13    1    3    3    0    0  0.25871344039E+03  0.18903948103E+03 -0.12633693587E+04  0.13033689832E+04  0.00000000000E+00 0. -1.
         22    1    1    2    0    0 -0.45787194639E+03 -0.26156909224E+03  0.27226838618E+03  0.59346034697E+03  0.00000000000E+00 0.  1.
<mgrwt>
<rscale>  0 0.20175530E+04</rscale>
<asrwt>0</asrwt>
<pdfrwt beam="1">  1        2 0.33433682E+00 0.20175530E+04</pdfrwt>
<pdfrwt beam="2">  1       -2 0.72040878E-01 0.20175530E+04</pdfrwt>
<totfact> 0.86567935E+00</totfact>
</mgrwt>
</event>
<event>
 6    1  0.3017327E-006  0.2097125E+04  0.7818608E-02  0.8562511E-01
          2   -1    0    0  501    0  0.00000000000E+00  0.00000000000E+00  0.13847636450E+04  0.13847636450E+04  0.00000000000E+00 0. -1.
         -2   -1    0    0    0  501 -0.00000000000E+00 -0.00000000000E+00 -0.79398590317E+03  0.79398590317E+03  0.00000000000E+00 0.  1.
         23    2    1    2    0    0 -0.13571773799E+03  0.32791785086E+03 -0.72707611390E+03  0.81394619004E+03  0.88990468939E+02 0.  0.
         13    1    3    3    0    0 -0.10351962428E+03  0.13943217713E+03 -0.37625327999E+03  0.41439615748E+03  0.00000000000E+00 0. -1.
        -13    1    3    3    0    0 -0.32198113704E+02  0.18848567372E+03 -0.35082283391E+03  0.39955003256E+03  0.00000000000E+00 0.  1.
         22    1    1    2    0    0  0.13571773799E+03 -0.32791785086E+03  0.13178538558E+04  0.13648033582E+04  0.00000000000E+00 0. -1.
<mgrwt>
<rscale>  0 0.20971245E+04</rscale>
<asrwt>0</asrwt>
<pdfrwt beam="1">  1        2 0.21304056E+00 0.20971245E+04</pdfrwt>
<pdfrwt beam="2">  1       -2 0.12215168E+00 0.20971245E+04</pdfrwt>
<totfact> 0.69148165E+00</totfact>
</mgrwt>
</event>
<event>
 6    1  0.3017327E-006  0.2162684E+04  0.7818608E-02  0.8534122E-01
         -3   -1    0    0    0  501 -0.00000000000E+00  0.00000000000E+00  0.13465634084E+04  0.13465634084E+04  0.00000000000E+00 0.  1.
          3   -1    0    0  501    0  0.00000000000E+00 -0.00000000000E+00 -0.86835900360E+03  0.86835900360E+03  0.00000000000E+00 0. -1.
         23    2    1    2    0    0 -0.53682878278E+03 -0.51427246040E+03 -0.56136376843E+03  0.93689139033E+03  0.99874377211E+02 0.  0.
         13    1    3    3    0    0 -0.60955828979E+02 -0.24002478592E+02 -0.34079719156E+02  0.73845509835E+02  0.00000000000E+00 0.  1.
        -13    1    3    3    0    0 -0.47587295380E+03 -0.49026998181E+03 -0.52728404928E+03  0.86304588049E+03  0.00000000000E+00 0. -1.
         22    1    1    2    0    0  0.53682878278E+03  0.51427246040E+03  0.10395681732E+04  0.12780310216E+04  0.00000000000E+00 0.  1.
<mgrwt>
<rscale>  0 0.21626839E+04</rscale>
<asrwt>0</asrwt>
<pdfrwt beam="1">  1        3 0.13359369E+00 0.21626839E+04</pdfrwt>
<pdfrwt beam="2">  1       -3 0.20716360E+00 0.21626839E+04</pdfrwt>
<totfact> 0.13730196E-01</totfact>
</mgrwt>
</event>
<event>
 6    1  0.3017327E-006  0.3275240E+03  0.7818608E-02  0.1072238E+00
         -3   -1    0    0    0  501 -0.00000000000E+00  0.00000000000E+00  0.54048447816E+02  0.54048447816E+02  0.00000000000E+00 0.  1.
          3   -1    0    0  501    0  0.00000000000E+00 -0.00000000000E+00 -0.49618445476E+03  0.49618445476E+03  0.00000000000E+00 0. -1.
         23    2    1    2    0    0 -0.72255954971E+02 -0.44705950480E+02 -0.44800317629E+03  0.46506266884E+03  0.91416054105E+02 0.  0.
         13    1    3    3    0    0  0.66253307907E+01 -0.11141954246E+02 -0.50846076715E+01  0.13924488776E+02  0.00000000000E+00 0. -1.
        -13    1    3    3    0    0 -0.78881285762E+02 -0.33563996234E+02 -0.44291856862E+03  0.45113818007E+03  0.00000000000E+00 0.  1.
         22    1    1    2    0    0  0.72255954971E+02  0.44705950480E+02  0.58671693508E+01  0.85170233728E+02  0.00000000000E+00 0.  1.
<mgrwt>
<rscale>  0 0.32752404E+03</rscale>
<asrwt>0</asrwt>
<pdfrwt beam="1">  1        3 0.76336068E-01 0.32752404E+03</pdfrwt>
<pdfrwt beam="2">  1       -3 0.83151460E-02 0.32752404E+03</pdfrwt>
<totfact> 0.42628556E+02</totfact>
</mgrwt>
</event>
<event>
 6    1  0.3017327E-006  0.2674716E+04  0.7818608E-02  0.8343256E-01
         -1   -1    0    0    0  501 -0.00000000000E+00  0.00000000000E+00  0.49518686215E+03  0.49518686215E+03  0.00000000000E+00 0.  1.
          1   -1    0    0  501    0  0.00000000000E+00 -0.00000000000E+00 -0.36118203507E+04  0.36118203507E+04  0.00000000000E+00 0. -1.
         23    2    1    2    0    0 -0.12571197534E+04  0.42618277940E+03 -0.13310904941E+04  0.18821149411E+04  0.92590022924E+02 0.  0.
         13    1    3    3    0    0 -0.86049575570E+03  0.27243918097E+03 -0.95915807373E+03  0.13170650186E+04  0.00000000000E+00 0.  1.
        -13    1    3    3    0    0 -0.39662399767E+03  0.15374359843E+03 -0.37193242040E+03  0.56504992251E+03  0.00000000000E+00 0. -1.
         22    1    1    2    0    0  0.12571197534E+04 -0.42618277940E+03 -0.17855429944E+04  0.22248922717E+04  0.00000000000E+00 0. -1.
<mgrwt>
<rscale>  0 0.26747157E+04</rscale>
<asrwt>0</asrwt>
<pdfrwt beam="1">  1        1 0.55566469E+00 0.26747157E+04</pdfrwt>
<pdfrwt beam="2">  1       -1 0.76182591E-01 0.26747157E+04</pdfrwt>
<totfact> 0.30819167E-01</totfact>
</mgrwt>
</event>
<event>
 6    1  0.3017327E-006  0.1854166E+04  0.7818608E-02  0.8678014E-01
         -2   -1    0    0    0  501 -0.00000000000E+00  0.00000000000E+00  0.52674462788E+03  0.52674462788E+03  0.00000000000E+00 0.  1.
          2   -1    0    0  501    0  0.00000000000E+00 -0.00000000000E+00 -0.16316872638E+04  0.16316872638E+04  0.00000000000E+00 0. -1.
         23    2    1    2    0    0 -0.91893016523E+03 -0.91999644865E+02 -0.49348780077E+03  0.10508337702E+04  0.88458012009E+02 0.  0.
         13    1    3    3    0    0 -0.22480671330E+03 -0.60851524643E+02 -0.12011919741E+03  0.26204882748E+03  0.00000000000E+00 0. -1.
        -13    1    3    3    0    0 -0.69412345193E+03 -0.31148120223E+02 -0.37336860336E+03  0.78878494273E+03  0.00000000000E+00 0.  1.
         22    1    1    2    0    0  0.91893016523E+03  0.91999644865E+02 -0.61145483512E+03  0.11075981214E+04  0.00000000000E+00 0. -1.
<mgrwt>
<rscale>  0 0.18541656E+04</rscale>
<asrwt>0</asrwt>
<pdfrwt beam="1">  1        2 0.25102880E+00 0.18541656E+04</pdfrwt>
<pdfrwt beam="2">  1       -2 0.81037637E-01 0.18541656E+04</pdfrwt>
<totfact> 0.13511874E+01</totfact>
</mgrwt>
</event>
<event>
 6    1  0.3017327E-006  0.2123023E+04  0.7818608E-02  0.8551169E-01
          2   -1    0    0  501    0  0.00000000000E+00  0.00000000000E+00  0.13998780658E+04  0.13998780658E+04  0.00000000000E+00 0. -1.
         -2   -1    0    0    0  501 -0.00000000000E+00 -0.00000000000E+00 -0.80493205080E+03  0.80493205080E+03  0.00000000000E+00 0.  1.
         23    2    1    2    0    0  0.26116771328E+02  0.24388385143E+03 -0.77274559359E+03  0.81529877985E+03  0.86109983683E+02 0.  0.
         13    1    3    3    0    0 -0.83998266194E+01  0.12458233490E+03 -0.50410711598E+03  0.51934121696E+03  0.00000000000E+00 0.  1.
        -13    1    3    3    0    0  0.34516597948E+02  0.11930151653E+03 -0.26863847761E+03  0.29595756289E+03  0.00000000000E+00 0. -1.
         22    1    1    2    0    0 -0.26116771328E+02 -0.24388385143E+03  0.13676916086E+04  0.13895113367E+04  0.00000000000E+00 0. -1.
<mgrwt>
<rscale>  0 0.21230231E+04</rscale>
<asrwt>0</asrwt>
<pdfrwt beam="1">  1        2 0.21536586E+00 0.21230231E+04</pdfrwt>
<pdfrwt beam="2">  1       -2 0.12383570E+00 0.21230231E+04</pdfrwt>
<totfact> 0.65359530E+00</totfact>
</mgrwt>
</event>
<event>
 6    1  0.3017327E-006  0.3380048E+04  0.7818608E-02  0.8142821E-01
          2   -1    0    0  501    0  0.00000000000E+00  0.00000000000E+00  0.18183956862E+04  0.18183956862E+04  0.00000000000E+00 0.  1.
         -2   -1    0    0    0  501 -0.00000000000E+00 -0.00000000000E+00 -0.15707152350E+04  0.15707152350E+04  0.00000000000E+00 0. -1.
         23    2    1    2    0    0  0.30967547276E+03  0.13396224942E+04  0.11071213802E+04  0.17676529242E+04  0.91606682747E+02 0.  0.
         11    1    3    3    0    0  0.12839547277E+03  0.38193193507E+03  0.30541591482E+03  0.50560486695E+03  0.00000000000E+00 0. -1.
        -11    1    3    3    0    0  0.18127999999E+03  0.95769055917E+03  0.80170546537E+03  0.12620480572E+04  0.00000000000E+00 0.  1.
         22    1    1    2    0    0 -0.30967547276E+03 -0.13396224942E+04 -0.85944092905E+03  0.16214579970E+04  0.00000000000E+00 0. -1.
<mgrwt>
<rscale>  0 0.33800484E+04</rscale>
<asrwt>0</asrwt>
<pdfrwt beam="1">  1        2 0.27975318E+00 0.33800484E+04</pdfrwt>
<pdfrwt beam="2">  1       -2 0.24164850E+00 0.33800484E+04</pdfrwt>
<totfact> 0.50605473E-01</totfact>
</mgrwt>
</event>
<event>
 6    1  0.3017327E-006  0.1450950E+04  0.7818608E-02  0.8917742E-01
         -2   -1    0    0    0  501 -0.00000000000E+00  0.00000000000E+00  0.86972994360E+03  0.86972994360E+03  0.00000000000E+00 0. -1.
          2   -1    0    0  501    0  0.00000000000E+00 -0.00000000000E+00 -0.60514633741E+03  0.60514633741E+03  0.00000000000E+00 0.  1.
         23    2    1    2    0    0 -0.12635990830E+03  0.14992270476E+02  0.85584137785E+03  0.87008098743E+03  0.91568914192E+02 0.  0.
         11    1    3    3    0    0 -0.25080687684E+02 -0.17859461890E+02  0.43107732065E+03  0.43217549405E+03  0.00000000000E+00 0.  1.
        -11    1    3    3    0    0 -0.10127922061E+03  0.32851732366E+02  0.42476405720E+03  0.43790549338E+03  0.00000000000E+00 0. -1.
         22    1    1    2    0    0  0.12635990830E+03 -0.14992270476E+02 -0.59125777165E+03  0.60479529358E+03  0.00000000000E+00 0.  1.
<mgrwt>
<rscale>  0 0.14509499E+04</rscale>
<asrwt>0</asrwt>
<pdfrwt beam="1">  1        2 0.93099436E-01 0.14509499E+04</pdfrwt>
<pdfrwt beam="2">  1       -2 0.13380461E+00 0.14509499E+04</pdfrwt>
<totfact> 0.19200569E+01</totfact>
</mgrwt>
</event>
<event>
 6    1  0.3017327E-006  0.4151822E+04  0.7818608E-02  0.7974600E-01
         -2   -1    0    0    0  501 -0.00000000000E+00  0.00000000000E+00  0.17828493725E+04  0.17828493725E+04  0.00000000000E+00 0.  1.
          2   -1    0    0  501    0  0.00000000000E+00 -0.00000000000E+00 -0.24171458857E+04  0.24171458857E+04  0.00000000000E+00 0. -1.
         23    2    1    2    0    0  0.12651658022E+04 -0.16147505430E+04 -0.63252478469E+03  0.21486379119E+04  0.92159914169E+02 0.  0.
         11    1    3    3    0    0  0.15017100164E+03 -0.14846178967E+03 -0.73945708737E+02  0.22374136982E+03  0.00000000000E+00 0.  1.
        -11    1    3    3    0    0  0.11149948006E+04 -0.14662887533E+04 -0.55857907595E+03  0.19248965421E+04  0.00000000000E+00 0. -1.
         22    1    1    2    0    0 -0.12651658022E+04  0.16147505430E+04 -0.17717284967E+01  0.20513573463E+04  0.00000000000E+00 0.  1.
<mgrwt>
<rscale>  0 0.41518223E+04</rscale>
<asrwt>0</asrwt>
<pdfrwt beam="1">  1        2 0.37186859E+00 0.41518223E+04</pdfrwt>
<pdfrwt beam="2">  1       -2 0.27428452E+00 0.41518223E+04</pdfrwt>
<totfact> 0.13821261E-01</totfact>
</mgrwt>
</event>
<event>
 6    1  0.3017327E-006  0.5677635E+04  0.7818608E-02  0.7731709E-01
          2   -1    0    0  501    0  0.00000000000E+00  0.00000000000E+00  0.36133711391E+04  0.36133711391E+04  0.00000000000E+00 0. -1.
         -2   -1    0    0    0  501 -0.00000000000E+00 -0.00000000000E+00 -0.22302955698E+04  0.22302955698E+04  0.00000000000E+00 0.  1.
         23    2    1    2    0    0  0.55800587594E+03 -0.14257351666E+04  0.31514869961E+04  0.35045706662E+04  0.77807100431E+02 0.  0.
         13    1    3    3    0    0  0.34511222656E+03 -0.90966454869E+03  0.20838701280E+04  0.22998058072E+04  0.00000000000E+00 0. -1.
        -13    1    3    3    0    0  0.21289364938E+03 -0.51607061786E+03  0.10676168681E+04  0.12047648590E+04  0.00000000000E+00 0.  1.
         22    1    1    2    0    0 -0.55800587594E+03  0.14257351666E+04 -0.17684114268E+04  0.23390960427E+04  0.00000000000E+00 0.  1.
<mgrwt>
<rscale>  0 0.56776353E+04</rscale>
<asrwt>0</asrwt>
<pdfrwt beam="1">  1        2 0.55590325E+00 0.56776353E+04</pdfrwt>
<pdfrwt beam="2">  1       -2 0.34312240E+00 0.56776353E+04</pdfrwt>
<totfact> 0.79887121E-03</totfact>
</mgrwt>
</event>
<event>
 6    1  0.3017327E-006  0.4134504E+04  0.7818608E-02  0.7977949E-01
          2   -1    0    0  501    0  0.00000000000E+00  0.00000000000E+00  0.30326401922E+04  0.30326401922E+04  0.00000000000E+00 0. -1.
         -2   -1    0    0    0  501 -0.00000000000E+00 -0.00000000000E+00 -0.14091781864E+04  0.14091781864E+04  0.00000000000E+00 0.  1.
         23    2    1    2    0    0  0.19183698265E+04 -0.76763658286E+03  0.82574488093E+03  0.22269230479E+04  0.89010887122E+02 0.  0.
         13    1    3    3    0    0  0.10834325510E+04 -0.38877753312E+03  0.44334633104E+03  0.12335031545E+04  0.00000000000E+00 0. -1.
        -13    1    3    3    0    0  0.83493727553E+03 -0.37885904974E+03  0.38239854990E+03  0.99341989340E+03  0.00000000000E+00 0.  1.
         22    1    1    2    0    0 -0.19183698265E+04  0.76763658286E+03  0.79771712486E+03  0.22148953307E+04  0.00000000000E+00 0.  1.
<mgrwt>
<rscale>  0 0.41345038E+04</rscale>
<asrwt>0</asrwt>
<pdfrwt beam="1">  1        2 0.46656003E+00 0.41345038E+04</pdfrwt>
<pdfrwt beam="2">  1       -2 0.21679664E+00 0.41345038E+04</pdfrwt>
<totfact> 0.13415161E-01</totfact>
</mgrwt>
</event>
<event>
 6    1  0.3017327E-006  0.2076032E+04  0.7818608E-02  0.8571875E-01
          2   -1    0    0  501    0  0.00000000000E+00  0.00000000000E+00  0.20654067814E+04  0.20654067814E+04  0.00000000000E+00 0. -1.
         -2   -1    0    0    0  501 -0.00000000000E+00 -0.00000000000E+00 -0.52167808175E+03  0.52167808175E+03  0.00000000000E+00 0.  1.
         23    2    1    2    0    0 -0.72257766097E+03  0.38052959395E+03 -0.22276772163E+02  0.82093243889E+03  0.80700474791E+02 0.  0.
         11    1    3    3    0    0 -0.49752382528E+03  0.22137498839E+03 -0.21679768877E+01  0.54455628022E+03  0.00000000000E+00 0.  1.
        -11    1    3    3    0    0 -0.22505383569E+03  0.15915460556E+03 -0.20108795275E+02  0.27637615867E+03  0.00000000000E+00 0. -1.
         22    1    1    2    0    0  0.72257766097E+03 -0.38052959395E+03  0.15660054718E+04  0.17661524243E+04  0.00000000000E+00 0. -1.
<mgrwt>
<rscale>  0 0.20760322E+04</rscale>
<asrwt>0</asrwt>
<pdfrwt beam="1">  1        2 0.31775489E+00 0.20760322E+04</pdfrwt>
<pdfrwt beam="2">  1       -2 0.80258167E-01 0.20760322E+04</pdfrwt>
<totfact> 0.77835463E+00</totfact>
</mgrwt>
</event>
<event>
 6    1  0.3017327E-006  0.2431501E+04  0.7818608E-02  0.8427803E-01
          2   -1    0    0  501    0  0.00000000000E+00  0.00000000000E+00  0.14845194700E+04  0.14845194700E+04  0.00000000000E+00 0. -1.
         -2   -1    0    0    0  501 -0.00000000000E+00 -0.00000000000E+00 -0.99564189122E+03  0.99564189122E+03  0.00000000000E+00 0.  1.
         23    2    1    2    0    0 -0.38905660247E+03  0.87250395301E+03 -0.51931655774E+03  0.10912468193E+04  0.92204910429E+02 0.  0.
         11    1    3    3    0    0 -0.19662795533E+03  0.33881787703E+03 -0.19174547138E+03  0.43614955280E+03  0.00000000000E+00 0. -1.
        -11    1    3    3    0    0 -0.19242864714E+03  0.53368607597E+03 -0.32757108636E+03  0.65509726648E+03  0.00000000000E+00 0.  1.
         22    1    1    2    0    0  0.38905660247E+03 -0.87250395301E+03  0.10081941366E+04  0.13889145420E+04  0.00000000000E+00 0. -1.
<mgrwt>
<rscale>  0 0.24315014E+04</rscale>
<asrwt>0</asrwt>
<pdfrwt beam="1">  1        2 0.22838761E+00 0.24315014E+04</pdfrwt>
<pdfrwt beam="2">  1       -2 0.15317568E+00 0.24315014E+04</pdfrwt>
<totfact> 0.32924213E+00</totfact>
</mgrwt>
</event>
<event>
 6    1  0.3017327E-006  0.2277609E+04  0.7818608E-02  0.8486802E-01
          2   -1    0    0  501    0  0.00000000000E+00  0.00000000000E+00  0.78304680338E+03  0.78304680338E+03  0.00000000000E+00 0.  1.
         -2   -1    0    0    0  501 -0.00000000000E+00 -0.00000000000E+00 -0.16561916949E+04  0.16561916949E+04  0.00000000000E+00 0. -1.
         23    2    1    2    0    0  0.34493477529E+03 -0.24859409817E+03  0.69202536879E+03  0.81734547820E+03  0.91517729573E+02 0.  0.
         13    1    3    3    0    0  0.60078366369E+02 -0.91938757760E+02  0.17432380918E+03  0.20603624859E+03  0.00000000000E+00 0.  1.
        -13    1    3    3    0    0  0.28485640892E+03 -0.15665534041E+03  0.51770155961E+03  0.61130922961E+03  0.00000000000E+00 0. -1.
         22    1    1    2    0    0 -0.34493477529E+03  0.24859409817E+03 -0.15651702603E+04  0.16218930200E+04  0.00000000000E+00 0. -1.
<mgrwt>
<rscale>  0 0.22776089E+04</rscale>
<asrwt>0</asrwt>
<pdfrwt beam="1">  1        2 0.12046874E+00 0.22776089E+04</pdfrwt>
<pdfrwt beam="2">  1       -2 0.25479872E+00 0.22776089E+04</pdfrwt>
<totfact> 0.19324037E+00</totfact>
</mgrwt>
</event>
<event>
 6    1  0.3017327E-006  0.3054024E+04  0.7818608E-02  0.8228470E-01
         -2   -1    0    0    0  501 -0.00000000000E+00  0.00000000000E+00  0.86768096237E+03  0.86768096237E+03  0.00000000000E+00 0.  1.
          2   -1    0    0  501    0  0.00000000000E+00 -0.00000000000E+00 -0.26873533342E+04  0.26873533342E+04  0.00000000000E+00 0. -1.
         23    2    1    2    0    0  0.77523713161E+02 -0.95314215617E+03 -0.22944009780E+04  0.24873933712E+04  0.91433250340E+02 0.  0.
         13    1    3    3    0    0  0.81970620312E+02 -0.76602401089E+03 -0.17623435455E+04  0.19233737910E+04  0.00000000000E+00 0. -1.
        -13    1    3    3    0    0 -0.44469071502E+01 -0.18711814529E+03 -0.53205743257E+03  0.56401958018E+03  0.00000000000E+00 0.  1.
         22    1    1    2    0    0 -0.77523713161E+02  0.95314215617E+03  0.47472860618E+03  0.10676409254E+04  0.00000000000E+00 0.  1.
<mgrwt>
<rscale>  0 0.30540238E+04</rscale>
<asrwt>0</asrwt>
<pdfrwt beam="1">  1        2 0.41343896E+00 0.30540238E+04</pdfrwt>
<pdfrwt beam="2">  1       -2 0.13348938E+00 0.30540238E+04</pdfrwt>
<totfact> 0.93459642E-01</totfact>
</mgrwt>
</event>
<event>
 6    1  0.3017327E-006  0.2209037E+04  0.7818608E-02  0.8514676E-01
          2   -1    0    0  501    0  0.00000000000E+00  0.00000000000E+00  0.14825801677E+04  0.14825801677E+04  0.00000000000E+00 0. -1.
         -2   -1    0    0    0  501 -0.00000000000E+00 -0.00000000000E+00 -0.82286324773E+03  0.82286324773E+03  0.00000000000E+00 0.  1.
         23    2    1    2    0    0  0.68396628189E+02 -0.40034295112E+03 -0.73943744910E+03  0.84853383494E+03  0.91045871150E+02 0.  0.
         11    1    3    3    0    0  0.67894353398E+02 -0.21203665842E+03 -0.46693338036E+03  0.51729679047E+03  0.00000000000E+00 0. -1.
        -11    1    3    3    0    0  0.50227479145E+00 -0.18830629270E+03 -0.27250406873E+03  0.33123704447E+03  0.00000000000E+00 0.  1.
         22    1    1    2    0    0 -0.68396628189E+02  0.40034295112E+03  0.13991543691E+04  0.14569095805E+04  0.00000000000E+00 0. -1.
<mgrwt>
<rscale>  0 0.22090367E+04</rscale>
<asrwt>0</asrwt>
<pdfrwt beam="1">  1        2 0.22808926E+00 0.22090367E+04</pdfrwt>
<pdfrwt beam="2">  1       -2 0.12659435E+00 0.22090367E+04</pdfrwt>
<totfact> 0.55092668E+00</totfact>
</mgrwt>
</event>
<event>
 6    1  0.3017327E-006  0.4310128E+04  0.7818608E-02  0.7944748E-01
         -2   -1    0    0    0  501 -0.00000000000E+00  0.00000000000E+00  0.31189874613E+04  0.31189874613E+04  0.00000000000E+00 0.  1.
          2   -1    0    0  501    0  0.00000000000E+00 -0.00000000000E+00 -0.14890409984E+04  0.14890409984E+04  0.00000000000E+00 0. -1.
         23    2    1    2    0    0  0.66559291294E+03 -0.16936952789E+04  0.20476040122E+04  0.27409303231E+04  0.91647268817E+02 0.  0.
         11    1    3    3    0    0  0.31564054791E+03 -0.68828554071E+03  0.87601177194E+03  0.11579130216E+04  0.00000000000E+00 0.  1.
        -11    1    3    3    0    0  0.34995236503E+03 -0.10054097381E+04  0.11715922402E+04  0.15830173014E+04  0.00000000000E+00 0. -1.
         22    1    1    2    0    0 -0.66559291294E+03  0.16936952789E+04 -0.41765754931E+03  0.18670981366E+04  0.00000000000E+00 0. -1.
<mgrwt>
<rscale>  0 0.43101277E+04</rscale>
<asrwt>0</asrwt>
<pdfrwt beam="1">  1        2 0.22908323E+00 0.43101277E+04</pdfrwt>
<pdfrwt beam="2">  1       -2 0.47984422E+00 0.43101277E+04</pdfrwt>
<totfact> 0.21971031E-02</totfact>
</mgrwt>
</event>
<event>
 6    1  0.3017327E-006  0.2953452E+04  0.7818608E-02  0.8257149E-01
          2   -1    0    0  501    0  0.00000000000E+00  0.00000000000E+00  0.41891938465E+04  0.41891938465E+04  0.00000000000E+00 0. -1.
         -2   -1    0    0    0  501 -0.00000000000E+00 -0.00000000000E+00 -0.52055826806E+03  0.52055826806E+03  0.00000000000E+00 0.  1.
         23    2    1    2    0    0 -0.88813713771E+03  0.41873630629E+03  0.35919096737E+04  0.37248589559E+04  0.92905692566E+02 0.  0.
         11    1    3    3    0    0 -0.24777835081E+03  0.12308783284E+03  0.11753689498E+04  0.12074919850E+04  0.00000000000E+00 0. -1.
        -11    1    3    3    0    0 -0.64035878689E+03  0.29564847345E+03  0.24165407240E+04  0.25173669709E+04  0.00000000000E+00 0.  1.
         22    1    1    2    0    0  0.88813713771E+03 -0.41873630629E+03  0.76725904764E+02  0.98489315869E+03  0.00000000000E+00 0.  1.
<mgrwt>
<rscale>  0 0.29534519E+04</rscale>
<asrwt>0</asrwt>
<pdfrwt beam="1">  1        2 0.64449134E+00 0.29534519E+04</pdfrwt>
<pdfrwt beam="2">  1       -2 0.80085890E-01 0.29534519E+04</pdfrwt>
<totfact> 0.28147419E-01</totfact>
</mgrwt>
</event>
<event>
 6    1  0.3017327E-006  0.2267423E+04  0.7818608E-02  0.8490878E-01
          2   -1    0    0  501    0  0.00000000000E+00  0.00000000000E+00  0.33295259092E+04  0.33295259092E+04  0.00000000000E+00 0. -1.
         -2   -1    0    0    0  501 -0.00000000000E+00 -0.00000000000E+00 -0.38603155784E+03  0.38603155784E+03  0.00000000000E+00 0.  1.
         23    2    1    2    0    0  0.73839741160E+03  0.19057969807E+02  0.69124407284E+02  0.74779795537E+03  0.93966242382E+02 0.  0.
         11    1    3    3    0    0  0.45692866375E+03  0.11015296756E+01 -0.19713647098E+01  0.45693424407E+03  0.00000000000E+00 0. -1.
        -11    1    3    3    0    0  0.28146874785E+03  0.17956440132E+02  0.71095771994E+02  0.29086371131E+03  0.00000000000E+00 0.  1.
         22    1    1    2    0    0 -0.73839741160E+03 -0.19057969807E+02  0.28743699441E+04  0.29677595117E+04  0.00000000000E+00 0. -1.
<mgrwt>
<rscale>  0 0.22674233E+04</rscale>
<asrwt>0</asrwt>
<pdfrwt beam="1">  1        2 0.51223474E+00 0.22674233E+04</pdfrwt>
<pdfrwt beam="2">  1       -2 0.59389473E-01 0.22674233E+04</pdfrwt>
<totfact> 0.25658375E+00</totfact>
</mgrwt>
</event>
<event>
 6    1  0.3017327E-006  0.2463033E+04  0.7818608E-02  0.8416275E-01
          2   -1    0    0  501    0  0.00000000000E+00  0.00000000000E+00  0.22244621180E+04  0.22244621180E+04  0.00000000000E+00 0. -1.
         -2   -1    0    0    0  501 -0.00000000000E+00 -0.00000000000E+00 -0.68179783657E+03  0.68179783657E+03  0.00000000000E+00 0.  1.
         23    2    1    2    0    0  0.90808439654E+03 -0.33714532423E+03 -0.12143815409E+03  0.98076750930E+03  0.94198944441E+02 0.  0.
         13    1    3    3    0    0  0.42804903311E+03 -0.12990965707E+03 -0.17446680823E+02  0.44766827050E+03  0.00000000000E+00 0. -1.
        -13    1    3    3    0    0  0.48003536344E+03 -0.20723566716E+03 -0.10399147327E+03  0.53309923880E+03  0.00000000000E+00 0.  1.
         22    1    1    2    0    0 -0.90808439654E+03  0.33714532423E+03  0.16641024355E+04  0.19254924453E+04  0.00000000000E+00 0. -1.
<mgrwt>
<rscale>  0 0.24630335E+04</rscale>
<asrwt>0</asrwt>
<pdfrwt beam="1">  1        2 0.34222494E+00 0.24630335E+04</pdfrwt>
<pdfrwt beam="2">  1       -2 0.10489198E+00 0.24630335E+04</pdfrwt>
<totfact> 0.32973485E+00</totfact>
</mgrwt>
</event>
<event>
 6    1  0.3017327E-006  0.2413194E+04  0.7818608E-02  0.8434580E-01
         -2   -1    0    0    0  501 -0.00000000000E+00  0.00000000000E+00  0.10331372506E+04  0.10331372506E+04  0.00000000000E+00 0. -1.
          2   -1    0    0  501    0  0.00000000000E+00 -0.00000000000E+00 -0.14091802869E+04  0.14091802869E+04  0.00000000000E+00 0.  1.
         23    2    1    2    0    0 -0.11420100342E+04 -0.37905512479E+03 -0.12583916849E+03  0.12133050553E+04  0.91673087122E+02 0.  0.
         11    1    3    3    0    0 -0.98933724281E+03 -0.29969144105E+03 -0.12475271548E+03  0.10412331054E+04  0.00000000000E+00 0.  1.
        -11    1    3    3    0    0 -0.15267279143E+03 -0.79363683741E+02 -0.10864530032E+01  0.17207194983E+03  0.00000000000E+00 0. -1.
         22    1    1    2    0    0  0.11420100342E+04  0.37905512479E+03 -0.25020386782E+03  0.12290124822E+04  0.00000000000E+00 0.  1.
<mgrwt>
<rscale>  0 0.24131943E+04</rscale>
<asrwt>0</asrwt>
<pdfrwt beam="1">  1        2 0.21679697E+00 0.24131943E+04</pdfrwt>
<pdfrwt beam="2">  1       -2 0.15894419E+00 0.24131943E+04</pdfrwt>
<totfact> 0.32941096E+00</totfact>
</mgrwt>
</event>
<event>
 6    1  0.3017327E-006  0.1692449E+04  0.7818608E-02  0.8765683E-01
         -2   -1    0    0    0  501 -0.00000000000E+00  0.00000000000E+00  0.25554756592E+04  0.25554756592E+04  0.00000000000E+00 0.  1.
          2   -1    0    0  501    0  0.00000000000E+00 -0.00000000000E+00 -0.28022006904E+03  0.28022006904E+03  0.00000000000E+00 0. -1.
         23    2    1    2    0    0 -0.35942588469E+03  0.48350252190E+03  0.21304664475E+04  0.22160784665E+04  0.95680878457E+02 0.  0.
         11    1    3    3    0    0 -0.32226102383E+03  0.47025652840E+03  0.19695073704E+04  0.20503542748E+04  0.00000000000E+00 0.  1.
        -11    1    3    3    0    0 -0.37164860858E+02  0.13245993499E+02  0.16095907706E+03  0.16572419170E+03  0.00000000000E+00 0. -1.
         22    1    1    2    0    0  0.35942588469E+03 -0.48350252190E+03  0.14478914273E+03  0.61961726180E+03  0.00000000000E+00 0. -1.
<mgrwt>
<rscale>  0 0.16924486E+04</rscale>
<asrwt>0</asrwt>
<pdfrwt beam="1">  1        2 0.43110781E-01 0.16924486E+04</pdfrwt>
<pdfrwt beam="2">  1       -2 0.39315009E+00 0.16924486E+04</pdfrwt>
<totfact> 0.93371191E-01</totfact>
</mgrwt>
</event>
<event>
 6    1  0.3017327E-006  0.3075392E+04  0.7818608E-02  0.8222524E-01
          2   -1    0    0  501    0  0.00000000000E+00  0.00000000000E+00  0.28992641523E+04  0.28992641523E+04  0.00000000000E+00 0. -1.
         -2   -1    0    0    0  501 -0.00000000000E+00 -0.00000000000E+00 -0.81555510299E+03  0.81555510299E+03  0.00000000000E+00 0.  1.
         23    2    1    2    0    0 -0.14157488503E+04  0.55762918706E+03  0.78677478711E+03  0.17154859670E+04  0.92641351138E+02 0.  0.
         11    1    3    3    0    0 -0.13104950643E+04  0.49267830395E+03  0.73681953934E+03  0.15820974238E+04  0.00000000000E+00 0. -1.
        -11    1    3    3    0    0 -0.10525378594E+03  0.64950883113E+02  0.49955247769E+02  0.13338854318E+03  0.00000000000E+00 0.  1.
         22    1    1    2    0    0  0.14157488503E+04 -0.55762918706E+03  0.12969342622E+04  0.19993332883E+04  0.00000000000E+00 0. -1.
<mgrwt>
<rscale>  0 0.30753924E+04</rscale>
<asrwt>0</asrwt>
<pdfrwt beam="1">  1        2 0.44604063E+00 0.30753924E+04</pdfrwt>
<pdfrwt beam="2">  1       -2 0.12547002E+00 0.30753924E+04</pdfrwt>
<totfact> 0.81222023E-01</totfact>
</mgrwt>
</event>
<event>
 6    1  0.3017327E-006  0.4865586E+04  0.7818608E-02  0.7849583E-01
          2   -1    0    0  501    0  0.00000000000E+00  0.00000000000E+00  0.26140571595E+04  0.26140571595E+04  0.00000000000E+00 0. -1.
         -2   -1    0    0    0  501 -0.00000000000E+00 -0.00000000000E+00 -0.22640984178E+04  0.22640984178E+04  0.00000000000E+00 0.  1.
         23    2    1    2    0    0 -0.16246686762E+04 -0.16147570056E+04 -0.64394235537E+03  0.23811918440E+04  0.91784237025E+02 0.  0.
         11    1    3    3    0    0 -0.60886367815E+03 -0.65947386701E+03 -0.27594374920E+03  0.93902380830E+03  0.00000000000E+00 0.  1.
        -11    1    3    3    0    0 -0.10158049981E+04 -0.95528313860E+03 -0.36799860617E+03  0.14421680357E+04  0.00000000000E+00 0. -1.
         22    1    1    2    0    0  0.16246686762E+04  0.16147570056E+04  0.99390109709E+03  0.24969637333E+04  0.00000000000E+00 0. -1.
<mgrwt>
<rscale>  0 0.48655864E+04</rscale>
<asrwt>0</asrwt>
<pdfrwt beam="1">  1        2 0.40216264E+00 0.48655864E+04</pdfrwt>
<pdfrwt beam="2">  1       -2 0.34832283E+00 0.48655864E+04</pdfrwt>
<totfact> 0.35025294E-02</totfact>
</mgrwt>
</event>
<event>
 6    1  0.3017327E-006  0.2214529E+04  0.7818608E-02  0.8512405E-01
          2   -1    0    0  501    0  0.00000000000E+00  0.00000000000E+00  0.42527865199E+04  0.42527865199E+04  0.00000000000E+00 0. -1.
         -2   -1    0    0    0  501 -0.00000000000E+00 -0.00000000000E+00 -0.28828961300E+03  0.28828961300E+03  0.00000000000E+00 0.  1.
         23    2    1    2    0    0  0.73355373559E+03 -0.81297382710E+03  0.22951467101E+04  0.25446399065E+04  0.92012533004E+02 0.  0.
         11    1    3    3    0    0  0.47606797897E+03 -0.56295005203E+03  0.14580919010E+04  0.16338866158E+04  0.00000000000E+00 0.  1.
        -11    1    3    3    0    0  0.25748575662E+03 -0.25002377508E+03  0.83705480919E+03  0.91075329072E+03  0.00000000000E+00 0. -1.
         22    1    1    2    0    0 -0.73355373559E+03  0.81297382710E+03  0.16693501967E+04  0.19964362263E+04  0.00000000000E+00 0.  1.
<mgrwt>
<rscale>  0 0.22145286E+04</rscale>
<asrwt>0</asrwt>
<pdfrwt beam="1">  1        2 0.65427480E+00 0.22145286E+04</pdfrwt>
<pdfrwt beam="2">  1       -2 0.44352251E-01 0.22145286E+04</pdfrwt>
<totfact> 0.92833751E-01</totfact>
</mgrwt>
</event>
<event>
 6    1  0.3017327E-006  0.2541052E+04  0.7818608E-02  0.8388505E-01
         -4   -1    0    0    0  501 -0.00000000000E+00  0.00000000000E+00  0.10636302289E+04  0.10636302289E+04  0.00000000000E+00 0.  1.
          4   -1    0    0  501    0  0.00000000000E+00 -0.00000000000E+00 -0.15176663244E+04  0.15176663244E+04  0.00000000000E+00 0. -1.
         23    2    1    2    0    0  0.41156365000E+03  0.15766751432E+01 -0.14466422910E+04  0.15067481908E+04  0.90161347588E+02 0.  0.
         13    1    3    3    0    0  0.12211932293E+03  0.36181972641E+02 -0.51795836575E+03  0.53338835085E+03  0.00000000000E+00 0.  1.
        -13    1    3    3    0    0  0.28944432707E+03 -0.34605297498E+02 -0.92868392523E+03  0.97335983997E+03  0.00000000000E+00 0. -1.
         22    1    1    2    0    0 -0.41156365000E+03 -0.15766751432E+01  0.99260619554E+03  0.10745483625E+04  0.00000000000E+00 0.  1.
<mgrwt>
<rscale>  0 0.25410516E+04</rscale>
<asrwt>0</asrwt>
<pdfrwt beam="1">  1        4 0.23348712E+00 0.25410516E+04</pdfrwt>
<pdfrwt beam="2">  1       -4 0.16363542E+00 0.25410516E+04</pdfrwt>
<totfact> 0.33394384E-02</totfact>
</mgrwt>
</event>
<event>
 6    1  0.3017327E-006  0.2256729E+04  0.7818608E-02  0.8495180E-01
         -1   -1    0    0    0  501 -0.00000000000E+00  0.00000000000E+00  0.89131240622E+03  0.89131240622E+03  0.00000000000E+00 0. -1.
          1   -1    0    0  501    0  0.00000000000E+00 -0.00000000000E+00 -0.14284627232E+04  0.14284627232E+04  0.00000000000E+00 0.  1.
         23    2    1    2    0    0  0.75840627849E+03 -0.59358597629E+03 -0.87006514297E+03  0.13007772512E+04  0.86508437162E+02 0.  0.
         11    1    3    3    0    0  0.50315225054E+03 -0.44421386717E+03 -0.59950480324E+03  0.89994119592E+03  0.00000000000E+00 0. -1.
        -11    1    3    3    0    0  0.25525402795E+03 -0.14937210912E+03 -0.27056033974E+03  0.40083605527E+03  0.00000000000E+00 0.  1.
         22    1    1    2    0    0 -0.75840627849E+03  0.59358597629E+03  0.33291482599E+03  0.10189978782E+04  0.00000000000E+00 0. -1.
<mgrwt>
<rscale>  0 0.22567291E+04</rscale>
<asrwt>0</asrwt>
<pdfrwt beam="1">  1        1 0.21976350E+00 0.22567291E+04</pdfrwt>
<pdfrwt beam="2">  1       -1 0.13712499E+00 0.22567291E+04</pdfrwt>
<totfact> 0.29456316E+00</totfact>
</mgrwt>
</event>
<event>
 6    1  0.3017327E-006  0.2498819E+04  0.7818608E-02  0.8403406E-01
          2   -1    0    0  501    0  0.00000000000E+00  0.00000000000E+00  0.23608400925E+04  0.23608400925E+04  0.00000000000E+00 0. -1.
         -2   -1    0    0    0  501 -0.00000000000E+00 -0.00000000000E+00 -0.66121550678E+03  0.66121550678E+03  0.00000000000E+00 0.  1.
         23    2    1    2    0    0 -0.10559436979E+03 -0.70152775254E+03 -0.39042970850E+03  0.81488131723E+03  0.91130924421E+02 0.  0.
         11    1    3    3    0    0 -0.46329474709E+01 -0.27383486421E+03 -0.12099135656E+03  0.29940926074E+03  0.00000000000E+00 0. -1.
        -11    1    3    3    0    0 -0.10096142231E+03 -0.42769288833E+03 -0.26943835194E+03  0.51547205649E+03  0.00000000000E+00 0.  1.
         22    1    1    2    0    0  0.10559436979E+03  0.70152775254E+03  0.20900542942E+04  0.22071742820E+04  0.00000000000E+00 0. -1.
<mgrwt>
<rscale>  0 0.24988190E+04</rscale>
<asrwt>0</asrwt>
<pdfrwt beam="1">  1        2 0.36320616E+00 0.24988190E+04</pdfrwt>
<pdfrwt beam="2">  1       -2 0.10172546E+00 0.24988190E+04</pdfrwt>
<totfact> 0.29605120E+00</totfact>
</mgrwt>
</event>
<event>
 6    1  0.3017327E-006  0.2385817E+04  0.7818608E-02  0.8444833E-01
          2   -1    0    0  501    0  0.00000000000E+00  0.00000000000E+00  0.14932566391E+04  0.14932566391E+04  0.00000000000E+00 0. -1.
         -2   -1    0    0    0  501 -0.00000000000E+00 -0.00000000000E+00 -0.95297135845E+03  0.95297135845E+03  0.00000000000E+00 0.  1.
         23    2    1    2    0    0  0.71410864499E+03 -0.91554627657E+03  0.54326380605E+03  0.12851143024E+04  0.90592857635E+02 0.  0.
         13    1    3    3    0    0  0.20568014145E+03 -0.25735974442E+03  0.19973477360E+03  0.38526917657E+03  0.00000000000E+00 0. -1.
        -13    1    3    3    0    0  0.50842850354E+03 -0.65818653215E+03  0.34352903245E+03  0.89984512581E+03  0.00000000000E+00 0.  1.
         22    1    1    2    0    0 -0.71410864499E+03  0.91554627657E+03 -0.29785254428E+01  0.11611136951E+04  0.00000000000E+00 0.  1.
<mgrwt>
<rscale>  0 0.23858171E+04</rscale>
<asrwt>0</asrwt>
<pdfrwt beam="1">  1        2 0.22973179E+00 0.23858171E+04</pdfrwt>
<pdfrwt beam="2">  1       -2 0.14661098E+00 0.23858171E+04</pdfrwt>
<totfact> 0.36700615E+00</totfact>
</mgrwt>
</event>
<event>
 6    1  0.3017327E-006  0.2377770E+04  0.7818608E-02  0.8447873E-01
         -2   -1    0    0    0  501 -0.00000000000E+00  0.00000000000E+00  0.10870336172E+04  0.10870336172E+04  0.00000000000E+00 0.  1.
          2   -1    0    0  501    0  0.00000000000E+00 -0.00000000000E+00 -0.13002791121E+04  0.13002791121E+04  0.00000000000E+00 0. -1.
         23    2    1    2    0    0 -0.84532004792E+03  0.39734736806E+03 -0.84247529515E+03  0.12610884817E+04  0.90158867846E+02 0.  0.
         13    1    3    3    0    0 -0.46009697122E+03  0.17208203700E+03 -0.46921281854E+03  0.67931003192E+03  0.00000000000E+00 0. -1.
        -13    1    3    3    0    0 -0.38522307670E+03  0.22526533106E+03 -0.37326247661E+03  0.58177844980E+03  0.00000000000E+00 0.  1.
         22    1    1    2    0    0  0.84532004792E+03 -0.39734736806E+03  0.62922980024E+03  0.11262242476E+04  0.00000000000E+00 0.  1.
<mgrwt>
<rscale>  0 0.23777696E+04</rscale>
<asrwt>0</asrwt>
<pdfrwt beam="1">  1        2 0.20004294E+00 0.23777696E+04</pdfrwt>
<pdfrwt beam="2">  1       -2 0.16723594E+00 0.23777696E+04</pdfrwt>
<totfact> 0.33211009E+00</totfact>
</mgrwt>
</event>
<event>
 6    1  0.3017327E-006  0.3862667E+04  0.7818608E-02  0.8032839E-01
          2   -1    0    0  501    0  0.00000000000E+00  0.00000000000E+00  0.42551194683E+04  0.42551194683E+04  0.00000000000E+00 0. -1.
         -2   -1    0    0    0  501 -0.00000000000E+00 -0.00000000000E+00 -0.87660285765E+03  0.87660285765E+03  0.00000000000E+00 0.  1.
         23    2    1    2    0    0 -0.12596948139E+04  0.32937094036E+02 -0.25235822931E+03  0.12883946038E+04  0.91433598452E+02 0.  0.
         13    1    3    3    0    0 -0.89358366531E+03  0.81710584046E+01 -0.13921740304E+03  0.90440036401E+03  0.00000000000E+00 0.  1.
        -13    1    3    3    0    0 -0.36611114857E+03  0.24766035632E+02 -0.11314082627E+03  0.38399423980E+03  0.00000000000E+00 0. -1.
         22    1    1    2    0    0  0.12596948139E+04 -0.32937094036E+02  0.36308748400E+04  0.38433277222E+04  0.00000000000E+00 0. -1.
<mgrwt>
<rscale>  0 0.38626674E+04</rscale>
<asrwt>0</asrwt>
<pdfrwt beam="1">  1        2 0.65463375E+00 0.38626674E+04</pdfrwt>
<pdfrwt beam="2">  1       -2 0.13486198E+00 0.38626674E+04</pdfrwt>
<totfact> 0.65322144E-02</totfact>
</mgrwt>
</event>
<event>
 6    1  0.3017327E-006  0.5432885E+04  0.7818608E-02  0.7764992E-01
         -2   -1    0    0    0  501 -0.00000000000E+00  0.00000000000E+00  0.17516406626E+04  0.17516406626E+04  0.00000000000E+00 0. -1.
          2   -1    0    0  501    0  0.00000000000E+00 -0.00000000000E+00 -0.42126561141E+04  0.42126561141E+04  0.00000000000E+00 0.  1.
         23    2    1    2    0    0  0.90756775946E+03  0.23693544112E+04 -0.16717840067E+03  0.25438862780E+04  0.76741212587E+02 0.  0.
         11    1    3    3    0    0  0.57060649872E+03  0.15209871414E+04 -0.14217635464E+03  0.16307077532E+04  0.00000000000E+00 0. -1.
        -11    1    3    3    0    0  0.33696126075E+03  0.84836726984E+03 -0.25002046031E+02  0.91317852476E+03  0.00000000000E+00 0.  1.
         22    1    1    2    0    0 -0.90756775946E+03 -0.23693544112E+04 -0.22938370508E+04  0.34204104987E+04  0.00000000000E+00 0.  1.
<mgrwt>
<rscale>  0 0.54328850E+04</rscale>
<asrwt>0</asrwt>
<pdfrwt beam="1">  1        2 0.64810093E+00 0.54328850E+04</pdfrwt>
<pdfrwt beam="2">  1       -2 0.26948318E+00 0.54328850E+04</pdfrwt>
<totfact> 0.77319954E-03</totfact>
</mgrwt>
</event>
<event>
 6    1  0.3398688E-006  0.2265946E+04  0.7818608E-02  0.8491470E-01
          2   -1    0    0  501    0  0.00000000000E+00  0.00000000000E+00  0.14746710367E+04  0.14746710367E+04  0.00000000000E+00 0. -1.
         -2   -1    0    0    0  501 -0.00000000000E+00 -0.00000000000E+00 -0.87045064776E+03  0.87045064776E+03  0.00000000000E+00 0.  1.
         23    2    1    2    0    0 -0.53628897702E+03 -0.56941237926E+03  0.11482843989E+04  0.13923142688E+04  0.90253186725E+02 0.  0.
         13    1    3    3    0    0 -0.78415043423E+02 -0.12644790047E+03  0.25275664931E+03  0.29329833675E+03  0.00000000000E+00 0.  1.
        -13    1    3    3    0    0 -0.45787393359E+03 -0.44296447878E+03  0.89552774959E+03  0.10990159320E+04  0.00000000000E+00 0. -1.
         22    1    1    2    0    0  0.53628897702E+03  0.56941237926E+03 -0.54406400995E+03  0.95280741572E+03  0.00000000000E+00 0.  1.
<mgrwt>
<rscale>  0 0.22659465E+04</rscale>
<asrwt>0</asrwt>
<pdfrwt beam="1">  1        2 0.22687247E+00 0.22659465E+04</pdfrwt>
<pdfrwt beam="2">  1       -2 0.13391548E+00 0.22659465E+04</pdfrwt>
<totfact> 0.48045212E+00</totfact>
</mgrwt>
</event>
<event>
 6    1  0.3017327E-006  0.4503361E+03  0.7818608E-02  0.1027622E+00
         -2   -1    0    0    0  501 -0.00000000000E+00  0.00000000000E+00  0.16146785764E+02  0.16146785764E+02  0.00000000000E+00 0.  1.
          2   -1    0    0  501    0  0.00000000000E+00 -0.00000000000E+00 -0.31399843065E+04  0.31399843065E+04  0.00000000000E+00 0. -1.
         23    2    1    2    0    0 -0.11685468482E+03 -0.13072243326E+03 -0.25092584276E+04  0.25170295091E+04  0.91193865557E+02 0.  0.
         13    1    3    3    0    0 -0.79605657451E+02 -0.69784370184E+02 -0.90302955924E+03  0.90921356341E+03  0.00000000000E+00 0.  1.
        -13    1    3    3    0    0 -0.37249027366E+02 -0.60938063076E+02 -0.16062288684E+04  0.16078159457E+04  0.00000000000E+00 0. -1.
         22    1    1    2    0    0  0.11685468482E+03  0.13072243326E+03 -0.61457909307E+03  0.63910158314E+03  0.00000000000E+00 0.  1.
<mgrwt>
<rscale>  0 0.45033611E+03</rscale>
<asrwt>0</asrwt>
<pdfrwt beam="1">  1        2 0.48307352E+00 0.45033611E+03</pdfrwt>
<pdfrwt beam="2">  1       -2 0.24841260E-02 0.45033611E+03</pdfrwt>
<totfact> 0.93641589E+02</totfact>
</mgrwt>
</event>
<event>
 6    1  0.3017327E-006  0.1784577E+04  0.7818608E-02  0.8714545E-01
          2   -1    0    0  501    0  0.00000000000E+00  0.00000000000E+00  0.97863521419E+03  0.97863521419E+03  0.00000000000E+00 0. -1.
         -2   -1    0    0    0  501 -0.00000000000E+00 -0.00000000000E+00 -0.81356026417E+03  0.81356026417E+03  0.00000000000E+00 0.  1.
         23    2    1    2    0    0 -0.55361742771E+03 -0.35237291401E+03  0.68646946505E+03  0.95403608594E+03  0.91025271386E+02 0.  0.
         13    1    3    3    0    0 -0.15724617678E+03 -0.11733610644E+03  0.15098910467E+03  0.24757187182E+03  0.00000000000E+00 0. -1.
        -13    1    3    3    0    0 -0.39637125093E+03 -0.23503680757E+03  0.53548036038E+03  0.70646421412E+03  0.00000000000E+00 0.  1.
         22    1    1    2    0    0  0.55361742771E+03  0.35237291401E+03 -0.52139451503E+03  0.83815939242E+03  0.00000000000E+00 0.  1.
<mgrwt>
<rscale>  0 0.17845770E+04</rscale>
<asrwt>0</asrwt>
<pdfrwt beam="1">  1        2 0.15055926E+00 0.17845770E+04</pdfrwt>
<pdfrwt beam="2">  1       -2 0.12516312E+00 0.17845770E+04</pdfrwt>
<totfact> 0.11746657E+01</totfact>
</mgrwt>
</event>
<event>
 6    1  0.3069018E-006  0.2767111E+04  0.7818608E-02  0.8313552E-01
          2   -1    0    0  501    0  0.00000000000E+00  0.00000000000E+00  0.13008456834E+04  0.13008456834E+04  0.00000000000E+00 0. -1.
         -2   -1    0    0    0  501 -0.00000000000E+00 -0.00000000000E+00 -0.14715244554E+04  0.14715244554E+04  0.00000000000E+00 0.  1.
         23    2    1    2    0    0 -0.10916270544E+04 -0.26633438045E+03 -0.89206009946E+03  0.14370894013E+04  0.82892088624E+02 0.  0.
         11    1    3    3    0    0 -0.49871518405E+03 -0.11934976146E+03 -0.45989918217E+03  0.68881670865E+03  0.00000000000E+00 0. -1.
        -11    1    3    3    0    0 -0.59291187033E+03 -0.14698461899E+03 -0.43216091729E+03  0.74827269269E+03  0.00000000000E+00 0.  1.
         22    1    1    2    0    0  0.10916270544E+04  0.26633438045E+03  0.72138132747E+03  0.13352807374E+04  0.00000000000E+00 0. -1.
<mgrwt>
<rscale>  0 0.27671113E+04</rscale>
<asrwt>0</asrwt>
<pdfrwt beam="1">  1        2 0.20013010E+00 0.27671113E+04</pdfrwt>
<pdfrwt beam="2">  1       -2 0.22638838E+00 0.27671113E+04</pdfrwt>
<totfact> 0.12977644E+00</totfact>
</mgrwt>
</event>
<event>
 6    1  0.3017327E-006  0.2430228E+04  0.7818608E-02  0.8428273E-01
          2   -1    0    0  501    0  0.00000000000E+00  0.00000000000E+00  0.22935061472E+04  0.22935061472E+04  0.00000000000E+00 0. -1.
         -2   -1    0    0    0  501 -0.00000000000E+00 -0.00000000000E+00 -0.64377498153E+03  0.64377498153E+03  0.00000000000E+00 0.  1.
         23    2    1    2    0    0  0.71307401107E+01 -0.63291657872E+03 -0.42514655033E+03  0.76800664646E+03  0.91925930438E+02 0.  0.
         11    1    3    3    0    0  0.31722972446E+02 -0.31036738704E+03 -0.25232359450E+03  0.40124987011E+03  0.00000000000E+00 0.  1.
        -11    1    3    3    0    0 -0.24592232335E+02 -0.32254919167E+03 -0.17282295583E+03  0.36675677635E+03  0.00000000000E+00 0. -1.
         22    1    1    2    0    0 -0.71307401107E+01  0.63291657872E+03  0.20748777160E+04  0.21692744823E+04  0.00000000000E+00 0. -1.
<mgrwt>
<rscale>  0 0.24302279E+04</rscale>
<asrwt>0</asrwt>
<pdfrwt beam="1">  1        2 0.35284710E+00 0.24302279E+04</pdfrwt>
<pdfrwt beam="2">  1       -2 0.99042306E-01 0.24302279E+04</pdfrwt>
<totfact> 0.34652638E+00</totfact>
</mgrwt>
</event>
<event>
 6    1  0.3017327E-006  0.1367380E+04  0.7818608E-02  0.8977775E-01
          2   -1    0    0  501    0  0.00000000000E+00  0.00000000000E+00  0.25202368532E+03  0.25202368532E+03  0.00000000000E+00 0. -1.
         -2   -1    0    0    0  501 -0.00000000000E+00 -0.00000000000E+00 -0.18547133247E+04  0.18547133247E+04  0.00000000000E+00 0.  1.
         23    2    1    2    0    0  0.30051905132E+03 -0.43247582793E+03 -0.14692290796E+04  0.15634518519E+04  0.91654585873E+02 0.  0.
         13    1    3    3    0    0  0.10865997369E+03 -0.18194940914E+03 -0.46972840936E+03  0.51532257464E+03  0.00000000000E+00 0. -1.
        -13    1    3    3    0    0  0.19185907763E+03 -0.25052641879E+03 -0.99950067021E+03  0.10481292773E+04  0.00000000000E+00 0.  1.
         22    1    1    2    0    0 -0.30051905132E+03  0.43247582793E+03 -0.13346055977E+03  0.54328515805E+03  0.00000000000E+00 0. -1.
<mgrwt>
<rscale>  0 0.13673795E+04</rscale>
<asrwt>0</asrwt>
<pdfrwt beam="1">  1        2 0.38772875E-01 0.13673795E+04</pdfrwt>
<pdfrwt beam="2">  1       -2 0.28534051E+00 0.13673795E+04</pdfrwt>
<totfact> 0.51041751E+00</totfact>
</mgrwt>
</event>
<event>
 6    1  0.3017327E-006  0.7894292E+03  0.7818608E-02  0.9575445E-01
          2   -1    0    0  501    0  0.00000000000E+00  0.00000000000E+00  0.72473221194E+03  0.72473221194E+03  0.00000000000E+00 0. -1.
         -2   -1    0    0    0  501 -0.00000000000E+00 -0.00000000000E+00 -0.21497540086E+03  0.21497540086E+03  0.00000000000E+00 0.  1.
         23    2    1    2    0    0  0.26004204052E+03  0.11043521501E+03 -0.62671636007E+02  0.30135651302E+03  0.84084567115E+02 0.  0.
         11    1    3    3    0    0  0.78219304215E+02 -0.44374319370E+01 -0.40954426079E+01  0.78452042702E+02  0.00000000000E+00 0. -1.
        -11    1    3    3    0    0  0.18182273631E+03  0.11487264694E+03 -0.58576193399E+02  0.22290447032E+03  0.00000000000E+00 0.  1.
         22    1    1    2    0    0 -0.26004204052E+03 -0.11043521501E+03  0.57242844709E+03  0.63835109978E+03  0.00000000000E+00 0. -1.
<mgrwt>
<rscale>  0 0.78942916E+03</rscale>
<asrwt>0</asrwt>
<pdfrwt beam="1">  1        2 0.11149726E+00 0.78942916E+03</pdfrwt>
<pdfrwt beam="2">  1       -2 0.33073139E-01 0.78942916E+03</pdfrwt>
<totfact> 0.33621824E+02</totfact>
</mgrwt>
</event>
<event>
 6    1  0.3017327E-006  0.3659031E+04  0.7818608E-02  0.8077102E-01
         -2   -1    0    0    0  501 -0.00000000000E+00  0.00000000000E+00  0.10999565896E+04  0.10999565896E+04  0.00000000000E+00 0.  1.
          2   -1    0    0  501    0  0.00000000000E+00 -0.00000000000E+00 -0.30429630404E+04  0.30429630404E+04  0.00000000000E+00 0. -1.
         23    2    1    2    0    0 -0.16398291691E+04 -0.48163666469E+03 -0.23667553857E+03  0.17278463884E+04  0.91783717715E+02 0.  0.
         11    1    3    3    0    0 -0.72074355228E+03 -0.16453452104E+03 -0.97735478185E+02  0.74571784239E+03  0.00000000000E+00 0. -1.
        -11    1    3    3    0    0 -0.91908561678E+03 -0.31710214366E+03 -0.13894006038E+03  0.98212854600E+03  0.00000000000E+00 0.  1.
         22    1    1    2    0    0  0.16398291691E+04  0.48163666469E+03 -0.17063309122E+04  0.24150732416E+04  0.00000000000E+00 0. -1.
<mgrwt>
<rscale>  0 0.36590312E+04</rscale>
<asrwt>0</asrwt>
<pdfrwt beam="1">  1        2 0.46814816E+00 0.36590312E+04</pdfrwt>
<pdfrwt beam="2">  1       -2 0.16922409E+00 0.36590312E+04</pdfrwt>
<totfact> 0.28622691E-01</totfact>
</mgrwt>
</event>
<event>
 6    1  0.3017327E-006  0.2302810E+04  0.7818608E-02  0.8476814E-01
         -2   -1    0    0    0  501 -0.00000000000E+00  0.00000000000E+00  0.64990527321E+03  0.64990527321E+03  0.00000000000E+00 0.  1.
          2   -1    0    0  501    0  0.00000000000E+00 -0.00000000000E+00 -0.20398871821E+04  0.20398871821E+04  0.00000000000E+00 0. -1.
         23    2    1    2    0    0 -0.89063455731E+03 -0.82420632374E+02  0.14753531996E+03  0.91103381392E+03  0.90514441765E+02 0.  0.
         13    1    3    3    0    0 -0.47306836605E+03 -0.29928378202E+02  0.12170669933E+03  0.48938932093E+03  0.00000000000E+00 0. -1.
        -13    1    3    3    0    0 -0.41756619125E+03 -0.52492254172E+02  0.25828620631E+02  0.42164449299E+03  0.00000000000E+00 0.  1.
         22    1    1    2    0    0  0.89063455731E+03  0.82420632374E+02 -0.15375172288E+04  0.17787586414E+04  0.00000000000E+00 0. -1.
<mgrwt>
<rscale>  0 0.23028100E+04</rscale>
<asrwt>0</asrwt>
<pdfrwt beam="1">  1        2 0.31382879E+00 0.23028100E+04</pdfrwt>
<pdfrwt beam="2">  1       -2 0.99985428E-01 0.23028100E+04</pdfrwt>
<totfact> 0.47540597E+00</totfact>
</mgrwt>
</event>
<event>
 6    1  0.3017327E-006  0.2112889E+04  0.7818608E-02  0.8555587E-01
          2   -1    0    0  501    0  0.00000000000E+00  0.00000000000E+00  0.68657489665E+03  0.68657489665E+03  0.00000000000E+00 0. -1.
         -2   -1    0    0    0  501 -0.00000000000E+00 -0.00000000000E+00 -0.16255699192E+04  0.16255699192E+04  0.00000000000E+00 0.  1.
         23    2    1    2    0    0 -0.18513513069E+03  0.36627601002E+03  0.59258162906E+03  0.72653446905E+03  0.90918730134E+02 0.  0.
         11    1    3    3    0    0 -0.48698211337E+01  0.56628423945E+02  0.46665981358E+02  0.73540515176E+02  0.00000000000E+00 0. -1.
        -11    1    3    3    0    0 -0.18026530956E+03  0.30964758608E+03  0.54591564770E+03  0.65299395388E+03  0.00000000000E+00 0.  1.
         22    1    1    2    0    0  0.18513513069E+03 -0.36627601002E+03 -0.15315766516E+04  0.15856103468E+04  0.00000000000E+00 0.  1.
<mgrwt>
<rscale>  0 0.21128895E+04</rscale>
<asrwt>0</asrwt>
<pdfrwt beam="1">  1        2 0.10562691E+00 0.21128895E+04</pdfrwt>
<pdfrwt beam="2">  1       -2 0.25008768E+00 0.21128895E+04</pdfrwt>
<totfact> 0.24803933E+00</totfact>
</mgrwt>
</event>
<event>
 6    1  0.3017327E-006  0.1601770E+04  0.7818608E-02  0.8819461E-01
          2   -1    0    0  501    0  0.00000000000E+00  0.00000000000E+00  0.50302366687E+03  0.50302366687E+03  0.00000000000E+00 0. -1.
         -2   -1    0    0    0  501 -0.00000000000E+00 -0.00000000000E+00 -0.12751227723E+04  0.12751227723E+04  0.00000000000E+00 0.  1.
         23    2    1    2    0    0  0.29716008091E+03 -0.55736994475E+03  0.15460223116E+03  0.65665603073E+03  0.91268416292E+02 0.  0.
         13    1    3    3    0    0  0.16263009292E+03 -0.26619403243E+03  0.11926312359E+03  0.33396332534E+03  0.00000000000E+00 0.  1.
        -13    1    3    3    0    0  0.13452998799E+03 -0.29117591232E+03  0.35339107563E+02  0.32269270538E+03  0.00000000000E+00 0. -1.
         22    1    1    2    0    0 -0.29716008091E+03  0.55736994475E+03 -0.92670133653E+03  0.11214904084E+04  0.00000000000E+00 0.  1.
<mgrwt>
<rscale>  0 0.16017702E+04</rscale>
<asrwt>0</asrwt>
<pdfrwt beam="1">  1        2 0.77388256E-01 0.16017702E+04</pdfrwt>
<pdfrwt beam="2">  1       -2 0.19617274E+00 0.16017702E+04</pdfrwt>
<totfact> 0.82564673E+00</totfact>
</mgrwt>
</event>
<event>
 6    1  0.3017327E-006  0.1533650E+04  0.7818608E-02  0.8862379E-01
          2   -1    0    0  501    0  0.00000000000E+00  0.00000000000E+00  0.95771781365E+03  0.95771781365E+03  0.00000000000E+00 0. -1.
         -2   -1    0    0    0  501 -0.00000000000E+00 -0.00000000000E+00 -0.61398104624E+03  0.61398104624E+03  0.00000000000E+00 0.  1.
         23    2    1    2    0    0 -0.50316813474E+03  0.44626093124E+03 -0.19862521925E+03  0.70770608496E+03  0.95230952921E+02 0.  0.
         13    1    3    3    0    0 -0.28322002966E+03  0.21099574200E+03 -0.65436504287E+02  0.35918619745E+03  0.00000000000E+00 0. -1.
        -13    1    3    3    0    0 -0.21994810508E+03  0.23526518924E+03 -0.13318871496E+03  0.34851988751E+03  0.00000000000E+00 0.  1.
         22    1    1    2    0    0  0.50316813474E+03 -0.44626093124E+03  0.54236198666E+03  0.86399277494E+03  0.00000000000E+00 0.  1.
<mgrwt>
<rscale>  0 0.15336500E+04</rscale>
<asrwt>0</asrwt>
<pdfrwt beam="1">  1        2 0.14734120E+00 0.15336500E+04</pdfrwt>
<pdfrwt beam="2">  1       -2 0.94458622E-01 0.15336500E+04</pdfrwt>
<totfact> 0.24433171E+01</totfact>
</mgrwt>
</event>
<event>
 6    1  0.3017327E-006  0.3399673E+04  0.7818608E-02  0.8137987E-01
          2   -1    0    0  501    0  0.00000000000E+00  0.00000000000E+00  0.24717091042E+04  0.24717091042E+04  0.00000000000E+00 0. -1.
         -2   -1    0    0    0  501 -0.00000000000E+00 -0.00000000000E+00 -0.11690064944E+04  0.11690064944E+04  0.00000000000E+00 0.  1.
         23    2    1    2    0    0 -0.13770849703E+04  0.87485278600E+03  0.11584094770E+04  0.20028661182E+04  0.88485921346E+02 0.  0.
         13    1    3    3    0    0 -0.12979635607E+03  0.11251323827E+03  0.13363411157E+03  0.21763363391E+03  0.00000000000E+00 0. -1.
        -13    1    3    3    0    0 -0.12472886143E+04  0.76233954773E+03  0.10247753654E+04  0.17852324842E+04  0.00000000000E+00 0.  1.
         22    1    1    2    0    0  0.13770849703E+04 -0.87485278600E+03  0.14429313286E+03  0.16378494805E+04  0.00000000000E+00 0.  1.
<mgrwt>
<rscale>  0 0.33996729E+04</rscale>
<asrwt>0</asrwt>
<pdfrwt beam="1">  1        2 0.38026294E+00 0.33996729E+04</pdfrwt>
<pdfrwt beam="2">  1       -2 0.17984715E+00 0.33996729E+04</pdfrwt>
<totfact> 0.54430533E-01</totfact>
</mgrwt>
</event>
<event>
 6    1  0.3017327E-006  0.2986006E+04  0.7818608E-02  0.8247738E-01
          2   -1    0    0  501    0  0.00000000000E+00  0.00000000000E+00  0.28031430403E+04  0.28031430403E+04  0.00000000000E+00 0.  1.
         -2   -1    0    0    0  501 -0.00000000000E+00 -0.00000000000E+00 -0.79519937742E+03  0.79519937742E+03  0.00000000000E+00 0. -1.
         23    2    1    2    0    0  0.23510640231E+03  0.12652210251E+04  0.96127157248E+02  0.12937596759E+04  0.92273539098E+02 0.  0.
         11    1    3    3    0    0  0.17507238954E+03  0.11092266537E+04  0.78884350430E+02  0.11257250337E+04  0.00000000000E+00 0. -1.
        -11    1    3    3    0    0  0.60034012764E+02  0.15599437139E+03  0.17242806818E+02  0.16803464221E+03  0.00000000000E+00 0.  1.
         22    1    1    2    0    0 -0.23510640231E+03 -0.12652210251E+04  0.19118165056E+04  0.23045827418E+04  0.00000000000E+00 0.  1.
<mgrwt>
<rscale>  0 0.29860058E+04</rscale>
<asrwt>0</asrwt>
<pdfrwt beam="1">  1        2 0.43125277E+00 0.29860058E+04</pdfrwt>
<pdfrwt beam="2">  1       -2 0.12233837E+00 0.29860058E+04</pdfrwt>
<totfact> 0.99802854E-01</totfact>
</mgrwt>
</event>
<event>
 6    1  0.3017327E-006  0.2117078E+04  0.7818608E-02  0.8553757E-01
         -2   -1    0    0    0  501 -0.00000000000E+00  0.00000000000E+00  0.67551796104E+03  0.67551796104E+03  0.00000000000E+00 0.  1.
          2   -1    0    0  501    0  0.00000000000E+00 -0.00000000000E+00 -0.16587342762E+04  0.16587342762E+04  0.00000000000E+00 0. -1.
         23    2    1    2    0    0  0.49241803653E+03  0.79551770620E+03 -0.10337461750E+04  0.13973012192E+04  0.92171574969E+02 0.  0.
         11    1    3    3    0    0  0.35468334325E+03  0.60682116909E+03 -0.82698520776E+03  0.10853279408E+04  0.00000000000E+00 0.  1.
        -11    1    3    3    0    0  0.13773469328E+03  0.18869653711E+03 -0.20676096723E+03  0.31197327838E+03  0.00000000000E+00 0. -1.
         22    1    1    2    0    0 -0.49241803653E+03 -0.79551770620E+03  0.50529859790E+02  0.93695101809E+03  0.00000000000E+00 0. -1.
<mgrwt>
<rscale>  0 0.21170780E+04</rscale>
<asrwt>0</asrwt>
<pdfrwt beam="1">  1        2 0.25518989E+00 0.21170780E+04</pdfrwt>
<pdfrwt beam="2">  1       -2 0.10392584E+00 0.21170780E+04</pdfrwt>
<totfact> 0.71701449E+00</totfact>
</mgrwt>
</event>
<event>
 6    1  0.3017327E-006  0.1826615E+04  0.7818608E-02  0.8692273E-01
          2   -1    0    0  501    0  0.00000000000E+00  0.00000000000E+00  0.11450469708E+04  0.11450469708E+04  0.00000000000E+00 0. -1.
         -2   -1    0    0    0  501 -0.00000000000E+00 -0.00000000000E+00 -0.72846826921E+03  0.72846826921E+03  0.00000000000E+00 0.  1.
         23    2    1    2    0    0 -0.40937340121E+03 -0.30078435478E+03 -0.56678056453E+03  0.76669400061E+03  0.92312905674E+02 0.  0.
         11    1    3    3    0    0 -0.10072298372E+03 -0.12047887283E+03 -0.20341785320E+03  0.25698074100E+03  0.00000000000E+00 0.  1.
        -11    1    3    3    0    0 -0.30865041749E+03 -0.18030548195E+03 -0.36336271133E+03  0.50971325961E+03  0.00000000000E+00 0. -1.
         22    1    1    2    0    0  0.40937340121E+03  0.30078435478E+03  0.98335926610E+03  0.11068212394E+04  0.00000000000E+00 0. -1.
<mgrwt>
<rscale>  0 0.18266148E+04</rscale>
<asrwt>0</asrwt>
<pdfrwt beam="1">  1        2 0.17616107E+00 0.18266148E+04</pdfrwt>
<pdfrwt beam="2">  1       -2 0.11207204E+00 0.18266148E+04</pdfrwt>
<totfact> 0.12095148E+01</totfact>
</mgrwt>
</event>
<event>
 6    1  0.3017327E-006  0.2558599E+04  0.7818608E-02  0.8382402E-01
          2   -1    0    0  501    0  0.00000000000E+00  0.00000000000E+00  0.24046020541E+04  0.24046020541E+04  0.00000000000E+00 0. -1.
         -2   -1    0    0    0  501 -0.00000000000E+00 -0.00000000000E+00 -0.68061471913E+03  0.68061471913E+03  0.00000000000E+00 0.  1.
         23    2    1    2    0    0  0.58244596493E+03  0.33588908218E+03  0.21731903569E+04  0.22766080096E+04  0.90127268585E+02 0.  0.
         13    1    3    3    0    0  0.11636204720E+03  0.75484123425E+02  0.57943050995E+03  0.59580004597E+03  0.00000000000E+00 0. -1.
        -13    1    3    3    0    0  0.46608391773E+03  0.26040495875E+03  0.15937598470E+04  0.16808079637E+04  0.00000000000E+00 0.  1.
         22    1    1    2    0    0 -0.58244596493E+03 -0.33588908218E+03 -0.44920302196E+03  0.80860876358E+03  0.00000000000E+00 0.  1.
<mgrwt>
<rscale>  0 0.25585993E+04</rscale>
<asrwt>0</asrwt>
<pdfrwt beam="1">  1        2 0.36993877E+00 0.25585993E+04</pdfrwt>
<pdfrwt beam="2">  1       -2 0.10470996E+00 0.25585993E+04</pdfrwt>
<totfact> 0.25947910E+00</totfact>
</mgrwt>
</event>
<event>
 6    1  0.3017327E-006  0.1643844E+04  0.7818608E-02  0.8794057E-01
          2   -1    0    0  501    0  0.00000000000E+00  0.00000000000E+00  0.77213917414E+03  0.77213917414E+03  0.00000000000E+00 0. -1.
         -2   -1    0    0    0  501 -0.00000000000E+00 -0.00000000000E+00 -0.87491408097E+03  0.87491408097E+03  0.00000000000E+00 0.  1.
         23    2    1    2    0    0 -0.13314796199E+03  0.74633107469E+03 -0.36277778961E+03  0.84559211951E+03  0.93165740031E+02 0.  0.
         11    1    3    3    0    0 -0.13445954374E+03  0.51320467746E+03 -0.24398791723E+03  0.58394221771E+03  0.00000000000E+00 0.  1.
        -11    1    3    3    0    0  0.13115817559E+01  0.23312639723E+03 -0.11878987238E+03  0.26164990180E+03  0.00000000000E+00 0. -1.
         22    1    1    2    0    0  0.13314796199E+03 -0.74633107469E+03  0.26000288278E+03  0.80146113561E+03  0.00000000000E+00 0. -1.
<mgrwt>
<rscale>  0 0.16438436E+04</rscale>
<asrwt>0</asrwt>
<pdfrwt beam="1">  1        2 0.11879064E+00 0.16438436E+04</pdfrwt>
<pdfrwt beam="2">  1       -2 0.13460217E+00 0.16438436E+04</pdfrwt>
<totfact> 0.13710851E+01</totfact>
</mgrwt>
</event>
<event>
 6    1  0.3017327E-006  0.2371251E+04  0.7818608E-02  0.8450346E-01
         -2   -1    0    0    0  501 -0.00000000000E+00  0.00000000000E+00  0.15567281373E+04  0.15567281373E+04  0.00000000000E+00 0. -1.
          2   -1    0    0  501    0  0.00000000000E+00 -0.00000000000E+00 -0.90298877833E+03  0.90298877833E+03  0.00000000000E+00 0.  1.
         23    2    1    2    0    0 -0.75444761138E+03 -0.45416246707E+03  0.11481188507E+04  0.14498328496E+04  0.91562283969E+02 0.  0.
         13    1    3    3    0    0 -0.25550125449E+03 -0.20148751021E+03  0.44990156339E+03  0.55523825927E+03  0.00000000000E+00 0. -1.
        -13    1    3    3    0    0 -0.49894635689E+03 -0.25267495686E+03  0.69821728728E+03  0.89459459038E+03  0.00000000000E+00 0.  1.
         22    1    1    2    0    0  0.75444761138E+03  0.45416246707E+03 -0.49437949174E+03  0.10098840660E+04  0.00000000000E+00 0. -1.
<mgrwt>
<rscale>  0 0.23712512E+04</rscale>
<asrwt>0</asrwt>
<pdfrwt beam="1">  1        2 0.13892135E+00 0.23712512E+04</pdfrwt>
<pdfrwt beam="2">  1       -2 0.23949664E+00 0.23712512E+04</pdfrwt>
<totfact> 0.19622833E+00</totfact>
</mgrwt>
</event>
<event>
 6    1  0.3017327E-006  0.3086018E+04  0.7818608E-02  0.8219586E-01
          4   -1    0    0  501    0  0.00000000000E+00  0.00000000000E+00  0.21545153168E+04  0.21545153168E+04  0.00000000000E+00 0. -1.
         -4   -1    0    0    0  501 -0.00000000000E+00 -0.00000000000E+00 -0.11050638117E+04  0.11050638117E+04  0.00000000000E+00 0.  1.
         23    2    1    2    0    0  0.15310187193E+04  0.76019289830E+02  0.69895733325E+03  0.16871150062E+04  0.89545738042E+02 0.  0.
         11    1    3    3    0    0  0.11445663034E+04  0.71986621574E+02  0.48291701306E+03  0.12443564353E+04  0.00000000000E+00 0.  1.
        -11    1    3    3    0    0  0.38645241589E+03  0.40326682567E+01  0.21604032019E+03  0.44275857090E+03  0.00000000000E+00 0. -1.
         22    1    1    2    0    0 -0.15310187193E+04 -0.76019289830E+02  0.35049417181E+03  0.15724641222E+04  0.00000000000E+00 0. -1.
<mgrwt>
<rscale>  0 0.30860181E+04</rscale>
<asrwt>0</asrwt>
<pdfrwt beam="1">  1        4 0.33146389E+00 0.30860181E+04</pdfrwt>
<pdfrwt beam="2">  1       -4 0.17000982E+00 0.30860181E+04</pdfrwt>
<totfact> 0.69629196E-03</totfact>
</mgrwt>
</event>
<event>
 6    1  0.3017327E-006  0.3218580E+04  0.7818608E-02  0.8183927E-01
         -2   -1    0    0    0  501 -0.00000000000E+00  0.00000000000E+00  0.78512469271E+03  0.78512469271E+03  0.00000000000E+00 0.  1.
          2   -1    0    0  501    0  0.00000000000E+00 -0.00000000000E+00 -0.32986031120E+04  0.32986031120E+04  0.00000000000E+00 0. -1.
         23    2    1    2    0    0  0.13936820253E+04  0.28887492777E+02 -0.22752811565E+04  0.26695418159E+04  0.79781521905E+02 0.  0.
         13    1    3    3    0    0  0.78981404307E+03 -0.19542291028E+02 -0.13193836984E+04  0.15378431218E+04  0.00000000000E+00 0. -1.
        -13    1    3    3    0    0  0.60386798220E+03  0.48429783805E+02 -0.95589745812E+03  0.11316986941E+04  0.00000000000E+00 0.  1.
         22    1    1    2    0    0 -0.13936820253E+04 -0.28887492777E+02 -0.23819726278E+03  0.14141859887E+04  0.00000000000E+00 0. -1.
<mgrwt>
<rscale>  0 0.32185803E+04</rscale>
<asrwt>0</asrwt>
<pdfrwt beam="1">  1        2 0.50747739E+00 0.32185803E+04</pdfrwt>
<pdfrwt beam="2">  1       -2 0.12078842E+00 0.32185803E+04</pdfrwt>
<totfact> 0.48976435E-01</totfact>
</mgrwt>
</event>
<event>
 6    1  0.3017327E-006  0.1003390E+04  0.7818608E-02  0.9304835E-01
          2   -1    0    0  501    0  0.00000000000E+00  0.00000000000E+00  0.14899384152E+04  0.14899384152E+04  0.00000000000E+00 0. -1.
         -2   -1    0    0    0  501 -0.00000000000E+00 -0.00000000000E+00 -0.16893168561E+03  0.16893168561E+03  0.00000000000E+00 0.  1.
         23    2    1    2    0    0  0.31178227930E+02 -0.43643757669E+03  0.10570929022E+04  0.11478903081E+04  0.93578391494E+02 0.  0.
         13    1    3    3    0    0  0.16547744871E+02 -0.11907491060E+03  0.40594282340E+03  0.42337009585E+03  0.00000000000E+00 0. -1.
        -13    1    3    3    0    0  0.14630483059E+02 -0.31736266608E+03  0.65115007879E+03  0.72452021226E+03  0.00000000000E+00 0.  1.
         22    1    1    2    0    0 -0.31178227930E+02  0.43643757669E+03  0.26391382738E+03  0.51097979268E+03  0.00000000000E+00 0.  1.
<mgrwt>
<rscale>  0 0.10033899E+04</rscale>
<asrwt>0</asrwt>
<pdfrwt beam="1">  1        2 0.22922129E+00 0.10033899E+04</pdfrwt>
<pdfrwt beam="2">  1       -2 0.25989491E-01 0.10033899E+04</pdfrwt>
<totfact> 0.17145708E+02</totfact>
</mgrwt>
</event>
<event>
 6    1  0.3017327E-006  0.1166659E+04  0.7818608E-02  0.9142551E-01
          1   -1    0    0  501    0  0.00000000000E+00  0.00000000000E+00  0.18470031186E+04  0.18470031186E+04  0.00000000000E+00 0. -1.
         -1   -1    0    0    0  501 -0.00000000000E+00 -0.00000000000E+00 -0.18423004160E+03  0.18423004160E+03  0.00000000000E+00 0.  1.
         23    2    1    2    0    0  0.53477219133E+02 -0.33055571125E+03  0.12645474720E+02  0.34747308375E+03  0.91927932079E+02 0.  0.
         13    1    3    3    0    0 -0.20092870091E+02 -0.16220147890E+03  0.23634420712E+01  0.16345834040E+03  0.00000000000E+00 0.  1.
        -13    1    3    3    0    0  0.73570089223E+02 -0.16835423235E+03  0.10282032649E+02  0.18401474336E+03  0.00000000000E+00 0. -1.
         22    1    1    2    0    0 -0.53477219133E+02  0.33055571125E+03  0.16501276023E+04  0.16837600764E+04  0.00000000000E+00 0. -1.
<mgrwt>
<rscale>  0 0.11666593E+04</rscale>
<asrwt>0</asrwt>
<pdfrwt beam="1">  1        1 0.28415431E+00 0.11666593E+04</pdfrwt>
<pdfrwt beam="2">  1       -1 0.28343085E-01 0.11666593E+04</pdfrwt>
<totfact> 0.42373676E+01</totfact>
</mgrwt>
</event>
<event>
 6    1  0.3017327E-006  0.2876116E+04  0.7818608E-02  0.8280019E-01
         -2   -1    0    0    0  501 -0.00000000000E+00  0.00000000000E+00  0.19579767997E+04  0.19579767997E+04  0.00000000000E+00 0.  1.
          2   -1    0    0  501    0  0.00000000000E+00 -0.00000000000E+00 -0.10561980727E+04  0.10561980727E+04  0.00000000000E+00 0. -1.
         23    2    1    2    0    0 -0.14160393860E+04 -0.24058635079E+03  0.41903460499E+03  0.14988890175E+04  0.89604417023E+02 0.  0.
         11    1    3    3    0    0 -0.79098588303E+03 -0.16380546929E+03  0.27050096072E+03  0.85185777491E+03  0.00000000000E+00 0. -1.
        -11    1    3    3    0    0 -0.62505350300E+03 -0.76780881507E+02  0.14853364428E+03  0.64703124257E+03  0.00000000000E+00 0.  1.
         22    1    1    2    0    0  0.14160393860E+04  0.24058635079E+03  0.48274412196E+03  0.15152858550E+04  0.00000000000E+00 0.  1.
<mgrwt>
<rscale>  0 0.28761164E+04</rscale>
<asrwt>0</asrwt>
<pdfrwt beam="1">  1        2 0.16249201E+00 0.28761164E+04</pdfrwt>
<pdfrwt beam="2">  1       -2 0.30122720E+00 0.28761164E+04</pdfrwt>
<totfact> 0.62666580E-01</totfact>
</mgrwt>
</event>
<event>
 6    1  0.3017327E-006  0.3924265E+04  0.7818608E-02  0.8020001E-01
          2   -1    0    0  501    0  0.00000000000E+00  0.00000000000E+00  0.19675520787E+04  0.19675520787E+04  0.00000000000E+00 0. -1.
         -2   -1    0    0    0  501 -0.00000000000E+00 -0.00000000000E+00 -0.19567274631E+04  0.19567274631E+04  0.00000000000E+00 0.  1.
         23    2    1    2    0    0 -0.12838161968E+04 -0.43005797239E+03 -0.14132643935E+04  0.19592952181E+04  0.91583945443E+02 0.  0.
         11    1    3    3    0    0 -0.13419569015E+03 -0.58591130782E+02 -0.19143891156E+03  0.24101921234E+03  0.00000000000E+00 0.  1.
        -11    1    3    3    0    0 -0.11496205067E+04 -0.37146684161E+03 -0.12218254819E+04  0.17182760058E+04  0.00000000000E+00 0. -1.
         22    1    1    2    0    0  0.12838161968E+04  0.43005797239E+03  0.14240890091E+04  0.19649843238E+04  0.00000000000E+00 0. -1.
<mgrwt>
<rscale>  0 0.39242646E+04</rscale>
<asrwt>0</asrwt>
<pdfrwt beam="1">  1        2 0.30270032E+00 0.39242646E+04</pdfrwt>
<pdfrwt beam="2">  1       -2 0.30103499E+00 0.39242646E+04</pdfrwt>
<totfact> 0.17315741E-01</totfact>
</mgrwt>
</event>
<event>
 6    1  0.3017327E-006  0.1320696E+04  0.7818608E-02  0.9013312E-01
         -2   -1    0    0    0  501 -0.00000000000E+00  0.00000000000E+00  0.16622865901E+03  0.16622865901E+03  0.00000000000E+00 0.  1.
          2   -1    0    0  501    0  0.00000000000E+00 -0.00000000000E+00 -0.26232510594E+04  0.26232510594E+04  0.00000000000E+00 0. -1.
         23    2    1    2    0    0  0.57843303382E+03  0.17017257448E+03 -0.68046726529E+03  0.91339559776E+03  0.87819924689E+02 0.  0.
         11    1    3    3    0    0  0.26234503615E+03  0.62738361788E+02 -0.24269862834E+03  0.36285485284E+03  0.00000000000E+00 0. -1.
        -11    1    3    3    0    0  0.31608799767E+03  0.10743421269E+03 -0.43776863695E+03  0.55054074492E+03  0.00000000000E+00 0.  1.
         22    1    1    2    0    0 -0.57843303382E+03 -0.17017257448E+03 -0.17765551351E+04  0.18760841207E+04  0.00000000000E+00 0. -1.
<mgrwt>
<rscale>  0 0.13206960E+04</rscale>
<asrwt>0</asrwt>
<pdfrwt beam="1">  1        2 0.40357702E+00 0.13206960E+04</pdfrwt>
<pdfrwt beam="2">  1       -2 0.25573644E-01 0.13206960E+04</pdfrwt>
<totfact> 0.39965749E+01</totfact>
</mgrwt>
</event>
<event>
 6    1  0.3017327E-006  0.1346354E+04  0.7818608E-02  0.8993593E-01
          2   -1    0    0  501    0  0.00000000000E+00  0.00000000000E+00  0.60050403143E+03  0.60050403143E+03  0.00000000000E+00 0. -1.
         -2   -1    0    0    0  501 -0.00000000000E+00 -0.00000000000E+00 -0.75464501722E+03  0.75464501722E+03  0.00000000000E+00 0.  1.
         23    2    1    2    0    0 -0.34554043122E+03  0.14561794628E+02 -0.65516240084E+03  0.74635294664E+03  0.90524659715E+02 0.  0.
         13    1    3    3    0    0 -0.15923807356E+03  0.42908861714E+02 -0.36273269831E+03  0.39846322905E+03  0.00000000000E+00 0.  1.
        -13    1    3    3    0    0 -0.18630235766E+03 -0.28347067086E+02 -0.29242970253E+03  0.34788971759E+03  0.00000000000E+00 0. -1.
         22    1    1    2    0    0  0.34554043122E+03 -0.14561794628E+02  0.50102141506E+03  0.60879610200E+03  0.00000000000E+00 0. -1.
<mgrwt>
<rscale>  0 0.13463542E+04</rscale>
<asrwt>0</asrwt>
<pdfrwt beam="1">  1        2 0.92385236E-01 0.13463542E+04</pdfrwt>
<pdfrwt beam="2">  1       -2 0.11609923E+00 0.13463542E+04</pdfrwt>
<totfact> 0.27883581E+01</totfact>
</mgrwt>
</event>
<event>
 6    1  0.3017327E-006  0.3482940E+04  0.7818608E-02  0.8117845E-01
          1   -1    0    0  501    0  0.00000000000E+00  0.00000000000E+00  0.18007585885E+04  0.18007585885E+04  0.00000000000E+00 0. -1.
         -1   -1    0    0    0  501 -0.00000000000E+00 -0.00000000000E+00 -0.16841334865E+04  0.16841334865E+04  0.00000000000E+00 0.  1.
         23    2    1    2    0    0  0.16475928297E+04 -0.32017796542E+03 -0.40169932482E+03  0.17282656851E+04  0.91999286266E+02 0.  0.
         13    1    3    3    0    0  0.78729881138E+03 -0.15419032991E+03 -0.14479840120E+03  0.81521816296E+03  0.00000000000E+00 0.  1.
        -13    1    3    3    0    0  0.86029401837E+03 -0.16598763551E+03 -0.25690092362E+03  0.91304752217E+03  0.00000000000E+00 0. -1.
         22    1    1    2    0    0 -0.16475928297E+04  0.32017796542E+03  0.51832442684E+03  0.17566263899E+04  0.00000000000E+00 0. -1.
<mgrwt>
<rscale>  0 0.34829400E+04</rscale>
<asrwt>0</asrwt>
<pdfrwt beam="1">  1        1 0.27703978E+00 0.34829400E+04</pdfrwt>
<pdfrwt beam="2">  1       -1 0.25909746E+00 0.34829400E+04</pdfrwt>
<totfact> 0.20219925E-01</totfact>
</mgrwt>
</event>
<event>
 6    1  0.3017327E-006  0.1676115E+04  0.7818608E-02  0.8775105E-01
         -2   -1    0    0    0  501 -0.00000000000E+00  0.00000000000E+00  0.14855411661E+04  0.14855411661E+04  0.00000000000E+00 0.  1.
          2   -1    0    0  501    0  0.00000000000E+00 -0.00000000000E+00 -0.47278410333E+03  0.47278410333E+03  0.00000000000E+00 0. -1.
         23    2    1    2    0    0 -0.18487819125E+03 -0.38857564154E+03 -0.32916453830E+03  0.54909691385E+03  0.89370871821E+02 0.  0.
         13    1    3    3    0    0 -0.76275641502E+02 -0.24691978083E+03 -0.22348828893E+03  0.34166411422E+03  0.00000000000E+00 0.  1.
        -13    1    3    3    0    0 -0.10860254975E+03 -0.14165586070E+03 -0.10567624936E+03  0.20743279963E+03  0.00000000000E+00 0. -1.
         22    1    1    2    0    0  0.18487819125E+03  0.38857564154E+03  0.13419216010E+04  0.14092283556E+04  0.00000000000E+00 0.  1.
<mgrwt>
<rscale>  0 0.16761149E+04</rscale>
<asrwt>0</asrwt>
<pdfrwt beam="1">  1        2 0.72736016E-01 0.16761149E+04</pdfrwt>
<pdfrwt beam="2">  1       -2 0.22854479E+00 0.16761149E+04</pdfrwt>
<totfact> 0.54665905E+00</totfact>
</mgrwt>
</event>
<event>
 6    1  0.3017327E-006  0.4752352E+03  0.7818608E-02  0.1020453E+00
         -2   -1    0    0    0  501 -0.00000000000E+00  0.00000000000E+00  0.12440388080E+03  0.12440388080E+03  0.00000000000E+00 0.  1.
          2   -1    0    0  501    0  0.00000000000E+00 -0.00000000000E+00 -0.45386137894E+03  0.45386137894E+03  0.00000000000E+00 0. -1.
         23    2    1    2    0    0  0.64651851458E+02  0.20282414236E+02 -0.43662028762E+03  0.45147763544E+03  0.92755277577E+02 0.  0.
         11    1    3    3    0    0  0.10140199888E+02  0.38178067141E+02 -0.69841373220E+02  0.80238431426E+02  0.00000000000E+00 0. -1.
        -11    1    3    3    0    0  0.54511651570E+02 -0.17895652905E+02 -0.36677891440E+03  0.37123920402E+03  0.00000000000E+00 0.  1.
         22    1    1    2    0    0 -0.64651851458E+02 -0.20282414236E+02  0.10716278948E+03  0.12678762429E+03  0.00000000000E+00 0.  1.
<mgrwt>
<rscale>  0 0.47523517E+03</rscale>
<asrwt>0</asrwt>
<pdfrwt beam="1">  1        2 0.69824827E-01 0.47523517E+03</pdfrwt>
<pdfrwt beam="2">  1       -2 0.19139059E-01 0.47523517E+03</pdfrwt>
<totfact> 0.15829858E+03</totfact>
</mgrwt>
</event>
<event>
 6    1  0.3017327E-006  0.1644161E+04  0.7818608E-02  0.8793868E-01
          2   -1    0    0  501    0  0.00000000000E+00  0.00000000000E+00  0.16316773260E+04  0.16316773260E+04  0.00000000000E+00 0. -1.
         -2   -1    0    0    0  501 -0.00000000000E+00 -0.00000000000E+00 -0.41418525831E+03  0.41418525831E+03  0.00000000000E+00 0.  1.
         23    2    1    2    0    0  0.27169601869E+03  0.69870806879E+03  0.19893010089E+03  0.78115701693E+03  0.92851537933E+02 0.  0.
         11    1    3    3    0    0  0.18011678471E+03  0.41438827915E+03  0.76194668473E+02  0.45821973936E+03  0.00000000000E+00 0.  1.
        -11    1    3    3    0    0  0.91579233980E+02  0.28431978964E+03  0.12273543242E+03  0.32293727758E+03  0.00000000000E+00 0. -1.
         22    1    1    2    0    0 -0.27169601869E+03 -0.69870806879E+03  0.10185619668E+04  0.12647055674E+04  0.00000000000E+00 0. -1.
<mgrwt>
<rscale>  0 0.16441614E+04</rscale>
<asrwt>0</asrwt>
<pdfrwt beam="1">  1        2 0.25102728E+00 0.16441614E+04</pdfrwt>
<pdfrwt beam="2">  1       -2 0.63720810E-01 0.16441614E+04</pdfrwt>
<totfact> 0.23308917E+01</totfact>
</mgrwt>
</event>
<event>
 6    1  0.3017327E-006  0.1055293E+04  0.7818608E-02  0.9249896E-01
          2   -1    0    0  501    0  0.00000000000E+00  0.00000000000E+00  0.10308328771E+04  0.10308328771E+04  0.00000000000E+00 0. -1.
         -2   -1    0    0    0  501 -0.00000000000E+00 -0.00000000000E+00 -0.27008344676E+03  0.27008344676E+03  0.00000000000E+00 0.  1.
         23    2    1    2    0    0  0.96644688262E+02 -0.45660696877E+03  0.67599613577E+03  0.82656071820E+03  0.91660927237E+02 0.  0.
         13    1    3    3    0    0  0.23344100938E+02 -0.36441401686E+02  0.10728503158E+03  0.11568492039E+03  0.00000000000E+00 0.  1.
        -13    1    3    3    0    0  0.73300587324E+02 -0.42016556709E+03  0.56871110420E+03  0.71087579780E+03  0.00000000000E+00 0. -1.
         22    1    1    2    0    0 -0.96644688262E+02  0.45660696877E+03  0.84753294574E+02  0.47435560568E+03  0.00000000000E+00 0.  1.
<mgrwt>
<rscale>  0 0.10552931E+04</rscale>
<asrwt>0</asrwt>
<pdfrwt beam="1">  1        2 0.15858967E+00 0.10552931E+04</pdfrwt>
<pdfrwt beam="2">  1       -2 0.41551300E-01 0.10552931E+04</pdfrwt>
<totfact> 0.13139438E+02</totfact>
</mgrwt>
</event>
<event>
 6    1  0.3017327E-006  0.1578631E+04  0.7818608E-02  0.8833784E-01
          2   -1    0    0  501    0  0.00000000000E+00  0.00000000000E+00  0.10199253906E+04  0.10199253906E+04  0.00000000000E+00 0. -1.
         -2   -1    0    0    0  501 -0.00000000000E+00 -0.00000000000E+00 -0.61084768027E+03  0.61084768027E+03  0.00000000000E+00 0.  1.
         23    2    1    2    0    0  0.77202635135E+03  0.14326220384E+03  0.15461607330E+03  0.80536440184E+03  0.90315798123E+02 0.  0.
         11    1    3    3    0    0  0.62299582451E+03  0.15140727688E+03  0.12526580302E+03  0.65325300018E+03  0.00000000000E+00 0.  1.
        -11    1    3    3    0    0  0.14903052685E+03 -0.81450730384E+01  0.29350270282E+02  0.15211140165E+03  0.00000000000E+00 0. -1.
         22    1    1    2    0    0 -0.77202635135E+03 -0.14326220384E+03  0.25446163707E+03  0.82540866907E+03  0.00000000000E+00 0. -1.
<mgrwt>
<rscale>  0 0.15786311E+04</rscale>
<asrwt>0</asrwt>
<pdfrwt beam="1">  1        2 0.15691160E+00 0.15786311E+04</pdfrwt>
<pdfrwt beam="2">  1       -2 0.93976566E-01 0.15786311E+04</pdfrwt>
<totfact> 0.22461080E+01</totfact>
</mgrwt>
</event>
<event>
 6    1  0.3017327E-006  0.1510294E+04  0.7818608E-02  0.8877636E-01
          2   -1    0    0  501    0  0.00000000000E+00  0.00000000000E+00  0.30041727757E+04  0.30041727757E+04  0.00000000000E+00 0. -1.
         -2   -1    0    0    0  501 -0.00000000000E+00 -0.00000000000E+00 -0.18981840205E+03  0.18981840205E+03  0.00000000000E+00 0.  1.
         23    2    1    2    0    0  0.50791402170E+03  0.22736585215E+03  0.34157640987E+03  0.65937034963E+03  0.91776522178E+02 0.  0.
         13    1    3    3    0    0  0.37022085602E+03  0.18031323717E+03  0.29510355310E+03  0.50661864630E+03  0.00000000000E+00 0. -1.
        -13    1    3    3    0    0  0.13769316568E+03  0.47052614980E+02  0.46472856771E+02  0.15275170332E+03  0.00000000000E+00 0.  1.
         22    1    1    2    0    0 -0.50791402170E+03 -0.22736585215E+03  0.24727779638E+04  0.25346208282E+04  0.00000000000E+00 0. -1.
<mgrwt>
<rscale>  0 0.15102944E+04</rscale>
<asrwt>0</asrwt>
<pdfrwt beam="1">  1        2 0.46218039E+00 0.15102944E+04</pdfrwt>
<pdfrwt beam="2">  1       -2 0.29202833E-01 0.15102944E+04</pdfrwt>
<totfact> 0.18146898E+01</totfact>
</mgrwt>
</event>
<event>
 6    1  0.3017327E-006  0.3280721E+04  0.7818608E-02  0.8167818E-01
          2   -1    0    0  501    0  0.00000000000E+00  0.00000000000E+00  0.25622998779E+04  0.25622998779E+04  0.00000000000E+00 0. -1.
         -2   -1    0    0    0  501 -0.00000000000E+00 -0.00000000000E+00 -0.10501432363E+04  0.10501432363E+04  0.00000000000E+00 0.  1.
         23    2    1    2    0    0 -0.48046484826E+03 -0.14412737563E+04  0.14340295228E+04  0.20911869366E+04  0.92225919267E+02 0.  0.
         13    1    3    3    0    0 -0.35957409030E+03 -0.10129580251E+04  0.96319292800E+03  0.14433011133E+04  0.00000000000E+00 0. -1.
        -13    1    3    3    0    0 -0.12089075796E+03 -0.42831573120E+03  0.47083659483E+03  0.64788582327E+03  0.00000000000E+00 0.  1.
         22    1    1    2    0    0  0.48046484826E+03  0.14412737563E+04  0.78127118765E+02  0.15212561776E+04  0.00000000000E+00 0.  1.
<mgrwt>
<rscale>  0 0.32807206E+04</rscale>
<asrwt>0</asrwt>
<pdfrwt beam="1">  1        2 0.39419998E+00 0.32807206E+04</pdfrwt>
<pdfrwt beam="2">  1       -2 0.16156050E+00 0.32807206E+04</pdfrwt>
<totfact> 0.65692437E-01</totfact>
</mgrwt>
</event>
<event>
 6    1  0.3017327E-006  0.1222582E+04  0.7818608E-02  0.9093317E-01
          2   -1    0    0  501    0  0.00000000000E+00  0.00000000000E+00  0.30334839806E+04  0.30334839806E+04  0.00000000000E+00 0. -1.
         -2   -1    0    0    0  501 -0.00000000000E+00 -0.00000000000E+00 -0.12318404917E+03  0.12318404917E+03  0.00000000000E+00 0.  1.
         23    2    1    2    0    0  0.21328265714E+03  0.42401112362E+03  0.48242077853E+03  0.68283050360E+03  0.90844726303E+02 0.  0.
         11    1    3    3    0    0  0.49512471135E+02  0.99895320538E+02  0.63054839103E+02  0.12808775350E+03  0.00000000000E+00 0.  1.
        -11    1    3    3    0    0  0.16377018601E+03  0.32411580308E+03  0.41936593943E+03  0.55474275010E+03  0.00000000000E+00 0. -1.
         22    1    1    2    0    0 -0.21328265714E+03 -0.42401112362E+03  0.24278791529E+04  0.24738375261E+04  0.00000000000E+00 0. -1.
<mgrwt>
<rscale>  0 0.12225823E+04</rscale>
<asrwt>0</asrwt>
<pdfrwt beam="1">  1        2 0.46668979E+00 0.12225823E+04</pdfrwt>
<pdfrwt beam="2">  1       -2 0.18951394E-01 0.12225823E+04</pdfrwt>
<totfact> 0.38946554E+01</totfact>
</mgrwt>
</event>
<event>
 6    1  0.3017327E-006  0.1744073E+04  0.7818608E-02  0.8736620E-01
         -2   -1    0    0    0  501 -0.00000000000E+00  0.00000000000E+00  0.52163941511E+03  0.52163941511E+03  0.00000000000E+00 0.  1.
          2   -1    0    0  501    0  0.00000000000E+00 -0.00000000000E+00 -0.14578026295E+04  0.14578026295E+04  0.00000000000E+00 0. -1.
         23    2    1    2    0    0 -0.32571802506E+03  0.45348821327E+03 -0.12260363705E+04  0.13503393200E+04  0.92235057358E+02 0.  0.
         13    1    3    3    0    0 -0.18189066240E+03  0.30086211385E+03 -0.84877278674E+03  0.91870423322E+03  0.00000000000E+00 0.  1.
        -13    1    3    3    0    0 -0.14382736267E+03  0.15262609942E+03 -0.37726358380E+03  0.43163508678E+03  0.00000000000E+00 0. -1.
         22    1    1    2    0    0  0.32571802506E+03 -0.45348821327E+03  0.28987315617E+03  0.62910272460E+03  0.00000000000E+00 0.  1.
<mgrwt>
<rscale>  0 0.17440726E+04</rscale>
<asrwt>0</asrwt>
<pdfrwt beam="1">  1        2 0.22427732E+00 0.17440726E+04</pdfrwt>
<pdfrwt beam="2">  1       -2 0.80252219E-01 0.17440726E+04</pdfrwt>
<totfact> 0.17456683E+01</totfact>
</mgrwt>
</event>
<event>
 6    1  0.3017327E-006  0.1951617E+04  0.7818608E-02  0.8629581E-01
         -2   -1    0    0    0  501 -0.00000000000E+00  0.00000000000E+00  0.32744160742E+03  0.32744160742E+03  0.00000000000E+00 0. -1.
          2   -1    0    0  501    0  0.00000000000E+00 -0.00000000000E+00 -0.29080071887E+04  0.29080071887E+04  0.00000000000E+00 0.  1.
         23    2    1    2    0    0  0.38168400516E+02  0.80659688747E+03 -0.21950329476E+04  0.23406355322E+04  0.91376627492E+02 0.  0.
         11    1    3    3    0    0  0.19284888028E+02  0.12666613274E+03 -0.44448847103E+03  0.46258644270E+03  0.00000000000E+00 0. -1.
        -11    1    3    3    0    0  0.18883512488E+02  0.67993075473E+03 -0.17505444765E+04  0.18780490895E+04  0.00000000000E+00 0.  1.
         22    1    1    2    0    0 -0.38168400516E+02 -0.80659688747E+03 -0.38553263376E+03  0.89481326397E+03  0.00000000000E+00 0. -1.
<mgrwt>
<rscale>  0 0.19516173E+04</rscale>
<asrwt>0</asrwt>
<pdfrwt beam="1">  1        2 0.44738571E+00 0.19516173E+04</pdfrwt>
<pdfrwt beam="2">  1       -2 0.50375633E-01 0.19516173E+04</pdfrwt>
<totfact> 0.69199315E+00</totfact>
</mgrwt>
</event>
<event>
 6    1  0.3017327E-006  0.3654640E+04  0.7818608E-02  0.8078089E-01
         -2   -1    0    0    0  501 -0.00000000000E+00  0.00000000000E+00  0.21469927646E+04  0.21469927646E+04  0.00000000000E+00 0.  1.
          2   -1    0    0  501    0  0.00000000000E+00 -0.00000000000E+00 -0.15552441479E+04  0.15552441479E+04  0.00000000000E+00 0. -1.
         23    2    1    2    0    0 -0.64782302534E+03  0.26522526470E+03 -0.14125535074E+04  0.15792093296E+04  0.92604439159E+02 0.  0.
         13    1    3    3    0    0 -0.35709078307E+03  0.19004731638E+03 -0.85775528349E+03  0.94835433049E+03  0.00000000000E+00 0.  1.
        -13    1    3    3    0    0 -0.29073224227E+03  0.75177948321E+02 -0.55479822395E+03  0.63085499911E+03  0.00000000000E+00 0. -1.
         22    1    1    2    0    0  0.64782302534E+03 -0.26522526470E+03  0.20043021241E+04  0.21230275830E+04  0.00000000000E+00 0.  1.
<mgrwt>
<rscale>  0 0.36546398E+04</rscale>
<asrwt>0</asrwt>
<pdfrwt beam="1">  1        2 0.23926833E+00 0.36546398E+04</pdfrwt>
<pdfrwt beam="2">  1       -2 0.33030658E+00 0.36546398E+04</pdfrwt>
<totfact> 0.19809663E-01</totfact>
</mgrwt>
</event>
<event>
 6    1  0.3017327E-006  0.2250930E+04  0.7818608E-02  0.8497524E-01
         -2   -1    0    0    0  501 -0.00000000000E+00  0.00000000000E+00  0.65794353243E+03  0.65794353243E+03  0.00000000000E+00 0. -1.
          2   -1    0    0  501    0  0.00000000000E+00 -0.00000000000E+00 -0.19251982735E+04  0.19251982735E+04  0.00000000000E+00 0.  1.
         23    2    1    2    0    0  0.11906581984E+03  0.24830729078E+03 -0.18847575827E+04  0.19070183413E+04  0.92599288257E+02 0.  0.
         13    1    3    3    0    0  0.10544400356E+03  0.12842814738E+03 -0.93811458845E+03  0.95271780081E+03  0.00000000000E+00 0. -1.
        -13    1    3    3    0    0  0.13621816284E+02  0.11987914340E+03 -0.94664299428E+03  0.95430054046E+03  0.00000000000E+00 0.  1.
         22    1    1    2    0    0 -0.11906581984E+03 -0.24830729078E+03  0.61750284162E+03  0.67612346470E+03  0.00000000000E+00 0. -1.
<mgrwt>
<rscale>  0 0.22509303E+04</rscale>
<asrwt>0</asrwt>
<pdfrwt beam="1">  1        2 0.29618435E+00 0.22509303E+04</pdfrwt>
<pdfrwt beam="2">  1       -2 0.10122208E+00 0.22509303E+04</pdfrwt>
<totfact> 0.53705294E+00</totfact>
</mgrwt>
</event>
<event>
 6    1  0.3017327E-006  0.1379902E+04  0.7818608E-02  0.8968496E-01
          2   -1    0    0  501    0  0.00000000000E+00  0.00000000000E+00  0.10991592165E+04  0.10991592165E+04  0.00000000000E+00 0. -1.
         -2   -1    0    0    0  501 -0.00000000000E+00 -0.00000000000E+00 -0.43308770493E+03  0.43308770493E+03  0.00000000000E+00 0.  1.
         23    2    1    2    0    0  0.16142755069E+03  0.27330570953E+03  0.10109690165E+04  0.10635154910E+04  0.90840422945E+02 0.  0.
         11    1    3    3    0    0  0.20745455747E+02  0.12054121327E+03  0.39156859381E+03  0.41022740241E+03  0.00000000000E+00 0.  1.
        -11    1    3    3    0    0  0.14068209495E+03  0.15276449626E+03  0.61940042267E+03  0.65328808864E+03  0.00000000000E+00 0. -1.
         22    1    1    2    0    0 -0.16142755069E+03 -0.27330570953E+03 -0.34489750488E+03  0.46873143041E+03  0.00000000000E+00 0.  1.
<mgrwt>
<rscale>  0 0.13799019E+04</rscale>
<asrwt>0</asrwt>
<pdfrwt beam="1">  1        2 0.16910142E+00 0.13799019E+04</pdfrwt>
<pdfrwt beam="2">  1       -2 0.66628878E-01 0.13799019E+04</pdfrwt>
<totfact> 0.44006728E+01</totfact>
</mgrwt>
</event>
<event>
 6    1  0.3017327E-006  0.4030436E+04  0.7818608E-02  0.7998435E-01
         -2   -1    0    0    0  501 -0.00000000000E+00  0.00000000000E+00  0.27470127354E+04  0.27470127354E+04  0.00000000000E+00 0. -1.
          2   -1    0    0  501    0  0.00000000000E+00 -0.00000000000E+00 -0.14783712029E+04  0.14783712029E+04  0.00000000000E+00 0.  1.
         23    2    1    2    0    0  0.13283915131E+04 -0.18130521829E+02 -0.95250836209E+03  0.16372456919E+04  0.91370387113E+02 0.  0.
         11    1    3    3    0    0  0.65143609941E+03 -0.95296674047E+01 -0.52330769044E+03  0.83564989383E+03  0.00000000000E+00 0. -1.
        -11    1    3    3    0    0  0.67695541374E+03 -0.86008544243E+01 -0.42920067166E+03  0.80159579804E+03  0.00000000000E+00 0.  1.
         22    1    1    2    0    0 -0.13283915131E+04  0.18130521829E+02  0.22211498947E+04  0.25881382464E+04  0.00000000000E+00 0. -1.
<mgrwt>
<rscale>  0 0.40304365E+04</rscale>
<asrwt>0</asrwt>
<pdfrwt beam="1">  1        2 0.22744172E+00 0.40304365E+04</pdfrwt>
<pdfrwt beam="2">  1       -2 0.42261734E+00 0.40304365E+04</pdfrwt>
<totfact> 0.54119444E-02</totfact>
</mgrwt>
</event>
<event>
 6    1  0.3017327E-006  0.4922260E+04  0.7818608E-02  0.7840613E-01
         -2   -1    0    0    0  501 -0.00000000000E+00  0.00000000000E+00  0.21249176507E+04  0.21249176507E+04  0.00000000000E+00 0. -1.
          2   -1    0    0  501    0  0.00000000000E+00 -0.00000000000E+00 -0.28505388234E+04  0.28505388234E+04  0.00000000000E+00 0.  1.
         23    2    1    2    0    0 -0.22029586464E+03  0.42215711651E+03 -0.28027674639E+04  0.28444277052E+04  0.92285502189E+02 0.  0.
         11    1    3    3    0    0 -0.29842958161E+02  0.14664360710E+03 -0.80949512605E+03  0.82321158200E+03  0.00000000000E+00 0.  1.
        -11    1    3    3    0    0 -0.19045290647E+03  0.27551350942E+03 -0.19932723379E+04  0.20212161232E+04  0.00000000000E+00 0. -1.
         22    1    1    2    0    0  0.22029586464E+03 -0.42215711651E+03  0.20771462912E+04  0.21310287689E+04  0.00000000000E+00 0. -1.
<mgrwt>
<rscale>  0 0.49222597E+04</rscale>
<asrwt>0</asrwt>
<pdfrwt beam="1">  1        2 0.43854444E+00 0.49222597E+04</pdfrwt>
<pdfrwt beam="2">  1       -2 0.32691041E+00 0.49222597E+04</pdfrwt>
<totfact> 0.34232835E-02</totfact>
</mgrwt>
</event>
<event>
 6    1  0.3017327E-006  0.5197614E+04  0.7818608E-02  0.7798726E-01
         -2   -1    0    0    0  501 -0.00000000000E+00  0.00000000000E+00  0.20326889193E+04  0.20326889193E+04  0.00000000000E+00 0. -1.
          2   -1    0    0  501    0  0.00000000000E+00 -0.00000000000E+00 -0.33225925224E+04  0.33225925224E+04  0.00000000000E+00 0.  1.
         23    2    1    2    0    0  0.25092797644E+04 -0.18985474342E+03  0.20363004562E+02  0.25181476164E+04  0.90127723587E+02 0.  0.
         11    1    3    3    0    0  0.15063986009E+04 -0.87536367647E+02  0.47637367998E+02  0.15096915842E+04  0.00000000000E+00 0.  1.
        -11    1    3    3    0    0  0.10028811635E+04 -0.10231837577E+03 -0.27274363436E+02  0.10084560322E+04  0.00000000000E+00 0. -1.
         22    1    1    2    0    0 -0.25092797644E+04  0.18985474342E+03 -0.13102666076E+04  0.28371338253E+04  0.00000000000E+00 0.  1.
<mgrwt>
<rscale>  0 0.51976137E+04</rscale>
<asrwt>0</asrwt>
<pdfrwt beam="1">  1        2 0.51116807E+00 0.51976137E+04</pdfrwt>
<pdfrwt beam="2">  1       -2 0.31272138E+00 0.51976137E+04</pdfrwt>
<totfact> 0.20443836E-02</totfact>
</mgrwt>
</event>
<event>
 6    1  0.3017327E-006  0.3442499E+04  0.7818608E-02  0.8127554E-01
          2   -1    0    0  501    0  0.00000000000E+00  0.00000000000E+00  0.27084911449E+04  0.27084911449E+04  0.00000000000E+00 0. -1.
         -2   -1    0    0    0  501 -0.00000000000E+00 -0.00000000000E+00 -0.10938560816E+04  0.10938560816E+04  0.00000000000E+00 0.  1.
         23    2    1    2    0    0 -0.40516293374E+03  0.42907392339E+03 -0.97667030515E+03  0.11446931958E+04  0.90422302878E+02 0.  0.
         11    1    3    3    0    0 -0.13204487789E+03  0.14847414600E+03 -0.41359941139E+03  0.45885171342E+03  0.00000000000E+00 0.  1.
        -11    1    3    3    0    0 -0.27311805585E+03  0.28059977739E+03 -0.56307089376E+03  0.68584148234E+03  0.00000000000E+00 0. -1.
         22    1    1    2    0    0  0.40516293374E+03 -0.42907392339E+03  0.25913053685E+04  0.26576540308E+04  0.00000000000E+00 0. -1.
<mgrwt>
<rscale>  0 0.34424988E+04</rscale>
<asrwt>0</asrwt>
<pdfrwt beam="1">  1        2 0.41669094E+00 0.34424988E+04</pdfrwt>
<pdfrwt beam="2">  1       -2 0.16828555E+00 0.34424988E+04</pdfrwt>
<totfact> 0.47488801E-01</totfact>
</mgrwt>
</event>
<event>
 6    1  0.3017327E-006  0.2425957E+04  0.7818608E-02  0.8429849E-01
          2   -1    0    0  501    0  0.00000000000E+00  0.00000000000E+00  0.23399516107E+04  0.23399516107E+04  0.00000000000E+00 0. -1.
         -2   -1    0    0    0  501 -0.00000000000E+00 -0.00000000000E+00 -0.62878068544E+03  0.62878068544E+03  0.00000000000E+00 0.  1.
         23    2    1    2    0    0 -0.11664924050E+04  0.81694985102E+02  0.12436259348E+04  0.17093765403E+04  0.89353732663E+02 0.  0.
         13    1    3    3    0    0 -0.86253316812E+03  0.33138329958E+02  0.95723621970E+03  0.12889386313E+04  0.00000000000E+00 0. -1.
        -13    1    3    3    0    0 -0.30395923687E+03  0.48556655144E+02  0.28638971506E+03  0.42043790901E+03  0.00000000000E+00 0.  1.
         22    1    1    2    0    0  0.11664924050E+04 -0.81694985102E+02  0.46754499049E+03  0.12593557558E+04  0.00000000000E+00 0.  1.
<mgrwt>
<rscale>  0 0.24259566E+04</rscale>
<asrwt>0</asrwt>
<pdfrwt beam="1">  1        2 0.35999255E+00 0.24259566E+04</pdfrwt>
<pdfrwt beam="2">  1       -2 0.96735491E-01 0.24259566E+04</pdfrwt>
<totfact> 0.34481692E+00</totfact>
</mgrwt>
</event>
<event>
 6    1  0.3017327E-006  0.1357945E+04  0.7818608E-02  0.8984835E-01
          2   -1    0    0  501    0  0.00000000000E+00  0.00000000000E+00  0.15190356834E+04  0.15190356834E+04  0.00000000000E+00 0. -1.
         -2   -1    0    0    0  501 -0.00000000000E+00 -0.00000000000E+00 -0.30348450777E+03  0.30348450777E+03  0.00000000000E+00 0.  1.
         23    2    1    2    0    0 -0.31124030061E+02 -0.10958296031E+03  0.15046906087E+04  0.15117489856E+04  0.91181341476E+02 0.  0.
         11    1    3    3    0    0 -0.14378652942E+02 -0.11315434875E+03  0.95438541914E+03  0.96117749691E+03  0.00000000000E+00 0. -1.
        -11    1    3    3    0    0 -0.16745377118E+02  0.35713884424E+01  0.55030518956E+03  0.55057148866E+03  0.00000000000E+00 0.  1.
         22    1    1    2    0    0  0.31124030061E+02  0.10958296031E+03 -0.28913943310E+03  0.31077120557E+03  0.00000000000E+00 0.  1.
<mgrwt>
<rscale>  0 0.13579452E+04</rscale>
<asrwt>0</asrwt>
<pdfrwt beam="1">  1        2 0.23369779E+00 0.13579452E+04</pdfrwt>
<pdfrwt beam="2">  1       -2 0.46689925E-01 0.13579452E+04</pdfrwt>
<totfact> 0.52557789E+01</totfact>
</mgrwt>
</event>
<event>
 6    1  0.3017327E-006  0.3939508E+04  0.7818608E-02  0.8016862E-01
         -2   -1    0    0    0  501 -0.00000000000E+00  0.00000000000E+00  0.16203155078E+04  0.16203155078E+04  0.00000000000E+00 0.  1.
          2   -1    0    0  501    0  0.00000000000E+00 -0.00000000000E+00 -0.23945529726E+04  0.23945529726E+04  0.00000000000E+00 0. -1.
         23    2    1    2    0    0 -0.90299229398E+03 -0.11074427171E+04  0.99286067109E+03  0.17423235905E+04  0.89970703002E+02 0.  0.
         13    1    3    3    0    0 -0.67733607639E+03 -0.88938583970E+03  0.77198423007E+03  0.13585841835E+04  0.00000000000E+00 0. -1.
        -13    1    3    3    0    0 -0.22565621760E+03 -0.21805687737E+03  0.22087644102E+03  0.38373940702E+03  0.00000000000E+00 0.  1.
         22    1    1    2    0    0  0.90299229398E+03  0.11074427171E+04 -0.17670981359E+04  0.22725448899E+04  0.00000000000E+00 0. -1.
<mgrwt>
<rscale>  0 0.39395083E+04</rscale>
<asrwt>0</asrwt>
<pdfrwt beam="1">  1        2 0.36839276E+00 0.39395083E+04</pdfrwt>
<pdfrwt beam="2">  1       -2 0.24927931E+00 0.39395083E+04</pdfrwt>
<totfact> 0.20608812E-01</totfact>
</mgrwt>
</event>
<event>
 6    1  0.3017327E-006  0.1507811E+04  0.7818608E-02  0.8879275E-01
          2   -1    0    0  501    0  0.00000000000E+00  0.00000000000E+00  0.90042704046E+03  0.90042704046E+03  0.00000000000E+00 0. -1.
         -2   -1    0    0    0  501 -0.00000000000E+00 -0.00000000000E+00 -0.63122668532E+03  0.63122668532E+03  0.00000000000E+00 0.  1.
         23    2    1    2    0    0  0.40589351783E+03 -0.56060393239E+03 -0.16160180681E+03  0.71641338111E+03  0.90037058159E+02 0.  0.
         13    1    3    3    0    0  0.18724333994E+03 -0.33004404466E+03 -0.10435239346E+03  0.39354613679E+03  0.00000000000E+00 0. -1.
        -13    1    3    3    0    0  0.21865017789E+03 -0.23055988774E+03 -0.57249413353E+02  0.32286724432E+03  0.00000000000E+00 0.  1.
         22    1    1    2    0    0 -0.40589351783E+03  0.56060393239E+03  0.43080216195E+03  0.81524034467E+03  0.00000000000E+00 0. -1.
<mgrwt>
<rscale>  0 0.15078111E+04</rscale>
<asrwt>0</asrwt>
<pdfrwt beam="1">  1        2 0.13852724E+00 0.15078111E+04</pdfrwt>
<pdfrwt beam="2">  1       -2 0.97111798E-01 0.15078111E+04</pdfrwt>
<totfact> 0.25051516E+01</totfact>
</mgrwt>
</event>
<event>
 6    1  0.3017327E-006  0.4660942E+04  0.7818608E-02  0.7883051E-01
          2   -1    0    0  501    0  0.00000000000E+00  0.00000000000E+00  0.33852961150E+04  0.33852961150E+04  0.00000000000E+00 0. -1.
         -2   -1    0    0    0  501 -0.00000000000E+00 -0.00000000000E+00 -0.16043188392E+04  0.16043188392E+04  0.00000000000E+00 0.  1.
         23    2    1    2    0    0  0.13421980485E+04  0.15989020206E+04  0.19975075611E+04  0.28908370628E+04  0.94441486993E+02 0.  0.
         13    1    3    3    0    0  0.10469044314E+04  0.12875541040E+04  0.15478105629E+04  0.22692558247E+04  0.00000000000E+00 0. -1.
        -13    1    3    3    0    0  0.29529361708E+03  0.31134791663E+03  0.44969699816E+03  0.62158123816E+03  0.00000000000E+00 0.  1.
         22    1    1    2    0    0 -0.13421980485E+04 -0.15989020206E+04 -0.21653028532E+03  0.20987778914E+04  0.00000000000E+00 0.  1.
<mgrwt>
<rscale>  0 0.46609417E+04</rscale>
<asrwt>0</asrwt>
<pdfrwt beam="1">  1        2 0.52081478E+00 0.46609417E+04</pdfrwt>
<pdfrwt beam="2">  1       -2 0.24681828E+00 0.46609417E+04</pdfrwt>
<totfact> 0.48985057E-02</totfact>
</mgrwt>
</event>
<event>
 6    1  0.3017327E-006  0.1938962E+04  0.7818608E-02  0.8635702E-01
         -2   -1    0    0    0  501 -0.00000000000E+00  0.00000000000E+00  0.48614424328E+03  0.48614424328E+03  0.00000000000E+00 0.  1.
          2   -1    0    0  501    0  0.00000000000E+00 -0.00000000000E+00 -0.19333640245E+04  0.19333640245E+04  0.00000000000E+00 0. -1.
         23    2    1    2    0    0 -0.27189064764E+03  0.15224538101E+03 -0.18679396479E+04  0.18959546540E+04  0.91336419505E+02 0.  0.
         13    1    3    3    0    0 -0.96864349361E+02  0.13068521796E+02 -0.70116100501E+03  0.70794084738E+03  0.00000000000E+00 0.  1.
        -13    1    3    3    0    0 -0.17502629828E+03  0.13917685921E+03 -0.11667786429E+04  0.11880138066E+04  0.00000000000E+00 0. -1.
         22    1    1    2    0    0  0.27189064764E+03 -0.15224538101E+03  0.42071986667E+03  0.52355361380E+03  0.00000000000E+00 0.  1.
<mgrwt>
<rscale>  0 0.19389624E+04</rscale>
<asrwt>0</asrwt>
<pdfrwt beam="1">  1        2 0.29744062E+00 0.19389624E+04</pdfrwt>
<pdfrwt beam="2">  1       -2 0.74791421E-01 0.19389624E+04</pdfrwt>
<totfact> 0.10914082E+01</totfact>
</mgrwt>
</event>
<event>
 6    1  0.3017327E-006  0.8654227E+03  0.7818608E-02  0.9469868E-01
         -2   -1    0    0    0  501 -0.00000000000E+00  0.00000000000E+00  0.20112291902E+03  0.20112291902E+03  0.00000000000E+00 0.  1.
          2   -1    0    0  501    0  0.00000000000E+00 -0.00000000000E+00 -0.93096850337E+03  0.93096850337E+03  0.00000000000E+00 0. -1.
         23    2    1    2    0    0  0.79634967035E+02 -0.26214382717E+03 -0.79881194833E+03  0.84957155856E+03  0.92791110667E+02 0.  0.
         13    1    3    3    0    0 -0.53770326790E+01 -0.13970272493E+03 -0.40879333128E+03  0.43203906251E+03  0.00000000000E+00 0. -1.
        -13    1    3    3    0    0  0.85011999714E+02 -0.12244110224E+03 -0.39001861705E+03  0.41753249605E+03  0.00000000000E+00 0.  1.
         22    1    1    2    0    0 -0.79634967035E+02  0.26214382717E+03  0.68966363977E+02  0.28251986383E+03  0.00000000000E+00 0.  1.
<mgrwt>
<rscale>  0 0.86542268E+03</rscale>
<asrwt>0</asrwt>
<pdfrwt beam="1">  1        2 0.14322593E+00 0.86542268E+03</pdfrwt>
<pdfrwt beam="2">  1       -2 0.30941987E-01 0.86542268E+03</pdfrwt>
<totfact> 0.27115022E+02</totfact>
</mgrwt>
</event>
<event>
 6    1  0.3017327E-006  0.3537613E+04  0.7818608E-02  0.8104933E-01
         -2   -1    0    0    0  501 -0.00000000000E+00  0.00000000000E+00  0.10640515780E+04  0.10640515780E+04  0.00000000000E+00 0.  1.
          2   -1    0    0  501    0  0.00000000000E+00 -0.00000000000E+00 -0.29403434998E+04  0.29403434998E+04  0.00000000000E+00 0. -1.
         23    2    1    2    0    0 -0.11832330304E+04 -0.13125406718E+04 -0.98309898673E+03  0.20243453213E+04  0.93203771043E+02 0.  0.
         11    1    3    3    0    0 -0.99481309181E+03 -0.11517321901E+04 -0.84661628133E+03  0.17415221081E+04  0.00000000000E+00 0. -1.
        -11    1    3    3    0    0 -0.18841993856E+03 -0.16080848168E+03 -0.13648270541E+03  0.28282321316E+03  0.00000000000E+00 0.  1.
         22    1    1    2    0    0  0.11832330304E+04  0.13125406718E+04 -0.89319293498E+03  0.19800497565E+04  0.00000000000E+00 0.  1.
<mgrwt>
<rscale>  0 0.35376134E+04</rscale>
<asrwt>0</asrwt>
<pdfrwt beam="1">  1        2 0.45236054E+00 0.35376134E+04</pdfrwt>
<pdfrwt beam="2">  1       -2 0.16370024E+00 0.35376134E+04</pdfrwt>
<totfact> 0.36746112E-01</totfact>
</mgrwt>
</event>
<event>
 6    1  0.3017327E-006  0.2449253E+04  0.7818608E-02  0.8421291E-01
          1   -1    0    0  501    0  0.00000000000E+00  0.00000000000E+00  0.15405505262E+04  0.15405505262E+04  0.00000000000E+00 0. -1.
         -1   -1    0    0    0  501 -0.00000000000E+00 -0.00000000000E+00 -0.97348933627E+03  0.97348933627E+03  0.00000000000E+00 0.  1.
         23    2    1    2    0    0 -0.21670763752E+03 -0.11259749304E+04  0.72068918240E+03  0.13571546892E+04  0.87716638396E+02 0.  0.
         13    1    3    3    0    0 -0.68496818419E+02 -0.44448322342E+03  0.32944417457E+03  0.55748597667E+03  0.00000000000E+00 0.  1.
        -13    1    3    3    0    0 -0.14821081910E+03 -0.68149170698E+03  0.39124500783E+03  0.79966871249E+03  0.00000000000E+00 0. -1.
         22    1    1    2    0    0  0.21670763752E+03  0.11259749304E+04 -0.15362799251E+03  0.11568851733E+04  0.00000000000E+00 0.  1.
<mgrwt>
<rscale>  0 0.24492525E+04</rscale>
<asrwt>0</asrwt>
<pdfrwt beam="1">  1        1 0.23700777E+00 0.24492525E+04</pdfrwt>
<pdfrwt beam="2">  1       -1 0.14976759E+00 0.24492525E+04</pdfrwt>
<totfact> 0.19171653E+00</totfact>
</mgrwt>
</event>
<event>
 6    1  0.3017327E-006  0.1712691E+04  0.7818608E-02  0.8754159E-01
         -2   -1    0    0    0  501 -0.00000000000E+00  0.00000000000E+00  0.79789879016E+03  0.79789879016E+03  0.00000000000E+00 0.  1.
          2   -1    0    0  501    0  0.00000000000E+00 -0.00000000000E+00 -0.91907390507E+03  0.91907390507E+03  0.00000000000E+00 0. -1.
         23    2    1    2    0    0  0.44567332223E+03  0.10376596784E+03  0.66213810529E+03  0.80979482558E+03  0.89155498027E+02 0.  0.
         11    1    3    3    0    0  0.40947704078E+03  0.72904457623E+02  0.56438227936E+03  0.70108049761E+03  0.00000000000E+00 0. -1.
        -11    1    3    3    0    0  0.36196281455E+02  0.30861510220E+02  0.97755825928E+02  0.10871432798E+03  0.00000000000E+00 0.  1.
         22    1    1    2    0    0 -0.44567332223E+03 -0.10376596784E+03 -0.78331322020E+03  0.90717786964E+03  0.00000000000E+00 0. -1.
<mgrwt>
<rscale>  0 0.17126914E+04</rscale>
<asrwt>0</asrwt>
<pdfrwt beam="1">  1        2 0.14139598E+00 0.17126914E+04</pdfrwt>
<pdfrwt beam="2">  1       -2 0.12275366E+00 0.17126914E+04</pdfrwt>
<totfact> 0.13578165E+01</totfact>
</mgrwt>
</event>
<event>
 6    1  0.3017327E-006  0.1662021E+04  0.7818608E-02  0.8783327E-01
         -2   -1    0    0    0  501 -0.00000000000E+00  0.00000000000E+00  0.77944672336E+03  0.77944672336E+03  0.00000000000E+00 0.  1.
          2   -1    0    0  501    0  0.00000000000E+00 -0.00000000000E+00 -0.88598530763E+03  0.88598530763E+03  0.00000000000E+00 0. -1.
         23    2    1    2    0    0 -0.79840950249E+03 -0.19926225971E+02 -0.27434481611E+03  0.84933539480E+03  0.90833620358E+02 0.  0.
         13    1    3    3    0    0 -0.19836609976E+03 -0.16730805474E+02 -0.10882054069E+03  0.22687207731E+03  0.00000000000E+00 0.  1.
        -13    1    3    3    0    0 -0.60004340273E+03 -0.31954204974E+01 -0.16552427542E+03  0.62246331749E+03  0.00000000000E+00 0. -1.
         22    1    1    2    0    0  0.79840950249E+03  0.19926225971E+02  0.16780623185E+03  0.81609663619E+03  0.00000000000E+00 0.  1.
<mgrwt>
<rscale>  0 0.16620209E+04</rscale>
<asrwt>0</asrwt>
<pdfrwt beam="1">  1        2 0.13630543E+00 0.16620209E+04</pdfrwt>
<pdfrwt beam="2">  1       -2 0.11991488E+00 0.16620209E+04</pdfrwt>
<totfact> 0.15215997E+01</totfact>
</mgrwt>
</event>
<event>
 6    1  0.3017327E-006  0.1942655E+04  0.7818608E-02  0.8633911E-01
          2   -1    0    0  501    0  0.00000000000E+00  0.00000000000E+00  0.21398700880E+04  0.21398700880E+04  0.00000000000E+00 0. -1.
         -2   -1    0    0    0  501 -0.00000000000E+00 -0.00000000000E+00 -0.44090375516E+03  0.44090375516E+03  0.00000000000E+00 0.  1.
         23    2    1    2    0    0  0.85691603892E+03 -0.92695628438E+02  0.14401960760E+04  0.16808518337E+04  0.90557011520E+02 0.  0.
         13    1    3    3    0    0  0.45868669327E+03 -0.90517136369E+02  0.81559839737E+03  0.94009977149E+03  0.00000000000E+00 0. -1.
        -13    1    3    3    0    0  0.39822934564E+03 -0.21784920686E+01  0.62459767861E+03  0.74075206222E+03  0.00000000000E+00 0.  1.
         22    1    1    2    0    0 -0.85691603892E+03  0.92695628438E+02  0.25877025687E+03  0.89992200947E+03  0.00000000000E+00 0.  1.
<mgrwt>
<rscale>  0 0.19426546E+04</rscale>
<asrwt>0</asrwt>
<pdfrwt beam="1">  1        2 0.32921078E+00 0.19426546E+04</pdfrwt>
<pdfrwt beam="2">  1       -2 0.67831348E-01 0.19426546E+04</pdfrwt>
<totfact> 0.10371827E+01</totfact>
</mgrwt>
</event>
<event>
 6    1  0.3017327E-006  0.2231497E+04  0.7818608E-02  0.8505431E-01
          2   -1    0    0  501    0  0.00000000000E+00  0.00000000000E+00  0.80892535271E+03  0.80892535271E+03  0.00000000000E+00 0. -1.
         -2   -1    0    0    0  501 -0.00000000000E+00 -0.00000000000E+00 -0.15389493202E+04  0.15389493202E+04  0.00000000000E+00 0.  1.
         23    2    1    2    0    0  0.83223896561E+03 -0.53501595200E+02 -0.11425476324E+04  0.14174662192E+04  0.91166186490E+02 0.  0.
         13    1    3    3    0    0  0.77977572350E+03 -0.66964951883E+02 -0.10910392580E+04  0.13427215446E+04  0.00000000000E+00 0. -1.
        -13    1    3    3    0    0  0.52463242111E+02  0.13463356684E+02 -0.51508374423E+02  0.74744674604E+02  0.00000000000E+00 0.  1.
         22    1    1    2    0    0 -0.83223896561E+03  0.53501595200E+02  0.41252366496E+03  0.93040845370E+03  0.00000000000E+00 0. -1.
<mgrwt>
<rscale>  0 0.22314974E+04</rscale>
<asrwt>0</asrwt>
<pdfrwt beam="1">  1        2 0.12445006E+00 0.22314974E+04</pdfrwt>
<pdfrwt beam="2">  1       -2 0.23676143E+00 0.22314974E+04</pdfrwt>
<totfact> 0.23999084E+00</totfact>
</mgrwt>
</event>
<event>
 6    1  0.3017327E-006  0.4511916E+04  0.7818608E-02  0.7908554E-01
          2   -1    0    0  501    0  0.00000000000E+00  0.00000000000E+00  0.31708585249E+04  0.31708585249E+04  0.00000000000E+00 0. -1.
         -2   -1    0    0    0  501 -0.00000000000E+00 -0.00000000000E+00 -0.16050370580E+04  0.16050370580E+04  0.00000000000E+00 0.  1.
         23    2    1    2    0    0 -0.76510479531E+03 -0.14827132101E+03  0.30230994820E+04  0.31233130749E+04  0.92651786603E+02 0.  0.
         13    1    3    3    0    0 -0.63146446527E+03 -0.95628071361E+02  0.23647009764E+04  0.24494290778E+04  0.00000000000E+00 0. -1.
        -13    1    3    3    0    0 -0.13364033004E+03 -0.52643249644E+02  0.65839850553E+03  0.67388399716E+03  0.00000000000E+00 0.  1.
         22    1    1    2    0    0  0.76510479531E+03  0.14827132101E+03 -0.14572780150E+04  0.16525825079E+04  0.00000000000E+00 0.  1.
<mgrwt>
<rscale>  0 0.45119155E+04</rscale>
<asrwt>0</asrwt>
<pdfrwt beam="1">  1        2 0.48782439E+00 0.45119155E+04</pdfrwt>
<pdfrwt beam="2">  1       -2 0.24692878E+00 0.45119155E+04</pdfrwt>
<totfact> 0.68770750E-02</totfact>
</mgrwt>
</event>
<event>
 6    1  0.3017327E-006  0.2737363E+04  0.7818608E-02  0.8322983E-01
          2   -1    0    0  501    0  0.00000000000E+00  0.00000000000E+00  0.23358400500E+04  0.23358400500E+04  0.00000000000E+00 0. -1.
         -2   -1    0    0    0  501 -0.00000000000E+00 -0.00000000000E+00 -0.80197631469E+03  0.80197631469E+03  0.00000000000E+00 0.  1.
         23    2    1    2    0    0 -0.87288177155E+02 -0.10724881681E+04 -0.20047842764E+03  0.10967889678E+04  0.70031017228E+02 0.  0.
         13    1    3    3    0    0 -0.50296110193E+02 -0.79435114204E+03 -0.12037821932E+03  0.80499338584E+03  0.00000000000E+00 0. -1.
        -13    1    3    3    0    0 -0.36992066962E+02 -0.27813702607E+03 -0.80100208320E+02  0.29179558198E+03  0.00000000000E+00 0.  1.
         22    1    1    2    0    0  0.87288177155E+02  0.10724881681E+04  0.17343421630E+04  0.20410273969E+04  0.00000000000E+00 0. -1.
<mgrwt>
<rscale>  0 0.27373625E+04</rscale>
<asrwt>0</asrwt>
<pdfrwt beam="1">  1        2 0.35936001E+00 0.27373625E+04</pdfrwt>
<pdfrwt beam="2">  1       -2 0.12338097E+00 0.27373625E+04</pdfrwt>
<totfact> 0.18740959E+00</totfact>
</mgrwt>
</event>
<event>
 6    1  0.3017327E-006  0.2447505E+04  0.7818608E-02  0.8421929E-01
          1   -1    0    0  501    0  0.00000000000E+00  0.00000000000E+00  0.10421299826E+04  0.10421299826E+04  0.00000000000E+00 0. -1.
         -1   -1    0    0    0  501 -0.00000000000E+00 -0.00000000000E+00 -0.14370284025E+04  0.14370284025E+04  0.00000000000E+00 0.  1.
         23    2    1    2    0    0 -0.42745881184E+03  0.30732028937E+03  0.91944269731E+03  0.10632984456E+04  0.89788165861E+02 0.  0.
         11    1    3    3    0    0 -0.40224012358E+03  0.27990776254E+03  0.88930021379E+03  0.10153818704E+04  0.00000000000E+00 0. -1.
        -11    1    3    3    0    0 -0.25218688269E+02  0.27412526829E+02  0.30142483527E+02  0.47916575194E+02  0.00000000000E+00 0.  1.
         22    1    1    2    0    0  0.42745881184E+03 -0.30732028937E+03 -0.13143411172E+04  0.14158599395E+04  0.00000000000E+00 0.  1.
<mgrwt>
<rscale>  0 0.24475052E+04</rscale>
<asrwt>0</asrwt>
<pdfrwt beam="1">  1        1 0.16032769E+00 0.24475052E+04</pdfrwt>
<pdfrwt beam="2">  1       -1 0.22108129E+00 0.24475052E+04</pdfrwt>
<totfact> 0.13554295E+00</totfact>
</mgrwt>
</event>
<event>
 6    1  0.3017327E-006  0.2024582E+04  0.7818608E-02  0.8595213E-01
         -2   -1    0    0    0  501 -0.00000000000E+00  0.00000000000E+00  0.21070550786E+03  0.21070550786E+03  0.00000000000E+00 0.  1.
          2   -1    0    0  501    0  0.00000000000E+00 -0.00000000000E+00 -0.48633438301E+04  0.48633438301E+04  0.00000000000E+00 0. -1.
         23    2    1    2    0    0  0.42827466506E+03  0.91090291155E+03 -0.21165309347E+04  0.23454958779E+04  0.92110872973E+02 0.  0.
         13    1    3    3    0    0  0.33614332043E+03  0.68034006590E+03 -0.16765566981E+04  0.18402981549E+04  0.00000000000E+00 0. -1.
        -13    1    3    3    0    0  0.92131344635E+02  0.23056284565E+03 -0.43997423659E+03  0.50519772300E+03  0.00000000000E+00 0.  1.
         22    1    1    2    0    0 -0.42827466506E+03 -0.91090291155E+03 -0.25361073876E+04  0.27285534600E+04  0.00000000000E+00 0. -1.
<mgrwt>
<rscale>  0 0.20245823E+04</rscale>
<asrwt>0</asrwt>
<pdfrwt beam="1">  1        2 0.74820667E+00 0.20245823E+04</pdfrwt>
<pdfrwt beam="2">  1       -2 0.32416235E-01 0.20245823E+04</pdfrwt>
<totfact> 0.42279216E-01</totfact>
</mgrwt>
</event>
<event>
 6    1  0.3017327E-006  0.1692003E+04  0.7818608E-02  0.8765939E-01
          2   -1    0    0  501    0  0.00000000000E+00  0.00000000000E+00  0.21613366992E+04  0.21613366992E+04  0.00000000000E+00 0. -1.
         -2   -1    0    0    0  501 -0.00000000000E+00 -0.00000000000E+00 -0.33114622636E+03  0.33114622636E+03  0.00000000000E+00 0.  1.
         23    2    1    2    0    0  0.36650367816E+03 -0.36354000549E+03 -0.64886247861E+02  0.52835409602E+03  0.91986650756E+02 0.  0.
         11    1    3    3    0    0  0.23401700435E+03 -0.23960321490E+03  0.21929915113E+01  0.33493054224E+03  0.00000000000E+00 0.  1.
        -11    1    3    3    0    0  0.13248667381E+03 -0.12393679059E+03 -0.67079239372E+02  0.19342355377E+03  0.00000000000E+00 0. -1.
         22    1    1    2    0    0 -0.36650367816E+03  0.36354000549E+03  0.18950767207E+04  0.19641288296E+04  0.00000000000E+00 0. -1.
<mgrwt>
<rscale>  0 0.16920029E+04</rscale>
<asrwt>0</asrwt>
<pdfrwt beam="1">  1        2 0.33251333E+00 0.16920029E+04</pdfrwt>
<pdfrwt beam="2">  1       -2 0.50945575E-01 0.16920029E+04</pdfrwt>
<totfact> 0.18833177E+01</totfact>
</mgrwt>
</event>
<event>
 6    1  0.3017327E-006  0.2082711E+04  0.7818608E-02  0.8568898E-01
          2   -1    0    0  501    0  0.00000000000E+00  0.00000000000E+00  0.25666741159E+04  0.25666741159E+04  0.00000000000E+00 0. -1.
         -2   -1    0    0    0  501 -0.00000000000E+00 -0.00000000000E+00 -0.42250065367E+03  0.42250065367E+03  0.00000000000E+00 0.  1.
         23    2    1    2    0    0  0.46681422606E+03  0.84050545480E+03  0.50411850119E+03  0.10880842361E+04  0.73667499034E+02 0.  0.
         13    1    3    3    0    0  0.16748316151E+03  0.36001784755E+03  0.18246243846E+03  0.43698512719E+03  0.00000000000E+00 0.  1.
        -13    1    3    3    0    0  0.29933106456E+03  0.48048760726E+03  0.32165606273E+03  0.65109910891E+03  0.00000000000E+00 0. -1.
         22    1    1    2    0    0 -0.46681422606E+03 -0.84050545480E+03  0.16400549611E+04  0.19010905335E+04  0.00000000000E+00 0. -1.
<mgrwt>
<rscale>  0 0.20827112E+04</rscale>
<asrwt>0</asrwt>
<pdfrwt beam="1">  1        2 0.39487293E+00 0.20827112E+04</pdfrwt>
<pdfrwt beam="2">  1       -2 0.65000102E-01 0.20827112E+04</pdfrwt>
<totfact> 0.64165130E+00</totfact>
</mgrwt>
</event>
<event>
 6    1  0.3017327E-006  0.1763805E+04  0.7818608E-02  0.8725788E-01
         -2   -1    0    0    0  501 -0.00000000000E+00  0.00000000000E+00  0.49256515851E+03  0.49256515851E+03  0.00000000000E+00 0.  1.
          2   -1    0    0  501    0  0.00000000000E+00 -0.00000000000E+00 -0.15789824012E+04  0.15789824012E+04  0.00000000000E+00 0. -1.
         23    2    1    2    0    0  0.63548938822E+03  0.44831643885E+03 -0.10277628052E+04  0.12916278620E+04  0.84686233893E+02 0.  0.
         11    1    3    3    0    0  0.22142725104E+03  0.17249948301E+03 -0.43566991953E+03  0.51826091684E+03  0.00000000000E+00 0.  1.
        -11    1    3    3    0    0  0.41406213718E+03  0.27581695584E+03 -0.59209288567E+03  0.77336694514E+03  0.00000000000E+00 0. -1.
         22    1    1    2    0    0 -0.63548938822E+03 -0.44831643885E+03 -0.58654437500E+02  0.77991969774E+03  0.00000000000E+00 0.  1.
<mgrwt>
<rscale>  0 0.17638047E+04</rscale>
<asrwt>0</asrwt>
<pdfrwt beam="1">  1        2 0.24292037E+00 0.17638047E+04</pdfrwt>
<pdfrwt beam="2">  1       -2 0.75779256E-01 0.17638047E+04</pdfrwt>
<totfact> 0.16929028E+01</totfact>
</mgrwt>
</event>
<event>
 6    1  0.3017327E-006  0.2154532E+04  0.7818608E-02  0.8537595E-01
          2   -1    0    0  501    0  0.00000000000E+00  0.00000000000E+00  0.27129514644E+04  0.27129514644E+04  0.00000000000E+00 0. -1.
         -2   -1    0    0    0  501 -0.00000000000E+00 -0.00000000000E+00 -0.42776369999E+03  0.42776369999E+03  0.00000000000E+00 0.  1.
         23    2    1    2    0    0  0.26934148761E+03  0.23890112042E+03  0.26217108167E+04  0.26479004457E+04  0.91600118567E+02 0.  0.
         11    1    3    3    0    0  0.54473902032E+02  0.98519718669E+02  0.67119678928E+03  0.68057231130E+03  0.00000000000E+00 0.  1.
        -11    1    3    3    0    0  0.21486758558E+03  0.14038140175E+03  0.19505140274E+04  0.19673281344E+04  0.00000000000E+00 0. -1.
         22    1    1    2    0    0 -0.26934148761E+03 -0.23890112042E+03 -0.33652305225E+03  0.49281471871E+03  0.00000000000E+00 0.  1.
<mgrwt>
<rscale>  0 0.21545321E+04</rscale>
<asrwt>0</asrwt>
<pdfrwt beam="1">  1        2 0.41737714E+00 0.21545321E+04</pdfrwt>
<pdfrwt beam="2">  1       -2 0.65809802E-01 0.21545321E+04</pdfrwt>
<totfact> 0.50904938E+00</totfact>
</mgrwt>
</event>
<event>
 6    1  0.3017327E-006  0.9114767E+03  0.7818608E-02  0.9411348E-01
         -2   -1    0    0    0  501 -0.00000000000E+00  0.00000000000E+00  0.15553746967E+03  0.15553746967E+03  0.00000000000E+00 0.  1.
          2   -1    0    0  501    0  0.00000000000E+00 -0.00000000000E+00 -0.13353531697E+04  0.13353531697E+04  0.00000000000E+00 0. -1.
         23    2    1    2    0    0  0.12475354614E+03  0.85015510368E+02 -0.12911532418E+04  0.13033083041E+04  0.93513408579E+02 0.  0.
         13    1    3    3    0    0  0.10855420411E+03  0.80814193292E+02 -0.76428069408E+03  0.77617003834E+03  0.00000000000E+00 0.  1.
        -13    1    3    3    0    0  0.16199342032E+02  0.42013170762E+01 -0.52687254768E+03  0.52713826577E+03  0.00000000000E+00 0. -1.
         22    1    1    2    0    0 -0.12475354614E+03 -0.85015510368E+02  0.11133754178E+03  0.18758233522E+03  0.00000000000E+00 0.  1.
<mgrwt>
<rscale>  0 0.91147672E+03</rscale>
<asrwt>0</asrwt>
<pdfrwt beam="1">  1        2 0.20543895E+00 0.91147672E+03</pdfrwt>
<pdfrwt beam="2">  1       -2 0.23928842E-01 0.91147672E+03</pdfrwt>
<totfact> 0.24510191E+02</totfact>
</mgrwt>
</event>
<event>
 6    1  0.3017327E-006  0.1344612E+04  0.7818608E-02  0.8994917E-01
          2   -1    0    0  501    0  0.00000000000E+00  0.00000000000E+00  0.22507534660E+03  0.22507534660E+03  0.00000000000E+00 0.  1.
         -2   -1    0    0    0  501 -0.00000000000E+00 -0.00000000000E+00 -0.20081952588E+04  0.20081952588E+04  0.00000000000E+00 0. -1.
         23    2    1    2    0    0 -0.42268598079E+03 -0.43055438594E+03 -0.13793269255E+04  0.15072614500E+04  0.72483057539E+02 0.  0.
         13    1    3    3    0    0 -0.12792090191E+03 -0.11067241040E+03 -0.31648561819E+03  0.35885273594E+03  0.00000000000E+00 0. -1.
        -13    1    3    3    0    0 -0.29476507888E+03 -0.31988197555E+03 -0.10628413073E+04  0.11484087141E+04  0.00000000000E+00 0.  1.
         22    1    1    2    0    0  0.42268598079E+03  0.43055438594E+03 -0.40379298668E+03  0.72600915539E+03  0.00000000000E+00 0.  1.
<mgrwt>
<rscale>  0 0.13446118E+04</rscale>
<asrwt>0</asrwt>
<pdfrwt beam="1">  1        2 0.34626975E-01 0.13446118E+04</pdfrwt>
<pdfrwt beam="2">  1       -2 0.30895313E+00 0.13446118E+04</pdfrwt>
<totfact> 0.41712698E+00</totfact>
</mgrwt>
</event>
<event>
 6    1  0.3017327E-006  0.4067760E+04  0.7818608E-02  0.7991015E-01
          1   -1    0    0  501    0  0.00000000000E+00  0.00000000000E+00  0.12640142620E+04  0.12640142620E+04  0.00000000000E+00 0. -1.
         -1   -1    0    0    0  501 -0.00000000000E+00 -0.00000000000E+00 -0.32726434115E+04  0.32726434115E+04  0.00000000000E+00 0.  1.
         23    2    1    2    0    0 -0.12556693217E+04  0.67820869002E+03  0.60968460471E+03  0.15546718606E+04  0.92826743173E+02 0.  0.
         13    1    3    3    0    0 -0.85073993554E+03  0.49321392159E+03  0.38560132360E+03  0.10562702264E+04  0.00000000000E+00 0. -1.
        -13    1    3    3    0    0 -0.40492938620E+03  0.18499476843E+03  0.22408328111E+03  0.49840163425E+03  0.00000000000E+00 0.  1.
         22    1    1    2    0    0  0.12556693217E+04 -0.67820869002E+03 -0.26183137542E+04  0.29819858129E+04  0.00000000000E+00 0.  1.
<mgrwt>
<rscale>  0 0.40677600E+04</rscale>
<asrwt>0</asrwt>
<pdfrwt beam="1">  1        1 0.19446374E+00 0.40677600E+04</pdfrwt>
<pdfrwt beam="2">  1       -1 0.50348359E+00 0.40677600E+04</pdfrwt>
<totfact> 0.10590381E-02</totfact>
</mgrwt>
</event>
<event>
 6    1  0.3017327E-006  0.2861219E+04  0.7818608E-02  0.8284510E-01
         -2   -1    0    0    0  501 -0.00000000000E+00  0.00000000000E+00  0.77519737804E+03  0.77519737804E+03  0.00000000000E+00 0.  1.
          2   -1    0    0  501    0  0.00000000000E+00 -0.00000000000E+00 -0.26401576372E+04  0.26401576372E+04  0.00000000000E+00 0. -1.
         23    2    1    2    0    0 -0.81280265402E+03  0.43888508159E+03  0.36815863228E+03  0.99872756101E+03  0.92992974874E+02 0.  0.
         11    1    3    3    0    0 -0.42257096295E+03  0.17588310119E+03  0.18870015951E+03  0.49508467378E+03  0.00000000000E+00 0. -1.
        -11    1    3    3    0    0 -0.39023169107E+03  0.26300198039E+03  0.17945847276E+03  0.50364288722E+03  0.00000000000E+00 0.  1.
         22    1    1    2    0    0  0.81280265402E+03 -0.43888508159E+03 -0.22331188915E+04  0.24166274542E+04  0.00000000000E+00 0. -1.
<mgrwt>
<rscale>  0 0.28612188E+04</rscale>
<asrwt>0</asrwt>
<pdfrwt beam="1">  1        2 0.40617811E+00 0.28612188E+04</pdfrwt>
<pdfrwt beam="2">  1       -2 0.11926113E+00 0.28612188E+04</pdfrwt>
<totfact> 0.13449970E+00</totfact>
</mgrwt>
</event>
<event>
 6    1  0.3017327E-006  0.2684739E+04  0.7818608E-02  0.8339974E-01
         -2   -1    0    0    0  501 -0.00000000000E+00  0.00000000000E+00  0.10379308966E+04  0.10379308966E+04  0.00000000000E+00 0.  1.
          2   -1    0    0  501    0  0.00000000000E+00 -0.00000000000E+00 -0.17361038810E+04  0.17361038810E+04  0.00000000000E+00 0. -1.
         23    2    1    2    0    0  0.92777830632E+03  0.85464320051E+03  0.12023337468E+03  0.12703803777E+04  0.90678849308E+02 0.  0.
         11    1    3    3    0    0  0.71830781318E+03  0.65666558318E+03  0.13069964195E+03  0.98196649587E+03  0.00000000000E+00 0.  1.
        -11    1    3    3    0    0  0.20947049314E+03  0.19797761733E+03 -0.10466267272E+02  0.28841388179E+03  0.00000000000E+00 0. -1.
         22    1    1    2    0    0 -0.92777830632E+03 -0.85464320051E+03 -0.81840635909E+03  0.15036543999E+04  0.00000000000E+00 0.  1.
<mgrwt>
<rscale>  0 0.26847390E+04</rscale>
<asrwt>0</asrwt>
<pdfrwt beam="1">  1        2 0.26709291E+00 0.26847390E+04</pdfrwt>
<pdfrwt beam="2">  1       -2 0.15968168E+00 0.26847390E+04</pdfrwt>
<totfact> 0.20834091E+00</totfact>
</mgrwt>
</event>
<event>
 6    1  0.3017327E-006  0.1150911E+04  0.7818608E-02  0.9156944E-01
          2   -1    0    0  501    0  0.00000000000E+00  0.00000000000E+00  0.43578522680E+04  0.43578522680E+04  0.00000000000E+00 0. -1.
         -2   -1    0    0    0  501 -0.00000000000E+00 -0.00000000000E+00 -0.75989032255E+02  0.75989032255E+02  0.00000000000E+00 0.  1.
         23    2    1    2    0    0 -0.41363824865E+03 -0.37719689979E+03  0.26006834255E+04  0.26619102473E+04  0.94009484666E+02 0.  0.
         13    1    3    3    0    0 -0.20138922757E+03 -0.24668736601E+03  0.14703707975E+04  0.15044608868E+04  0.00000000000E+00 0.  1.
        -13    1    3    3    0    0 -0.21224902108E+03 -0.13050953377E+03  0.11303126279E+04  0.11574493605E+04  0.00000000000E+00 0. -1.
         22    1    1    2    0    0  0.41363824865E+03  0.37719689979E+03  0.16811798103E+04  0.17719310530E+04  0.00000000000E+00 0.  1.
<mgrwt>
<rscale>  0 0.11509109E+04</rscale>
<asrwt>0</asrwt>
<pdfrwt beam="1">  1        2 0.67043862E+00 0.11509109E+04</pdfrwt>
<pdfrwt beam="2">  1       -2 0.11690624E-01 0.11509109E+04</pdfrwt>
<totfact> 0.93732103E+00</totfact>
</mgrwt>
</event>
<event>
 6    1  0.3017327E-006  0.2900559E+04  0.7818608E-02  0.8272711E-01
         -2   -1    0    0    0  501 -0.00000000000E+00  0.00000000000E+00  0.88888251772E+03  0.88888251772E+03  0.00000000000E+00 0.  1.
          2   -1    0    0  501    0  0.00000000000E+00 -0.00000000000E+00 -0.23662415642E+04  0.23662415642E+04  0.00000000000E+00 0. -1.
         23    2    1    2    0    0 -0.82294574619E+03  0.10114424737E+04 -0.30655253766E+02  0.13075082465E+04  0.91555946397E+02 0.  0.
         13    1    3    3    0    0 -0.27571793335E+03  0.39958525510E+03  0.10719655732E+02  0.48559619632E+03  0.00000000000E+00 0. -1.
        -13    1    3    3    0    0 -0.54722781284E+03  0.61185721856E+03 -0.41374909498E+02  0.82191205015E+03  0.00000000000E+00 0.  1.
         22    1    1    2    0    0  0.82294574619E+03 -0.10114424737E+04 -0.14467037927E+04  0.19476158355E+04  0.00000000000E+00 0. -1.
<mgrwt>
<rscale>  0 0.29005591E+04</rscale>
<asrwt>0</asrwt>
<pdfrwt beam="1">  1        2 0.36403716E+00 0.29005591E+04</pdfrwt>
<pdfrwt beam="2">  1       -2 0.13675116E+00 0.29005591E+04</pdfrwt>
<totfact> 0.13689973E+00</totfact>
</mgrwt>
</event>
<event>
 6    1  0.3017327E-006  0.9096683E+03  0.7818608E-02  0.9413576E-01
         -2   -1    0    0    0  501 -0.00000000000E+00  0.00000000000E+00  0.20163509973E+03  0.20163509973E+03  0.00000000000E+00 0.  1.
          2   -1    0    0  501    0  0.00000000000E+00 -0.00000000000E+00 -0.10259825889E+04  0.10259825889E+04  0.00000000000E+00 0. -1.
         23    2    1    2    0    0 -0.27052915783E+02  0.22329055970E+03 -0.94338935721E+03  0.97313487847E+03  0.80109163588E+02 0.  0.
         11    1    3    3    0    0  0.12131679733E+02  0.11637696096E+03 -0.60171368516E+03  0.61298461123E+03  0.00000000000E+00 0. -1.
        -11    1    3    3    0    0 -0.39184595516E+02  0.10691359874E+03 -0.34167567206E+03  0.36015026724E+03  0.00000000000E+00 0.  1.
         22    1    1    2    0    0  0.27052915783E+02 -0.22329055970E+03  0.11904186807E+03  0.25448281014E+03  0.00000000000E+00 0.  1.
<mgrwt>
<rscale>  0 0.90966829E+03</rscale>
<asrwt>0</asrwt>
<pdfrwt beam="1">  1        2 0.15784347E+00 0.90966829E+03</pdfrwt>
<pdfrwt beam="2">  1       -2 0.31020785E-01 0.90966829E+03</pdfrwt>
<totfact> 0.23368116E+02</totfact>
</mgrwt>
</event>
<event>
 6    1  0.3017327E-006  0.2113246E+04  0.7818608E-02  0.8555431E-01
         -2   -1    0    0    0  501 -0.00000000000E+00  0.00000000000E+00  0.62777731827E+03  0.62777731827E+03  0.00000000000E+00 0.  1.
          2   -1    0    0  501    0  0.00000000000E+00 -0.00000000000E+00 -0.17784207327E+04  0.17784207327E+04  0.00000000000E+00 0. -1.
         23    2    1    2    0    0 -0.78739736323E+03  0.62485449280E+03 -0.93955073403E+03  0.13790671613E+04  0.92913447190E+02 0.  0.
         11    1    3    3    0    0 -0.45645443806E+03  0.36468946317E+03 -0.48286782035E+03  0.75796463671E+03  0.00000000000E+00 0. -1.
        -11    1    3    3    0    0 -0.33094292517E+03  0.26016502963E+03 -0.45668291368E+03  0.62110252455E+03  0.00000000000E+00 0.  1.
         22    1    1    2    0    0  0.78739736323E+03 -0.62485449280E+03 -0.21109268035E+03  0.10271308897E+04  0.00000000000E+00 0.  1.
<mgrwt>
<rscale>  0 0.21132460E+04</rscale>
<asrwt>0</asrwt>
<pdfrwt beam="1">  1        2 0.27360319E+00 0.21132460E+04</pdfrwt>
<pdfrwt beam="2">  1       -2 0.96581125E-01 0.21132460E+04</pdfrwt>
<totfact> 0.73215108E+00</totfact>
</mgrwt>
</event>
<event>
 6    1  0.3017327E-006  0.2183619E+04  0.7818608E-02  0.8525277E-01
          2   -1    0    0  501    0  0.00000000000E+00  0.00000000000E+00  0.39407015858E+03  0.39407015858E+03  0.00000000000E+00 0. -1.
         -2   -1    0    0    0  501 -0.00000000000E+00 -0.00000000000E+00 -0.30249641842E+04  0.30249641842E+04  0.00000000000E+00 0.  1.
         23    2    1    2    0    0  0.23947689948E+03 -0.60529554490E+03 -0.26865597367E+04  0.27657116404E+04  0.88463420376E+02 0.  0.
         13    1    3    3    0    0  0.11450322754E+03 -0.22657993633E+03 -0.12021675850E+04  0.12286807393E+04  0.00000000000E+00 0.  1.
        -13    1    3    3    0    0  0.12497367193E+03 -0.37871560857E+03 -0.14843921517E+04  0.15370309011E+04  0.00000000000E+00 0. -1.
         22    1    1    2    0    0 -0.23947689948E+03  0.60529554490E+03  0.55665711106E+02  0.65332270238E+03  0.00000000000E+00 0. -1.
<mgrwt>
<rscale>  0 0.21836191E+04</rscale>
<asrwt>0</asrwt>
<pdfrwt beam="1">  1        2 0.60626178E-01 0.21836191E+04</pdfrwt>
<pdfrwt beam="2">  1       -2 0.46537911E+00 0.21836191E+04</pdfrwt>
<totfact> 0.20334771E-01</totfact>
</mgrwt>
</event>
<event>
 6    1  0.3017327E-006  0.3243081E+04  0.7818608E-02  0.8177531E-01
          2   -1    0    0  501    0  0.00000000000E+00  0.00000000000E+00  0.33973391815E+04  0.33973391815E+04  0.00000000000E+00 0. -1.
         -2   -1    0    0    0  501 -0.00000000000E+00 -0.00000000000E+00 -0.77395678112E+03  0.77395678112E+03  0.00000000000E+00 0.  1.
         23    2    1    2    0    0 -0.96611345061E+03  0.66093428194E+03 -0.12811758968E+03  0.11811518992E+04  0.92175743968E+02 0.  0.
         11    1    3    3    0    0 -0.68335908427E+03  0.47345382352E+03 -0.13262506445E+03  0.84185958970E+03  0.00000000000E+00 0.  1.
        -11    1    3    3    0    0 -0.28275436634E+03  0.18748045842E+03  0.45074747649E+01  0.33929230953E+03  0.00000000000E+00 0. -1.
         22    1    1    2    0    0  0.96611345061E+03 -0.66093428194E+03  0.27514999901E+04  0.29901440634E+04  0.00000000000E+00 0. -1.
<mgrwt>
<rscale>  0 0.32430811E+04</rscale>
<asrwt>0</asrwt>
<pdfrwt beam="1">  1        2 0.52266756E+00 0.32430811E+04</pdfrwt>
<pdfrwt beam="2">  1       -2 0.11907028E+00 0.32430811E+04</pdfrwt>
<totfact> 0.43437074E-01</totfact>
</mgrwt>
</event>
<event>
 6    1  0.3017327E-006  0.3363004E+04  0.7818608E-02  0.8147047E-01
          2   -1    0    0  501    0  0.00000000000E+00  0.00000000000E+00  0.24513204597E+04  0.24513204597E+04  0.00000000000E+00 0. -1.
         -2   -1    0    0    0  501 -0.00000000000E+00 -0.00000000000E+00 -0.11534390558E+04  0.11534390558E+04  0.00000000000E+00 0.  1.
         23    2    1    2    0    0  0.81140927398E+03 -0.14308043763E+04  0.28156388872E+03  0.16712426511E+04  0.90485369489E+02 0.  0.
         11    1    3    3    0    0  0.25063899789E+03 -0.44981821528E+03  0.13069949677E+03  0.53126141636E+03  0.00000000000E+00 0.  1.
        -11    1    3    3    0    0  0.56077027609E+03 -0.98098616104E+03  0.15086439194E+03  0.11399812347E+04  0.00000000000E+00 0. -1.
         22    1    1    2    0    0 -0.81140927398E+03  0.14308043763E+04  0.10163175152E+04  0.19335168644E+04  0.00000000000E+00 0.  1.
<mgrwt>
<rscale>  0 0.33630039E+04</rscale>
<asrwt>0</asrwt>
<pdfrwt beam="1">  1        2 0.37712622E+00 0.33630039E+04</pdfrwt>
<pdfrwt beam="2">  1       -2 0.17745216E+00 0.33630039E+04</pdfrwt>
<totfact> 0.58283851E-01</totfact>
</mgrwt>
</event>
<event>
 6    1  0.3017327E-006  0.1638303E+04  0.7818608E-02  0.8797357E-01
         -2   -1    0    0    0  501 -0.00000000000E+00  0.00000000000E+00  0.54844190852E+03  0.54844190852E+03  0.00000000000E+00 0.  1.
          2   -1    0    0  501    0  0.00000000000E+00 -0.00000000000E+00 -0.12234825896E+04  0.12234825896E+04  0.00000000000E+00 0. -1.
         23    2    1    2    0    0  0.29759526203E+03 -0.25181011825E+03  0.43762706569E+03  0.59294155069E+03  0.89949754159E+02 0.  0.
         13    1    3    3    0    0  0.47867005267E+02 -0.14973568600E+02  0.26353808220E+02  0.56656695611E+02  0.00000000000E+00 0.  1.
        -13    1    3    3    0    0  0.24972825676E+03 -0.23683654965E+03  0.41127325747E+03  0.53628485508E+03  0.00000000000E+00 0. -1.
         22    1    1    2    0    0 -0.29759526203E+03  0.25181011825E+03 -0.11126677467E+04  0.11789829474E+04  0.00000000000E+00 0. -1.
<mgrwt>
<rscale>  0 0.16383029E+04</rscale>
<asrwt>0</asrwt>
<pdfrwt beam="1">  1        2 0.18822809E+00 0.16383029E+04</pdfrwt>
<pdfrwt beam="2">  1       -2 0.84375680E-01 0.16383029E+04</pdfrwt>
<totfact> 0.21488440E+01</totfact>
</mgrwt>
</event>
<event>
 6    1  0.3017327E-006  0.3012109E+04  0.7818608E-02  0.8240281E-01
         -2   -1    0    0    0  501 -0.00000000000E+00  0.00000000000E+00  0.10806489171E+04  0.10806489171E+04  0.00000000000E+00 0.  1.
          2   -1    0    0  501    0  0.00000000000E+00 -0.00000000000E+00 -0.20989243268E+04  0.20989243268E+04  0.00000000000E+00 0. -1.
         23    2    1    2    0    0 -0.97287701589E+03  0.90551809626E+03 -0.12542585361E+04  0.18297063073E+04  0.90597929029E+02 0.  0.
         11    1    3    3    0    0 -0.83604479688E+03  0.73337912568E+03 -0.10371100103E+04  0.15206620328E+04  0.00000000000E+00 0.  1.
        -11    1    3    3    0    0 -0.13683221900E+03  0.17213897058E+03 -0.21714852580E+03  0.30904427451E+03  0.00000000000E+00 0. -1.
         22    1    1    2    0    0  0.97287701589E+03 -0.90551809626E+03  0.23598312637E+03  0.13498669366E+04  0.00000000000E+00 0.  1.
<mgrwt>
<rscale>  0 0.30121091E+04</rscale>
<asrwt>0</asrwt>
<pdfrwt beam="1">  1        2 0.32291143E+00 0.30121091E+04</pdfrwt>
<pdfrwt beam="2">  1       -2 0.16625368E+00 0.30121091E+04</pdfrwt>
<totfact> 0.11409140E+00</totfact>
</mgrwt>
</event>
<event>
 6    1  0.3017327E-006  0.1317575E+04  0.7818608E-02  0.9015743E-01
          2   -1    0    0  501    0  0.00000000000E+00  0.00000000000E+00  0.13183504578E+04  0.13183504578E+04  0.00000000000E+00 0. -1.
         -2   -1    0    0    0  501 -0.00000000000E+00 -0.00000000000E+00 -0.32920012005E+03  0.32920012005E+03  0.00000000000E+00 0.  1.
         23    2    1    2    0    0  0.17614750120E+03 -0.62967115498E+03  0.55437919781E+03  0.86235018958E+03  0.93796849126E+02 0.  0.
         13    1    3    3    0    0  0.10256504244E+03 -0.26991488699E+03  0.29487484443E+03  0.41270426218E+03  0.00000000000E+00 0. -1.
        -13    1    3    3    0    0  0.73582458762E+02 -0.35975626799E+03  0.25950435338E+03  0.44964592740E+03  0.00000000000E+00 0.  1.
         22    1    1    2    0    0 -0.17614750120E+03  0.62967115498E+03  0.43477113992E+03  0.78520038825E+03  0.00000000000E+00 0.  1.
<mgrwt>
<rscale>  0 0.13175752E+04</rscale>
<asrwt>0</asrwt>
<pdfrwt beam="1">  1        2 0.20282314E+00 0.13175752E+04</pdfrwt>
<pdfrwt beam="2">  1       -2 0.50646173E-01 0.13175752E+04</pdfrwt>
<totfact> 0.58191078E+01</totfact>
</mgrwt>
</event>
<event>
 6    1  0.3017327E-006  0.1736161E+04  0.7818608E-02  0.8741005E-01
          2   -1    0    0  501    0  0.00000000000E+00  0.00000000000E+00  0.70055751758E+03  0.70055751758E+03  0.00000000000E+00 0. -1.
         -2   -1    0    0    0  501 -0.00000000000E+00 -0.00000000000E+00 -0.10756631574E+04  0.10756631574E+04  0.00000000000E+00 0.  1.
         23    2    1    2    0    0 -0.42343705988E+03 -0.73534880928E+03 -0.12144505746E+02  0.85330269385E+03  0.89113317352E+02 0.  0.
         11    1    3    3    0    0 -0.10916828419E+02 -0.56799122367E+02  0.10930955067E+02  0.58862579141E+02  0.00000000000E+00 0.  1.
        -11    1    3    3    0    0 -0.41252023146E+03 -0.67854968692E+03 -0.23075460813E+02  0.79444011471E+03  0.00000000000E+00 0. -1.
         22    1    1    2    0    0  0.42343705988E+03  0.73534880928E+03 -0.36296113403E+03  0.92291798108E+03  0.00000000000E+00 0. -1.
<mgrwt>
<rscale>  0 0.17361612E+04</rscale>
<asrwt>0</asrwt>
<pdfrwt beam="1">  1        2 0.10777808E+00 0.17361612E+04</pdfrwt>
<pdfrwt beam="2">  1       -2 0.16548664E+00 0.17361612E+04</pdfrwt>
<totfact> 0.89129940E+00</totfact>
</mgrwt>
</event>
<event>
 6    1  0.3017327E-006  0.6642297E+04  0.7818608E-02  0.7615494E-01
         -1   -1    0    0    0  501 -0.00000000000E+00  0.00000000000E+00  0.25324209681E+04  0.25324209681E+04  0.00000000000E+00 0.  1.
          1   -1    0    0  501    0  0.00000000000E+00 -0.00000000000E+00 -0.43555265660E+04  0.43555265660E+04  0.00000000000E+00 0. -1.
         23    2    1    2    0    0 -0.13468081658E+03  0.22044832506E+04 -0.34829084590E+04  0.41251896978E+04  0.93023567996E+02 0.  0.
         11    1    3    3    0    0 -0.10537976761E+03  0.16117337061E+04 -0.26215343243E+04  0.30791610299E+04  0.00000000000E+00 0. -1.
        -11    1    3    3    0    0 -0.29301048972E+02  0.59274954453E+03 -0.86137413472E+03  0.10460286679E+04  0.00000000000E+00 0.  1.
         22    1    1    2    0    0  0.13468081658E+03 -0.22044832506E+04  0.16598028611E+04  0.27627578364E+04  0.00000000000E+00 0.  1.
<mgrwt>
<rscale>  0 0.66422968E+04</rscale>
<asrwt>0</asrwt>
<pdfrwt beam="1">  1        1 0.67008100E+00 0.66422968E+04</pdfrwt>
<pdfrwt beam="2">  1       -1 0.38960323E+00 0.66422968E+04</pdfrwt>
<totfact> 0.23935720E-04</totfact>
</mgrwt>
</event>
<event>
 6    1  0.3017327E-006  0.4263682E+04  0.7818608E-02  0.7953368E-01
          1   -1    0    0  501    0  0.00000000000E+00  0.00000000000E+00  0.19555740485E+04  0.19555740485E+04  0.00000000000E+00 0.  1.
         -1   -1    0    0    0  501 -0.00000000000E+00 -0.00000000000E+00 -0.23239957960E+04  0.23239957960E+04  0.00000000000E+00 0. -1.
         23    2    1    2    0    0 -0.14437964373E+02 -0.13921787978E+04 -0.18035089767E+04  0.22801085133E+04  0.88769044232E+02 0.  0.
         13    1    3    3    0    0 -0.29041925530E+02 -0.96438010714E+03 -0.13074424858E+04  0.16248933129E+04  0.00000000000E+00 0. -1.
        -13    1    3    3    0    0  0.14603961156E+02 -0.42779869067E+03 -0.49606649094E+03  0.65521520041E+03  0.00000000000E+00 0.  1.
         22    1    1    2    0    0  0.14437964373E+02  0.13921787978E+04  0.14350872292E+04  0.19994613313E+04  0.00000000000E+00 0.  1.
<mgrwt>
<rscale>  0 0.42636819E+04</rscale>
<asrwt>0</asrwt>
<pdfrwt beam="1">  1        1 0.30085754E+00 0.42636819E+04</pdfrwt>
<pdfrwt beam="2">  1       -1 0.35753782E+00 0.42636819E+04</pdfrwt>
<totfact> 0.33866652E-02</totfact>
</mgrwt>
</event>
<event>
 6    1  0.3017327E-006  0.1103754E+04  0.7818608E-02  0.9201541E-01
          2   -1    0    0  501    0  0.00000000000E+00  0.00000000000E+00  0.65143659140E+03  0.65143659140E+03  0.00000000000E+00 0. -1.
         -2   -1    0    0    0  501 -0.00000000000E+00 -0.00000000000E+00 -0.46753314622E+03  0.46753314622E+03  0.00000000000E+00 0.  1.
         23    2    1    2    0    0 -0.12322453901E+03  0.51948965365E+03 -0.34001905699E+02  0.54230993392E+03  0.88826502608E+02 0.  0.
         13    1    3    3    0    0 -0.20891915306E+02  0.21062252000E+02 -0.14727966230E+02  0.33121044273E+02  0.00000000000E+00 0.  1.
        -13    1    3    3    0    0 -0.10233262370E+03  0.49842740165E+03 -0.19273939469E+02  0.50918888964E+03  0.00000000000E+00 0. -1.
         22    1    1    2    0    0  0.12322453901E+03 -0.51948965365E+03  0.21790535088E+03  0.57665980371E+03  0.00000000000E+00 0. -1.
<mgrwt>
<rscale>  0 0.11037540E+04</rscale>
<asrwt>0</asrwt>
<pdfrwt beam="1">  1        2 0.10022101E+00 0.11037540E+04</pdfrwt>
<pdfrwt beam="2">  1       -2 0.71928176E-01 0.11037540E+04</pdfrwt>
<totfact> 0.78002600E+01</totfact>
</mgrwt>
</event>
<event>
 6    1  0.3017327E-006  0.8679999E+03  0.7818608E-02  0.9466491E-01
          2   -1    0    0  501    0  0.00000000000E+00  0.00000000000E+00  0.15857322556E+04  0.15857322556E+04  0.00000000000E+00 0. -1.
         -2   -1    0    0    0  501 -0.00000000000E+00 -0.00000000000E+00 -0.11878170197E+03  0.11878170197E+03  0.00000000000E+00 0.  1.
         23    2    1    2    0    0 -0.23661889156E+03 -0.24315860813E+03  0.12577507911E+04  0.13059174834E+04  0.91481213317E+02 0.  0.
         11    1    3    3    0    0 -0.12970783416E+03 -0.69160450160E+02  0.50539012795E+03  0.52633304242E+03  0.00000000000E+00 0.  1.
        -11    1    3    3    0    0 -0.10691105740E+03 -0.17399815797E+03  0.75236066319E+03  0.77958444103E+03  0.00000000000E+00 0. -1.
         22    1    1    2    0    0  0.23661889156E+03  0.24315860813E+03  0.20919976246E+03  0.39859647410E+03  0.00000000000E+00 0.  1.
<mgrwt>
<rscale>  0 0.86799995E+03</rscale>
<asrwt>0</asrwt>
<pdfrwt beam="1">  1        2 0.24395879E+00 0.86799995E+03</pdfrwt>
<pdfrwt beam="2">  1       -2 0.18274109E-01 0.86799995E+03</pdfrwt>
<totfact> 0.28575775E+02</totfact>
</mgrwt>
</event>
<event>
 6    1  0.3017327E-006  0.2053049E+04  0.7818608E-02  0.8582212E-01
         -1   -1    0    0    0  501 -0.00000000000E+00  0.00000000000E+00  0.75118865091E+03  0.75118865091E+03  0.00000000000E+00 0.  1.
          1   -1    0    0  501    0  0.00000000000E+00 -0.00000000000E+00 -0.14027800997E+04  0.14027800997E+04  0.00000000000E+00 0. -1.
         23    2    1    2    0    0  0.29941358526E+03 -0.97740037594E+03 -0.25556120141E+03  0.10577023839E+04  0.91993561529E+02 0.  0.
         11    1    3    3    0    0  0.83315936556E+02 -0.41927055342E+03 -0.92097244869E+02  0.43727708008E+03  0.00000000000E+00 0. -1.
        -11    1    3    3    0    0  0.21609764871E+03 -0.55812982252E+03 -0.16346395654E+03  0.62042530384E+03  0.00000000000E+00 0.  1.
         22    1    1    2    0    0 -0.29941358526E+03  0.97740037594E+03 -0.39603024739E+03  0.10962663667E+04  0.00000000000E+00 0. -1.
<mgrwt>
<rscale>  0 0.20530489E+04</rscale>
<asrwt>0</asrwt>
<pdfrwt beam="1">  1        1 0.21581232E+00 0.20530489E+04</pdfrwt>
<pdfrwt beam="2">  1       -1 0.11556749E+00 0.20530489E+04</pdfrwt>
<totfact> 0.47908765E+00</totfact>
</mgrwt>
</event>
<event>
 6    1  0.3017327E-006  0.2243820E+04  0.7818608E-02  0.8500408E-01
          2   -1    0    0  501    0  0.00000000000E+00  0.00000000000E+00  0.82500315868E+03  0.82500315868E+03  0.00000000000E+00 0. -1.
         -2   -1    0    0    0  501 -0.00000000000E+00 -0.00000000000E+00 -0.15256690544E+04  0.15256690544E+04  0.00000000000E+00 0.  1.
         23    2    1    2    0    0 -0.10155326000E+04  0.42866011020E+03 -0.14262914268E+03  0.11151719219E+04  0.90605690696E+02 0.  0.
         11    1    3    3    0    0 -0.83826710911E+03  0.35494632285E+03 -0.82759568290E+02  0.91407208932E+03  0.00000000000E+00 0. -1.
        -11    1    3    3    0    0 -0.17726549093E+03  0.73713787353E+02 -0.59869574390E+02  0.20109983257E+03  0.00000000000E+00 0.  1.
         22    1    1    2    0    0  0.10155326000E+04 -0.42866011020E+03 -0.55803675308E+03  0.12355002912E+04  0.00000000000E+00 0. -1.
<mgrwt>
<rscale>  0 0.22438198E+04</rscale>
<asrwt>0</asrwt>
<pdfrwt beam="1">  1        2 0.12692356E+00 0.22438198E+04</pdfrwt>
<pdfrwt beam="2">  1       -2 0.23471831E+00 0.22438198E+04</pdfrwt>
<totfact> 0.24042427E+00</totfact>
</mgrwt>
</event>
<event>
 6    1  0.3017327E-006  0.3472406E+04  0.7818608E-02  0.8120361E-01
          2   -1    0    0  501    0  0.00000000000E+00  0.00000000000E+00  0.25959445079E+04  0.25959445079E+04  0.00000000000E+00 0. -1.
         -2   -1    0    0    0  501 -0.00000000000E+00 -0.00000000000E+00 -0.11611960760E+04  0.11611960760E+04  0.00000000000E+00 0.  1.
         23    2    1    2    0    0  0.56679022204E+03 -0.44674297258E+03 -0.98932170910E+03  0.12279220311E+04  0.90579417727E+02 0.  0.
         11    1    3    3    0    0  0.33626495040E+03 -0.31892918434E+03 -0.64766144737E+03  0.79640146403E+03  0.00000000000E+00 0. -1.
        -11    1    3    3    0    0  0.23052527164E+03 -0.12781378824E+03 -0.34166026173E+03  0.43152056703E+03  0.00000000000E+00 0.  1.
         22    1    1    2    0    0 -0.56679022204E+03  0.44674297258E+03  0.24240701410E+04  0.25292185528E+04  0.00000000000E+00 0. -1.
<mgrwt>
<rscale>  0 0.34724058E+04</rscale>
<asrwt>0</asrwt>
<pdfrwt beam="1">  1        2 0.39937608E+00 0.34724058E+04</pdfrwt>
<pdfrwt beam="2">  1       -2 0.17864555E+00 0.34724058E+04</pdfrwt>
<totfact> 0.46684867E-01</totfact>
</mgrwt>
</event>
<event>
 6    1  0.3017327E-006  0.3774483E+04  0.7818608E-02  0.8051653E-01
          1   -1    0    0  501    0  0.00000000000E+00  0.00000000000E+00  0.25009638253E+04  0.25009638253E+04  0.00000000000E+00 0. -1.
         -1   -1    0    0    0  501 -0.00000000000E+00 -0.00000000000E+00 -0.14241231278E+04  0.14241231278E+04  0.00000000000E+00 0.  1.
         23    2    1    2    0    0  0.17893795315E+04  0.50787843676E+03  0.21372785760E+03  0.18745301047E+04  0.91454370976E+02 0.  0.
         13    1    3    3    0    0  0.67497103574E+03  0.17301593256E+03  0.12087416245E+03  0.70719938855E+03  0.00000000000E+00 0.  1.
        -13    1    3    3    0    0  0.11144084958E+04  0.33486250420E+03  0.92853695155E+02  0.11673307161E+04  0.00000000000E+00 0. -1.
         22    1    1    2    0    0 -0.17893795315E+04 -0.50787843676E+03  0.86311283983E+03  0.20505568484E+04  0.00000000000E+00 0. -1.
<mgrwt>
<rscale>  0 0.37744830E+04</rscale>
<asrwt>0</asrwt>
<pdfrwt beam="1">  1        1 0.38476367E+00 0.37744830E+04</pdfrwt>
<pdfrwt beam="2">  1       -1 0.21909587E+00 0.37744830E+04</pdfrwt>
<totfact> 0.12035937E-01</totfact>
</mgrwt>
</event>
<event>
 6    1  0.3017327E-006  0.6308385E+04  0.7818608E-02  0.7653299E-01
         -2   -1    0    0    0  501 -0.00000000000E+00  0.00000000000E+00  0.24824416098E+04  0.24824416098E+04  0.00000000000E+00 0. -1.
          2   -1    0    0  501    0  0.00000000000E+00 -0.00000000000E+00 -0.40077201074E+04  0.40077201074E+04  0.00000000000E+00 0.  1.
         23    2    1    2    0    0  0.24586941437E+04 -0.99949047033E+03 -0.25149981227E+04  0.36575475485E+04  0.90996813308E+02 0.  0.
         11    1    3    3    0    0  0.52531241282E+03 -0.24810804964E+03 -0.52331204093E+03  0.78189911595E+03  0.00000000000E+00 0. -1.
        -11    1    3    3    0    0  0.19333817309E+04 -0.75138242070E+03 -0.19916860818E+04  0.28756484326E+04  0.00000000000E+00 0.  1.
         22    1    1    2    0    0 -0.24586941437E+04  0.99949047033E+03  0.98971962511E+03  0.28326141687E+04  0.00000000000E+00 0. -1.
<mgrwt>
<rscale>  0 0.63083853E+04</rscale>
<asrwt>0</asrwt>
<pdfrwt beam="1">  1        2 0.61657231E+00 0.63083853E+04</pdfrwt>
<pdfrwt beam="2">  1       -2 0.38191410E+00 0.63083853E+04</pdfrwt>
<totfact> 0.21464881E-03</totfact>
</mgrwt>
</event>
<event>
 6    1  0.3017327E-006  0.1457918E+04  0.7818608E-02  0.8912930E-01
          2   -1    0    0  501    0  0.00000000000E+00  0.00000000000E+00  0.57508023581E+03  0.57508023581E+03  0.00000000000E+00 0. -1.
         -2   -1    0    0    0  501 -0.00000000000E+00 -0.00000000000E+00 -0.92401182503E+03  0.92401182503E+03  0.00000000000E+00 0.  1.
         23    2    1    2    0    0  0.17270622639E+03 -0.55623282621E+03 -0.62108390324E+03  0.85621627220E+03  0.90214701256E+02 0.  0.
         13    1    3    3    0    0  0.98596511570E+02 -0.30215013870E+03 -0.40315024944E+03  0.51336741427E+03  0.00000000000E+00 0. -1.
        -13    1    3    3    0    0  0.74109714823E+02 -0.25408268751E+03 -0.21793365380E+03  0.34284885793E+03  0.00000000000E+00 0.  1.
         22    1    1    2    0    0 -0.17270622639E+03  0.55623282621E+03  0.27215231402E+03  0.64287578864E+03  0.00000000000E+00 0. -1.
<mgrwt>
<rscale>  0 0.14579176E+04</rscale>
<asrwt>0</asrwt>
<pdfrwt beam="1">  1        2 0.88473883E-01 0.14579176E+04</pdfrwt>
<pdfrwt beam="2">  1       -2 0.14215566E+00 0.14579176E+04</pdfrwt>
<totfact> 0.17449564E+01</totfact>
</mgrwt>
</event>
<event>
 6    1  0.3017327E-006  0.2398974E+04  0.7818608E-02  0.8439888E-01
          2   -1    0    0  501    0  0.00000000000E+00  0.00000000000E+00  0.18100997207E+04  0.18100997207E+04  0.00000000000E+00 0. -1.
         -2   -1    0    0    0  501 -0.00000000000E+00 -0.00000000000E+00 -0.79485607339E+03  0.79485607339E+03  0.00000000000E+00 0.  1.
         23    2    1    2    0    0 -0.41926550875E+03  0.56379707382E+03 -0.54498317504E+03  0.89382796590E+03  0.90945391654E+02 0.  0.
         13    1    3    3    0    0 -0.25490112860E+03  0.41169963681E+03 -0.38469038138E+03  0.61843177945E+03  0.00000000000E+00 0. -1.
        -13    1    3    3    0    0 -0.16436438015E+03  0.15209743701E+03 -0.16029279365E+03  0.27539618644E+03  0.00000000000E+00 0.  1.
         22    1    1    2    0    0  0.41926550875E+03 -0.56379707382E+03  0.15602268224E+04  0.17111278282E+04  0.00000000000E+00 0. -1.
<mgrwt>
<rscale>  0 0.23989737E+04</rscale>
<asrwt>0</asrwt>
<pdfrwt beam="1">  1        2 0.27847688E+00 0.23989737E+04</pdfrwt>
<pdfrwt beam="2">  1       -2 0.12228555E+00 0.23989737E+04</pdfrwt>
<totfact> 0.38810599E+00</totfact>
</mgrwt>
</event>
<event>
 6    1  0.3017327E-006  0.2554437E+04  0.7818608E-02  0.8383845E-01
         -2   -1    0    0    0  501 -0.00000000000E+00  0.00000000000E+00  0.61510203683E+03  0.61510203683E+03  0.00000000000E+00 0.  1.
          2   -1    0    0  501    0  0.00000000000E+00 -0.00000000000E+00 -0.26520583629E+04  0.26520583629E+04  0.00000000000E+00 0. -1.
         23    2    1    2    0    0  0.46728900841E+03  0.11861718567E+04 -0.10719484229E+04  0.16682223321E+04  0.92356032705E+02 0.  0.
         13    1    3    3    0    0  0.21416355880E+03  0.42269710468E+03 -0.40382231617E+03  0.62258440011E+03  0.00000000000E+00 0.  1.
        -13    1    3    3    0    0  0.25312544961E+03  0.76347475205E+03 -0.66812610674E+03  0.10456379320E+04  0.00000000000E+00 0. -1.
         22    1    1    2    0    0 -0.46728900841E+03 -0.11861718567E+04 -0.96500790317E+03  0.15989380677E+04  0.00000000000E+00 0.  1.
<mgrwt>
<rscale>  0 0.25544365E+04</rscale>
<asrwt>0</asrwt>
<pdfrwt beam="1">  1        2 0.40800897E+00 0.25544365E+04</pdfrwt>
<pdfrwt beam="2">  1       -2 0.94631085E-01 0.25544365E+04</pdfrwt>
<totfact> 0.23674316E+00</totfact>
</mgrwt>
</event>
<event>
 6    1  0.3017327E-006  0.4402967E+04  0.7818608E-02  0.7927848E-01
         -2   -1    0    0    0  501 -0.00000000000E+00  0.00000000000E+00  0.16969015884E+04  0.16969015884E+04  0.00000000000E+00 0.  1.
          2   -1    0    0  501    0  0.00000000000E+00 -0.00000000000E+00 -0.28561058971E+04  0.28561058971E+04  0.00000000000E+00 0. -1.
         23    2    1    2    0    0 -0.18142314384E+04 -0.12377031362E+04 -0.43630130189E+03  0.22408799971E+04  0.88541345443E+02 0.  0.
         13    1    3    3    0    0 -0.32434023456E+03 -0.26263697189E+03 -0.89060592368E+02  0.42673944728E+03  0.00000000000E+00 0.  1.
        -13    1    3    3    0    0 -0.14898912038E+04 -0.97506616434E+03 -0.34724070952E+03  0.18141405498E+04  0.00000000000E+00 0. -1.
         22    1    1    2    0    0  0.18142314384E+04  0.12377031362E+04 -0.72290300684E+03  0.23121274884E+04  0.00000000000E+00 0.  1.
<mgrwt>
<rscale>  0 0.44029675E+04</rscale>
<asrwt>0</asrwt>
<pdfrwt beam="1">  1        2 0.43940090E+00 0.44029675E+04</pdfrwt>
<pdfrwt beam="2">  1       -2 0.26106178E+00 0.44029675E+04</pdfrwt>
<totfact> 0.89697308E-02</totfact>
</mgrwt>
</event>
<event>
 6    1  0.3017327E-006  0.1372151E+04  0.7818608E-02  0.8974228E-01
          1   -1    0    0  501    0  0.00000000000E+00  0.00000000000E+00  0.11829105149E+04  0.11829105149E+04  0.00000000000E+00 0. -1.
         -1   -1    0    0    0  501 -0.00000000000E+00 -0.00000000000E+00 -0.39791635223E+03  0.39791635223E+03  0.00000000000E+00 0.  1.
         23    2    1    2    0    0  0.65746551799E+03 -0.16150300146E+03  0.28951891586E+03  0.74187523145E+03  0.90628525156E+02 0.  0.
         13    1    3    3    0    0  0.30058110708E+03 -0.27506199386E+02  0.12893298069E+03  0.32822142898E+03  0.00000000000E+00 0. -1.
        -13    1    3    3    0    0  0.35688441092E+03 -0.13399680207E+03  0.16058593517E+03  0.41365380247E+03  0.00000000000E+00 0.  1.
         22    1    1    2    0    0 -0.65746551799E+03  0.16150300146E+03  0.49547524686E+03  0.83895163572E+03  0.00000000000E+00 0.  1.
<mgrwt>
<rscale>  0 0.13721508E+04</rscale>
<asrwt>0</asrwt>
<pdfrwt beam="1">  1        1 0.18198623E+00 0.13721508E+04</pdfrwt>
<pdfrwt beam="2">  1       -1 0.61217901E-01 0.13721508E+04</pdfrwt>
<totfact> 0.29085438E+01</totfact>
</mgrwt>
</event>
<event>
 6    1  0.3017327E-006  0.2206742E+04  0.7818608E-02  0.8515627E-01
          2   -1    0    0  501    0  0.00000000000E+00  0.00000000000E+00  0.30589443403E+04  0.30589443403E+04  0.00000000000E+00 0. -1.
         -2   -1    0    0    0  501 -0.00000000000E+00 -0.00000000000E+00 -0.39798926660E+03  0.39798926660E+03  0.00000000000E+00 0.  1.
         23    2    1    2    0    0 -0.17307818854E+03  0.70365504755E+03  0.26323329808E+04  0.27317400400E+04  0.90223273895E+02 0.  0.
         11    1    3    3    0    0 -0.13901445434E+03  0.37827604109E+03  0.14696472570E+04  0.15239031603E+04  0.00000000000E+00 0. -1.
        -11    1    3    3    0    0 -0.34063734203E+02  0.32537900646E+03  0.11626857238E+04  0.12078368798E+04  0.00000000000E+00 0.  1.
         22    1    1    2    0    0  0.17307818854E+03 -0.70365504755E+03  0.28622092927E+02  0.72519356691E+03  0.00000000000E+00 0.  1.
<mgrwt>
<rscale>  0 0.22067415E+04</rscale>
<asrwt>0</asrwt>
<pdfrwt beam="1">  1        2 0.47060680E+00 0.22067415E+04</pdfrwt>
<pdfrwt beam="2">  1       -2 0.61229120E-01 0.22067415E+04</pdfrwt>
<totfact> 0.36273480E+00</totfact>
</mgrwt>
</event>
<event>
 6    1  0.3017327E-006  0.2009357E+04  0.7818608E-02  0.8602258E-01
          2   -1    0    0  501    0  0.00000000000E+00  0.00000000000E+00  0.14831212821E+04  0.14831212821E+04  0.00000000000E+00 0. -1.
         -2   -1    0    0    0  501 -0.00000000000E+00 -0.00000000000E+00 -0.68057767257E+03  0.68057767257E+03  0.00000000000E+00 0.  1.
         23    2    1    2    0    0  0.30828520383E+03  0.63352215496E+03  0.11702020295E+04  0.13689896987E+04  0.91487253303E+02 0.  0.
         13    1    3    3    0    0  0.24030552872E+03  0.55102304150E+03  0.95017320345E+03  0.11243674915E+04  0.00000000000E+00 0. -1.
        -13    1    3    3    0    0  0.67979675105E+02  0.82499113454E+02  0.22002882605E+03  0.24462220717E+03  0.00000000000E+00 0.  1.
         22    1    1    2    0    0 -0.30828520383E+03 -0.63352215496E+03 -0.36765842000E+03  0.79470925596E+03  0.00000000000E+00 0.  1.
<mgrwt>
<rscale>  0 0.20093573E+04</rscale>
<asrwt>0</asrwt>
<pdfrwt beam="1">  1        2 0.22817250E+00 0.20093573E+04</pdfrwt>
<pdfrwt beam="2">  1       -2 0.10470426E+00 0.20093573E+04</pdfrwt>
<totfact> 0.89164910E+00</totfact>
</mgrwt>
</event>
<event>
 6    1  0.3017327E-006  0.4401693E+04  0.7818608E-02  0.7928077E-01
          2   -1    0    0  501    0  0.00000000000E+00  0.00000000000E+00  0.27030909159E+04  0.27030909159E+04  0.00000000000E+00 0. -1.
         -2   -1    0    0    0  501 -0.00000000000E+00 -0.00000000000E+00 -0.17919210129E+04  0.17919210129E+04  0.00000000000E+00 0.  1.
         23    2    1    2    0    0  0.18543797757E+04 -0.92613983722E+03  0.12084221253E+04  0.24010161708E+04  0.90195724664E+02 0.  0.
         11    1    3    3    0    0  0.14452879666E+04 -0.69464664777E+03  0.96757127507E+03  0.18728548914E+04  0.00000000000E+00 0.  1.
        -11    1    3    3    0    0  0.40909180909E+03 -0.23149318945E+03  0.24085085027E+03  0.52816127944E+03  0.00000000000E+00 0. -1.
         22    1    1    2    0    0 -0.18543797757E+04  0.92613983722E+03 -0.29725222231E+03  0.20939957580E+04  0.00000000000E+00 0.  1.
<mgrwt>
<rscale>  0 0.44016930E+04</rscale>
<asrwt>0</asrwt>
<pdfrwt beam="1">  1        2 0.41586014E+00 0.44016930E+04</pdfrwt>
<pdfrwt beam="2">  1       -2 0.27568015E+00 0.44016930E+04</pdfrwt>
<totfact> 0.90357712E-02</totfact>
</mgrwt>
</event>
<event>
 6    1  0.3017327E-006  0.2175819E+04  0.7818608E-02  0.8528561E-01
          2   -1    0    0  501    0  0.00000000000E+00  0.00000000000E+00  0.20301781116E+04  0.20301781116E+04  0.00000000000E+00 0. -1.
         -2   -1    0    0    0  501 -0.00000000000E+00 -0.00000000000E+00 -0.58297718032E+03  0.58297718032E+03  0.00000000000E+00 0.  1.
         23    2    1    2    0    0  0.91007766557E+03  0.42112845421E+03  0.12252541665E+04  0.15860959467E+04  0.94138446607E+02 0.  0.
         11    1    3    3    0    0  0.21072161897E+03  0.14109414461E+03  0.29291882413E+03  0.38744366800E+03  0.00000000000E+00 0. -1.
        -11    1    3    3    0    0  0.69935604660E+03  0.28003430960E+03  0.93233534241E+03  0.11986522787E+04  0.00000000000E+00 0.  1.
         22    1    1    2    0    0 -0.91007766557E+03 -0.42112845421E+03  0.22194676477E+03  0.10270593453E+04  0.00000000000E+00 0. -1.
<mgrwt>
<rscale>  0 0.21758194E+04</rscale>
<asrwt>0</asrwt>
<pdfrwt beam="1">  1        2 0.31233509E+00 0.21758194E+04</pdfrwt>
<pdfrwt beam="2">  1       -2 0.89688798E-01 0.21758194E+04</pdfrwt>
<totfact> 0.62705050E+00</totfact>
</mgrwt>
</event>
<event>
 6    1  0.3017327E-006  0.2215062E+04  0.7818608E-02  0.8512185E-01
         -1   -1    0    0    0  501 -0.00000000000E+00  0.00000000000E+00  0.10971724873E+04  0.10971724873E+04  0.00000000000E+00 0.  1.
          1   -1    0    0  501    0  0.00000000000E+00 -0.00000000000E+00 -0.11179873890E+04  0.11179873890E+04  0.00000000000E+00 0. -1.
         23    2    1    2    0    0  0.62114933625E+03  0.63013203006E+03  0.65341239788E+03  0.11027411939E+04  0.78724239397E+02 0.  0.
         11    1    3    3    0    0  0.13654341176E+03  0.18768528287E+03  0.16894367862E+03  0.28707461617E+03  0.00000000000E+00 0.  1.
        -11    1    3    3    0    0  0.48460592449E+03  0.44244674719E+03  0.48446871926E+03  0.81566657777E+03  0.00000000000E+00 0. -1.
         22    1    1    2    0    0 -0.62114933625E+03 -0.63013203006E+03 -0.67422729961E+03  0.11124186823E+04  0.00000000000E+00 0. -1.
<mgrwt>
<rscale>  0 0.22150621E+04</rscale>
<asrwt>0</asrwt>
<pdfrwt beam="1">  1        1 0.17199806E+00 0.22150621E+04</pdfrwt>
<pdfrwt beam="2">  1       -1 0.16879577E+00 0.22150621E+04</pdfrwt>
<totfact> 0.28105647E+00</totfact>
</mgrwt>
</event>
<event>
 6    1  0.3017327E-006  0.2027830E+04  0.7818608E-02  0.8593719E-01
          1   -1    0    0  501    0  0.00000000000E+00  0.00000000000E+00  0.24735540189E+04  0.24735540189E+04  0.00000000000E+00 0. -1.
         -1   -1    0    0    0  501 -0.00000000000E+00 -0.00000000000E+00 -0.41560574110E+03  0.41560574110E+03  0.00000000000E+00 0.  1.
         23    2    1    2    0    0  0.37650288728E+02 -0.45394185904E+03  0.23183548697E+04  0.23644766663E+04  0.92194619933E+02 0.  0.
         11    1    3    3    0    0 -0.64425532779E+01 -0.16951363271E+03  0.10705180420E+04  0.10838751111E+04  0.00000000000E+00 0.  1.
        -11    1    3    3    0    0  0.44092842006E+02 -0.28442822634E+03  0.12478368277E+04  0.12806015552E+04  0.00000000000E+00 0. -1.
         22    1    1    2    0    0 -0.37650288728E+02  0.45394185904E+03 -0.26040659195E+03  0.52468309365E+03  0.00000000000E+00 0.  1.
<mgrwt>
<rscale>  0 0.20278296E+04</rscale>
<asrwt>0</asrwt>
<pdfrwt beam="1">  1        1 0.38054676E+00 0.20278296E+04</pdfrwt>
<pdfrwt beam="2">  1       -1 0.63939346E-01 0.20278296E+04</pdfrwt>
<totfact> 0.32453585E+00</totfact>
</mgrwt>
</event>
<event>
 6    1  0.3017327E-006  0.2021858E+04  0.7818608E-02  0.8596469E-01
         -2   -1    0    0    0  501 -0.00000000000E+00  0.00000000000E+00  0.75797042352E+03  0.75797042352E+03  0.00000000000E+00 0.  1.
          2   -1    0    0  501    0  0.00000000000E+00 -0.00000000000E+00 -0.13483074067E+04  0.13483074067E+04  0.00000000000E+00 0. -1.
         23    2    1    2    0    0  0.22002751659E+02  0.94937966028E+03  0.60062633046E+02  0.95526717815E+03  0.84391950642E+02 0.  0.
         13    1    3    3    0    0 -0.23605340332E+01  0.87229021821E+03  0.49031167839E+02  0.87367033389E+03  0.00000000000E+00 0.  1.
        -13    1    3    3    0    0  0.24363285692E+02  0.77089442065E+02  0.11031465208E+02  0.81596844254E+02  0.00000000000E+00 0. -1.
         22    1    1    2    0    0 -0.22002751659E+02 -0.94937966028E+03 -0.65039961627E+03  0.11510106521E+04  0.00000000000E+00 0. -1.
<mgrwt>
<rscale>  0 0.20218577E+04</rscale>
<asrwt>0</asrwt>
<pdfrwt beam="1">  1        2 0.20743191E+00 0.20218577E+04</pdfrwt>
<pdfrwt beam="2">  1       -2 0.11661084E+00 0.20218577E+04</pdfrwt>
<totfact> 0.81922849E+00</totfact>
</mgrwt>
</event>
<event>
 6    1  0.3017327E-006  0.2546063E+04  0.7818608E-02  0.8386757E-01
         -2   -1    0    0    0  501 -0.00000000000E+00  0.00000000000E+00  0.10214492851E+04  0.10214492851E+04  0.00000000000E+00 0.  1.
          2   -1    0    0  501    0  0.00000000000E+00 -0.00000000000E+00 -0.15865785899E+04  0.15865785899E+04  0.00000000000E+00 0. -1.
         23    2    1    2    0    0 -0.10369474969E+04  0.36969509985E+03  0.36856449896E+03  0.11645187143E+04  0.91265917578E+02 0.  0.
         11    1    3    3    0    0 -0.13489738536E+03  0.26196838308E+02  0.69618467297E+02  0.15404645372E+03  0.00000000000E+00 0. -1.
        -11    1    3    3    0    0 -0.90205011157E+03  0.34349826154E+03  0.29894603167E+03  0.10104722605E+04  0.00000000000E+00 0.  1.
         22    1    1    2    0    0  0.10369474969E+04 -0.36969509985E+03 -0.93369380374E+03  0.14435091608E+04  0.00000000000E+00 0. -1.
<mgrwt>
<rscale>  0 0.25460633E+04</rscale>
<asrwt>0</asrwt>
<pdfrwt beam="1">  1        2 0.24408901E+00 0.25460633E+04</pdfrwt>
<pdfrwt beam="2">  1       -2 0.15714604E+00 0.25460633E+04</pdfrwt>
<totfact> 0.26671823E+00</totfact>
</mgrwt>
</event>
<event>
 6    1  0.3017327E-006  0.4315090E+04  0.7818608E-02  0.7943834E-01
         -2   -1    0    0    0  501 -0.00000000000E+00  0.00000000000E+00  0.11705311842E+04  0.11705311842E+04  0.00000000000E+00 0.  1.
          2   -1    0    0  501    0  0.00000000000E+00 -0.00000000000E+00 -0.39768279910E+04  0.39768279910E+04  0.00000000000E+00 0. -1.
         23    2    1    2    0    0  0.12943331079E+04 -0.61157345491E+03  0.51979305804E+03  0.15262828056E+04  0.10017032765E+03 0.  0.
         11    1    3    3    0    0  0.11810424589E+04 -0.58769641664E+03  0.48224305836E+03  0.14045663869E+04  0.00000000000E+00 0.  1.
        -11    1    3    3    0    0  0.11329064903E+03 -0.23877038274E+02  0.37549999678E+02  0.12171641873E+03  0.00000000000E+00 0. -1.
         22    1    1    2    0    0 -0.12943331079E+04  0.61157345491E+03 -0.33260898649E+04  0.36210763696E+04  0.00000000000E+00 0. -1.
<mgrwt>
<rscale>  0 0.43150903E+04</rscale>
<asrwt>0</asrwt>
<pdfrwt beam="1">  1        2 0.61181968E+00 0.43150903E+04</pdfrwt>
<pdfrwt beam="2">  1       -2 0.18008172E+00 0.43150903E+04</pdfrwt>
<totfact> 0.49552987E-02</totfact>
</mgrwt>
</event>
<event>
 6    1  0.3017327E-006  0.3814506E+03  0.7818608E-02  0.1050399E+00
          2   -1    0    0  501    0  0.00000000000E+00  0.00000000000E+00  0.23590337320E+03  0.23590337320E+03  0.00000000000E+00 0. -1.
         -2   -1    0    0    0  501 -0.00000000000E+00 -0.00000000000E+00 -0.15419930481E+03  0.15419930481E+03  0.00000000000E+00 0.  1.
         23    2    1    2    0    0  0.28178787335E+02  0.17684722869E+03  0.75911297444E+02  0.21093085393E+03  0.81610745048E+02 0.  0.
         11    1    3    3    0    0  0.92686830186E+01 -0.54634474359E+01  0.13597071591E+02  0.17338918612E+02  0.00000000000E+00 0. -1.
        -11    1    3    3    0    0  0.18910104316E+02  0.18231067613E+03  0.62314225852E+02  0.19359193532E+03  0.00000000000E+00 0.  1.
         22    1    1    2    0    0 -0.28178787335E+02 -0.17684722869E+03  0.57927709485E+01  0.17917182409E+03  0.00000000000E+00 0.  1.
<mgrwt>
<rscale>  0 0.38145058E+03</rscale>
<asrwt>0</asrwt>
<pdfrwt beam="1">  1        2 0.36292827E-01 0.38145058E+03</pdfrwt>
<pdfrwt beam="2">  1       -2 0.23722970E-01 0.38145058E+03</pdfrwt>
<totfact> 0.22305793E+03</totfact>
</mgrwt>
</event>
<event>
 6    1  0.3017327E-006  0.7859619E+03  0.7818608E-02  0.9580562E-01
         -2   -1    0    0    0  501 -0.00000000000E+00  0.00000000000E+00  0.14580188262E+04  0.14580188262E+04  0.00000000000E+00 0.  1.
          2   -1    0    0  501    0  0.00000000000E+00 -0.00000000000E+00 -0.10592046165E+03  0.10592046165E+03  0.00000000000E+00 0. -1.
         23    2    1    2    0    0  0.46606437741E+02 -0.21902093674E+03  0.13148679176E+04  0.13369405280E+04  0.91596965284E+02 0.  0.
         13    1    3    3    0    0 -0.14455335939E+02 -0.14025764130E+03  0.70168815323E+03  0.71571462683E+03  0.00000000000E+00 0.  1.
        -13    1    3    3    0    0  0.61061773680E+02 -0.78763295436E+02  0.61317976436E+03  0.62122590121E+03  0.00000000000E+00 0. -1.
         22    1    1    2    0    0 -0.46606437741E+02  0.21902093674E+03  0.37230446946E+02  0.22699875980E+03  0.00000000000E+00 0. -1.
<mgrwt>
<rscale>  0 0.78596190E+03</rscale>
<asrwt>0</asrwt>
<pdfrwt beam="1">  1        2 0.16295457E-01 0.78596190E+03</pdfrwt>
<pdfrwt beam="2">  1       -2 0.22431057E+00 0.78596190E+03</pdfrwt>
<totfact> 0.34315551E+01</totfact>
</mgrwt>
</event>
<event>
 6    1  0.3017327E-006  0.1103874E+04  0.7818608E-02  0.9201424E-01
         -1   -1    0    0    0  501 -0.00000000000E+00  0.00000000000E+00  0.67552566076E+03  0.67552566076E+03  0.00000000000E+00 0.  1.
          1   -1    0    0  501    0  0.00000000000E+00 -0.00000000000E+00 -0.45095901975E+03  0.45095901975E+03  0.00000000000E+00 0. -1.
         23    2    1    2    0    0  0.10450922544E+03 -0.13692521682E+03 -0.41797429830E+03  0.46125573353E+03  0.91562243697E+02 0.  0.
         11    1    3    3    0    0  0.77681811267E+01  0.19333312220E+01 -0.10628318693E+03  0.10658423069E+03  0.00000000000E+00 0.  1.
        -11    1    3    3    0    0  0.96741044313E+02 -0.13885854805E+03 -0.31169111137E+03  0.35467150284E+03  0.00000000000E+00 0. -1.
         22    1    1    2    0    0 -0.10450922544E+03  0.13692521682E+03  0.64254093931E+03  0.66522894698E+03  0.00000000000E+00 0.  1.
<mgrwt>
<rscale>  0 0.11038739E+04</rscale>
<asrwt>0</asrwt>
<pdfrwt beam="1">  1        1 0.69378311E-01 0.11038739E+04</pdfrwt>
<pdfrwt beam="2">  1       -1 0.10392702E+00 0.11038739E+04</pdfrwt>
<totfact> 0.44376322E+01</totfact>
</mgrwt>
</event>
<event>
 6    1  0.3017327E-006  0.4790461E+04  0.7818608E-02  0.7861669E-01
         -2   -1    0    0    0  501 -0.00000000000E+00  0.00000000000E+00  0.14955269782E+04  0.14955269782E+04  0.00000000000E+00 0.  1.
          2   -1    0    0  501    0  0.00000000000E+00 -0.00000000000E+00 -0.38361919696E+04  0.38361919696E+04  0.00000000000E+00 0. -1.
         23    2    1    2    0    0 -0.92129167431E+03  0.16619953330E+03 -0.36235346240E+04  0.37435895047E+04  0.89769561889E+02 0.  0.
         11    1    3    3    0    0 -0.43846546120E+03  0.40746723423E+02 -0.16031551987E+04  0.16625338635E+04  0.00000000000E+00 0. -1.
        -11    1    3    3    0    0 -0.48282621311E+03  0.12545280987E+03 -0.20203794253E+04  0.20810556412E+04  0.00000000000E+00 0.  1.
         22    1    1    2    0    0  0.92129167431E+03 -0.16619953330E+03  0.12828696325E+04  0.15881294431E+04  0.00000000000E+00 0.  1.
<mgrwt>
<rscale>  0 0.47904608E+04</rscale>
<asrwt>0</asrwt>
<pdfrwt beam="1">  1        2 0.59018337E+00 0.47904608E+04</pdfrwt>
<pdfrwt beam="2">  1       -2 0.23008108E+00 0.47904608E+04</pdfrwt>
<totfact> 0.29025934E-02</totfact>
</mgrwt>
</event>
<event>
 6    1  0.3017327E-006  0.2884259E+04  0.7818608E-02  0.8277576E-01
         -2   -1    0    0    0  501 -0.00000000000E+00  0.00000000000E+00  0.70076716674E+03  0.70076716674E+03  0.00000000000E+00 0. -1.
          2   -1    0    0  501    0  0.00000000000E+00 -0.00000000000E+00 -0.29678012921E+04  0.29678012921E+04  0.00000000000E+00 0.  1.
         23    2    1    2    0    0  0.60765302884E+03 -0.11314259461E+04 -0.19650588127E+04  0.23492671421E+04  0.90736392281E+02 0.  0.
         11    1    3    3    0    0  0.21822164906E+03 -0.49812533527E+03 -0.85034168716E+03  0.10093713502E+04  0.00000000000E+00 0.  1.
        -11    1    3    3    0    0  0.38943137978E+03 -0.63330061079E+03 -0.11147171256E+04  0.13398957919E+04  0.00000000000E+00 0. -1.
         22    1    1    2    0    0 -0.60765302884E+03  0.11314259461E+04 -0.30197531269E+03  0.13193013167E+04  0.00000000000E+00 0. -1.
<mgrwt>
<rscale>  0 0.28842591E+04</rscale>
<asrwt>0</asrwt>
<pdfrwt beam="1">  1        2 0.45658481E+00 0.28842591E+04</pdfrwt>
<pdfrwt beam="2">  1       -2 0.10781033E+00 0.28842591E+04</pdfrwt>
<totfact> 0.10865913E+00</totfact>
</mgrwt>
</event>
<event>
 6    1  0.3017327E-006  0.2466584E+04  0.7818608E-02  0.8414988E-01
         -2   -1    0    0    0  501 -0.00000000000E+00  0.00000000000E+00  0.19392584034E+04  0.19392584034E+04  0.00000000000E+00 0.  1.
          2   -1    0    0  501    0  0.00000000000E+00 -0.00000000000E+00 -0.78432525903E+03  0.78432525903E+03  0.00000000000E+00 0. -1.
         23    2    1    2    0    0  0.77864895041E+02  0.98646849675E+03  0.13870483167E+04  0.17071878291E+04  0.10679051434E+03 0.  0.
         13    1    3    3    0    0  0.84444771631E+02  0.52273957550E+03  0.68540073773E+03  0.86611878777E+03  0.00000000000E+00 0.  1.
        -13    1    3    3    0    0 -0.65798765898E+01  0.46372892125E+03  0.70164757897E+03  0.84106904131E+03  0.00000000000E+00 0. -1.
         22    1    1    2    0    0 -0.77864895041E+02 -0.98646849675E+03 -0.23211517228E+03  0.10163958334E+04  0.00000000000E+00 0. -1.
<mgrwt>
<rscale>  0 0.24665842E+04</rscale>
<asrwt>0</asrwt>
<pdfrwt beam="1">  1        2 0.12066543E+00 0.24665842E+04</pdfrwt>
<pdfrwt beam="2">  1       -2 0.29834744E+00 0.24665842E+04</pdfrwt>
<totfact> 0.10290950E+00</totfact>
</mgrwt>
</event>
<event>
 6    1  0.3017327E-006  0.2349704E+04  0.7818608E-02  0.8458577E-01
         -2   -1    0    0    0  501 -0.00000000000E+00  0.00000000000E+00  0.10208934116E+04  0.10208934116E+04  0.00000000000E+00 0.  1.
          2   -1    0    0  501    0  0.00000000000E+00 -0.00000000000E+00 -0.13520291477E+04  0.13520291477E+04  0.00000000000E+00 0. -1.
         23    2    1    2    0    0 -0.98872399842E+03  0.53120636145E+03 -0.51065560598E+03  0.12362683783E+04  0.88515602338E+02 0.  0.
         11    1    3    3    0    0 -0.25340318518E+03  0.13635556581E+03 -0.89212916627E+02  0.30127223417E+03  0.00000000000E+00 0. -1.
        -11    1    3    3    0    0 -0.73532081323E+03  0.39485079565E+03 -0.42144268935E+03  0.93499614416E+03  0.00000000000E+00 0.  1.
         22    1    1    2    0    0  0.98872399842E+03 -0.53120636145E+03  0.17951986993E+03  0.11366541810E+04  0.00000000000E+00 0.  1.
<mgrwt>
<rscale>  0 0.23497044E+04</rscale>
<asrwt>0</asrwt>
<pdfrwt beam="1">  1        2 0.20800448E+00 0.23497044E+04</pdfrwt>
<pdfrwt beam="2">  1       -2 0.15706053E+00 0.23497044E+04</pdfrwt>
<totfact> 0.36889234E+00</totfact>
</mgrwt>
</event>
<event>
 6    1  0.3017327E-006  0.2938444E+04  0.7818608E-02  0.8261530E-01
          2   -1    0    0  501    0  0.00000000000E+00  0.00000000000E+00  0.15715681318E+04  0.15715681318E+04  0.00000000000E+00 0. -1.
         -2   -1    0    0    0  501 -0.00000000000E+00 -0.00000000000E+00 -0.13735411724E+04  0.13735411724E+04  0.00000000000E+00 0.  1.
         23    2    1    2    0    0 -0.10315002249E+04  0.19035701013E+03 -0.92998303061E+03  0.14047732880E+04  0.91055193192E+02 0.  0.
         13    1    3    3    0    0 -0.58144481353E+03  0.61518850454E+02 -0.52244841459E+03  0.78410138761E+03  0.00000000000E+00 0. -1.
        -13    1    3    3    0    0 -0.45005541134E+03  0.12883815968E+03 -0.40753461602E+03  0.62067190038E+03  0.00000000000E+00 0.  1.
         22    1    1    2    0    0  0.10315002249E+04 -0.19035701013E+03  0.11280099900E+04  0.15403360162E+04  0.00000000000E+00 0. -1.
<mgrwt>
<rscale>  0 0.29384442E+04</rscale>
<asrwt>0</asrwt>
<pdfrwt beam="1">  1        2 0.24177971E+00 0.29384442E+04</pdfrwt>
<pdfrwt beam="2">  1       -2 0.21131403E+00 0.29384442E+04</pdfrwt>
<totfact> 0.11178493E+00</totfact>
</mgrwt>
</event>
<event>
 6    1  0.3017327E-006  0.2306412E+04  0.7818608E-02  0.8475397E-01
         -2   -1    0    0    0  501 -0.00000000000E+00  0.00000000000E+00  0.80508771320E+03  0.80508771320E+03  0.00000000000E+00 0.  1.
          2   -1    0    0  501    0  0.00000000000E+00 -0.00000000000E+00 -0.16518496653E+04  0.16518496653E+04  0.00000000000E+00 0. -1.
         23    2    1    2    0    0 -0.66338633485E+03 -0.62118676821E+03  0.32916318048E+03  0.97074952102E+03  0.89731838887E+02 0.  0.
         13    1    3    3    0    0 -0.58912132114E+03 -0.50820629938E+03  0.28113142579E+03  0.82726806558E+03  0.00000000000E+00 0.  1.
        -13    1    3    3    0    0 -0.74265013709E+02 -0.11298046882E+03  0.48031754693E+02  0.14348145544E+03  0.00000000000E+00 0. -1.
         22    1    1    2    0    0  0.66338633485E+03  0.62118676821E+03 -0.11759251326E+04  0.14861878575E+04  0.00000000000E+00 0. -1.
<mgrwt>
<rscale>  0 0.23064118E+04</rscale>
<asrwt>0</asrwt>
<pdfrwt beam="1">  1        2 0.25413072E+00 0.23064118E+04</pdfrwt>
<pdfrwt beam="2">  1       -2 0.12385965E+00 0.23064118E+04</pdfrwt>
<totfact> 0.46385515E+00</totfact>
</mgrwt>
</event>
<event>
 6    1  0.3017327E-006  0.2219518E+04  0.7818608E-02  0.8510348E-01
         -2   -1    0    0    0  501 -0.00000000000E+00  0.00000000000E+00  0.88926123981E+03  0.88926123981E+03  0.00000000000E+00 0.  1.
          2   -1    0    0  501    0  0.00000000000E+00 -0.00000000000E+00 -0.13849307693E+04  0.13849307693E+04  0.00000000000E+00 0. -1.
         23    2    1    2    0    0  0.45275719709E+03  0.54361905071E+03 -0.11212748434E+04  0.13297912677E+04  0.10284351870E+03 0.  0.
         11    1    3    3    0    0  0.10904524983E+03  0.93425010559E+02 -0.29405115954E+03  0.32723872560E+03  0.00000000000E+00 0.  1.
        -11    1    3    3    0    0  0.34371194727E+03  0.45019404015E+03 -0.82722368383E+03  0.10025525421E+04  0.00000000000E+00 0. -1.
         22    1    1    2    0    0 -0.45275719709E+03 -0.54361905071E+03  0.62560531384E+03  0.94440074149E+03  0.00000000000E+00 0.  1.
<mgrwt>
<rscale>  0 0.22195182E+04</rscale>
<asrwt>0</asrwt>
<pdfrwt beam="1">  1        2 0.21306627E+00 0.22195182E+04</pdfrwt>
<pdfrwt beam="2">  1       -2 0.13680942E+00 0.22195182E+04</pdfrwt>
<totfact> 0.51371663E+00</totfact>
</mgrwt>
</event>
<event>
 6    1  0.3017327E-006  0.2175664E+04  0.7818608E-02  0.8528626E-01
          2   -1    0    0  501    0  0.00000000000E+00  0.00000000000E+00  0.14395994926E+04  0.14395994926E+04  0.00000000000E+00 0. -1.
         -2   -1    0    0    0  501 -0.00000000000E+00 -0.00000000000E+00 -0.82201894158E+03  0.82201894158E+03  0.00000000000E+00 0.  1.
         23    2    1    2    0    0  0.97051624045E+03 -0.29384597526E+03  0.71264741275E+03  0.12431465699E+04  0.96435622310E+02 0.  0.
         13    1    3    3    0    0  0.77814736911E+03 -0.27457619689E+03  0.57053243408E+03  0.10032012133E+04  0.00000000000E+00 0.  1.
        -13    1    3    3    0    0  0.19236887134E+03 -0.19269778363E+02  0.14211497867E+03  0.23994535666E+03  0.00000000000E+00 0. -1.
         22    1    1    2    0    0 -0.97051624045E+03  0.29384597526E+03 -0.95066861703E+02  0.10184718643E+04  0.00000000000E+00 0.  1.
<mgrwt>
<rscale>  0 0.21756636E+04</rscale>
<asrwt>0</asrwt>
<pdfrwt beam="1">  1        2 0.22147685E+00 0.21756636E+04</pdfrwt>
<pdfrwt beam="2">  1       -2 0.12646445E+00 0.21756636E+04</pdfrwt>
<totfact> 0.58589765E+00</totfact>
</mgrwt>
</event>
<event>
 6    1  0.3017327E-006  0.3862245E+04  0.7818608E-02  0.8032928E-01
          2   -1    0    0  501    0  0.00000000000E+00  0.00000000000E+00  0.22746309243E+04  0.22746309243E+04  0.00000000000E+00 0. -1.
         -2   -1    0    0    0  501 -0.00000000000E+00 -0.00000000000E+00 -0.16394894841E+04  0.16394894841E+04  0.00000000000E+00 0.  1.
         23    2    1    2    0    0  0.13955642715E+04  0.66706121543E+03 -0.85209123700E+03  0.17683265374E+04  0.91372674190E+02 0.  0.
         11    1    3    3    0    0  0.62437689030E+03  0.25910146947E+03 -0.33991760453E+03  0.75665319037E+03  0.00000000000E+00 0. -1.
        -11    1    3    3    0    0  0.77118738117E+03  0.40795974595E+03 -0.51217363247E+03  0.10116733470E+04  0.00000000000E+00 0.  1.
         22    1    1    2    0    0 -0.13955642715E+04 -0.66706121543E+03  0.14872326772E+04  0.21457938711E+04  0.00000000000E+00 0. -1.
<mgrwt>
<rscale>  0 0.38622447E+04</rscale>
<asrwt>0</asrwt>
<pdfrwt beam="1">  1        2 0.34994322E+00 0.38622447E+04</pdfrwt>
<pdfrwt beam="2">  1       -2 0.25222915E+00 0.38622447E+04</pdfrwt>
<totfact> 0.23278714E-01</totfact>
</mgrwt>
</event>
<event>
 6    1  0.3017327E-006  0.1341665E+04  0.7818608E-02  0.8997162E-01
          2   -1    0    0  501    0  0.00000000000E+00  0.00000000000E+00  0.29652057093E+04  0.29652057093E+04  0.00000000000E+00 0. -1.
         -2   -1    0    0    0  501 -0.00000000000E+00 -0.00000000000E+00 -0.15176556349E+03  0.15176556349E+03  0.00000000000E+00 0.  1.
         23    2    1    2    0    0  0.27802901751E+03 -0.35093848617E+03  0.25641218393E+04  0.26045090073E+04  0.91040686155E+02 0.  0.
         11    1    3    3    0    0  0.13098998878E+03 -0.16098928019E+03  0.14506047799E+04  0.14653771367E+04  0.00000000000E+00 0. -1.
        -11    1    3    3    0    0  0.14703902873E+03 -0.18994920599E+03  0.11135170594E+04  0.11391318705E+04  0.00000000000E+00 0.  1.
         22    1    1    2    0    0 -0.27802901751E+03  0.35093848617E+03  0.24931830657E+03  0.51246226558E+03  0.00000000000E+00 0.  1.
<mgrwt>
<rscale>  0 0.13416648E+04</rscale>
<asrwt>0</asrwt>
<pdfrwt beam="1">  1        2 0.45618545E+00 0.13416648E+04</pdfrwt>
<pdfrwt beam="2">  1       -2 0.23348550E-01 0.13416648E+04</pdfrwt>
<totfact> 0.29329119E+01</totfact>
</mgrwt>
</event>
<event>
 6    1  0.3017327E-006  0.1168076E+04  0.7818608E-02  0.9141268E-01
         -1   -1    0    0    0  501 -0.00000000000E+00  0.00000000000E+00  0.64601667148E+03  0.64601667148E+03  0.00000000000E+00 0.  1.
          1   -1    0    0  501    0  0.00000000000E+00 -0.00000000000E+00 -0.52800510039E+03  0.52800510039E+03  0.00000000000E+00 0. -1.
         23    2    1    2    0    0 -0.72811444606E+02  0.11690643612E+03  0.62606973475E+03  0.64762675011E+03  0.92132911672E+02 0.  0.
         11    1    3    3    0    0 -0.10706613531E+02 -0.13114016170E+02  0.12859233934E+03  0.12970196116E+03  0.00000000000E+00 0.  1.
        -11    1    3    3    0    0 -0.62104831076E+02  0.13002045229E+03  0.49747739542E+03  0.51792478895E+03  0.00000000000E+00 0. -1.
         22    1    1    2    0    0  0.72811444606E+02 -0.11690643612E+03 -0.50805816366E+03  0.52639502176E+03  0.00000000000E+00 0. -1.
<mgrwt>
<rscale>  0 0.11680755E+04</rscale>
<asrwt>0</asrwt>
<pdfrwt beam="1">  1        1 0.81231554E-01 0.11680755E+04</pdfrwt>
<pdfrwt beam="2">  1       -1 0.99387180E-01 0.11680755E+04</pdfrwt>
<totfact> 0.39415187E+01</totfact>
</mgrwt>
</event>
<event>
 6    1  0.3017327E-006  0.8155451E+03  0.7818608E-02  0.9537785E-01
         -2   -1    0    0    0  501 -0.00000000000E+00  0.00000000000E+00  0.22036234960E+03  0.22036234960E+03  0.00000000000E+00 0.  1.
          2   -1    0    0  501    0  0.00000000000E+00 -0.00000000000E+00 -0.75456841264E+03  0.75456841264E+03  0.00000000000E+00 0. -1.
         23    2    1    2    0    0  0.35025653537E+03 -0.15817446083E+03 -0.13033880352E+03  0.41742958381E+03  0.97777569547E+02 0.  0.
         13    1    3    3    0    0  0.51469521206E+02 -0.23486771322E+02  0.15566923040E+02  0.58677671505E+02  0.00000000000E+00 0.  1.
        -13    1    3    3    0    0  0.29878701417E+03 -0.13468768951E+03 -0.14590572656E+03  0.35875191230E+03  0.00000000000E+00 0. -1.
         22    1    1    2    0    0 -0.35025653537E+03  0.15817446083E+03 -0.40386725953E+03  0.55750117843E+03  0.00000000000E+00 0. -1.
<mgrwt>
<rscale>  0 0.81554514E+03</rscale>
<asrwt>0</asrwt>
<pdfrwt beam="1">  1        2 0.11608745E+00 0.81554514E+03</pdfrwt>
<pdfrwt beam="2">  1       -2 0.33901901E-01 0.81554514E+03</pdfrwt>
<totfact> 0.30427808E+02</totfact>
</mgrwt>
</event>
<event>
 6    1  0.3017327E-006  0.2712515E+04  0.7818608E-02  0.8330956E-01
         -2   -1    0    0    0  501 -0.00000000000E+00  0.00000000000E+00  0.14893266841E+04  0.14893266841E+04  0.00000000000E+00 0.  1.
          2   -1    0    0  501    0  0.00000000000E+00 -0.00000000000E+00 -0.12350778917E+04  0.12350778917E+04  0.00000000000E+00 0. -1.
         23    2    1    2    0    0  0.89798281318E+03 -0.14545964754E+02  0.11460303790E+04  0.14587588450E+04  0.89481954731E+02 0.  0.
         11    1    3    3    0    0  0.27142136384E+03 -0.41321543751E+02  0.31998515011E+03  0.42162486053E+03  0.00000000000E+00 0.  1.
        -11    1    3    3    0    0  0.62656144935E+03  0.26775578997E+02  0.82604522893E+03  0.10371339844E+04  0.00000000000E+00 0. -1.
         22    1    1    2    0    0 -0.89798281318E+03  0.14545964754E+02 -0.89178158658E+03  0.12656457309E+04  0.00000000000E+00 0. -1.
<mgrwt>
<rscale>  0 0.27125150E+04</rscale>
<asrwt>0</asrwt>
<pdfrwt beam="1">  1        2 0.19001198E+00 0.27125150E+04</pdfrwt>
<pdfrwt beam="2">  1       -2 0.22912718E+00 0.27125150E+04</pdfrwt>
<totfact> 0.13697198E+00</totfact>
</mgrwt>
</event>
<event>
 6    1  0.3017327E-006  0.1848241E+04  0.7818608E-02  0.8681058E-01
          2   -1    0    0  501    0  0.00000000000E+00  0.00000000000E+00  0.59405266911E+03  0.59405266911E+03  0.00000000000E+00 0. -1.
         -2   -1    0    0    0  501 -0.00000000000E+00 -0.00000000000E+00 -0.14375806018E+04  0.14375806018E+04  0.00000000000E+00 0.  1.
         23    2    1    2    0    0  0.38319639175E+01 -0.49281014660E+03 -0.12793030510E+04  0.13737757800E+04  0.88130999212E+02 0.  0.
         13    1    3    3    0    0  0.37698159464E+02 -0.40027371707E+03 -0.10189764315E+04  0.10954237389E+04  0.00000000000E+00 0.  1.
        -13    1    3    3    0    0 -0.33866195546E+02 -0.92536429533E+02 -0.26032661947E+03  0.27835204112E+03  0.00000000000E+00 0. -1.
         22    1    1    2    0    0 -0.38319639175E+01  0.49281014660E+03  0.43577511831E+03  0.65785749086E+03  0.00000000000E+00 0. -1.
<mgrwt>
<rscale>  0 0.18482409E+04</rscale>
<asrwt>0</asrwt>
<pdfrwt beam="1">  1        2 0.91392720E-01 0.18482409E+04</pdfrwt>
<pdfrwt beam="2">  1       -2 0.22116624E+00 0.18482409E+04</pdfrwt>
<totfact> 0.45841930E+00</totfact>
</mgrwt>
</event>
<event>
 6    1  0.3017327E-006  0.1424634E+04  0.7818608E-02  0.8936178E-01
          4   -1    0    0  501    0  0.00000000000E+00  0.00000000000E+00  0.49222791203E+03  0.49222791203E+03  0.00000000000E+00 0. -1.
         -4   -1    0    0    0  501 -0.00000000000E+00 -0.00000000000E+00 -0.10308144007E+04  0.10308144007E+04  0.00000000000E+00 0.  1.
         23    2    1    2    0    0  0.29531441779E+03  0.59868312207E+03 -0.13487336776E+02  0.67371245612E+03  0.89858106350E+02 0.  0.
         13    1    3    3    0    0  0.19637316280E+03  0.30041615363E+03 -0.19113957275E+02  0.35941289319E+03  0.00000000000E+00 0. -1.
        -13    1    3    3    0    0  0.98941254992E+02  0.29826696843E+03  0.56266204991E+01  0.31429956293E+03  0.00000000000E+00 0.  1.
         22    1    1    2    0    0 -0.29531441779E+03 -0.59868312207E+03 -0.52509915188E+03  0.84932985660E+03  0.00000000000E+00 0. -1.
<mgrwt>
<rscale>  0 0.14246342E+04</rscale>
<asrwt>0</asrwt>
<pdfrwt beam="1">  1        4 0.75727372E-01 0.14246342E+04</pdfrwt>
<pdfrwt beam="2">  1       -4 0.15858683E+00 0.14246342E+04</pdfrwt>
<totfact> 0.78189742E-01</totfact>
</mgrwt>
</event>
<event>
 6    1  0.3017327E-006  0.2910172E+04  0.7818608E-02  0.8269857E-01
          2   -1    0    0  501    0  0.00000000000E+00  0.00000000000E+00  0.19543953651E+04  0.19543953651E+04  0.00000000000E+00 0. -1.
         -2   -1    0    0    0  501 -0.00000000000E+00 -0.00000000000E+00 -0.10833406561E+04  0.10833406561E+04  0.00000000000E+00 0.  1.
         23    2    1    2    0    0 -0.77611284666E+03  0.90698819012E+03 -0.42994368002E+03  0.12720702726E+04  0.91282433596E+02 0.  0.
         13    1    3    3    0    0 -0.14775233757E+03  0.12863446964E+03 -0.89623752200E+02  0.21542979597E+03  0.00000000000E+00 0.  1.
        -13    1    3    3    0    0 -0.62836050909E+03  0.77835372049E+03 -0.34031992782E+03  0.10566404766E+04  0.00000000000E+00 0. -1.
         22    1    1    2    0    0  0.77611284666E+03 -0.90698819012E+03  0.13009983890E+04  0.17656657486E+04  0.00000000000E+00 0. -1.
<mgrwt>
<rscale>  0 0.29101725E+04</rscale>
<asrwt>0</asrwt>
<pdfrwt beam="1">  1        2 0.30067621E+00 0.29101725E+04</pdfrwt>
<pdfrwt beam="2">  1       -2 0.16666779E+00 0.29101725E+04</pdfrwt>
<totfact> 0.13755256E+00</totfact>
</mgrwt>
</event>
<event>
 6    1  0.3017327E-006  0.1829213E+04  0.7818608E-02  0.8690917E-01
          1   -1    0    0  501    0  0.00000000000E+00  0.00000000000E+00  0.13595720989E+04  0.13595720989E+04  0.00000000000E+00 0. -1.
         -1   -1    0    0    0  501 -0.00000000000E+00 -0.00000000000E+00 -0.61527116161E+03  0.61527116161E+03  0.00000000000E+00 0.  1.
         23    2    1    2    0    0  0.61164758012E+03 -0.38556818852E+03 -0.22760525068E+03  0.76348979084E+03  0.91306737501E+02 0.  0.
         13    1    3    3    0    0  0.47686886937E+03 -0.27180626787E+03 -0.13952788345E+03  0.56634847584E+03  0.00000000000E+00 0. -1.
        -13    1    3    3    0    0  0.13477871075E+03 -0.11376192066E+03 -0.88077367222E+02  0.19714131500E+03  0.00000000000E+00 0.  1.
         22    1    1    2    0    0 -0.61164758012E+03  0.38556818852E+03  0.97190618796E+03  0.12113534697E+04  0.00000000000E+00 0. -1.
<mgrwt>
<rscale>  0 0.18292135E+04</rscale>
<asrwt>0</asrwt>
<pdfrwt beam="1">  1        1 0.20916494E+00 0.18292135E+04</pdfrwt>
<pdfrwt beam="2">  1       -1 0.94657102E-01 0.18292135E+04</pdfrwt>
<totfact> 0.83365023E+00</totfact>
</mgrwt>
</event>
<event>
 6    1  0.3017327E-006  0.2302467E+04  0.7818608E-02  0.8476949E-01
          2   -1    0    0  501    0  0.00000000000E+00  0.00000000000E+00  0.19805251204E+04  0.19805251204E+04  0.00000000000E+00 0. -1.
         -2   -1    0    0    0  501 -0.00000000000E+00 -0.00000000000E+00 -0.66918523360E+03  0.66918523360E+03  0.00000000000E+00 0.  1.
         23    2    1    2    0    0 -0.31239025361E+03 -0.80172777942E+03  0.15331113893E+04  0.17611510131E+04  0.10424613317E+03 0.  0.
         11    1    3    3    0    0 -0.14155657301E+03 -0.23444426722E+03  0.45952545491E+03  0.53494487707E+03  0.00000000000E+00 0.  1.
        -11    1    3    3    0    0 -0.17083368060E+03 -0.56728351220E+03  0.10735859344E+04  0.12262061361E+04  0.00000000000E+00 0. -1.
         22    1    1    2    0    0  0.31239025361E+03  0.80172777942E+03 -0.22177150252E+03  0.88855934083E+03  0.00000000000E+00 0.  1.
<mgrwt>
<rscale>  0 0.23024666E+04</rscale>
<asrwt>0</asrwt>
<pdfrwt beam="1">  1        2 0.30469617E+00 0.23024666E+04</pdfrwt>
<pdfrwt beam="2">  1       -2 0.10295157E+00 0.23024666E+04</pdfrwt>
<totfact> 0.47847456E+00</totfact>
</mgrwt>
</event>
<event>
 6    1  0.3317895E-006  0.2475973E+04  0.7818608E-02  0.8411596E-01
         -2   -1    0    0    0  501 -0.00000000000E+00  0.00000000000E+00  0.10898312691E+04  0.10898312691E+04  0.00000000000E+00 0.  1.
          2   -1    0    0  501    0  0.00000000000E+00 -0.00000000000E+00 -0.14062826172E+04  0.14062826172E+04  0.00000000000E+00 0. -1.
         23    2    1    2    0    0 -0.65268807372E+03  0.88738143367E+03 -0.72425647765E+03  0.13214851986E+04  0.91258721741E+02 0.  0.
         11    1    3    3    0    0 -0.22186198603E+03  0.23596047951E+03 -0.22973198049E+03  0.39708547140E+03  0.00000000000E+00 0. -1.
        -11    1    3    3    0    0 -0.43082608769E+03  0.65142095416E+03 -0.49452449716E+03  0.92439972720E+03  0.00000000000E+00 0.  1.
         22    1    1    2    0    0  0.65268807372E+03 -0.88738143367E+03  0.40780512956E+03  0.11746286878E+04  0.00000000000E+00 0.  1.
<mgrwt>
<rscale>  0 0.24759732E+04</rscale>
<asrwt>0</asrwt>
<pdfrwt beam="1">  1        2 0.21635117E+00 0.24759732E+04</pdfrwt>
<pdfrwt beam="2">  1       -2 0.16766635E+00 0.24759732E+04</pdfrwt>
<totfact> 0.28408578E+00</totfact>
</mgrwt>
</event>
<event>
 6    1  0.3017327E-006  0.1214786E+04  0.7818608E-02  0.9100012E-01
         -2   -1    0    0    0  501 -0.00000000000E+00  0.00000000000E+00  0.25068349890E+03  0.25068349890E+03  0.00000000000E+00 0.  1.
          2   -1    0    0  501    0  0.00000000000E+00 -0.00000000000E+00 -0.14716802995E+04  0.14716802995E+04  0.00000000000E+00 0. -1.
         23    2    1    2    0    0  0.22685032262E+03  0.55442687311E+03 -0.72332334712E+03  0.94356402131E+03  0.90918487306E+02 0.  0.
         11    1    3    3    0    0  0.99478408048E+02  0.27147992569E+03 -0.41791070214E+03  0.50817975037E+03  0.00000000000E+00 0. -1.
        -11    1    3    3    0    0  0.12737191457E+03  0.28294694741E+03 -0.30541264498E+03  0.43538427094E+03  0.00000000000E+00 0.  1.
         22    1    1    2    0    0 -0.22685032262E+03 -0.55442687311E+03 -0.49767345351E+03  0.77879977711E+03  0.00000000000E+00 0.  1.
<mgrwt>
<rscale>  0 0.12147855E+04</rscale>
<asrwt>0</asrwt>
<pdfrwt beam="1">  1        2 0.22641235E+00 0.12147855E+04</pdfrwt>
<pdfrwt beam="2">  1       -2 0.38566693E-01 0.12147855E+04</pdfrwt>
<totfact> 0.82421666E+01</totfact>
</mgrwt>
</event>
<event>
 6    1  0.3017327E-006  0.2922208E+04  0.7818608E-02  0.8266301E-01
         -2   -1    0    0    0  501 -0.00000000000E+00  0.00000000000E+00  0.79165237305E+03  0.79165237305E+03  0.00000000000E+00 0.  1.
          2   -1    0    0  501    0  0.00000000000E+00 -0.00000000000E+00 -0.26966688043E+04  0.26966688043E+04  0.00000000000E+00 0. -1.
         23    2    1    2    0    0  0.77613068316E+01  0.78072223722E+03  0.51899950028E+03  0.94166833768E+03  0.88268495718E+02 0.  0.
         11    1    3    3    0    0  0.42042072874E+02  0.36661273470E+03  0.27005336227E+03  0.45727590316E+03  0.00000000000E+00 0. -1.
        -11    1    3    3    0    0 -0.34280766043E+02  0.41410950251E+03  0.24894613800E+03  0.48439243452E+03  0.00000000000E+00 0.  1.
         22    1    1    2    0    0 -0.77613068316E+01 -0.78072223722E+03 -0.24240159316E+04  0.25466528397E+04  0.00000000000E+00 0. -1.
<mgrwt>
<rscale>  0 0.29222076E+04</rscale>
<asrwt>0</asrwt>
<pdfrwt beam="1">  1        2 0.41487213E+00 0.29222076E+04</pdfrwt>
<pdfrwt beam="2">  1       -2 0.12179267E+00 0.29222076E+04</pdfrwt>
<totfact> 0.11756462E+00</totfact>
</mgrwt>
</event>
<event>
 6    1  0.3017327E-006  0.1622549E+04  0.7818608E-02  0.8806814E-01
          1   -1    0    0  501    0  0.00000000000E+00  0.00000000000E+00  0.29925070718E+04  0.29925070718E+04  0.00000000000E+00 0. -1.
         -1   -1    0    0    0  501 -0.00000000000E+00 -0.00000000000E+00 -0.21993813824E+03  0.21993813824E+03  0.00000000000E+00 0.  1.
         23    2    1    2    0    0 -0.56263416590E+03 -0.49941842144E+03  0.19762980813E+04  0.21169894901E+04  0.99571232961E+02 0.  0.
         11    1    3    3    0    0 -0.40332626360E+03 -0.33413547617E+03  0.14863240722E+04  0.15759054029E+04  0.00000000000E+00 0. -1.
        -11    1    3    3    0    0 -0.15930790231E+03 -0.16528294527E+03  0.48997400914E+03  0.54108408715E+03  0.00000000000E+00 0.  1.
         22    1    1    2    0    0  0.56263416590E+03  0.49941842144E+03  0.79627085221E+03  0.10954557200E+04  0.00000000000E+00 0.  1.
<mgrwt>
<rscale>  0 0.16225491E+04</rscale>
<asrwt>0</asrwt>
<pdfrwt beam="1">  1        1 0.46038567E+00 0.16225491E+04</pdfrwt>
<pdfrwt beam="2">  1       -1 0.33836639E-01 0.16225491E+04</pdfrwt>
<totfact> 0.48020510E+00</totfact>
</mgrwt>
</event>
<event>
 6    1  0.3017327E-006  0.1694833E+04  0.7818608E-02  0.8764317E-01
          2   -1    0    0  501    0  0.00000000000E+00  0.00000000000E+00  0.79050625860E+03  0.79050625860E+03  0.00000000000E+00 0. -1.
         -2   -1    0    0    0  501 -0.00000000000E+00 -0.00000000000E+00 -0.90842392800E+03  0.90842392800E+03  0.00000000000E+00 0.  1.
         23    2    1    2    0    0 -0.19904134229E+03  0.11399225568E+03  0.75608843600E+03  0.79532719714E+03  0.90906199780E+02 0.  0.
         13    1    3    3    0    0 -0.14685841207E+03  0.54704772114E+02  0.38023196996E+03  0.41126190714E+03  0.00000000000E+00 0.  1.
        -13    1    3    3    0    0 -0.52182930217E+02  0.59287483567E+02  0.37585646604E+03  0.38406528999E+03  0.00000000000E+00 0. -1.
         22    1    1    2    0    0  0.19904134229E+03 -0.11399225568E+03 -0.87400610540E+03  0.90360298947E+03  0.00000000000E+00 0.  1.
<mgrwt>
<rscale>  0 0.16948331E+04</rscale>
<asrwt>0</asrwt>
<pdfrwt beam="1">  1        2 0.12161635E+00 0.16948331E+04</pdfrwt>
<pdfrwt beam="2">  1       -2 0.13975753E+00 0.16948331E+04</pdfrwt>
<totfact> 0.12015829E+01</totfact>
</mgrwt>
</event>
<event>
 6    1  0.3017327E-006  0.2409372E+04  0.7818608E-02  0.8436003E-01
          1   -1    0    0  501    0  0.00000000000E+00  0.00000000000E+00  0.13316371224E+04  0.13316371224E+04  0.00000000000E+00 0.  1.
         -1   -1    0    0    0  501 -0.00000000000E+00 -0.00000000000E+00 -0.10898373796E+04  0.10898373796E+04  0.00000000000E+00 0. -1.
         23    2    1    2    0    0  0.72619523432E+03  0.94363150737E+03  0.29234050617E+03  0.12296883178E+04  0.94183052645E+02 0.  0.
         13    1    3    3    0    0  0.24622587655E+03  0.38280795011E+03  0.13726400844E+03  0.47540563413E+03  0.00000000000E+00 0. -1.
        -13    1    3    3    0    0  0.47996935778E+03  0.56082355725E+03  0.15507649773E+03  0.75428268370E+03  0.00000000000E+00 0.  1.
         22    1    1    2    0    0 -0.72619523432E+03 -0.94363150737E+03 -0.50540763334E+02  0.11917861842E+04  0.00000000000E+00 0.  1.
<mgrwt>
<rscale>  0 0.24093716E+04</rscale>
<asrwt>0</asrwt>
<pdfrwt beam="1">  1        1 0.20486725E+00 0.24093716E+04</pdfrwt>
<pdfrwt beam="2">  1       -1 0.16766729E+00 0.24093716E+04</pdfrwt>
<totfact> 0.19687071E+00</totfact>
</mgrwt>
</event>
<event>
 6    1  0.3017327E-006  0.1172991E+04  0.7818608E-02  0.9136831E-01
         -4   -1    0    0    0  501 -0.00000000000E+00  0.00000000000E+00  0.55521159881E+03  0.55521159881E+03  0.00000000000E+00 0.  1.
          4   -1    0    0  501    0  0.00000000000E+00 -0.00000000000E+00 -0.61954230957E+03  0.61954230957E+03  0.00000000000E+00 0. -1.
         23    2    1    2    0    0 -0.14484222919E+02  0.18415809523E+03 -0.58600072494E+03  0.62134302987E+03  0.92446278384E+02 0.  0.
         11    1    3    3    0    0 -0.35107163007E+02  0.14543130980E+03 -0.34000184852E+03  0.37146202466E+03  0.00000000000E+00 0.  1.
        -11    1    3    3    0    0  0.20622940088E+02  0.38726785431E+02 -0.24599887642E+03  0.24988100522E+03  0.00000000000E+00 0. -1.
         22    1    1    2    0    0  0.14484222919E+02 -0.18415809523E+03  0.52167001418E+03  0.55341087850E+03  0.00000000000E+00 0.  1.
<mgrwt>
<rscale>  0 0.11729912E+04</rscale>
<asrwt>0</asrwt>
<pdfrwt beam="1">  1        4 0.95314201E-01 0.11729912E+04</pdfrwt>
<pdfrwt beam="2">  1       -4 0.85417169E-01 0.11729912E+04</pdfrwt>
<totfact> 0.21774019E+00</totfact>
</mgrwt>
</event>
<event>
 6    1  0.3017327E-006  0.1087695E+04  0.7818608E-02  0.9217269E-01
          1   -1    0    0  501    0  0.00000000000E+00  0.00000000000E+00  0.21974333365E+04  0.21974333365E+04  0.00000000000E+00 0. -1.
         -1   -1    0    0    0  501 -0.00000000000E+00 -0.00000000000E+00 -0.13459800949E+03  0.13459800949E+03  0.00000000000E+00 0.  1.
         23    2    1    2    0    0  0.23978355437E+03 -0.43110195941E+03  0.15107257628E+04  0.15916462953E+04  0.87752758465E+02 0.  0.
         11    1    3    3    0    0  0.49758755537E+02 -0.14533519100E+03  0.56772915443E+03  0.58814508778E+03  0.00000000000E+00 0. -1.
        -11    1    3    3    0    0  0.19002479883E+03 -0.28576676841E+03  0.94299660841E+03  0.10035012076E+04  0.00000000000E+00 0.  1.
         22    1    1    2    0    0 -0.23978355437E+03  0.43110195941E+03  0.55210956413E+03  0.74038505060E+03  0.00000000000E+00 0.  1.
<mgrwt>
<rscale>  0 0.10876951E+04</rscale>
<asrwt>0</asrwt>
<pdfrwt beam="1">  1        1 0.33806664E+00 0.10876951E+04</pdfrwt>
<pdfrwt beam="2">  1       -1 0.20707388E-01 0.10876951E+04</pdfrwt>
<totfact> 0.42309312E+01</totfact>
</mgrwt>
</event>
<event>
 6    1  0.3017327E-006  0.2110309E+04  0.7818608E-02  0.8556716E-01
         -2   -1    0    0    0  501 -0.00000000000E+00  0.00000000000E+00  0.39322265560E+03  0.39322265560E+03  0.00000000000E+00 0.  1.
          2   -1    0    0  501    0  0.00000000000E+00 -0.00000000000E+00 -0.28313492345E+04  0.28313492345E+04  0.00000000000E+00 0. -1.
         23    2    1    2    0    0  0.15993383771E+03 -0.43690591192E+03 -0.26650570144E+04  0.27069204332E+04  0.91780899232E+02 0.  0.
         13    1    3    3    0    0  0.66019512629E+02 -0.73150282015E+02 -0.54897529741E+03  0.55774852485E+03  0.00000000000E+00 0. -1.
        -13    1    3    3    0    0  0.93914325083E+02 -0.36375562991E+03 -0.21160817170E+04  0.21491719083E+04  0.00000000000E+00 0.  1.
         22    1    1    2    0    0 -0.15993383771E+03  0.43690591192E+03  0.22693043545E+03  0.51765145692E+03  0.00000000000E+00 0.  1.
<mgrwt>
<rscale>  0 0.21103087E+04</rscale>
<asrwt>0</asrwt>
<pdfrwt beam="1">  1        2 0.43559219E+00 0.21103087E+04</pdfrwt>
<pdfrwt beam="2">  1       -2 0.60495794E-01 0.21103087E+04</pdfrwt>
<totfact> 0.51925931E+00</totfact>
</mgrwt>
</event>
<event>
 6    1  0.3017327E-006  0.1584950E+04  0.7818608E-02  0.8829848E-01
          2   -1    0    0  501    0  0.00000000000E+00  0.00000000000E+00  0.64895499887E+03  0.64895499887E+03  0.00000000000E+00 0. -1.
         -2   -1    0    0    0  501 -0.00000000000E+00 -0.00000000000E+00 -0.96773504567E+03  0.96773504567E+03  0.00000000000E+00 0.  1.
         23    2    1    2    0    0 -0.44581669705E+03  0.54258386685E+03  0.20906076779E+03  0.73818807785E+03  0.89807871097E+02 0.  0.
         11    1    3    3    0    0 -0.31128949789E+03  0.32236635213E+03  0.10734234270E+03  0.46080754661E+03  0.00000000000E+00 0. -1.
        -11    1    3    3    0    0 -0.13452719917E+03  0.22021751472E+03  0.10171842509E+03  0.27738053124E+03  0.00000000000E+00 0.  1.
         22    1    1    2    0    0  0.44581669705E+03 -0.54258386685E+03 -0.52784081459E+03  0.87850196670E+03  0.00000000000E+00 0.  1.
<mgrwt>
<rscale>  0 0.15849498E+04</rscale>
<asrwt>0</asrwt>
<pdfrwt beam="1">  1        2 0.99839231E-01 0.15849498E+04</pdfrwt>
<pdfrwt beam="2">  1       -2 0.14888231E+00 0.15849498E+04</pdfrwt>
<totfact> 0.13210106E+01</totfact>
</mgrwt>
</event>
<event>
 6    1  0.3017327E-006  0.3425154E+04  0.7818608E-02  0.8131760E-01
          2   -1    0    0  501    0  0.00000000000E+00  0.00000000000E+00  0.25983700694E+04  0.25983700694E+04  0.00000000000E+00 0. -1.
         -2   -1    0    0    0  501 -0.00000000000E+00 -0.00000000000E+00 -0.11287536244E+04  0.11287536244E+04  0.00000000000E+00 0.  1.
         23    2    1    2    0    0  0.15350465720E+04 -0.62150039094E+03  0.12048293828E+04  0.20500002927E+04  0.90866077913E+02 0.  0.
         13    1    3    3    0    0  0.24211762531E+03 -0.67234990447E+02  0.16352551351E+03  0.29980340558E+03  0.00000000000E+00 0.  1.
        -13    1    3    3    0    0  0.12929289467E+04 -0.55426540049E+03  0.10413038693E+04  0.17501968871E+04  0.00000000000E+00 0. -1.
         22    1    1    2    0    0 -0.15350465720E+04  0.62150039094E+03  0.26478706224E+03  0.16771234011E+04  0.00000000000E+00 0.  1.
<mgrwt>
<rscale>  0 0.34251538E+04</rscale>
<asrwt>0</asrwt>
<pdfrwt beam="1">  1        2 0.39974924E+00 0.34251538E+04</pdfrwt>
<pdfrwt beam="2">  1       -2 0.17365440E+00 0.34251538E+04</pdfrwt>
<totfact> 0.50624126E-01</totfact>
</mgrwt>
</event>
<event>
 6    1  0.3017327E-006  0.3948969E+04  0.7818608E-02  0.8014921E-01
         -1   -1    0    0    0  501 -0.00000000000E+00  0.00000000000E+00  0.11890919293E+04  0.11890919293E+04  0.00000000000E+00 0.  1.
          1   -1    0    0  501    0  0.00000000000E+00 -0.00000000000E+00 -0.32786270105E+04  0.32786270105E+04  0.00000000000E+00 0. -1.
         23    2    1    2    0    0 -0.56624302263E+02 -0.10349584090E+04 -0.29451222038E+04  0.31237046004E+04  0.97161798378E+02 0.  0.
         11    1    3    3    0    0 -0.57661378827E+02 -0.72996649337E+03 -0.21965238735E+04  0.23153602405E+04  0.00000000000E+00 0.  1.
        -11    1    3    3    0    0  0.10370765640E+01 -0.30499191568E+03 -0.74859833028E+03  0.80834435994E+03  0.00000000000E+00 0. -1.
         22    1    1    2    0    0  0.56624302263E+02  0.10349584090E+04  0.85558712259E+03  0.13440143394E+04  0.00000000000E+00 0.  1.
<mgrwt>
<rscale>  0 0.39489689E+04</rscale>
<asrwt>0</asrwt>
<pdfrwt beam="1">  1        1 0.50440416E+00 0.39489689E+04</pdfrwt>
<pdfrwt beam="2">  1       -1 0.18293722E+00 0.39489689E+04</pdfrwt>
<totfact> 0.57709788E-02</totfact>
</mgrwt>
</event>
<event>
 6    1  0.3017327E-006  0.1111524E+04  0.7818608E-02  0.9194032E-01
         -3   -1    0    0    0  501 -0.00000000000E+00  0.00000000000E+00  0.31082105641E+03  0.31082105641E+03  0.00000000000E+00 0.  1.
          3   -1    0    0  501    0  0.00000000000E+00 -0.00000000000E+00 -0.99372748124E+03  0.99372748124E+03  0.00000000000E+00 0. -1.
         23    2    1    2    0    0  0.72733391008E+02  0.30243182816E+03  0.19127114517E+03  0.37667916066E+03  0.92452053799E+02 0.  0.
         13    1    3    3    0    0  0.80328439956E+02  0.21595908359E+03  0.10142792573E+03  0.25175108375E+03  0.00000000000E+00 0. -1.
        -13    1    3    3    0    0 -0.75950489479E+01  0.86472744563E+02  0.89843219441E+02  0.12492807691E+03  0.00000000000E+00 0.  1.
         22    1    1    2    0    0 -0.72733391008E+02 -0.30243182816E+03 -0.87417757001E+03  0.92786937699E+03  0.00000000000E+00 0. -1.
<mgrwt>
<rscale>  0 0.11115240E+04</rscale>
<asrwt>0</asrwt>
<pdfrwt beam="1">  1        3 0.15288115E+00 0.11115240E+04</pdfrwt>
<pdfrwt beam="2">  1       -3 0.47818624E-01 0.11115240E+04</pdfrwt>
<totfact> 0.34814970E+00</totfact>
</mgrwt>
</event>
<event>
 6    1  0.3017327E-006  0.4398649E+04  0.7818608E-02  0.7928625E-01
          1   -1    0    0  501    0  0.00000000000E+00  0.00000000000E+00  0.16157441795E+04  0.16157441795E+04  0.00000000000E+00 0. -1.
         -1   -1    0    0    0  501 -0.00000000000E+00 -0.00000000000E+00 -0.29936843348E+04  0.29936843348E+04  0.00000000000E+00 0.  1.
         23    2    1    2    0    0 -0.32999935596E+03 -0.21532765543E+04 -0.38064256842E+03  0.22135775234E+04  0.97658552865E+02 0.  0.
         13    1    3    3    0    0 -0.22221525123E+03 -0.15097414530E+04 -0.31096389283E+03  0.15573687474E+04  0.00000000000E+00 0.  1.
        -13    1    3    3    0    0 -0.10778410473E+03 -0.64353510125E+03 -0.69678675587E+02  0.65620877592E+03  0.00000000000E+00 0. -1.
         22    1    1    2    0    0  0.32999935596E+03  0.21532765543E+04 -0.99729758684E+03  0.23958509909E+04  0.00000000000E+00 0.  1.
<mgrwt>
<rscale>  0 0.43986489E+04</rscale>
<asrwt>0</asrwt>
<pdfrwt beam="1">  1        1 0.24857603E+00 0.43986489E+04</pdfrwt>
<pdfrwt beam="2">  1       -1 0.46056682E+00 0.43986489E+04</pdfrwt>
<totfact> 0.11300096E-02</totfact>
</mgrwt>
</event>
<event>
 6    1  0.3017327E-006  0.2365647E+04  0.7818608E-02  0.8452478E-01
          1   -1    0    0  501    0  0.00000000000E+00  0.00000000000E+00  0.12812074661E+04  0.12812074661E+04  0.00000000000E+00 0.  1.
         -1   -1    0    0    0  501 -0.00000000000E+00 -0.00000000000E+00 -0.10919941178E+04  0.10919941178E+04  0.00000000000E+00 0. -1.
         23    2    1    2    0    0  0.19952408314E+03  0.29156194300E+03  0.12253220632E+04  0.12785146445E+04  0.91473008142E+02 0.  0.
         11    1    3    3    0    0  0.38524764208E+02  0.12781835561E+03  0.51344291985E+03  0.53051420474E+03  0.00000000000E+00 0. -1.
        -11    1    3    3    0    0  0.16099931893E+03  0.16374358739E+03  0.71187914333E+03  0.74800043972E+03  0.00000000000E+00 0.  1.
         22    1    1    2    0    0 -0.19952408314E+03 -0.29156194300E+03 -0.10361087149E+04  0.10946869394E+04  0.00000000000E+00 0. -1.
<mgrwt>
<rscale>  0 0.23656466E+04</rscale>
<asrwt>0</asrwt>
<pdfrwt beam="1">  1        1 0.19710884E+00 0.23656466E+04</pdfrwt>
<pdfrwt beam="2">  1       -1 0.16799910E+00 0.23656466E+04</pdfrwt>
<totfact> 0.21350786E+00</totfact>
</mgrwt>
</event>
<event>
 6    1  0.3017327E-006  0.4832448E+04  0.7818608E-02  0.7854886E-01
         -2   -1    0    0    0  501 -0.00000000000E+00  0.00000000000E+00  0.23497353463E+04  0.23497353463E+04  0.00000000000E+00 0.  1.
          2   -1    0    0  501    0  0.00000000000E+00 -0.00000000000E+00 -0.24845945209E+04  0.24845945209E+04  0.00000000000E+00 0. -1.
         23    2    1    2    0    0  0.64231488426E+03  0.15190175998E+04  0.16978946680E+04  0.23687732309E+04  0.90870438542E+02 0.  0.
         11    1    3    3    0    0  0.21310627767E+03  0.48604808394E+03  0.60730294107E+03  0.80651961397E+03  0.00000000000E+00 0. -1.
        -11    1    3    3    0    0  0.42920860659E+03  0.10329695158E+04  0.10905917270E+04  0.15622536169E+04  0.00000000000E+00 0.  1.
         22    1    1    2    0    0 -0.64231488426E+03 -0.15190175998E+04 -0.18327538427E+04  0.24655566363E+04  0.00000000000E+00 0. -1.
<mgrwt>
<rscale>  0 0.48324485E+04</rscale>
<asrwt>0</asrwt>
<pdfrwt beam="1">  1        2 0.38224531E+00 0.48324485E+04</pdfrwt>
<pdfrwt beam="2">  1       -2 0.36149775E+00 0.48324485E+04</pdfrwt>
<totfact> 0.34493000E-02</totfact>
</mgrwt>
</event>
<event>
 6    1  0.3017327E-006  0.1844112E+04  0.7818608E-02  0.8683187E-01
          2   -1    0    0  501    0  0.00000000000E+00  0.00000000000E+00  0.18619760955E+04  0.18619760955E+04  0.00000000000E+00 0. -1.
         -2   -1    0    0    0  501 -0.00000000000E+00 -0.00000000000E+00 -0.45660484261E+03  0.45660484261E+03  0.00000000000E+00 0.  1.
         23    2    1    2    0    0 -0.44116215123E+03 -0.49635692636E+03  0.15045583989E+04  0.16471404479E+04  0.91550189907E+02 0.  0.
         13    1    3    3    0    0 -0.85720196671E+02 -0.57747305417E+02  0.18558934908E+03  0.21242907026E+03  0.00000000000E+00 0. -1.
        -13    1    3    3    0    0 -0.35544195455E+03 -0.43860962095E+03  0.13189690498E+04  0.14347113776E+04  0.00000000000E+00 0.  1.
         22    1    1    2    0    0  0.44116215123E+03  0.49635692636E+03 -0.99187145993E+02  0.67144049025E+03  0.00000000000E+00 0.  1.
<mgrwt>
<rscale>  0 0.18441120E+04</rscale>
<asrwt>0</asrwt>
<pdfrwt beam="1">  1        2 0.28645786E+00 0.18441120E+04</pdfrwt>
<pdfrwt beam="2">  1       -2 0.70246900E-01 0.18441120E+04</pdfrwt>
<totfact> 0.13832173E+01</totfact>
</mgrwt>
</event>
<event>
 6    1  0.3017327E-006  0.2373186E+04  0.7818608E-02  0.8449611E-01
          2   -1    0    0  501    0  0.00000000000E+00  0.00000000000E+00  0.12208109484E+04  0.12208109484E+04  0.00000000000E+00 0. -1.
         -2   -1    0    0    0  501 -0.00000000000E+00 -0.00000000000E+00 -0.11533343813E+04  0.11533343813E+04  0.00000000000E+00 0.  1.
         23    2    1    2    0    0 -0.25430962090E+03  0.11466173443E+04  0.19055769730E+03  0.11932331051E+04  0.89934918351E+02 0.  0.
         13    1    3    3    0    0 -0.10866473190E+03  0.35828887876E+03  0.91874711174E+02  0.38551252529E+03  0.00000000000E+00 0. -1.
        -13    1    3    3    0    0 -0.14564488900E+03  0.78832846557E+03  0.98682986125E+02  0.80772057982E+03  0.00000000000E+00 0.  1.
         22    1    1    2    0    0  0.25430962090E+03 -0.11466173443E+04 -0.12308113011E+03  0.11809122246E+04  0.00000000000E+00 0.  1.
<mgrwt>
<rscale>  0 0.23731862E+04</rscale>
<asrwt>0</asrwt>
<pdfrwt beam="1">  1        2 0.18781707E+00 0.23731862E+04</pdfrwt>
<pdfrwt beam="2">  1       -2 0.17743606E+00 0.23731862E+04</pdfrwt>
<totfact> 0.31338552E+00</totfact>
</mgrwt>
</event>
<event>
 6    1  0.3017327E-006  0.2746922E+04  0.7818608E-02  0.8319939E-01
         -2   -1    0    0    0  501 -0.00000000000E+00  0.00000000000E+00  0.14049115108E+04  0.14049115108E+04  0.00000000000E+00 0.  1.
          2   -1    0    0  501    0  0.00000000000E+00 -0.00000000000E+00 -0.13427140578E+04  0.13427140578E+04  0.00000000000E+00 0. -1.
         23    2    1    2    0    0 -0.62830566929E+03 -0.37868245547E+03 -0.11284950111E+04  0.13490845573E+04  0.91431594076E+02 0.  0.
         13    1    3    3    0    0 -0.22828020946E+03 -0.16754549067E+03 -0.50213690414E+03  0.57647620591E+03  0.00000000000E+00 0. -1.
        -13    1    3    3    0    0 -0.40002545983E+03 -0.21113696480E+03 -0.62635810696E+03  0.77260835134E+03  0.00000000000E+00 0.  1.
         22    1    1    2    0    0  0.62830566929E+03  0.37868245547E+03  0.11906924641E+04  0.13985410113E+04  0.00000000000E+00 0.  1.
<mgrwt>
<rscale>  0 0.27469215E+04</rscale>
<asrwt>0</asrwt>
<pdfrwt beam="1">  1        2 0.20657139E+00 0.27469215E+04</pdfrwt>
<pdfrwt beam="2">  1       -2 0.21614023E+00 0.27469215E+04</pdfrwt>
<totfact> 0.14270437E+00</totfact>
</mgrwt>
</event>
<event>
 6    1  0.3017327E-006  0.1246867E+04  0.7818608E-02  0.9072795E-01
         -2   -1    0    0    0  501 -0.00000000000E+00  0.00000000000E+00  0.13549592463E+03  0.13549592463E+03  0.00000000000E+00 0.  1.
          2   -1    0    0  501    0  0.00000000000E+00 -0.00000000000E+00 -0.28684923308E+04  0.28684923308E+04  0.00000000000E+00 0. -1.
         23    2    1    2    0    0 -0.36258391414E+02  0.26869165528E+03 -0.27174289707E+04  0.27324146529E+04  0.90331321842E+02 0.  0.
         11    1    3    3    0    0 -0.24297855424E+02  0.26034491791E+03 -0.23147245288E+04  0.23294461802E+04  0.00000000000E+00 0.  1.
        -11    1    3    3    0    0 -0.11960535990E+02  0.83467373718E+01 -0.40270444192E+03  0.40296847270E+03  0.00000000000E+00 0. -1.
         22    1    1    2    0    0  0.36258391414E+02 -0.26869165528E+03 -0.15567435452E+02  0.27157360257E+03  0.00000000000E+00 0.  1.
<mgrwt>
<rscale>  0 0.12468665E+04</rscale>
<asrwt>0</asrwt>
<pdfrwt beam="1">  1        2 0.44130650E+00 0.12468665E+04</pdfrwt>
<pdfrwt beam="2">  1       -2 0.20845527E-01 0.12468665E+04</pdfrwt>
<totfact> 0.41500014E+01</totfact>
</mgrwt>
</event>
<event>
 6    1  0.3017327E-006  0.2223316E+04  0.7818608E-02  0.8508786E-01
          2   -1    0    0  501    0  0.00000000000E+00  0.00000000000E+00  0.19827044797E+04  0.19827044797E+04  0.00000000000E+00 0. -1.
         -2   -1    0    0    0  501 -0.00000000000E+00 -0.00000000000E+00 -0.62328152204E+03  0.62328152204E+03  0.00000000000E+00 0.  1.
         23    2    1    2    0    0  0.48668204161E+03 -0.29730505759E+03  0.17967560699E+04  0.18872997294E+04  0.91204095750E+02 0.  0.
         11    1    3    3    0    0  0.22236762672E+03 -0.11943792535E+03  0.93739986526E+03  0.97078900221E+03  0.00000000000E+00 0. -1.
        -11    1    3    3    0    0  0.26431441489E+03 -0.17786713223E+03  0.85935620462E+03  0.91651072720E+03  0.00000000000E+00 0.  1.
         22    1    1    2    0    0 -0.48668204161E+03  0.29730505759E+03 -0.43733311227E+03  0.71868627229E+03  0.00000000000E+00 0.  1.
<mgrwt>
<rscale>  0 0.22233156E+04</rscale>
<asrwt>0</asrwt>
<pdfrwt beam="1">  1        2 0.30503146E+00 0.22233156E+04</pdfrwt>
<pdfrwt beam="2">  1       -2 0.95889466E-01 0.22233156E+04</pdfrwt>
<totfact> 0.56822801E+00</totfact>
</mgrwt>
</event>
<event>
 6    1  0.3017327E-006  0.1510098E+04  0.7818608E-02  0.8877766E-01
         -1   -1    0    0    0  501 -0.00000000000E+00  0.00000000000E+00  0.67480041118E+03  0.67480041118E+03  0.00000000000E+00 0.  1.
          1   -1    0    0  501    0  0.00000000000E+00 -0.00000000000E+00 -0.84484083186E+03  0.84484083186E+03  0.00000000000E+00 0. -1.
         23    2    1    2    0    0  0.21670248456E+02  0.18016260806E+03  0.64935911836E+03  0.68038933236E+03  0.91291916298E+02 0.  0.
         11    1    3    3    0    0  0.50148559235E+02  0.76624192569E+02  0.36831803604E+03  0.37953171219E+03  0.00000000000E+00 0.  1.
        -11    1    3    3    0    0 -0.28478310780E+02  0.10353841549E+03  0.28104108231E+03  0.30085762017E+03  0.00000000000E+00 0. -1.
         22    1    1    2    0    0 -0.21670248456E+02 -0.18016260806E+03 -0.81939953904E+03  0.83925191068E+03  0.00000000000E+00 0. -1.
<mgrwt>
<rscale>  0 0.15100979E+04</rscale>
<asrwt>0</asrwt>
<pdfrwt beam="1">  1        1 0.12997551E+00 0.15100979E+04</pdfrwt>
<pdfrwt beam="2">  1       -1 0.10381545E+00 0.15100979E+04</pdfrwt>
<totfact> 0.17098784E+01</totfact>
</mgrwt>
</event>
<event>
 6    1  0.3017327E-006  0.2072437E+04  0.7818608E-02  0.8573483E-01
          2   -1    0    0  501    0  0.00000000000E+00  0.00000000000E+00  0.26646829751E+04  0.26646829751E+04  0.00000000000E+00 0. -1.
         -2   -1    0    0    0  501 -0.00000000000E+00 -0.00000000000E+00 -0.40295565304E+03  0.40295565304E+03  0.00000000000E+00 0.  1.
         23    2    1    2    0    0 -0.92186751930E+03  0.34829170789E+03  0.16008100308E+04  0.18810643562E+04  0.68289973201E+02 0.  0.
         13    1    3    3    0    0 -0.54649701298E+03  0.23993149848E+03  0.98953585007E+03  0.11555982467E+04  0.00000000000E+00 0.  1.
        -13    1    3    3    0    0 -0.37537050632E+03  0.10836020941E+03  0.61127418078E+03  0.72546610954E+03  0.00000000000E+00 0. -1.
         22    1    1    2    0    0  0.92186751930E+03 -0.34829170789E+03  0.66091729116E+03  0.11865742719E+04  0.00000000000E+00 0.  1.
<mgrwt>
<rscale>  0 0.20724373E+04</rscale>
<asrwt>0</asrwt>
<pdfrwt beam="1">  1        2 0.40995122E+00 0.20724373E+04</pdfrwt>
<pdfrwt beam="2">  1       -2 0.61993179E-01 0.20724373E+04</pdfrwt>
<totfact> 0.62246259E+00</totfact>
</mgrwt>
</event>
<event>
 6    1  0.3017327E-006  0.2013840E+04  0.7818608E-02  0.8600177E-01
          2   -1    0    0  501    0  0.00000000000E+00  0.00000000000E+00  0.35053458496E+04  0.35053458496E+04  0.00000000000E+00 0.  1.
         -2   -1    0    0    0  501 -0.00000000000E+00 -0.00000000000E+00 -0.28924046900E+03  0.28924046900E+03  0.00000000000E+00 0. -1.
         23    2    1    2    0    0 -0.95849144660E+03  0.16200778485E+03  0.11313645290E+04  0.14943478975E+04  0.90208457095E+02 0.  0.
         11    1    3    3    0    0 -0.51756616658E+03  0.13296650198E+03  0.62252412414E+03  0.82042130188E+03  0.00000000000E+00 0. -1.
        -11    1    3    3    0    0 -0.44092528001E+03  0.29041282861E+02  0.50884040484E+03  0.67392659560E+03  0.00000000000E+00 0.  1.
         22    1    1    2    0    0  0.95849144660E+03 -0.16200778485E+03  0.20847408517E+04  0.23002384212E+04  0.00000000000E+00 0.  1.
<mgrwt>
<rscale>  0 0.20138400E+04</rscale>
<asrwt>0</asrwt>
<pdfrwt beam="1">  1        2 0.53928395E+00 0.20138400E+04</pdfrwt>
<pdfrwt beam="2">  1       -2 0.44498536E-01 0.20138400E+04</pdfrwt>
<totfact> 0.36021979E+00</totfact>
</mgrwt>
</event>
<event>
 6    1  0.3017327E-006  0.2222627E+04  0.7818608E-02  0.8509069E-01
         -1   -1    0    0    0  501 -0.00000000000E+00  0.00000000000E+00  0.49101700048E+04  0.49101700048E+04  0.00000000000E+00 0.  1.
          1   -1    0    0  501    0  0.00000000000E+00 -0.00000000000E+00 -0.25152229557E+03  0.25152229557E+03  0.00000000000E+00 0. -1.
         23    2    1    2    0    0 -0.54864688608E+03  0.95402589338E+03  0.20077820529E+04  0.22914540631E+04  0.91619542061E+02 0.  0.
         11    1    3    3    0    0 -0.34237557888E+03  0.67519838505E+03  0.13456774279E+04  0.15440083019E+04  0.00000000000E+00 0.  1.
        -11    1    3    3    0    0 -0.20627130720E+03  0.27882750832E+03  0.66210462495E+03  0.74744576121E+03  0.00000000000E+00 0. -1.
         22    1    1    2    0    0  0.54864688608E+03 -0.95402589338E+03  0.26508656564E+04  0.28702382373E+04  0.00000000000E+00 0. -1.
<mgrwt>
<rscale>  0 0.22226266E+04</rscale>
<asrwt>0</asrwt>
<pdfrwt beam="1">  1        1 0.38695741E-01 0.22226266E+04</pdfrwt>
<pdfrwt beam="2">  1       -1 0.75541070E+00 0.22226266E+04</pdfrwt>
<totfact> 0.12088104E-02</totfact>
</mgrwt>
</event>
<event>
 6    1  0.3017327E-006  0.2569859E+04  0.7818608E-02  0.8378512E-01
         -1   -1    0    0    0  501 -0.00000000000E+00  0.00000000000E+00  0.13814259466E+04  0.13814259466E+04  0.00000000000E+00 0.  1.
          1   -1    0    0  501    0  0.00000000000E+00 -0.00000000000E+00 -0.11951737672E+04  0.11951737672E+04  0.00000000000E+00 0. -1.
         23    2    1    2    0    0  0.45175816797E+03  0.11075669715E+04  0.55936568293E+03  0.13236018187E+04  0.90784186667E+02 0.  0.
         11    1    3    3    0    0  0.10745476330E+03  0.37596903039E+03  0.18031899558E+03  0.43059746648E+03  0.00000000000E+00 0. -1.
        -11    1    3    3    0    0  0.34430340468E+03  0.73159794108E+03  0.37904668734E+03  0.89300435220E+03  0.00000000000E+00 0.  1.
         22    1    1    2    0    0 -0.45175816797E+03 -0.11075669715E+04 -0.37311350349E+03  0.12529978951E+04  0.00000000000E+00 0. -1.
<mgrwt>
<rscale>  0 0.25698592E+04</rscale>
<asrwt>0</asrwt>
<pdfrwt beam="1">  1        1 0.18387289E+00 0.25698592E+04</pdfrwt>
<pdfrwt beam="2">  1       -1 0.21252707E+00 0.25698592E+04</pdfrwt>
<totfact> 0.11756545E+00</totfact>
</mgrwt>
</event>
<event>
 6    1  0.3017327E-006  0.2245064E+04  0.7818608E-02  0.8499902E-01
         -2   -1    0    0    0  501 -0.00000000000E+00  0.00000000000E+00  0.81694796581E+03  0.81694796581E+03  0.00000000000E+00 0.  1.
          2   -1    0    0  501    0  0.00000000000E+00 -0.00000000000E+00 -0.15424216684E+04  0.15424216684E+04  0.00000000000E+00 0. -1.
         23    2    1    2    0    0  0.53084535070E+03  0.95974991395E+03 -0.12328767238E+03  0.11081523475E+04  0.99423796696E+02 0.  0.
         11    1    3    3    0    0  0.17891606217E+03  0.38587107127E+03 -0.85903956091E+02  0.43392041968E+03  0.00000000000E+00 0. -1.
        -11    1    3    3    0    0  0.35192928853E+03  0.57387884269E+03 -0.37383716294E+02  0.67423192779E+03  0.00000000000E+00 0.  1.
         22    1    1    2    0    0 -0.53084535070E+03 -0.95974991395E+03 -0.60218603024E+03  0.12512172868E+04  0.00000000000E+00 0.  1.
<mgrwt>
<rscale>  0 0.22450641E+04</rscale>
<asrwt>0</asrwt>
<pdfrwt beam="1">  1        2 0.23729564E+00 0.22450641E+04</pdfrwt>
<pdfrwt beam="2">  1       -2 0.12568430E+00 0.22450641E+04</pdfrwt>
<totfact> 0.51750896E+00</totfact>
</mgrwt>
</event>
<event>
 6    1  0.3017327E-006  0.2450551E+04  0.7818608E-02  0.8420817E-01
          2   -1    0    0  501    0  0.00000000000E+00  0.00000000000E+00  0.36605058566E+04  0.36605058566E+04  0.00000000000E+00 0. -1.
         -2   -1    0    0    0  501 -0.00000000000E+00 -0.00000000000E+00 -0.41013449478E+03  0.41013449478E+03  0.00000000000E+00 0.  1.
         23    2    1    2    0    0  0.10162198132E+04  0.36063664226E+03  0.66671624492E+03  0.12709912199E+04  0.90258702465E+02 0.  0.
         11    1    3    3    0    0  0.25397096153E+03  0.85519921714E+02  0.12125499837E+03  0.29413888036E+03  0.00000000000E+00 0. -1.
        -11    1    3    3    0    0  0.76224885163E+03  0.27511672054E+03  0.54546124655E+03  0.97685233952E+03  0.00000000000E+00 0.  1.
         22    1    1    2    0    0 -0.10162198132E+04 -0.36063664226E+03  0.25836551169E+04  0.27996491315E+04  0.00000000000E+00 0. -1.
<mgrwt>
<rscale>  0 0.24505507E+04</rscale>
<asrwt>0</asrwt>
<pdfrwt beam="1">  1        2 0.56315473E+00 0.24505507E+04</pdfrwt>
<pdfrwt beam="2">  1       -2 0.63097617E-01 0.24505507E+04</pdfrwt>
<totfact> 0.13033016E+00</totfact>
</mgrwt>
</event>
<event>
 6    1  0.3017327E-006  0.9823629E+03  0.7818608E-02  0.9328103E-01
          2   -1    0    0  501    0  0.00000000000E+00  0.00000000000E+00  0.48717217269E+03  0.48717217269E+03  0.00000000000E+00 0. -1.
         -2   -1    0    0    0  501 -0.00000000000E+00 -0.00000000000E+00 -0.49522367628E+03  0.49522367628E+03  0.00000000000E+00 0.  1.
         23    2    1    2    0    0 -0.46102584801E+03 -0.55166681906E+01  0.15336044474E+03  0.49389909031E+03  0.88552917731E+02 0.  0.
         13    1    3    3    0    0 -0.22937215477E+03 -0.46220467364E+02  0.67646954385E+02  0.24356524265E+03  0.00000000000E+00 0.  1.
        -13    1    3    3    0    0 -0.23165369324E+03  0.40703799173E+02  0.85713490353E+02  0.25033384766E+03  0.00000000000E+00 0. -1.
         22    1    1    2    0    0  0.46102584801E+03  0.55166681906E+01 -0.16141194833E+03  0.48849675866E+03  0.00000000000E+00 0.  1.
<mgrwt>
<rscale>  0 0.98236285E+03</rscale>
<asrwt>0</asrwt>
<pdfrwt beam="1">  1        2 0.74949565E-01 0.98236285E+03</pdfrwt>
<pdfrwt beam="2">  1       -2 0.76188258E-01 0.98236285E+03</pdfrwt>
<totfact> 0.97874821E+01</totfact>
</mgrwt>
</event>
<event>
 6    1  0.3017327E-006  0.2063165E+04  0.7818608E-02  0.8577646E-01
         -2   -1    0    0    0  501 -0.00000000000E+00  0.00000000000E+00  0.66590760577E+03  0.66590760577E+03  0.00000000000E+00 0. -1.
          2   -1    0    0  501    0  0.00000000000E+00 -0.00000000000E+00 -0.15980625223E+04  0.15980625223E+04  0.00000000000E+00 0.  1.
         23    2    1    2    0    0  0.84785463843E+03 -0.57344398769E+03 -0.34438049581E+03  0.10836420955E+04  0.89368731756E+02 0.  0.
         11    1    3    3    0    0  0.60509704034E+03 -0.37508521948E+03 -0.27036728440E+03  0.76153123283E+03  0.00000000000E+00 0.  1.
        -11    1    3    3    0    0  0.24275759810E+03 -0.19835876821E+03 -0.74013211413E+02  0.32211086263E+03  0.00000000000E+00 0. -1.
         22    1    1    2    0    0 -0.84785463843E+03  0.57344398769E+03 -0.58777442072E+03  0.11803280326E+04  0.00000000000E+00 0.  1.
<mgrwt>
<rscale>  0 0.20631645E+04</rscale>
<asrwt>0</asrwt>
<pdfrwt beam="1">  1        2 0.24585577E+00 0.20631645E+04</pdfrwt>
<pdfrwt beam="2">  1       -2 0.10244732E+00 0.20631645E+04</pdfrwt>
<totfact> 0.80583647E+00</totfact>
</mgrwt>
</event>
<event>
 6    1  0.3017327E-006  0.2708653E+04  0.7818608E-02  0.8332203E-01
         -2   -1    0    0    0  501 -0.00000000000E+00  0.00000000000E+00  0.47266337127E+03  0.47266337127E+03  0.00000000000E+00 0.  1.
          2   -1    0    0  501    0  0.00000000000E+00 -0.00000000000E+00 -0.38805643221E+04  0.38805643221E+04  0.00000000000E+00 0. -1.
         23    2    1    2    0    0  0.11920020797E+04 -0.47619489627E+03 -0.10197056521E+04  0.16419351377E+04  0.92308409563E+02 0.  0.
         13    1    3    3    0    0  0.41877000492E+03 -0.21480204917E+03 -0.37988191907E+03  0.60482932285E+03  0.00000000000E+00 0.  1.
        -13    1    3    3    0    0  0.77323207476E+03 -0.26139284710E+03 -0.63982373301E+03  0.10371058149E+04  0.00000000000E+00 0. -1.
         22    1    1    2    0    0 -0.11920020797E+04  0.47619489627E+03 -0.23881952987E+04  0.27112925556E+04  0.00000000000E+00 0. -1.
<mgrwt>
<rscale>  0 0.27086533E+04</rscale>
<asrwt>0</asrwt>
<pdfrwt beam="1">  1        2 0.59700990E+00 0.27086533E+04</pdfrwt>
<pdfrwt beam="2">  1       -2 0.72717442E-01 0.27086533E+04</pdfrwt>
<totfact> 0.63878978E-01</totfact>
</mgrwt>
</event>
<event>
 6    1  0.3017327E-006  0.5445445E+03  0.7818608E-02  0.1002765E+00
         -2   -1    0    0    0  501 -0.00000000000E+00  0.00000000000E+00  0.53329991147E+02  0.53329991147E+02  0.00000000000E+00 0.  1.
          2   -1    0    0  501    0  0.00000000000E+00 -0.00000000000E+00 -0.13900654445E+04  0.13900654445E+04  0.00000000000E+00 0. -1.
         23    2    1    2    0    0  0.75703818146E+02  0.20653512813E+02 -0.13570753597E+04  0.13623315876E+04  0.90200815192E+02 0.  0.
         13    1    3    3    0    0 -0.23772642899E+00  0.24123257889E+02 -0.76701512577E+03  0.76739441701E+03  0.00000000000E+00 0.  1.
        -13    1    3    3    0    0  0.75941544575E+02 -0.34697450758E+01 -0.59006023391E+03  0.59493717060E+03  0.00000000000E+00 0. -1.
         22    1    1    2    0    0 -0.75703818146E+02 -0.20653512813E+02  0.20339906310E+02  0.81063848059E+02  0.00000000000E+00 0.  1.
<mgrwt>
<rscale>  0 0.54454450E+03</rscale>
<asrwt>0</asrwt>
<pdfrwt beam="1">  1        2 0.21385617E+00 0.54454450E+03</pdfrwt>
<pdfrwt beam="2">  1       -2 0.82046160E-02 0.54454450E+03</pdfrwt>
<totfact> 0.14084456E+03</totfact>
</mgrwt>
</event>
<event>
 6    1  0.3017327E-006  0.2926328E+04  0.7818608E-02  0.8265087E-01
          2   -1    0    0  501    0  0.00000000000E+00  0.00000000000E+00  0.14484586766E+04  0.14484586766E+04  0.00000000000E+00 0. -1.
         -2   -1    0    0    0  501 -0.00000000000E+00 -0.00000000000E+00 -0.14780182604E+04  0.14780182604E+04  0.00000000000E+00 0.  1.
         23    2    1    2    0    0  0.33238831710E+03  0.87298991790E+02  0.14060419003E+04  0.14503147749E+04  0.91411232631E+02 0.  0.
         13    1    3    3    0    0  0.86222361262E+02  0.60087674212E+02  0.33947103086E+03  0.35536657829E+03  0.00000000000E+00 0. -1.
        -13    1    3    3    0    0  0.24616595584E+03  0.27211317578E+02  0.10665708695E+04  0.10949481966E+04  0.00000000000E+00 0.  1.
         22    1    1    2    0    0 -0.33238831710E+03 -0.87298991790E+02 -0.14356014842E+04  0.14761621621E+04  0.00000000000E+00 0.  1.
<mgrwt>
<rscale>  0 0.29263276E+04</rscale>
<asrwt>0</asrwt>
<pdfrwt beam="1">  1        2 0.22283980E+00 0.29263276E+04</pdfrwt>
<pdfrwt beam="2">  1       -2 0.22738742E+00 0.29263276E+04</pdfrwt>
<totfact> 0.10382085E+00</totfact>
</mgrwt>
</event>
<event>
 6    1  0.3017327E-006  0.2076556E+04  0.7818608E-02  0.8571642E-01
         -1   -1    0    0    0  501 -0.00000000000E+00  0.00000000000E+00  0.60714171066E+03  0.60714171066E+03  0.00000000000E+00 0.  1.
          1   -1    0    0  501    0  0.00000000000E+00 -0.00000000000E+00 -0.17755671822E+04  0.17755671822E+04  0.00000000000E+00 0. -1.
         23    2    1    2    0    0 -0.49629100504E+02  0.96992130448E+03 -0.10002955361E+04  0.13970730272E+04  0.89506978239E+02 0.  0.
         13    1    3    3    0    0 -0.36302679479E+02  0.44523346808E+03 -0.52113005904E+03  0.68638710949E+03  0.00000000000E+00 0.  1.
        -13    1    3    3    0    0 -0.13326421025E+02  0.52468783639E+03 -0.47916547710E+03  0.71068591769E+03  0.00000000000E+00 0. -1.
         22    1    1    2    0    0  0.49629100504E+02 -0.96992130448E+03 -0.16812993536E+03  0.98563586565E+03  0.00000000000E+00 0.  1.
<mgrwt>
<rscale>  0 0.20765557E+04</rscale>
<asrwt>0</asrwt>
<pdfrwt beam="1">  1        1 0.27316418E+00 0.20765557E+04</pdfrwt>
<pdfrwt beam="2">  1       -1 0.93406417E-01 0.20765557E+04</pdfrwt>
<totfact> 0.43379320E+00</totfact>
</mgrwt>
</event>
<event>
 6    1  0.3017327E-006  0.2983654E+04  0.7818608E-02  0.8248414E-01
          2   -1    0    0  501    0  0.00000000000E+00  0.00000000000E+00  0.11699262254E+04  0.11699262254E+04  0.00000000000E+00 0. -1.
         -2   -1    0    0    0  501 -0.00000000000E+00 -0.00000000000E+00 -0.19022971667E+04  0.19022971667E+04  0.00000000000E+00 0.  1.
         23    2    1    2    0    0  0.41374986137E+03  0.13955337900E+04 -0.36041174035E+02  0.14586625313E+04  0.87714921367E+02 0.  0.
         11    1    3    3    0    0  0.27968550317E+02  0.20090866979E+03 -0.52014556045E+01  0.20291276092E+03  0.00000000000E+00 0. -1.
        -11    1    3    3    0    0  0.38578131106E+03  0.11946251202E+04 -0.30839718431E+02  0.12557497704E+04  0.00000000000E+00 0.  1.
         22    1    1    2    0    0 -0.41374986137E+03 -0.13955337900E+04 -0.69632976729E+03  0.16135608608E+04  0.00000000000E+00 0.  1.
<mgrwt>
<rscale>  0 0.29836537E+04</rscale>
<asrwt>0</asrwt>
<pdfrwt beam="1">  1        2 0.17998865E+00 0.29836537E+04</pdfrwt>
<pdfrwt beam="2">  1       -2 0.29266110E+00 0.29836537E+04</pdfrwt>
<totfact> 0.59650818E-01</totfact>
</mgrwt>
</event>
<event>
 6    1  0.3017327E-006  0.2197391E+04  0.7818608E-02  0.8519515E-01
          2   -1    0    0  501    0  0.00000000000E+00  0.00000000000E+00  0.30320012219E+04  0.30320012219E+04  0.00000000000E+00 0. -1.
         -2   -1    0    0    0  501 -0.00000000000E+00 -0.00000000000E+00 -0.39813037940E+03  0.39813037940E+03  0.00000000000E+00 0.  1.
         23    2    1    2    0    0 -0.43460318031E+03 -0.29389136455E+03  0.28226795991E+04  0.28725468050E+04  0.93557304389E+02 0.  0.
         11    1    3    3    0    0 -0.21133306937E+03 -0.18255929405E+03  0.16685610674E+04  0.16917699600E+04  0.00000000000E+00 0. -1.
        -11    1    3    3    0    0 -0.22327011094E+03 -0.11133207050E+03  0.11541185317E+04  0.11807768450E+04  0.00000000000E+00 0.  1.
         22    1    1    2    0    0  0.43460318031E+03  0.29389136455E+03 -0.18880875662E+03  0.55758479630E+03  0.00000000000E+00 0.  1.
<mgrwt>
<rscale>  0 0.21973910E+04</rscale>
<asrwt>0</asrwt>
<pdfrwt beam="1">  1        2 0.46646171E+00 0.21973910E+04</pdfrwt>
<pdfrwt beam="2">  1       -2 0.61250829E-01 0.21973910E+04</pdfrwt>
<totfact> 0.37724781E+00</totfact>
</mgrwt>
</event>
<event>
 6    1  0.3017327E-006  0.2750224E+04  0.7818608E-02  0.8318891E-01
          2   -1    0    0  501    0  0.00000000000E+00  0.00000000000E+00  0.31209308416E+04  0.31209308416E+04  0.00000000000E+00 0. -1.
         -2   -1    0    0    0  501 -0.00000000000E+00 -0.00000000000E+00 -0.60588748410E+03  0.60588748410E+03  0.00000000000E+00 0.  1.
         23    2    1    2    0    0  0.88436593694E+03  0.82410710842E+03  0.21428439918E+04  0.24619910630E+04  0.91454822818E+02 0.  0.
         11    1    3    3    0    0  0.47459280493E+03  0.46943039623E+03  0.10990853359E+04  0.12859206053E+04  0.00000000000E+00 0.  1.
        -11    1    3    3    0    0  0.40977313201E+03  0.35467671219E+03  0.10437586559E+04  0.11760704578E+04  0.00000000000E+00 0. -1.
         22    1    1    2    0    0 -0.88436593694E+03 -0.82410710842E+03  0.37219936568E+03  0.12648272627E+04  0.00000000000E+00 0.  1.
<mgrwt>
<rscale>  0 0.27502239E+04</rscale>
<asrwt>0</asrwt>
<pdfrwt beam="1">  1        2 0.48014320E+00 0.27502239E+04</pdfrwt>
<pdfrwt beam="2">  1       -2 0.93213461E-01 0.27502239E+04</pdfrwt>
<totfact> 0.12415544E+00</totfact>
</mgrwt>
</event>
<event>
 6    1  0.3017327E-006  0.3143966E+04  0.7818608E-02  0.8203774E-01
          2   -1    0    0  501    0  0.00000000000E+00  0.00000000000E+00  0.16855652590E+04  0.16855652590E+04  0.00000000000E+00 0. -1.
         -2   -1    0    0    0  501 -0.00000000000E+00 -0.00000000000E+00 -0.14660547862E+04  0.14660547862E+04  0.00000000000E+00 0.  1.
         23    2    1    2    0    0 -0.60468932167E+03  0.10259619135E+04 -0.91667515007E+03  0.15056659774E+04  0.92139464786E+02 0.  0.
         13    1    3    3    0    0 -0.10522233615E+03  0.25430999263E+03 -0.20543191521E+03  0.34343497807E+03  0.00000000000E+00 0.  1.
        -13    1    3    3    0    0 -0.49946698552E+03  0.77165192091E+03 -0.71124323487E+03  0.11622309993E+04  0.00000000000E+00 0. -1.
         22    1    1    2    0    0  0.60468932167E+03 -0.10259619135E+04  0.11361856228E+04  0.16459540678E+04  0.00000000000E+00 0. -1.
<mgrwt>
<rscale>  0 0.31439663E+04</rscale>
<asrwt>0</asrwt>
<pdfrwt beam="1">  1        2 0.25931773E+00 0.31439663E+04</pdfrwt>
<pdfrwt beam="2">  1       -2 0.22554689E+00 0.31439663E+04</pdfrwt>
<totfact> 0.77062788E-01</totfact>
</mgrwt>
</event>
<event>
 6    1  0.3017327E-006  0.4684747E+04  0.7818608E-02  0.7879068E-01
          2   -1    0    0  501    0  0.00000000000E+00  0.00000000000E+00  0.26563703341E+04  0.26563703341E+04  0.00000000000E+00 0. -1.
         -2   -1    0    0    0  501 -0.00000000000E+00 -0.00000000000E+00 -0.20654928638E+04  0.20654928638E+04  0.00000000000E+00 0.  1.
         23    2    1    2    0    0  0.22420602537E+04 -0.38655199981E+03  0.85358019746E+03  0.24316078949E+04  0.88663248150E+02 0.  0.
         13    1    3    3    0    0  0.75827220459E+03 -0.88750983164E+02  0.27945417676E+03  0.81298715253E+03  0.00000000000E+00 0. -1.
        -13    1    3    3    0    0  0.14837880491E+04 -0.29780101665E+03  0.57412602070E+03  0.16186207424E+04  0.00000000000E+00 0.  1.
         22    1    1    2    0    0 -0.22420602537E+04  0.38655199981E+03 -0.26270272711E+03  0.22902553029E+04  0.00000000000E+00 0.  1.
<mgrwt>
<rscale>  0 0.46847472E+04</rscale>
<asrwt>0</asrwt>
<pdfrwt beam="1">  1        2 0.40867236E+00 0.46847472E+04</pdfrwt>
<pdfrwt beam="2">  1       -2 0.31776813E+00 0.46847472E+04</pdfrwt>
<totfact> 0.52006126E-02</totfact>
</mgrwt>
</event>
<event>
 6    1  0.3017327E-006  0.4160355E+04  0.7818608E-02  0.7972957E-01
         -1   -1    0    0    0  501 -0.00000000000E+00  0.00000000000E+00  0.14338401179E+04  0.14338401179E+04  0.00000000000E+00 0.  1.
          1   -1    0    0  501    0  0.00000000000E+00 -0.00000000000E+00 -0.30178662961E+04  0.30178662961E+04  0.00000000000E+00 0. -1.
         23    2    1    2    0    0 -0.43097868634E+03 -0.14635554703E+04 -0.23036596570E+04  0.27648129419E+04  0.98007885889E+02 0.  0.
         11    1    3    3    0    0 -0.99040302765E+02 -0.48646059206E+03 -0.71680777473E+03  0.87193249459E+03  0.00000000000E+00 0. -1.
        -11    1    3    3    0    0 -0.33193838358E+03 -0.97709487823E+03 -0.15868518822E+04  0.18928804473E+04  0.00000000000E+00 0.  1.
         22    1    1    2    0    0  0.43097868634E+03  0.14635554703E+04  0.71963347880E+03  0.16868934722E+04  0.00000000000E+00 0.  1.
<mgrwt>
<rscale>  0 0.41603547E+04</rscale>
<asrwt>0</asrwt>
<pdfrwt beam="1">  1        1 0.46428711E+00 0.41603547E+04</pdfrwt>
<pdfrwt beam="2">  1       -1 0.22059079E+00 0.41603547E+04</pdfrwt>
<totfact> 0.48839401E-02</totfact>
</mgrwt>
</event>
<event>
 6    1  0.3017327E-006  0.1724509E+04  0.7818608E-02  0.8747508E-01
         -1   -1    0    0    0  501 -0.00000000000E+00  0.00000000000E+00  0.49394332036E+03  0.49394332036E+03  0.00000000000E+00 0.  1.
          1   -1    0    0  501    0  0.00000000000E+00 -0.00000000000E+00 -0.15051983340E+04  0.15051983340E+04  0.00000000000E+00 0. -1.
         23    2    1    2    0    0 -0.29846704642E+03  0.19518071910E+03 -0.14139887473E+04  0.14612080607E+04  0.92664600282E+02 0.  0.
         13    1    3    3    0    0 -0.58646388940E+02  0.28468033659E+02 -0.42573503144E+03  0.43069727753E+03  0.00000000000E+00 0. -1.
        -13    1    3    3    0    0 -0.23982065748E+03  0.16671268545E+03 -0.98825371587E+03  0.10305107831E+04  0.00000000000E+00 0.  1.
         22    1    1    2    0    0  0.29846704642E+03 -0.19518071910E+03  0.40273373370E+03  0.53793359365E+03  0.00000000000E+00 0.  1.
<mgrwt>
<rscale>  0 0.17245088E+04</rscale>
<asrwt>0</asrwt>
<pdfrwt beam="1">  1        1 0.23156897E+00 0.17245088E+04</pdfrwt>
<pdfrwt beam="2">  1       -1 0.75991282E-01 0.17245088E+04</pdfrwt>
<totfact> 0.10715341E+01</totfact>
</mgrwt>
</event>
<event>
 6    1  0.3017327E-006  0.2782919E+04  0.7818608E-02  0.8308591E-01
         -2   -1    0    0    0  501 -0.00000000000E+00  0.00000000000E+00  0.29791080653E+04  0.29791080653E+04  0.00000000000E+00 0.  1.
          2   -1    0    0  501    0  0.00000000000E+00 -0.00000000000E+00 -0.64991236493E+03  0.64991236493E+03  0.00000000000E+00 0. -1.
         23    2    1    2    0    0 -0.44619019328E+02  0.13721368499E+04  0.14494316271E+04  0.19984575776E+04  0.90720760960E+02 0.  0.
         11    1    3    3    0    0  0.15248395955E+02  0.85121109453E+03  0.88241135080E+03  0.12261495150E+04  0.00000000000E+00 0. -1.
        -11    1    3    3    0    0 -0.59867415283E+02  0.52092575532E+03  0.56702027627E+03  0.77230806267E+03  0.00000000000E+00 0.  1.
         22    1    1    2    0    0  0.44619019328E+02 -0.13721368499E+04  0.87976407330E+03  0.16305628526E+04  0.00000000000E+00 0. -1.
<mgrwt>
<rscale>  0 0.27829187E+04</rscale>
<asrwt>0</asrwt>
<pdfrwt beam="1">  1        2 0.99986519E-01 0.27829187E+04</pdfrwt>
<pdfrwt beam="2">  1       -2 0.45832431E+00 0.27829187E+04</pdfrwt>
<totfact> 0.11964436E-01</totfact>
</mgrwt>
</event>
<event>
 6    1  0.3017327E-006  0.7535920E+04  0.7818608E-02  0.7524557E-01
         -2   -1    0    0    0  501 -0.00000000000E+00  0.00000000000E+00  0.44407901126E+04  0.44407901126E+04  0.00000000000E+00 0.  1.
          2   -1    0    0  501    0  0.00000000000E+00 -0.00000000000E+00 -0.31970712110E+04  0.31970712110E+04  0.00000000000E+00 0. -1.
         23    2    1    2    0    0  0.44312912704E+03  0.31192350237E+04 -0.14717159853E+04  0.34785852832E+04  0.92828199944E+02 0.  0.
         13    1    3    3    0    0  0.32443814383E+03  0.21177439560E+04 -0.96026155149E+03  0.23478078754E+04  0.00000000000E+00 0. -1.
        -13    1    3    3    0    0  0.11869098321E+03  0.10014910676E+04 -0.51145443380E+03  0.11307774078E+04  0.00000000000E+00 0.  1.
         22    1    1    2    0    0 -0.44312912704E+03 -0.31192350237E+04  0.27154348869E+04  0.41592760405E+04  0.00000000000E+00 0. -1.
<mgrwt>
<rscale>  0 0.75359199E+04</rscale>
<asrwt>0</asrwt>
<pdfrwt beam="1">  1        2 0.49185711E+00 0.75359199E+04</pdfrwt>
<pdfrwt beam="2">  1       -2 0.68319848E+00 0.75359199E+04</pdfrwt>
<totfact> 0.20931949E-04</totfact>
</mgrwt>
</event>
<event>
 6    1  0.3017327E-006  0.1396761E+04  0.7818608E-02  0.8956167E-01
          2   -1    0    0  501    0  0.00000000000E+00  0.00000000000E+00  0.20107108556E+04  0.20107108556E+04  0.00000000000E+00 0. -1.
         -2   -1    0    0    0  501 -0.00000000000E+00 -0.00000000000E+00 -0.24256852132E+03  0.24256852132E+03  0.00000000000E+00 0.  1.
         23    2    1    2    0    0  0.31385628762E+03  0.54068357771E+03  0.39211900148E+03  0.74189434561E+03  0.76193229621E+02 0.  0.
         13    1    3    3    0    0  0.66384018803E+02  0.17540824272E+03  0.97727450224E+02  0.21148414620E+03  0.00000000000E+00 0. -1.
        -13    1    3    3    0    0  0.24747226882E+03  0.36527533499E+03  0.29439155126E+03  0.53041019941E+03  0.00000000000E+00 0.  1.
         22    1    1    2    0    0 -0.31385628762E+03 -0.54068357771E+03  0.13760233328E+04  0.15113850314E+04  0.00000000000E+00 0. -1.
<mgrwt>
<rscale>  0 0.13967608E+04</rscale>
<asrwt>0</asrwt>
<pdfrwt beam="1">  1        2 0.30934012E+00 0.13967608E+04</pdfrwt>
<pdfrwt beam="2">  1       -2 0.37318235E-01 0.13967608E+04</pdfrwt>
<totfact> 0.43466618E+01</totfact>
</mgrwt>
</event>
<event>
 6    1  0.3017327E-006  0.8227589E+03  0.7818608E-02  0.9527647E-01
          2   -1    0    0  501    0  0.00000000000E+00  0.00000000000E+00  0.49062313806E+03  0.49062313806E+03  0.00000000000E+00 0. -1.
         -2   -1    0    0    0  501 -0.00000000000E+00 -0.00000000000E+00 -0.34493487773E+03  0.34493487773E+03  0.00000000000E+00 0.  1.
         23    2    1    2    0    0 -0.39086504500E+02 -0.31078228860E+03 -0.19111566350E+03  0.37561207456E+03  0.80286038494E+02 0.  0.
         13    1    3    3    0    0 -0.23676106760E+02 -0.18550045399E+02 -0.11224793571E+02  0.32103865909E+02  0.00000000000E+00 0.  1.
        -13    1    3    3    0    0 -0.15410397740E+02 -0.29223224320E+03 -0.17989086993E+03  0.34350820865E+03  0.00000000000E+00 0. -1.
         22    1    1    2    0    0  0.39086504500E+02  0.31078228860E+03  0.33680392384E+03  0.45994594123E+03  0.00000000000E+00 0. -1.
<mgrwt>
<rscale>  0 0.82275885E+03</rscale>
<asrwt>0</asrwt>
<pdfrwt beam="1">  1        2 0.75480483E-01 0.82275885E+03</pdfrwt>
<pdfrwt beam="2">  1       -2 0.53066904E-01 0.82275885E+03</pdfrwt>
<totfact> 0.21217625E+02</totfact>
</mgrwt>
</event>
<event>
 6    1  0.3017327E-006  0.2109543E+04  0.7818608E-02  0.8557051E-01
          2   -1    0    0  501    0  0.00000000000E+00  0.00000000000E+00  0.14983521355E+04  0.14983521355E+04  0.00000000000E+00 0. -1.
         -2   -1    0    0    0  501 -0.00000000000E+00 -0.00000000000E+00 -0.74251086797E+03  0.74251086797E+03  0.00000000000E+00 0.  1.
         23    2    1    2    0    0 -0.92551529017E+03 -0.19963787045E+03 -0.11065627335E+03  0.95740991900E+03  0.89191426286E+02 0.  0.
         11    1    3    3    0    0 -0.34788727669E+02 -0.35139781234E+01 -0.21389488932E+02  0.40989191891E+02  0.00000000000E+00 0.  1.
        -11    1    3    3    0    0 -0.89072656250E+03 -0.19612389232E+03 -0.89266784421E+02  0.91642072711E+03  0.00000000000E+00 0. -1.
         22    1    1    2    0    0  0.92551529017E+03  0.19963787045E+03  0.86649754083E+03  0.12834530844E+04  0.00000000000E+00 0. -1.
<mgrwt>
<rscale>  0 0.21095428E+04</rscale>
<asrwt>0</asrwt>
<pdfrwt beam="1">  1        2 0.23051571E+00 0.21095428E+04</pdfrwt>
<pdfrwt beam="2">  1       -2 0.11423244E+00 0.21095428E+04</pdfrwt>
<totfact> 0.70221189E+00</totfact>
</mgrwt>
</event>
<event>
 6    1  0.3017327E-006  0.2995678E+04  0.7818608E-02  0.8244966E-01
          2   -1    0    0  501    0  0.00000000000E+00  0.00000000000E+00  0.15989255115E+04  0.15989255115E+04  0.00000000000E+00 0. -1.
         -2   -1    0    0    0  501 -0.00000000000E+00 -0.00000000000E+00 -0.14031434103E+04  0.14031434103E+04  0.00000000000E+00 0.  1.
         23    2    1    2    0    0  0.78154672762E+03 -0.11278339374E+04 -0.50028434421E+03  0.14634548785E+04  0.92688071356E+02 0.  0.
         11    1    3    3    0    0  0.59837832485E+03 -0.79124719138E+03 -0.35494759340E+03  0.10536206773E+04  0.00000000000E+00 0.  1.
        -11    1    3    3    0    0  0.18316840277E+03 -0.33658674598E+03 -0.14533675081E+03  0.40983420120E+03  0.00000000000E+00 0. -1.
         22    1    1    2    0    0 -0.78154672762E+03  0.11278339374E+04  0.69606644542E+03  0.15386140433E+04  0.00000000000E+00 0.  1.
<mgrwt>
<rscale>  0 0.29956781E+04</rscale>
<asrwt>0</asrwt>
<pdfrwt beam="1">  1        2 0.24598854E+00 0.29956781E+04</pdfrwt>
<pdfrwt beam="2">  1       -2 0.21586822E+00 0.29956781E+04</pdfrwt>
<totfact> 0.10041997E+00</totfact>
</mgrwt>
</event>
<event>
 6    1  0.3017327E-006  0.1005465E+04  0.7818608E-02  0.9302571E-01
         -2   -1    0    0    0  501 -0.00000000000E+00  0.00000000000E+00  0.42564507047E+03  0.42564507047E+03  0.00000000000E+00 0.  1.
          2   -1    0    0  501    0  0.00000000000E+00 -0.00000000000E+00 -0.59378126311E+03  0.59378126311E+03  0.00000000000E+00 0. -1.
         23    2    1    2    0    0  0.81068435150E+02  0.31234875372E+03 -0.46942355645E+03  0.57794257315E+03  0.97597681218E+02 0.  0.
         13    1    3    3    0    0  0.63199352464E+02  0.12952010972E+03 -0.27491593136E+03  0.31040036451E+03  0.00000000000E+00 0.  1.
        -13    1    3    3    0    0  0.17869082686E+02  0.18282864400E+03 -0.19450762508E+03  0.26754220863E+03  0.00000000000E+00 0. -1.
         22    1    1    2    0    0 -0.81068435150E+02 -0.31234875372E+03  0.30128736381E+03  0.44148376042E+03  0.00000000000E+00 0.  1.
<mgrwt>
<rscale>  0 0.10054652E+04</rscale>
<asrwt>0</asrwt>
<pdfrwt beam="1">  1        2 0.91350964E-01 0.10054652E+04</pdfrwt>
<pdfrwt beam="2">  1       -2 0.65483857E-01 0.10054652E+04</pdfrwt>
<totfact> 0.10778537E+02</totfact>
</mgrwt>
</event>
<event>
 6    1  0.3017327E-006  0.3437302E+04  0.7818608E-02  0.8128811E-01
         -2   -1    0    0    0  501 -0.00000000000E+00  0.00000000000E+00  0.10397235699E+04  0.10397235699E+04  0.00000000000E+00 0.  1.
          2   -1    0    0  501    0  0.00000000000E+00 -0.00000000000E+00 -0.28409101991E+04  0.28409101991E+04  0.00000000000E+00 0. -1.
         23    2    1    2    0    0  0.33544987888E+03  0.11951253558E+04  0.43868074457E+03  0.13198024412E+04  0.92663103369E+02 0.  0.
         11    1    3    3    0    0  0.11447199674E+03  0.28662560899E+03  0.84705339028E+02  0.32005167118E+03  0.00000000000E+00 0. -1.
        -11    1    3    3    0    0  0.22097788214E+03  0.90849974683E+03  0.35397540554E+03  0.99975077000E+03  0.00000000000E+00 0.  1.
         22    1    1    2    0    0 -0.33544987888E+03 -0.11951253558E+04 -0.22398673738E+04  0.25608313279E+04  0.00000000000E+00 0. -1.
<mgrwt>
<rscale>  0 0.34373020E+04</rscale>
<asrwt>0</asrwt>
<pdfrwt beam="1">  1        2 0.43706310E+00 0.34373020E+04</pdfrwt>
<pdfrwt beam="2">  1       -2 0.15995747E+00 0.34373020E+04</pdfrwt>
<totfact> 0.45442168E-01</totfact>
</mgrwt>
</event>
<event>
 6    1  0.3017327E-006  0.1529330E+04  0.7818608E-02  0.8865179E-01
          2   -1    0    0  501    0  0.00000000000E+00  0.00000000000E+00  0.80475264175E+03  0.80475264175E+03  0.00000000000E+00 0. -1.
         -2   -1    0    0    0  501 -0.00000000000E+00 -0.00000000000E+00 -0.72657467761E+03  0.72657467761E+03  0.00000000000E+00 0.  1.
         23    2    1    2    0    0  0.45046026187E+03 -0.22812696948E+03  0.61055900149E+03  0.79757945348E+03  0.91620568569E+02 0.  0.
         13    1    3    3    0    0  0.21333344767E+03 -0.90231375651E+02  0.34676648665E+03  0.41701301815E+03  0.00000000000E+00 0.  1.
        -13    1    3    3    0    0  0.23712681421E+03 -0.13789559383E+03  0.26379251484E+03  0.38056643533E+03  0.00000000000E+00 0. -1.
         22    1    1    2    0    0 -0.45046026187E+03  0.22812696948E+03 -0.53238103735E+03  0.73374786587E+03  0.00000000000E+00 0.  1.
<mgrwt>
<rscale>  0 0.15293304E+04</rscale>
<asrwt>0</asrwt>
<pdfrwt beam="1">  1        2 0.12380810E+00 0.15293304E+04</pdfrwt>
<pdfrwt beam="2">  1       -2 0.11178072E+00 0.15293304E+04</pdfrwt>
<totfact> 0.20820615E+01</totfact>
</mgrwt>
</event>
<event>
 6    1  0.3017327E-006  0.3212245E+04  0.7818608E-02  0.8185591E-01
         -2   -1    0    0    0  501 -0.00000000000E+00  0.00000000000E+00  0.11132400499E+04  0.11132400499E+04  0.00000000000E+00 0.  1.
          2   -1    0    0  501    0  0.00000000000E+00 -0.00000000000E+00 -0.23172267804E+04  0.23172267804E+04  0.00000000000E+00 0. -1.
         23    2    1    2    0    0 -0.53374585848E+03 -0.15116016798E+04 -0.51981674573E+03  0.16875058876E+04  0.87420773510E+02 0.  0.
         11    1    3    3    0    0 -0.19752620329E+03 -0.44330253936E+03 -0.14581503012E+03  0.50675020019E+03  0.00000000000E+00 0. -1.
        -11    1    3    3    0    0 -0.33621965519E+03 -0.10682991404E+04 -0.37400171561E+03  0.11807556874E+04  0.00000000000E+00 0.  1.
         22    1    1    2    0    0  0.53374585848E+03  0.15116016798E+04 -0.68416998473E+03  0.17429609427E+04  0.00000000000E+00 0.  1.
<mgrwt>
<rscale>  0 0.32122451E+04</rscale>
<asrwt>0</asrwt>
<pdfrwt beam="1">  1        2 0.35649642E+00 0.32122451E+04</pdfrwt>
<pdfrwt beam="2">  1       -2 0.17126770E+00 0.32122451E+04</pdfrwt>
<totfact> 0.77835848E-01</totfact>
</mgrwt>
</event>
<event>
 6    1  0.3017327E-006  0.1381731E+04  0.7818608E-02  0.8967150E-01
         -2   -1    0    0    0  501 -0.00000000000E+00  0.00000000000E+00  0.48250217676E+03  0.48250217676E+03  0.00000000000E+00 0.  1.
          2   -1    0    0  501    0  0.00000000000E+00 -0.00000000000E+00 -0.98920848760E+03  0.98920848760E+03  0.00000000000E+00 0. -1.
         23    2    1    2    0    0 -0.22951348233E+03 -0.12043748956E+02 -0.94509398880E+03  0.97673061765E+03  0.89322792839E+02 0.  0.
         11    1    3    3    0    0 -0.13892129138E+03 -0.35030832736E+02 -0.43039384069E+03  0.45361342853E+03  0.00000000000E+00 0.  1.
        -11    1    3    3    0    0 -0.90592190953E+02  0.22987083780E+02 -0.51470014812E+03  0.52311718912E+03  0.00000000000E+00 0. -1.
         22    1    1    2    0    0  0.22951348233E+03  0.12043748956E+02  0.43838767796E+03  0.49498004672E+03  0.00000000000E+00 0.  1.
<mgrwt>
<rscale>  0 0.13817312E+04</rscale>
<asrwt>0</asrwt>
<pdfrwt beam="1">  1        2 0.15218592E+00 0.13817312E+04</pdfrwt>
<pdfrwt beam="2">  1       -2 0.74231105E-01 0.13817312E+04</pdfrwt>
<totfact> 0.40763488E+01</totfact>
</mgrwt>
</event>
<event>
 6    1  0.3017327E-006  0.3073818E+04  0.7818608E-02  0.8222960E-01
         -2   -1    0    0    0  501 -0.00000000000E+00  0.00000000000E+00  0.12252582217E+04  0.12252582217E+04  0.00000000000E+00 0.  1.
          2   -1    0    0  501    0  0.00000000000E+00 -0.00000000000E+00 -0.19278298640E+04  0.19278298640E+04  0.00000000000E+00 0. -1.
         23    2    1    2    0    0 -0.76219966539E+03  0.13070094105E+04 -0.62418641057E+03  0.16380414945E+04  0.65949476697E+02 0.  0.
         13    1    3    3    0    0 -0.55879195416E+03  0.96975774604E+03 -0.49211125479E+03  0.12226414115E+04  0.00000000000E+00 0. -1.
        -13    1    3    3    0    0 -0.20340771123E+03  0.33725166449E+03 -0.13207515578E+03  0.41540008301E+03  0.00000000000E+00 0.  1.
         22    1    1    2    0    0  0.76219966539E+03 -0.13070094105E+04 -0.78385231718E+02  0.15150465913E+04  0.00000000000E+00 0. -1.
<mgrwt>
<rscale>  0 0.30738181E+04</rscale>
<asrwt>0</asrwt>
<pdfrwt beam="1">  1        2 0.29658921E+00 0.30738181E+04</pdfrwt>
<pdfrwt beam="2">  1       -2 0.18850127E+00 0.30738181E+04</pdfrwt>
<totfact> 0.98923005E-01</totfact>
</mgrwt>
</event>
<event>
 6    1  0.3017327E-006  0.1305485E+04  0.7818608E-02  0.9025227E-01
          2   -1    0    0  501    0  0.00000000000E+00  0.00000000000E+00  0.48440485410E+04  0.48440485410E+04  0.00000000000E+00 0. -1.
         -2   -1    0    0    0  501 -0.00000000000E+00 -0.00000000000E+00 -0.87957990532E+02  0.87957990532E+02  0.00000000000E+00 0.  1.
         23    2    1    2    0    0 -0.39384112684E+03 -0.23786709053E+03  0.41203607109E+04  0.41472492348E+04  0.10301573268E+03 0.  0.
         11    1    3    3    0    0 -0.19760144568E+03 -0.59902533700E+02  0.18454881820E+04  0.18570033050E+04  0.00000000000E+00 0.  1.
        -11    1    3    3    0    0 -0.19623968115E+03 -0.17796455683E+03  0.22748725289E+04  0.22902459297E+04  0.00000000000E+00 0. -1.
         22    1    1    2    0    0  0.39384112684E+03  0.23786709053E+03  0.63572983955E+03  0.78475729677E+03  0.00000000000E+00 0.  1.
<mgrwt>
<rscale>  0 0.13054850E+04</rscale>
<asrwt>0</asrwt>
<pdfrwt beam="1">  1        2 0.74523803E+00 0.13054850E+04</pdfrwt>
<pdfrwt beam="2">  1       -2 0.13532002E-01 0.13054850E+04</pdfrwt>
<totfact> 0.23074158E+00</totfact>
</mgrwt>
</event>
<event>
 6    1  0.3017327E-006  0.1981681E+04  0.7818608E-02  0.8615234E-01
         -1   -1    0    0    0  501 -0.00000000000E+00  0.00000000000E+00  0.46978401823E+03  0.46978401823E+03  0.00000000000E+00 0.  1.
          1   -1    0    0  501    0  0.00000000000E+00 -0.00000000000E+00 -0.20898221648E+04  0.20898221648E+04  0.00000000000E+00 0. -1.
         23    2    1    2    0    0 -0.77173039674E+03 -0.22812757624E+02 -0.13912405415E+02  0.77754891023E+03  0.91107220442E+02 0.  0.
         13    1    3    3    0    0 -0.49600029750E+03 -0.47113908553E+02  0.20284182069E+02  0.49864562923E+03  0.00000000000E+00 0. -1.
        -13    1    3    3    0    0 -0.27573009923E+03  0.24301150929E+02 -0.34196587484E+02  0.27890328100E+03  0.00000000000E+00 0.  1.
         22    1    1    2    0    0  0.77173039674E+03  0.22812757624E+02 -0.16061257412E+04  0.17820572728E+04  0.00000000000E+00 0. -1.
<mgrwt>
<rscale>  0 0.19816812E+04</rscale>
<asrwt>0</asrwt>
<pdfrwt beam="1">  1        1 0.32151110E+00 0.19816812E+04</pdfrwt>
<pdfrwt beam="2">  1       -1 0.72274464E-01 0.19816812E+04</pdfrwt>
<totfact> 0.46464524E+00</totfact>
</mgrwt>
</event>
<event>
 6    1  0.3017327E-006  0.1898552E+04  0.7818608E-02  0.8655577E-01
         -2   -1    0    0    0  501 -0.00000000000E+00  0.00000000000E+00  0.35353935255E+03  0.35353935255E+03  0.00000000000E+00 0.  1.
          2   -1    0    0  501    0  0.00000000000E+00 -0.00000000000E+00 -0.25488686945E+04  0.25488686945E+04  0.00000000000E+00 0. -1.
         23    2    1    2    0    0 -0.23326999603E+03  0.56399986629E+03  0.71303274737E+01  0.61694543837E+03  0.89778015913E+02 0.  0.
         13    1    3    3    0    0 -0.33684421699E+02  0.36236227832E+02  0.17866430823E+02  0.52601462176E+02  0.00000000000E+00 0. -1.
        -13    1    3    3    0    0 -0.19958557433E+03  0.52776363845E+03 -0.10736103349E+02  0.56434397620E+03  0.00000000000E+00 0.  1.
         22    1    1    2    0    0  0.23326999603E+03 -0.56399986629E+03 -0.22024596694E+04  0.22854626087E+04  0.00000000000E+00 0. -1.
<mgrwt>
<rscale>  0 0.18985525E+04</rscale>
<asrwt>0</asrwt>
<pdfrwt beam="1">  1        2 0.39213365E+00 0.18985525E+04</pdfrwt>
<pdfrwt beam="2">  1       -2 0.54390669E-01 0.18985525E+04</pdfrwt>
<totfact> 0.97269900E+00</totfact>
</mgrwt>
</event>
<event>
 6    1  0.3017327E-006  0.1220594E+04  0.7818608E-02  0.9095019E-01
          2   -1    0    0  501    0  0.00000000000E+00  0.00000000000E+00  0.41699902313E+04  0.41699902313E+04  0.00000000000E+00 0. -1.
         -2   -1    0    0    0  501 -0.00000000000E+00 -0.00000000000E+00 -0.89319775186E+02  0.89319775186E+02  0.00000000000E+00 0.  1.
         23    2    1    2    0    0  0.59785593938E+03  0.17252544749E+01  0.24157547210E+04  0.24903048890E+04  0.91174926729E+02 0.  0.
         11    1    3    3    0    0  0.49950078548E+03 -0.27511486059E+02  0.19251924539E+04  0.19891264166E+04  0.00000000000E+00 0. -1.
        -11    1    3    3    0    0  0.98355153904E+02  0.29236740534E+02  0.49056226710E+03  0.50117847240E+03  0.00000000000E+00 0.  1.
         22    1    1    2    0    0 -0.59785593938E+03 -0.17252544749E+01  0.16649157351E+04  0.17690051175E+04  0.00000000000E+00 0. -1.
<mgrwt>
<rscale>  0 0.12205943E+04</rscale>
<asrwt>0</asrwt>
<pdfrwt beam="1">  1        2 0.64153681E+00 0.12205943E+04</pdfrwt>
<pdfrwt beam="2">  1       -2 0.13741507E-01 0.12205943E+04</pdfrwt>
<totfact> 0.10348027E+01</totfact>
</mgrwt>
</event>
<event>
 6    1  0.3017327E-006  0.2825854E+04  0.7818608E-02  0.8295286E-01
          2   -1    0    0  501    0  0.00000000000E+00  0.00000000000E+00  0.27786882981E+04  0.27786882981E+04  0.00000000000E+00 0. -1.
         -2   -1    0    0    0  501 -0.00000000000E+00 -0.00000000000E+00 -0.71845509584E+03  0.71845509584E+03  0.00000000000E+00 0.  1.
         23    2    1    2    0    0  0.46193679800E+03 -0.88042088920E+03  0.22710470893E+04  0.24807925478E+04  0.90278656676E+02 0.  0.
         13    1    3    3    0    0  0.30627470377E+03 -0.58486825758E+03  0.16109982087E+04  0.17410313901E+04  0.00000000000E+00 0. -1.
        -13    1    3    3    0    0  0.15566209422E+03 -0.29555263161E+03  0.66004888064E+03  0.73976115772E+03  0.00000000000E+00 0.  1.
         22    1    1    2    0    0 -0.46193679800E+03  0.88042088920E+03 -0.21081388706E+03  0.10163508461E+04  0.00000000000E+00 0.  1.
<mgrwt>
<rscale>  0 0.28258540E+04</rscale>
<asrwt>0</asrwt>
<pdfrwt beam="1">  1        2 0.42749050E+00 0.28258540E+04</pdfrwt>
<pdfrwt beam="2">  1       -2 0.11053155E+00 0.28258540E+04</pdfrwt>
<totfact> 0.13426497E+00</totfact>
</mgrwt>
</event>
<event>
 6    1  0.3017327E-006  0.9879935E+03  0.7818608E-02  0.9321812E-01
          2   -1    0    0  501    0  0.00000000000E+00  0.00000000000E+00  0.21899744579E+04  0.21899744579E+04  0.00000000000E+00 0.  1.
         -2   -1    0    0    0  501 -0.00000000000E+00 -0.00000000000E+00 -0.11143180408E+03  0.11143180408E+03  0.00000000000E+00 0. -1.
         23    2    1    2    0    0  0.14359499622E+03 -0.43189940068E+03  0.14610389350E+04  0.15342899357E+04  0.11069878999E+03 0.  0.
         13    1    3    3    0    0  0.88869824667E+02 -0.35804766155E+03  0.12663814975E+04  0.13190216340E+04  0.00000000000E+00 0. -1.
        -13    1    3    3    0    0  0.54725171552E+02 -0.73851739124E+02  0.19465743744E+03  0.21526830171E+03  0.00000000000E+00 0.  1.
         22    1    1    2    0    0 -0.14359499622E+03  0.43189940068E+03  0.61750371888E+03  0.76711632630E+03  0.00000000000E+00 0. -1.
<mgrwt>
<rscale>  0 0.98799353E+03</rscale>
<asrwt>0</asrwt>
<pdfrwt beam="1">  1        2 0.33691911E+00 0.98799353E+03</pdfrwt>
<pdfrwt beam="2">  1       -2 0.17143356E-01 0.98799353E+03</pdfrwt>
<totfact> 0.14708692E+02</totfact>
</mgrwt>
</event>
<event>
 6    1  0.3017327E-006  0.8100309E+03  0.7818608E-02  0.9545610E-01
         -2   -1    0    0    0  501 -0.00000000000E+00  0.00000000000E+00  0.23646576784E+03  0.23646576784E+03  0.00000000000E+00 0.  1.
          2   -1    0    0  501    0  0.00000000000E+00 -0.00000000000E+00 -0.69370514023E+03  0.69370514023E+03  0.00000000000E+00 0. -1.
         23    2    1    2    0    0 -0.12849346781E+03 -0.23358150718E+03  0.11074455882E+03  0.30273434723E+03  0.91174754816E+02 0.  0.
         13    1    3    3    0    0 -0.34355448091E+02 -0.73459832302E+02  0.81007347389E+02  0.11462475346E+03  0.00000000000E+00 0.  1.
        -13    1    3    3    0    0 -0.94138019714E+02 -0.16012167488E+03  0.29737211433E+02  0.18810959376E+03  0.00000000000E+00 0. -1.
         22    1    1    2    0    0  0.12849346781E+03  0.23358150718E+03 -0.56798393121E+03  0.62743656084E+03  0.00000000000E+00 0. -1.
<mgrwt>
<rscale>  0 0.81003091E+03</rscale>
<asrwt>0</asrwt>
<pdfrwt beam="1">  1        2 0.10672387E+00 0.81003091E+03</pdfrwt>
<pdfrwt beam="2">  1       -2 0.36379349E-01 0.81003091E+03</pdfrwt>
<totfact> 0.29625956E+02</totfact>
</mgrwt>
</event>
<event>
 6    1  0.3017327E-006  0.1683661E+04  0.7818608E-02  0.8770738E-01
          2   -1    0    0  501    0  0.00000000000E+00  0.00000000000E+00  0.87525822624E+03  0.87525822624E+03  0.00000000000E+00 0. -1.
         -2   -1    0    0    0  501 -0.00000000000E+00 -0.00000000000E+00 -0.80967990134E+03  0.80967990134E+03  0.00000000000E+00 0.  1.
         23    2    1    2    0    0 -0.20225015274E+03 -0.48592523636E+03 -0.62142393344E+03  0.81948994162E+03  0.91474585278E+02 0.  0.
         11    1    3    3    0    0 -0.74745794079E+02 -0.29583197296E+03 -0.36616671838E+03  0.47663566338E+03  0.00000000000E+00 0. -1.
        -11    1    3    3    0    0 -0.12750435866E+03 -0.19009326341E+03 -0.25525721506E+03  0.34285427824E+03  0.00000000000E+00 0.  1.
         22    1    1    2    0    0  0.20225015274E+03  0.48592523636E+03  0.68700225834E+03  0.86544818596E+03  0.00000000000E+00 0. -1.
<mgrwt>
<rscale>  0 0.16836615E+04</rscale>
<asrwt>0</asrwt>
<pdfrwt beam="1">  1        2 0.13465511E+00 0.16836615E+04</pdfrwt>
<pdfrwt beam="2">  1       -2 0.12456614E+00 0.16836615E+04</pdfrwt>
<totfact> 0.14047589E+01</totfact>
</mgrwt>
</event>
<event>
 6    1  0.3017327E-006  0.2526727E+04  0.7818608E-02  0.8393525E-01
          2   -1    0    0  501    0  0.00000000000E+00  0.00000000000E+00  0.24189062318E+04  0.24189062318E+04  0.00000000000E+00 0. -1.
         -2   -1    0    0    0  501 -0.00000000000E+00 -0.00000000000E+00 -0.65983820729E+03  0.65983820729E+03  0.00000000000E+00 0.  1.
         23    2    1    2    0    0 -0.55220138297E+03  0.41039757710E+03 -0.40803240619E+03  0.80505210824E+03  0.90917071235E+02 0.  0.
         11    1    3    3    0    0 -0.19712455046E+03  0.13918061974E+03 -0.19401890807E+03  0.30963312160E+03  0.00000000000E+00 0.  1.
        -11    1    3    3    0    0 -0.35507683251E+03  0.27121695736E+03 -0.21401349812E+03  0.49541898664E+03  0.00000000000E+00 0. -1.
         22    1    1    2    0    0  0.55220138297E+03 -0.41039757710E+03  0.21671004307E+04  0.22736923309E+04  0.00000000000E+00 0. -1.
<mgrwt>
<rscale>  0 0.25267265E+04</rscale>
<asrwt>0</asrwt>
<pdfrwt beam="1">  1        2 0.37213942E+00 0.25267265E+04</pdfrwt>
<pdfrwt beam="2">  1       -2 0.10151357E+00 0.25267265E+04</pdfrwt>
<totfact> 0.27495427E+00</totfact>
</mgrwt>
</event>
<event>
 6    1  0.3017327E-006  0.1637162E+04  0.7818608E-02  0.8798038E-01
         -2   -1    0    0    0  501 -0.00000000000E+00  0.00000000000E+00  0.27477756966E+03  0.27477756966E+03  0.00000000000E+00 0.  1.
          2   -1    0    0  501    0  0.00000000000E+00 -0.00000000000E+00 -0.24386090124E+04  0.24386090124E+04  0.00000000000E+00 0. -1.
         23    2    1    2    0    0 -0.51671023379E+03 -0.18293955364E+03 -0.83506965176E+02  0.56205994997E+03  0.92095755277E+02 0.  0.
         13    1    3    3    0    0 -0.28091508993E+03 -0.88869000904E+02  0.55321958976E+00  0.29463756231E+03  0.00000000000E+00 0.  1.
        -13    1    3    3    0    0 -0.23579514386E+03 -0.94070552731E+02 -0.84060184765E+02  0.26742238766E+03  0.00000000000E+00 0. -1.
         22    1    1    2    0    0  0.51671023379E+03  0.18293955364E+03 -0.20803244776E+04  0.21513266321E+04  0.00000000000E+00 0. -1.
<mgrwt>
<rscale>  0 0.16371622E+04</rscale>
<asrwt>0</asrwt>
<pdfrwt beam="1">  1        2 0.37517062E+00 0.16371622E+04</pdfrwt>
<pdfrwt beam="2">  1       -2 0.42273472E-01 0.16371622E+04</pdfrwt>
<totfact> 0.19189375E+01</totfact>
</mgrwt>
</event>
<event>
 6    1  0.3017327E-006  0.4288351E+04  0.7818608E-02  0.7948776E-01
         -2   -1    0    0    0  501 -0.00000000000E+00  0.00000000000E+00  0.13422662604E+04  0.13422662604E+04  0.00000000000E+00 0.  1.
          2   -1    0    0  501    0  0.00000000000E+00 -0.00000000000E+00 -0.34251692516E+04  0.34251692516E+04  0.00000000000E+00 0. -1.
         23    2    1    2    0    0  0.21282709752E+04  0.96251811214E+02 -0.78231839000E+03  0.22713742027E+04  0.91197314884E+02 0.  0.
         13    1    3    3    0    0  0.54827320831E+03  0.51796963459E+02 -0.23368046949E+03  0.59824158848E+03  0.00000000000E+00 0. -1.
        -13    1    3    3    0    0  0.15799977669E+04  0.44454847755E+02 -0.54863792051E+03  0.16731326142E+04  0.00000000000E+00 0.  1.
         22    1    1    2    0    0 -0.21282709752E+04 -0.96251811214E+02 -0.13005846012E+04  0.24960613093E+04  0.00000000000E+00 0. -1.
<mgrwt>
<rscale>  0 0.42883513E+04</rscale>
<asrwt>0</asrwt>
<pdfrwt beam="1">  1        2 0.52694911E+00 0.42883513E+04</pdfrwt>
<pdfrwt beam="2">  1       -2 0.20650250E+00 0.42883513E+04</pdfrwt>
<totfact> 0.85046285E-02</totfact>
</mgrwt>
</event>
<event>
 6    1  0.3017327E-006  0.3408029E+04  0.7818608E-02  0.8135939E-01
          1   -1    0    0  501    0  0.00000000000E+00  0.00000000000E+00  0.22237222383E+04  0.22237222383E+04  0.00000000000E+00 0. -1.
         -1   -1    0    0    0  501 -0.00000000000E+00 -0.00000000000E+00 -0.13057678252E+04  0.13057678252E+04  0.00000000000E+00 0.  1.
         23    2    1    2    0    0 -0.96027310264E+02 -0.49893171852E+03  0.21425227068E+04  0.22036991260E+04  0.87932841022E+02 0.  0.
         11    1    3    3    0    0 -0.27946444924E+01 -0.16134450673E+03  0.55376707100E+03  0.57679964356E+03  0.00000000000E+00 0.  1.
        -11    1    3    3    0    0 -0.93232665772E+02 -0.33758721180E+03  0.15887556358E+04  0.16268994824E+04  0.00000000000E+00 0. -1.
         22    1    1    2    0    0  0.96027310264E+02  0.49893171852E+03 -0.12245682937E+04  0.13257909375E+04  0.00000000000E+00 0.  1.
<mgrwt>
<rscale>  0 0.34080287E+04</rscale>
<asrwt>0</asrwt>
<pdfrwt beam="1">  1        1 0.34211111E+00 0.34080287E+04</pdfrwt>
<pdfrwt beam="2">  1       -1 0.20088736E+00 0.34080287E+04</pdfrwt>
<totfact> 0.25606190E-01</totfact>
</mgrwt>
</event>
<event>
 6    1  0.3017327E-006  0.3086982E+04  0.7818608E-02  0.8219320E-01
         -2   -1    0    0    0  501 -0.00000000000E+00  0.00000000000E+00  0.11510799434E+04  0.11510799434E+04  0.00000000000E+00 0.  1.
          2   -1    0    0  501    0  0.00000000000E+00 -0.00000000000E+00 -0.20696778114E+04  0.20696778114E+04  0.00000000000E+00 0. -1.
         23    2    1    2    0    0 -0.82169734710E+03 -0.10844746338E+04 -0.12164362478E+04  0.18279262998E+04  0.10161520983E+03 0.  0.
         13    1    3    3    0    0 -0.56896393958E+03 -0.75528431847E+03 -0.78147644353E+03  0.12267354230E+04  0.00000000000E+00 0.  1.
        -13    1    3    3    0    0 -0.25273340752E+03 -0.32919031533E+03 -0.43495980423E+03  0.60119087675E+03  0.00000000000E+00 0. -1.
         22    1    1    2    0    0  0.82169734710E+03  0.10844746338E+04  0.29783837978E+03  0.13928314550E+04  0.00000000000E+00 0.  1.
<mgrwt>
<rscale>  0 0.30869821E+04</rscale>
<asrwt>0</asrwt>
<pdfrwt beam="1">  1        2 0.31841197E+00 0.30869821E+04</pdfrwt>
<pdfrwt beam="2">  1       -2 0.17708922E+00 0.30869821E+04</pdfrwt>
<totfact> 0.98652105E-01</totfact>
</mgrwt>
</event>
<event>
 6    1  0.3017327E-006  0.4678883E+04  0.7818608E-02  0.7880047E-01
          2   -1    0    0  501    0  0.00000000000E+00  0.00000000000E+00  0.24346615234E+04  0.24346615234E+04  0.00000000000E+00 0. -1.
         -2   -1    0    0    0  501 -0.00000000000E+00 -0.00000000000E+00 -0.22479456572E+04  0.22479456572E+04  0.00000000000E+00 0.  1.
         23    2    1    2    0    0  0.13331084245E+03  0.23219109965E+04  0.33851493536E+03  0.23519237156E+04  0.88940126751E+02 0.  0.
         13    1    3    3    0    0  0.10979536805E+03  0.17539327726E+04  0.29318472282E+03  0.17816544208E+04  0.00000000000E+00 0. -1.
        -13    1    3    3    0    0  0.23515474399E+02  0.56797822393E+03  0.45330212540E+02  0.57026929477E+03  0.00000000000E+00 0.  1.
         22    1    1    2    0    0 -0.13331084245E+03 -0.23219109965E+04 -0.15179906916E+03  0.23306834650E+04  0.00000000000E+00 0. -1.
<mgrwt>
<rscale>  0 0.46788831E+04</rscale>
<asrwt>0</asrwt>
<pdfrwt beam="1">  1        2 0.37456331E+00 0.46788831E+04</pdfrwt>
<pdfrwt beam="2">  1       -2 0.34583779E+00 0.46788831E+04</pdfrwt>
<totfact> 0.46869975E-02</totfact>
</mgrwt>
</event>
<event>
 6    1  0.3017327E-006  0.5466191E+04  0.7818608E-02  0.7760359E-01
         -2   -1    0    0    0  501 -0.00000000000E+00  0.00000000000E+00  0.17534575464E+04  0.17534575464E+04  0.00000000000E+00 0. -1.
          2   -1    0    0  501    0  0.00000000000E+00 -0.00000000000E+00 -0.42600461495E+04  0.42600461495E+04  0.00000000000E+00 0.  1.
         23    2    1    2    0    0  0.78161142374E+03 -0.21333195963E+04  0.41603568575E+03  0.23116525844E+04  0.93182948085E+02 0.  0.
         13    1    3    3    0    0  0.29161386173E+03 -0.74951964712E+03  0.18963752826E+03  0.82630547493E+03  0.00000000000E+00 0. -1.
        -13    1    3    3    0    0  0.48999756202E+03 -0.13837999491E+04  0.22639815750E+03  0.14853471095E+04  0.00000000000E+00 0.  1.
         22    1    1    2    0    0 -0.78161142374E+03  0.21333195963E+04 -0.29226242888E+04  0.37018511114E+04  0.00000000000E+00 0.  1.
<mgrwt>
<rscale>  0 0.54661907E+04</rscale>
<asrwt>0</asrwt>
<pdfrwt beam="1">  1        2 0.65539170E+00 0.54661907E+04</pdfrwt>
<pdfrwt beam="2">  1       -2 0.26976270E+00 0.54661907E+04</pdfrwt>
<totfact> 0.69740439E-03</totfact>
</mgrwt>
</event>
<event>
 6    1  0.3017327E-006  0.1860026E+04  0.7818608E-02  0.8675014E-01
         -2   -1    0    0    0  501 -0.00000000000E+00  0.00000000000E+00  0.45462022267E+03  0.45462022267E+03  0.00000000000E+00 0.  1.
          2   -1    0    0  501    0  0.00000000000E+00 -0.00000000000E+00 -0.19025198951E+04  0.19025198951E+04  0.00000000000E+00 0. -1.
         23    2    1    2    0    0  0.92003771251E+03 -0.11039907852E+03 -0.73652426440E+03  0.11889310953E+04  0.11149801962E+03 0.  0.
         11    1    3    3    0    0  0.39242072455E+03 -0.10124954761E+03 -0.30376523122E+03  0.50647686191E+03  0.00000000000E+00 0.  1.
        -11    1    3    3    0    0  0.52761698795E+03 -0.91495309117E+01 -0.43275903318E+03  0.68245423340E+03  0.00000000000E+00 0. -1.
         22    1    1    2    0    0 -0.92003771251E+03  0.11039907852E+03 -0.71137540801E+03  0.11682090224E+04  0.00000000000E+00 0. -1.
<mgrwt>
<rscale>  0 0.18600258E+04</rscale>
<asrwt>0</asrwt>
<pdfrwt beam="1">  1        2 0.29269537E+00 0.18600258E+04</pdfrwt>
<pdfrwt beam="2">  1       -2 0.69941573E-01 0.18600258E+04</pdfrwt>
<totfact> 0.13242667E+01</totfact>
</mgrwt>
</event>
<event>
 6    1  0.3017327E-006  0.4488083E+04  0.7818608E-02  0.7912727E-01
          2   -1    0    0  501    0  0.00000000000E+00  0.00000000000E+00  0.33239834529E+04  0.33239834529E+04  0.00000000000E+00 0. -1.
         -2   -1    0    0    0  501 -0.00000000000E+00 -0.00000000000E+00 -0.15149657682E+04  0.15149657682E+04  0.00000000000E+00 0.  1.
         23    2    1    2    0    0  0.14941957118E+04  0.16323102491E+04  0.13002808778E+04  0.25682949733E+04  0.91384540641E+02 0.  0.
         11    1    3    3    0    0  0.13538773996E+04  0.14370882789E+04  0.11567323311E+04  0.22882824171E+04  0.00000000000E+00 0.  1.
        -11    1    3    3    0    0  0.14031831217E+03  0.19522197014E+03  0.14354854669E+03  0.28001255617E+03  0.00000000000E+00 0. -1.
         22    1    1    2    0    0 -0.14941957118E+04 -0.16323102491E+04  0.50873680692E+03  0.22706542478E+04  0.00000000000E+00 0.  1.
<mgrwt>
<rscale>  0 0.44880825E+04</rscale>
<asrwt>0</asrwt>
<pdfrwt beam="1">  1        2 0.51138207E+00 0.44880825E+04</pdfrwt>
<pdfrwt beam="2">  1       -2 0.23307166E+00 0.44880825E+04</pdfrwt>
<totfact> 0.66507274E-02</totfact>
</mgrwt>
</event>
<event>
 6    1  0.3017327E-006  0.2764826E+04  0.7818608E-02  0.8314272E-01
         -2   -1    0    0    0  501 -0.00000000000E+00  0.00000000000E+00  0.66374146455E+03  0.66374146455E+03  0.00000000000E+00 0.  1.
          2   -1    0    0  501    0  0.00000000000E+00 -0.00000000000E+00 -0.28792327575E+04  0.28792327575E+04  0.00000000000E+00 0. -1.
         23    2    1    2    0    0  0.61991476257E+03  0.75171273085E+03 -0.23629348376E+04  0.25575271451E+04  0.90098328071E+02 0.  0.
         13    1    3    3    0    0  0.19981772314E+03  0.29237317052E+03 -0.78139700103E+03  0.85789886731E+03  0.00000000000E+00 0.  1.
        -13    1    3    3    0    0  0.42009703942E+03  0.45933956032E+03 -0.15815378366E+04  0.16996282778E+04  0.00000000000E+00 0. -1.
         22    1    1    2    0    0 -0.61991476257E+03 -0.75171273085E+03  0.14744354466E+03  0.98544707693E+03  0.00000000000E+00 0.  1.
<mgrwt>
<rscale>  0 0.27648263E+04</rscale>
<asrwt>0</asrwt>
<pdfrwt beam="1">  1        2 0.44295888E+00 0.27648263E+04</pdfrwt>
<pdfrwt beam="2">  1       -2 0.10211407E+00 0.27648263E+04</pdfrwt>
<totfact> 0.14183531E+00</totfact>
</mgrwt>
</event>
<event>
 6    1  0.3017327E-006  0.1401728E+04  0.7818608E-02  0.8952569E-01
          2   -1    0    0  501    0  0.00000000000E+00  0.00000000000E+00  0.62777575765E+03  0.62777575765E+03  0.00000000000E+00 0. -1.
         -2   -1    0    0    0  501 -0.00000000000E+00 -0.00000000000E+00 -0.78246169020E+03  0.78246169020E+03  0.00000000000E+00 0.  1.
         23    2    1    2    0    0 -0.25122032994E+03 -0.40665936043E+02  0.57692218726E+03  0.63563057111E+03  0.80135137401E+02 0.  0.
         13    1    3    3    0    0 -0.24104697702E+03 -0.18666085821E+02  0.50867869971E+03  0.56321051786E+03  0.00000000000E+00 0.  1.
        -13    1    3    3    0    0 -0.10173352918E+02 -0.21999850222E+02  0.68243487550E+02  0.72420053247E+02  0.00000000000E+00 0. -1.
         22    1    1    2    0    0  0.25122032994E+03  0.40665936043E+02 -0.73160811981E+03  0.77460687675E+03  0.00000000000E+00 0.  1.
<mgrwt>
<rscale>  0 0.14017282E+04</rscale>
<asrwt>0</asrwt>
<pdfrwt beam="1">  1        2 0.96580886E-01 0.14017282E+04</pdfrwt>
<pdfrwt beam="2">  1       -2 0.12037872E+00 0.14017282E+04</pdfrwt>
<totfact> 0.24059305E+01</totfact>
</mgrwt>
</event>
<event>
 6    1  0.3017327E-006  0.3033633E+04  0.7818608E-02  0.8234192E-01
          2   -1    0    0  501    0  0.00000000000E+00  0.00000000000E+00  0.42100715482E+04  0.42100715482E+04  0.00000000000E+00 0. -1.
         -2   -1    0    0    0  501 -0.00000000000E+00 -0.00000000000E+00 -0.54648290974E+03  0.54648290974E+03  0.00000000000E+00 0.  1.
         23    2    1    2    0    0  0.48941838226E+03  0.13425146773E+04  0.10441640138E+04  0.17727211221E+04  0.10191014368E+03 0.  0.
         11    1    3    3    0    0  0.69325612748E+02  0.15145290254E+03  0.86263461551E+02  0.18757773607E+03  0.00000000000E+00 0. -1.
        -11    1    3    3    0    0  0.42009276951E+03  0.11910617748E+04  0.95790055227E+03  0.15851433861E+04  0.00000000000E+00 0.  1.
         22    1    1    2    0    0 -0.48941838226E+03 -0.13425146773E+04  0.26194246246E+04  0.29838333358E+04  0.00000000000E+00 0. -1.
<mgrwt>
<rscale>  0 0.30336329E+04</rscale>
<asrwt>0</asrwt>
<pdfrwt beam="1">  1        2 0.64770330E+00 0.30336329E+04</pdfrwt>
<pdfrwt beam="2">  1       -2 0.84074296E-01 0.30336329E+04</pdfrwt>
<totfact> 0.24011318E-01</totfact>
</mgrwt>
</event>
<event>
 6    1  0.3017327E-006  0.1353108E+04  0.7818608E-02  0.8988479E-01
          2   -1    0    0  501    0  0.00000000000E+00  0.00000000000E+00  0.17071340088E+04  0.17071340088E+04  0.00000000000E+00 0. -1.
         -2   -1    0    0    0  501 -0.00000000000E+00 -0.00000000000E+00 -0.26812510483E+03  0.26812510483E+03  0.00000000000E+00 0.  1.
         23    2    1    2    0    0 -0.16706401468E+03 -0.27673726175E+03 -0.13977035337E+03  0.36372635243E+03  0.90924203217E+02 0.  0.
         13    1    3    3    0    0 -0.58132636951E+02 -0.13542700165E+03 -0.10747926275E+03  0.18240523067E+03  0.00000000000E+00 0.  1.
        -13    1    3    3    0    0 -0.10893137772E+03 -0.14131026010E+03 -0.32291090618E+02  0.18132112176E+03  0.00000000000E+00 0. -1.
         22    1    1    2    0    0  0.16706401468E+03  0.27673726175E+03  0.15787792573E+04  0.16115327612E+04  0.00000000000E+00 0. -1.
<mgrwt>
<rscale>  0 0.13531083E+04</rscale>
<asrwt>0</asrwt>
<pdfrwt beam="1">  1        2 0.26263599E+00 0.13531083E+04</pdfrwt>
<pdfrwt beam="2">  1       -2 0.41250017E-01 0.13531083E+04</pdfrwt>
<totfact> 0.52824247E+01</totfact>
</mgrwt>
</event>
<event>
 6    1  0.3017327E-006  0.2414864E+04  0.7818608E-02  0.8433959E-01
         -2   -1    0    0    0  501 -0.00000000000E+00  0.00000000000E+00  0.13287444512E+04  0.13287444512E+04  0.00000000000E+00 0.  1.
          2   -1    0    0  501    0  0.00000000000E+00 -0.00000000000E+00 -0.10971954773E+04  0.10971954773E+04  0.00000000000E+00 0. -1.
         23    2    1    2    0    0  0.94172097330E+03  0.44947109932E+03  0.72275109492E+03  0.12726220260E+04  0.91296304086E+02 0.  0.
         13    1    3    3    0    0  0.40229427935E+03  0.15264179109E+03  0.26409384145E+03  0.50486212046E+03  0.00000000000E+00 0. -1.
        -13    1    3    3    0    0  0.53942669395E+03  0.29682930824E+03  0.45865725347E+03  0.76775990553E+03  0.00000000000E+00 0.  1.
         22    1    1    2    0    0 -0.94172097330E+03 -0.44947109932E+03 -0.49120212105E+03  0.11533179026E+04  0.00000000000E+00 0. -1.
<mgrwt>
<rscale>  0 0.24148643E+04</rscale>
<asrwt>0</asrwt>
<pdfrwt beam="1">  1        2 0.16879930E+00 0.24148643E+04</pdfrwt>
<pdfrwt beam="2">  1       -2 0.20442222E+00 0.24148643E+04</pdfrwt>
<totfact> 0.24441941E+00</totfact>
</mgrwt>
</event>
<event>
 6    1  0.3017327E-006  0.1322545E+04  0.7818608E-02  0.9011876E-01
         -2   -1    0    0    0  501 -0.00000000000E+00  0.00000000000E+00  0.35344277251E+03  0.35344277251E+03  0.00000000000E+00 0.  1.
          2   -1    0    0  501    0  0.00000000000E+00 -0.00000000000E+00 -0.12372045075E+04  0.12372045075E+04  0.00000000000E+00 0. -1.
         23    2    1    2    0    0  0.38045429650E+03 -0.40971059053E+03 -0.26501257364E+02  0.56717096555E+03  0.91500534425E+02 0.  0.
         11    1    3    3    0    0  0.20155726974E+03 -0.23937632614E+03  0.28097868047E+02  0.31419078391E+03  0.00000000000E+00 0.  1.
        -11    1    3    3    0    0  0.17889702676E+03 -0.17033426439E+03 -0.54599125411E+02  0.25298018165E+03  0.00000000000E+00 0. -1.
         22    1    1    2    0    0 -0.38045429650E+03  0.40971059053E+03 -0.85726047760E+03  0.10234763144E+04  0.00000000000E+00 0. -1.
<mgrwt>
<rscale>  0 0.13225445E+04</rscale>
<asrwt>0</asrwt>
<pdfrwt beam="1">  1        2 0.19033916E+00 0.13225445E+04</pdfrwt>
<pdfrwt beam="2">  1       -2 0.54375811E-01 0.13225445E+04</pdfrwt>
<totfact> 0.56070378E+01</totfact>
</mgrwt>
</event>
<event>
 6    1  0.3017327E-006  0.3362277E+03  0.7818608E-02  0.1068414E+00
         -4   -1    0    0    0  501 -0.00000000000E+00  0.00000000000E+00  0.15822779074E+03  0.15822779074E+03  0.00000000000E+00 0.  1.
          4   -1    0    0  501    0  0.00000000000E+00 -0.00000000000E+00 -0.17861754172E+03  0.17861754172E+03  0.00000000000E+00 0. -1.
         23    2    1    2    0    0 -0.14145622242E+03  0.50576291251E+02 -0.51877149883E+02  0.18335500577E+03  0.91433010260E+02 0.  0.
         11    1    3    3    0    0 -0.78423481736E+02  0.44601789688E+02 -0.73583765090E+02  0.11642221702E+03  0.00000000000E+00 0. -1.
        -11    1    3    3    0    0 -0.63032740680E+02  0.59745015623E+01  0.21706615207E+02  0.66932788753E+02  0.00000000000E+00 0.  1.
         22    1    1    2    0    0  0.14145622242E+03 -0.50576291251E+02  0.31487398896E+02  0.15349032669E+03  0.00000000000E+00 0.  1.
<mgrwt>
<rscale>  0 0.33622766E+03</rscale>
<asrwt>0</asrwt>
<pdfrwt beam="1">  1        4 0.27479622E-01 0.33622766E+03</pdfrwt>
<pdfrwt beam="2">  1       -4 0.24342737E-01 0.33622766E+03</pdfrwt>
<totfact> 0.37895368E+02</totfact>
</mgrwt>
</event>
<event>
 6    1  0.3017327E-006  0.2695540E+04  0.7818608E-02  0.8336454E-01
          2   -1    0    0  501    0  0.00000000000E+00  0.00000000000E+00  0.11627632974E+04  0.11627632974E+04  0.00000000000E+00 0. -1.
         -2   -1    0    0    0  501 -0.00000000000E+00 -0.00000000000E+00 -0.15622128023E+04  0.15622128023E+04  0.00000000000E+00 0.  1.
         23    2    1    2    0    0 -0.11016553750E+04  0.77074697645E+03 -0.13047484568E+03  0.13538295597E+04  0.90196032361E+02 0.  0.
         11    1    3    3    0    0 -0.20937101732E+03  0.18194846505E+03 -0.48092146382E+01  0.27742493647E+03  0.00000000000E+00 0.  1.
        -11    1    3    3    0    0 -0.89228435769E+03  0.58879851140E+03 -0.12566563104E+03  0.10764046232E+04  0.00000000000E+00 0. -1.
         22    1    1    2    0    0  0.11016553750E+04 -0.77074697645E+03 -0.26897465920E+03  0.13711465401E+04  0.00000000000E+00 0. -1.
<mgrwt>
<rscale>  0 0.26955398E+04</rscale>
<asrwt>0</asrwt>
<pdfrwt beam="1">  1        2 0.17888666E+00 0.26955398E+04</pdfrwt>
<pdfrwt beam="2">  1       -2 0.24034043E+00 0.26955398E+04</pdfrwt>
<totfact> 0.12902138E+00</totfact>
</mgrwt>
</event>
<event>
 6    1  0.3017327E-006  0.6383545E+03  0.7818608E-02  0.9828880E-01
          2   -1    0    0  501    0  0.00000000000E+00  0.00000000000E+00  0.86371106756E+03  0.86371106756E+03  0.00000000000E+00 0. -1.
         -2   -1    0    0    0  501 -0.00000000000E+00 -0.00000000000E+00 -0.11794928559E+03  0.11794928559E+03  0.00000000000E+00 0.  1.
         23    2    1    2    0    0  0.22929780109E+03  0.14005496291E+03  0.15124893204E+03  0.32925066366E+03  0.11548543569E+03 0.  0.
         11    1    3    3    0    0  0.20445892038E+02  0.65632104169E+02  0.19973638421E+02  0.71585989067E+02  0.00000000000E+00 0. -1.
        -11    1    3    3    0    0  0.20885190905E+03  0.74422858737E+02  0.13127529362E+03  0.25766467459E+03  0.00000000000E+00 0.  1.
         22    1    1    2    0    0 -0.22929780109E+03 -0.14005496291E+03  0.59451284992E+03  0.65240968949E+03  0.00000000000E+00 0. -1.
<mgrwt>
<rscale>  0 0.63835446E+03</rscale>
<asrwt>0</asrwt>
<pdfrwt beam="1">  1        2 0.13287862E+00 0.63835446E+03</pdfrwt>
<pdfrwt beam="2">  1       -2 0.18146045E-01 0.63835446E+03</pdfrwt>
<totfact> 0.79005887E+02</totfact>
</mgrwt>
</event>
<event>
 6    1  0.3017327E-006  0.2532576E+04  0.7818608E-02  0.8391471E-01
          2   -1    0    0  501    0  0.00000000000E+00  0.00000000000E+00  0.16914662481E+04  0.16914662481E+04  0.00000000000E+00 0. -1.
         -2   -1    0    0    0  501 -0.00000000000E+00 -0.00000000000E+00 -0.94798505701E+03  0.94798505701E+03  0.00000000000E+00 0.  1.
         23    2    1    2    0    0  0.32811510155E+03 -0.70110676398E+03 -0.67002597499E+03  0.10278642851E+04  0.91432856033E+02 0.  0.
         13    1    3    3    0    0  0.29335681262E+03 -0.54214520907E+03 -0.54201331566E+03  0.82082768081E+03  0.00000000000E+00 0. -1.
        -13    1    3    3    0    0  0.34758288932E+02 -0.15896155491E+03 -0.12801265933E+03  0.20703660434E+03  0.00000000000E+00 0.  1.
         22    1    1    2    0    0 -0.32811510155E+03  0.70110676398E+03  0.14135071660E+04  0.16115870199E+04  0.00000000000E+00 0. -1.
<mgrwt>
<rscale>  0 0.25325755E+04</rscale>
<asrwt>0</asrwt>
<pdfrwt beam="1">  1        2 0.26022558E+00 0.25325755E+04</pdfrwt>
<pdfrwt beam="2">  1       -2 0.14584385E+00 0.25325755E+04</pdfrwt>
<totfact> 0.28465091E+00</totfact>
</mgrwt>
</event>
<event>
 6    1  0.3017327E-006  0.1112804E+04  0.7818608E-02  0.9192802E-01
         -2   -1    0    0    0  501 -0.00000000000E+00  0.00000000000E+00  0.57564937568E+03  0.57564937568E+03  0.00000000000E+00 0.  1.
          2   -1    0    0  501    0  0.00000000000E+00 -0.00000000000E+00 -0.53779773923E+03  0.53779773923E+03  0.00000000000E+00 0. -1.
         23    2    1    2    0    0 -0.36329558272E+03 -0.30735263207E+03  0.30010685218E+03  0.57009905055E+03  0.92192645325E+02 0.  0.
         11    1    3    3    0    0 -0.16733547394E+03 -0.15550950662E+03  0.91425286185E+02  0.24605477122E+03  0.00000000000E+00 0. -1.
        -11    1    3    3    0    0 -0.19596010878E+03 -0.15184312545E+03  0.20868156600E+03  0.32404427933E+03  0.00000000000E+00 0.  1.
         22    1    1    2    0    0  0.36329558272E+03  0.30735263207E+03 -0.26225521573E+03  0.54334806436E+03  0.00000000000E+00 0. -1.
<mgrwt>
<rscale>  0 0.11128035E+04</rscale>
<asrwt>0</asrwt>
<pdfrwt beam="1">  1        2 0.82738114E-01 0.11128035E+04</pdfrwt>
<pdfrwt beam="2">  1       -2 0.88561442E-01 0.11128035E+04</pdfrwt>
<totfact> 0.61548770E+01</totfact>
</mgrwt>
</event>
<event>
 6    1  0.3017327E-006  0.4119155E+04  0.7818608E-02  0.7980931E-01
          2   -1    0    0  501    0  0.00000000000E+00  0.00000000000E+00  0.22974252295E+04  0.22974252295E+04  0.00000000000E+00 0. -1.
         -2   -1    0    0    0  501 -0.00000000000E+00 -0.00000000000E+00 -0.18463537050E+04  0.18463537050E+04  0.00000000000E+00 0.  1.
         23    2    1    2    0    0  0.15974291040E+04  0.78817809954E+03  0.12637170715E+04  0.21858725926E+04  0.89742384329E+02 0.  0.
         11    1    3    3    0    0  0.46419326730E+03  0.26353519975E+03  0.41185491363E+03  0.67420372351E+03  0.00000000000E+00 0. -1.
        -11    1    3    3    0    0  0.11332358367E+04  0.52464289979E+03  0.85186215785E+03  0.15116688691E+04  0.00000000000E+00 0.  1.
         22    1    1    2    0    0 -0.15974291040E+04 -0.78817809954E+03 -0.81264554698E+03  0.19579063420E+04  0.00000000000E+00 0.  1.
<mgrwt>
<rscale>  0 0.41191551E+04</rscale>
<asrwt>0</asrwt>
<pdfrwt beam="1">  1        2 0.35345004E+00 0.41191551E+04</pdfrwt>
<pdfrwt beam="2">  1       -2 0.28405442E+00 0.41191551E+04</pdfrwt>
<totfact> 0.14139915E-01</totfact>
</mgrwt>
</event>
<event>
 6    1  0.3017327E-006  0.2921160E+04  0.7818608E-02  0.8266609E-01
          2   -1    0    0  501    0  0.00000000000E+00  0.00000000000E+00  0.16471287557E+04  0.16471287557E+04  0.00000000000E+00 0. -1.
         -2   -1    0    0    0  501 -0.00000000000E+00 -0.00000000000E+00 -0.12951594591E+04  0.12951594591E+04  0.00000000000E+00 0.  1.
         23    2    1    2    0    0 -0.25291507256E+03  0.13570884221E+04  0.65234386907E+03  0.15295320775E+04  0.90889126368E+02 0.  0.
         13    1    3    3    0    0 -0.13664856882E+03  0.73351716776E+03  0.40255736044E+03  0.84780463269E+03  0.00000000000E+00 0.  1.
        -13    1    3    3    0    0 -0.11626650373E+03  0.62357125437E+03  0.24978650863E+03  0.68172744485E+03  0.00000000000E+00 0. -1.
         22    1    1    2    0    0  0.25291507256E+03 -0.13570884221E+04 -0.30037457253E+03  0.14127561372E+04  0.00000000000E+00 0. -1.
<mgrwt>
<rscale>  0 0.29211603E+04</rscale>
<asrwt>0</asrwt>
<pdfrwt beam="1">  1        2 0.25340442E+00 0.29211603E+04</pdfrwt>
<pdfrwt beam="2">  1       -2 0.19925530E+00 0.29211603E+04</pdfrwt>
<totfact> 0.12164486E+00</totfact>
</mgrwt>
</event>
<event>
 6    1  0.3017327E-006  0.1283576E+04  0.7818608E-02  0.9042692E-01
         -2   -1    0    0    0  501 -0.00000000000E+00  0.00000000000E+00  0.61229017659E+03  0.61229017659E+03  0.00000000000E+00 0.  1.
          2   -1    0    0  501    0  0.00000000000E+00 -0.00000000000E+00 -0.67270726097E+03  0.67270726097E+03  0.00000000000E+00 0. -1.
         23    2    1    2    0    0  0.26444286205E+03 -0.38314510407E+03  0.40704811001E+03  0.62525968207E+03  0.92365080476E+02 0.  0.
         13    1    3    3    0    0  0.70635332042E+02 -0.89068566022E+02  0.51486615912E+02  0.12479355434E+03  0.00000000000E+00 0. -1.
        -13    1    3    3    0    0  0.19380753001E+03 -0.29407653804E+03  0.35556149410E+03  0.50046612773E+03  0.00000000000E+00 0.  1.
         22    1    1    2    0    0 -0.26444286205E+03  0.38314510407E+03 -0.46746519439E+03  0.65973775550E+03  0.00000000000E+00 0. -1.
<mgrwt>
<rscale>  0 0.12835763E+04</rscale>
<asrwt>0</asrwt>
<pdfrwt beam="1">  1        2 0.10349343E+00 0.12835763E+04</pdfrwt>
<pdfrwt beam="2">  1       -2 0.94198488E-01 0.12835763E+04</pdfrwt>
<totfact> 0.40200083E+01</totfact>
</mgrwt>
</event>
<event>
 6    1  0.3017327E-006  0.4020047E+04  0.7818608E-02  0.8000515E-01
         -2   -1    0    0    0  501 -0.00000000000E+00  0.00000000000E+00  0.99378265290E+03  0.99378265290E+03  0.00000000000E+00 0.  1.
          2   -1    0    0  501    0  0.00000000000E+00 -0.00000000000E+00 -0.40654700018E+04  0.40654700018E+04  0.00000000000E+00 0. -1.
         23    2    1    2    0    0 -0.49344253467E+03 -0.19105604898E+04 -0.10617636502E+04  0.22426021271E+04  0.90528067528E+02 0.  0.
         13    1    3    3    0    0 -0.33877324365E+03 -0.11972148806E+04 -0.70650766265E+03  0.14308192962E+04  0.00000000000E+00 0.  1.
        -13    1    3    3    0    0 -0.15466929103E+03 -0.71334560925E+03 -0.35525598759E+03  0.81178283090E+03  0.00000000000E+00 0. -1.
         22    1    1    2    0    0  0.49344253467E+03  0.19105604898E+04 -0.20099236986E+04  0.28166505276E+04  0.00000000000E+00 0. -1.
<mgrwt>
<rscale>  0 0.40200465E+04</rscale>
<asrwt>0</asrwt>
<pdfrwt beam="1">  1        2 0.62545693E+00 0.40200465E+04</pdfrwt>
<pdfrwt beam="2">  1       -2 0.15288964E+00 0.40200465E+04</pdfrwt>
<totfact> 0.67548471E-02</totfact>
</mgrwt>
</event>
<event>
 6    1  0.3017327E-006  0.4743098E+04  0.7818608E-02  0.7869407E-01
          2   -1    0    0  501    0  0.00000000000E+00  0.00000000000E+00  0.19288037217E+04  0.19288037217E+04  0.00000000000E+00 0. -1.
         -2   -1    0    0    0  501 -0.00000000000E+00 -0.00000000000E+00 -0.29159235037E+04  0.29159235037E+04  0.00000000000E+00 0.  1.
         23    2    1    2    0    0  0.41079345517E+03 -0.23040793865E+04 -0.10813073673E+03  0.23446962608E+04  0.91516213070E+02 0.  0.
         13    1    3    3    0    0  0.18477311541E+03 -0.80142348780E+03 -0.52397334001E+02  0.82411539943E+03  0.00000000000E+00 0. -1.
        -13    1    3    3    0    0  0.22602033976E+03 -0.15026558987E+04 -0.55733402731E+02  0.15205808614E+04  0.00000000000E+00 0.  1.
         22    1    1    2    0    0 -0.41079345517E+03  0.23040793865E+04 -0.87898904522E+03  0.25000309645E+04  0.00000000000E+00 0.  1.
<mgrwt>
<rscale>  0 0.47430978E+04</rscale>
<asrwt>0</asrwt>
<pdfrwt beam="1">  1        2 0.29673903E+00 0.47430978E+04</pdfrwt>
<pdfrwt beam="2">  1       -2 0.44860362E+00 0.47430978E+04</pdfrwt>
<totfact> 0.19318124E-02</totfact>
</mgrwt>
</event>
<event>
 6    1  0.3017327E-006  0.7897605E+03  0.7818608E-02  0.9574958E-01
         -2   -1    0    0    0  501 -0.00000000000E+00  0.00000000000E+00  0.38809214403E+03  0.38809214403E+03  0.00000000000E+00 0.  1.
          2   -1    0    0  501    0  0.00000000000E+00 -0.00000000000E+00 -0.40178711260E+03  0.40178711260E+03  0.00000000000E+00 0. -1.
         23    2    1    2    0    0  0.26669661186E+03  0.21239853465E+03  0.18163048008E+03  0.39695146277E+03  0.91326952223E+02 0.  0.
         13    1    3    3    0    0  0.10236046413E+03  0.11271271472E+03  0.12379283677E+03  0.19623069870E+03  0.00000000000E+00 0. -1.
        -13    1    3    3    0    0  0.16433614773E+03  0.99685819923E+02  0.57837643317E+02  0.20072076407E+03  0.00000000000E+00 0.  1.
         22    1    1    2    0    0 -0.26669661186E+03 -0.21239853465E+03 -0.19532544866E+03  0.39292779386E+03  0.00000000000E+00 0. -1.
<mgrwt>
<rscale>  0 0.78976053E+03</rscale>
<asrwt>0</asrwt>
<pdfrwt beam="1">  1        2 0.61813402E-01 0.78976053E+03</pdfrwt>
<pdfrwt beam="2">  1       -2 0.59706484E-01 0.78976053E+03</pdfrwt>
<totfact> 0.20869226E+02</totfact>
</mgrwt>
</event>
<event>
 6    1  0.3017327E-006  0.4566403E+04  0.7818608E-02  0.7899114E-01
         -2   -1    0    0    0  501 -0.00000000000E+00  0.00000000000E+00  0.31716968846E+04  0.31716968846E+04  0.00000000000E+00 0.  1.
          2   -1    0    0  501    0  0.00000000000E+00 -0.00000000000E+00 -0.16436026285E+04  0.16436026285E+04  0.00000000000E+00 0. -1.
         23    2    1    2    0    0  0.45698040854E+03 -0.17900874409E+04 -0.64923758016E+03  0.19597753816E+04  0.77239698339E+02 0.  0.
         11    1    3    3    0    0  0.36549331795E+03 -0.15390730884E+04 -0.56131976548E+03  0.16785145862E+04  0.00000000000E+00 0.  1.
        -11    1    3    3    0    0  0.91487090584E+02 -0.25101435252E+03 -0.87917814677E+02  0.28126079544E+03  0.00000000000E+00 0. -1.
         22    1    1    2    0    0 -0.45698040854E+03  0.17900874409E+04  0.21773318362E+04  0.28555241314E+04  0.00000000000E+00 0.  1.
<mgrwt>
<rscale>  0 0.45664031E+04</rscale>
<asrwt>0</asrwt>
<pdfrwt beam="1">  1        2 0.25286194E+00 0.45664031E+04</pdfrwt>
<pdfrwt beam="2">  1       -2 0.48795336E+00 0.45664031E+04</pdfrwt>
<totfact> 0.15660623E-02</totfact>
</mgrwt>
</event>
<event>
 6    1  0.3017327E-006  0.3578195E+04  0.7818608E-02  0.8095505E-01
         -1   -1    0    0    0  501 -0.00000000000E+00  0.00000000000E+00  0.15386832491E+04  0.15386832491E+04  0.00000000000E+00 0.  1.
          1   -1    0    0  501    0  0.00000000000E+00 -0.00000000000E+00 -0.20802652641E+04  0.20802652641E+04  0.00000000000E+00 0. -1.
         23    2    1    2    0    0 -0.65352794076E+03 -0.11137551084E+04 -0.15216542539E+04  0.19978097764E+04  0.90901173799E+02 0.  0.
         11    1    3    3    0    0 -0.28661289330E+03 -0.41606493087E+03 -0.55602709829E+03  0.75128098029E+03  0.00000000000E+00 0. -1.
        -11    1    3    3    0    0 -0.36691504745E+03 -0.69769017753E+03 -0.96562715559E+03  0.12465287961E+04  0.00000000000E+00 0.  1.
         22    1    1    2    0    0  0.65352794076E+03  0.11137551084E+04  0.98007223884E+03  0.16211387369E+04  0.00000000000E+00 0.  1.
<mgrwt>
<rscale>  0 0.35781947E+04</rscale>
<asrwt>0</asrwt>
<pdfrwt beam="1">  1        1 0.32004081E+00 0.35781947E+04</pdfrwt>
<pdfrwt beam="2">  1       -1 0.23672050E+00 0.35781947E+04</pdfrwt>
<totfact> 0.18154005E-01</totfact>
</mgrwt>
</event>
<event>
 6    1  0.3017327E-006  0.1953815E+04  0.7818608E-02  0.8628523E-01
          2   -1    0    0  501    0  0.00000000000E+00  0.00000000000E+00  0.93790045870E+03  0.93790045870E+03  0.00000000000E+00 0.  1.
         -2   -1    0    0    0  501 -0.00000000000E+00 -0.00000000000E+00 -0.10175367568E+04  0.10175367568E+04  0.00000000000E+00 0. -1.
         23    2    1    2    0    0 -0.64129997693E+03  0.37646191358E+03 -0.67090600443E+03  0.10053903227E+04  0.87781555259E+02 0.  0.
         13    1    3    3    0    0 -0.56468719349E+03  0.31133051189E+03 -0.61110184003E+03  0.88839392896E+03  0.00000000000E+00 0. -1.
        -13    1    3    3    0    0 -0.76612783434E+02  0.65131401689E+02 -0.59804164405E+02  0.11699639376E+03  0.00000000000E+00 0.  1.
         22    1    1    2    0    0  0.64129997693E+03 -0.37646191358E+03  0.59126970637E+03  0.95004689276E+03  0.00000000000E+00 0.  1.
<mgrwt>
<rscale>  0 0.19538149E+04</rscale>
<asrwt>0</asrwt>
<pdfrwt beam="1">  1        2 0.14429238E+00 0.19538149E+04</pdfrwt>
<pdfrwt beam="2">  1       -2 0.15654412E+00 0.19538149E+04</pdfrwt>
<totfact> 0.68913042E+00</totfact>
</mgrwt>
</event>
<event>
 6    1  0.3017327E-006  0.5797517E+03  0.7818608E-02  0.9948329E-01
         -1   -1    0    0    0  501 -0.00000000000E+00  0.00000000000E+00  0.17734268009E+03  0.17734268009E+03  0.00000000000E+00 0.  1.
          1   -1    0    0  501    0  0.00000000000E+00 -0.00000000000E+00 -0.47381709813E+03  0.47381709813E+03  0.00000000000E+00 0. -1.
         23    2    1    2    0    0 -0.27704854234E+03 -0.53763585889E+02 -0.15792551035E+03  0.33676795612E+03  0.93945577167E+02 0.  0.
         13    1    3    3    0    0 -0.11783045042E+03 -0.47763767632E+02 -0.25693970230E+02  0.12971342510E+03  0.00000000000E+00 0.  1.
        -13    1    3    3    0    0 -0.15921809192E+03 -0.59998182573E+01 -0.13223154012E+03  0.20705453102E+03  0.00000000000E+00 0. -1.
         22    1    1    2    0    0  0.27704854234E+03  0.53763585889E+02 -0.13854890770E+03  0.31439182210E+03  0.00000000000E+00 0.  1.
<mgrwt>
<rscale>  0 0.57975165E+03</rscale>
<asrwt>0</asrwt>
<pdfrwt beam="1">  1        1 0.72894938E-01 0.57975165E+03</pdfrwt>
<pdfrwt beam="2">  1       -1 0.27283489E-01 0.57975165E+03</pdfrwt>
<totfact> 0.58022482E+02</totfact>
</mgrwt>
</event>
<event>
 6    1  0.3017327E-006  0.1876302E+04  0.7818608E-02  0.8666743E-01
         -2   -1    0    0    0  501 -0.00000000000E+00  0.00000000000E+00  0.61153079568E+03  0.61153079568E+03  0.00000000000E+00 0.  1.
          2   -1    0    0  501    0  0.00000000000E+00 -0.00000000000E+00 -0.14392198997E+04  0.14392198997E+04  0.00000000000E+00 0. -1.
         23    2    1    2    0    0  0.77833087337E+03 -0.24421713377E+03  0.86794428599E+02  0.82530339407E+03  0.90285450466E+02 0.  0.
         13    1    3    3    0    0  0.35537306865E+03 -0.13142601787E+03  0.81346976036E+02  0.38753083311E+03  0.00000000000E+00 0.  1.
        -13    1    3    3    0    0  0.42295780472E+03 -0.11279111589E+03  0.54474525626E+01  0.43777256096E+03  0.00000000000E+00 0. -1.
         22    1    1    2    0    0 -0.77833087337E+03  0.24421713377E+03 -0.91448353264E+03  0.12254473013E+04  0.00000000000E+00 0. -1.
<mgrwt>
<rscale>  0 0.18763020E+04</rscale>
<asrwt>0</asrwt>
<pdfrwt beam="1">  1        2 0.22141844E+00 0.18763020E+04</pdfrwt>
<pdfrwt beam="2">  1       -2 0.94081661E-01 0.18763020E+04</pdfrwt>
<totfact> 0.12295800E+01</totfact>
</mgrwt>
</event>
<event>
 6    1  0.3017327E-006  0.3271427E+04  0.7818608E-02  0.8170204E-01
         -2   -1    0    0    0  501 -0.00000000000E+00  0.00000000000E+00  0.85349860756E+03  0.85349860756E+03  0.00000000000E+00 0.  1.
          2   -1    0    0  501    0  0.00000000000E+00 -0.00000000000E+00 -0.31348135308E+04  0.31348135308E+04  0.00000000000E+00 0. -1.
         23    2    1    2    0    0  0.18244567630E+03  0.24822009726E+03 -0.30984669666E+04  0.31150211768E+04  0.89217417453E+02 0.  0.
         11    1    3    3    0    0  0.16645183267E+03  0.25303593853E+03 -0.28674900890E+04  0.28834411402E+04  0.00000000000E+00 0. -1.
        -11    1    3    3    0    0  0.15993843627E+02 -0.48158412646E+01 -0.23097687757E+03  0.23158003656E+03  0.00000000000E+00 0.  1.
         22    1    1    2    0    0 -0.18244567630E+03 -0.24822009726E+03  0.81715204336E+03  0.87329096151E+03  0.00000000000E+00 0.  1.
<mgrwt>
<rscale>  0 0.32714272E+04</rscale>
<asrwt>0</asrwt>
<pdfrwt beam="1">  1        2 0.48227901E+00 0.32714272E+04</pdfrwt>
<pdfrwt beam="2">  1       -2 0.13130748E+00 0.32714272E+04</pdfrwt>
<totfact> 0.50619524E-01</totfact>
</mgrwt>
</event>
<event>
 6    1  0.3017327E-006  0.2793695E+04  0.7818608E-02  0.8305229E-01
         -2   -1    0    0    0  501 -0.00000000000E+00  0.00000000000E+00  0.68251336376E+03  0.68251336376E+03  0.00000000000E+00 0. -1.
          2   -1    0    0  501    0  0.00000000000E+00 -0.00000000000E+00 -0.28588192674E+04  0.28588192674E+04  0.00000000000E+00 0.  1.
         23    2    1    2    0    0 -0.95171911866E+03  0.96063362760E+03 -0.65325429295E+03  0.15046018055E+04  0.92190967947E+02 0.  0.
         13    1    3    3    0    0 -0.49263131436E+03  0.55416386282E+03 -0.33268304840E+03  0.81268764568E+03  0.00000000000E+00 0.  1.
        -13    1    3    3    0    0 -0.45908780430E+03  0.40646976478E+03 -0.32057124455E+03  0.69191415982E+03  0.00000000000E+00 0. -1.
         22    1    1    2    0    0  0.95171911866E+03 -0.96063362760E+03 -0.15230516107E+04  0.20367308256E+04  0.00000000000E+00 0.  1.
<mgrwt>
<rscale>  0 0.27936946E+04</rscale>
<asrwt>0</asrwt>
<pdfrwt beam="1">  1        2 0.43981836E+00 0.27936946E+04</pdfrwt>
<pdfrwt beam="2">  1       -2 0.10500205E+00 0.27936946E+04</pdfrwt>
<totfact> 0.13621884E+00</totfact>
</mgrwt>
</event>
<event>
 6    1  0.4191524E-006  0.3366748E+04  0.7818608E-02  0.8146116E-01
         -2   -1    0    0    0  501 -0.00000000000E+00  0.00000000000E+00  0.12115377879E+04  0.12115377879E+04  0.00000000000E+00 0.  1.
          2   -1    0    0  501    0  0.00000000000E+00 -0.00000000000E+00 -0.23389685332E+04  0.23389685332E+04  0.00000000000E+00 0. -1.
         23    2    1    2    0    0 -0.13202967487E+04 -0.10365993078E+04 -0.67207612019E+03  0.18112336386E+04  0.10563783652E+03 0.  0.
         13    1    3    3    0    0 -0.75348269252E+03 -0.54787746185E+03 -0.41533833051E+03  0.10200057892E+04  0.00000000000E+00 0.  1.
        -13    1    3    3    0    0 -0.56681405623E+03 -0.48872184594E+03 -0.25673778968E+03  0.79122784941E+03  0.00000000000E+00 0. -1.
         22    1    1    2    0    0  0.13202967487E+04  0.10365993078E+04 -0.45535462517E+03  0.17392726826E+04  0.00000000000E+00 0. -1.
<mgrwt>
<rscale>  0 0.33667484E+04</rscale>
<asrwt>0</asrwt>
<pdfrwt beam="1">  1        2 0.35984131E+00 0.33667484E+04</pdfrwt>
<pdfrwt beam="2">  1       -2 0.18639043E+00 0.33667484E+04</pdfrwt>
<totfact> 0.58666818E-01</totfact>
</mgrwt>
</event>
<event>
 6    1  0.3017327E-006  0.2526303E+04  0.7818608E-02  0.8393675E-01
         -2   -1    0    0    0  501 -0.00000000000E+00  0.00000000000E+00  0.56136442794E+03  0.56136442794E+03  0.00000000000E+00 0.  1.
          2   -1    0    0  501    0  0.00000000000E+00 -0.00000000000E+00 -0.28422732659E+04  0.28422732659E+04  0.00000000000E+00 0. -1.
         23    2    1    2    0    0  0.11539214690E+04 -0.10912380648E+03 -0.47058037294E+03  0.12540489162E+04  0.88034284285E+02 0.  0.
         13    1    3    3    0    0  0.56047667194E+03 -0.91293155351E+02 -0.25378150656E+03  0.62199163425E+03  0.00000000000E+00 0. -1.
        -13    1    3    3    0    0  0.59344479702E+03 -0.17830651125E+02 -0.21679886637E+03  0.63205728197E+03  0.00000000000E+00 0.  1.
         22    1    1    2    0    0 -0.11539214690E+04  0.10912380648E+03 -0.18103284650E+04  0.21495887776E+04  0.00000000000E+00 0. -1.
<mgrwt>
<rscale>  0 0.25263025E+04</rscale>
<asrwt>0</asrwt>
<pdfrwt beam="1">  1        2 0.43727281E+00 0.25263025E+04</pdfrwt>
<pdfrwt beam="2">  1       -2 0.86363758E-01 0.25263025E+04</pdfrwt>
<totfact> 0.22536302E+00</totfact>
</mgrwt>
</event>
<event>
 6    1  0.3017327E-006  0.1771491E+04  0.7818608E-02  0.8721609E-01
         -2   -1    0    0    0  501 -0.00000000000E+00  0.00000000000E+00  0.11893443086E+04  0.11893443086E+04  0.00000000000E+00 0.  1.
          2   -1    0    0  501    0  0.00000000000E+00 -0.00000000000E+00 -0.65964481844E+03  0.65964481844E+03  0.00000000000E+00 0. -1.
         23    2    1    2    0    0  0.73074208181E+02  0.21956456452E+03  0.11553638912E+04  0.11819026405E+04  0.92085246921E+02 0.  0.
         11    1    3    3    0    0  0.49980062281E+02  0.14994956936E+03  0.55478232983E+03  0.57685900657E+03  0.00000000000E+00 0.  1.
        -11    1    3    3    0    0  0.23094145901E+02  0.69614995159E+02  0.60058156133E+03  0.60504363391E+03  0.00000000000E+00 0. -1.
         22    1    1    2    0    0 -0.73074208181E+02 -0.21956456452E+03 -0.62566440099E+03  0.66708648657E+03  0.00000000000E+00 0. -1.
<mgrwt>
<rscale>  0 0.17714907E+04</rscale>
<asrwt>0</asrwt>
<pdfrwt beam="1">  1        2 0.10148382E+00 0.17714907E+04</pdfrwt>
<pdfrwt beam="2">  1       -2 0.18297605E+00 0.17714907E+04</pdfrwt>
<totfact> 0.72197273E+00</totfact>
</mgrwt>
</event>
<event>
 6    1  0.3017327E-006  0.2552058E+04  0.7818608E-02  0.8384671E-01
         -2   -1    0    0    0  501 -0.00000000000E+00  0.00000000000E+00  0.56343371015E+03  0.56343371015E+03  0.00000000000E+00 0.  1.
          2   -1    0    0  501    0  0.00000000000E+00 -0.00000000000E+00 -0.28898701836E+04  0.28898701836E+04  0.00000000000E+00 0. -1.
         23    2    1    2    0    0 -0.19157474526E+02 -0.11657458380E+04 -0.46801430583E+03  0.12594344080E+04  0.88358756909E+02 0.  0.
         11    1    3    3    0    0  0.27637034866E+02 -0.32343458966E+03 -0.10662552817E+03  0.34167637136E+03  0.00000000000E+00 0. -1.
        -11    1    3    3    0    0 -0.46794509392E+02 -0.84231124831E+03 -0.36138877766E+03  0.91775803661E+03  0.00000000000E+00 0.  1.
         22    1    1    2    0    0  0.19157474526E+02  0.11657458380E+04 -0.18584221676E+04  0.21938694858E+04  0.00000000000E+00 0. -1.
<mgrwt>
<rscale>  0 0.25520582E+04</rscale>
<asrwt>0</asrwt>
<pdfrwt beam="1">  1        2 0.44459541E+00 0.25520582E+04</pdfrwt>
<pdfrwt beam="2">  1       -2 0.86682109E-01 0.25520582E+04</pdfrwt>
<totfact> 0.20852237E+00</totfact>
</mgrwt>
</event>
<event>
 6    1  0.3017327E-006  0.3060856E+04  0.7818608E-02  0.8226563E-01
          2   -1    0    0  501    0  0.00000000000E+00  0.00000000000E+00  0.14266791839E+04  0.14266791839E+04  0.00000000000E+00 0. -1.
         -2   -1    0    0    0  501 -0.00000000000E+00 -0.00000000000E+00 -0.16417217792E+04  0.16417217792E+04  0.00000000000E+00 0.  1.
         23    2    1    2    0    0 -0.10860715334E+04  0.29564942467E+02 -0.11854789147E+04  0.16116332701E+04  0.10759218635E+03 0.  0.
         13    1    3    3    0    0 -0.35182058219E+03 -0.31779222982E+02 -0.42724237645E+03  0.55436782852E+03  0.00000000000E+00 0.  1.
        -13    1    3    3    0    0 -0.73425095120E+03  0.61344165449E+02 -0.75823653827E+03  0.10572654416E+04  0.00000000000E+00 0. -1.
         22    1    1    2    0    0  0.10860715334E+04 -0.29564942467E+02  0.97043631944E+03  0.14567676931E+04  0.00000000000E+00 0. -1.
<mgrwt>
<rscale>  0 0.30608563E+04</rscale>
<asrwt>0</asrwt>
<pdfrwt beam="1">  1        2 0.21948911E+00 0.30608563E+04</pdfrwt>
<pdfrwt beam="2">  1       -2 0.25257258E+00 0.30608563E+04</pdfrwt>
<totfact> 0.73735890E-01</totfact>
</mgrwt>
</event>
<event>
 6    1  0.3017327E-006  0.4927864E+03  0.7818608E-02  0.1015679E+00
         -2   -1    0    0    0  501 -0.00000000000E+00  0.00000000000E+00  0.56709893966E+02  0.56709893966E+02  0.00000000000E+00 0.  1.
          2   -1    0    0  501    0  0.00000000000E+00 -0.00000000000E+00 -0.10705294906E+04  0.10705294906E+04  0.00000000000E+00 0. -1.
         23    2    1    2    0    0  0.77091416764E+02 -0.16928502561E+03 -0.86426737423E+03  0.88856308984E+03  0.89363102118E+02 0.  0.
         11    1    3    3    0    0  0.36010905838E+02 -0.19000530193E+02 -0.31522723775E+03  0.31784590119E+03  0.00000000000E+00 0. -1.
        -11    1    3    3    0    0  0.41080510926E+02 -0.15028449542E+03 -0.54904013649E+03  0.57071718864E+03  0.00000000000E+00 0.  1.
         22    1    1    2    0    0 -0.77091416764E+02  0.16928502561E+03 -0.14955222237E+03  0.23867629470E+03  0.00000000000E+00 0.  1.
<mgrwt>
<rscale>  0 0.49278642E+03</rscale>
<asrwt>0</asrwt>
<pdfrwt beam="1">  1        2 0.16469683E+00 0.49278642E+03</pdfrwt>
<pdfrwt beam="2">  1       -2 0.87246001E-02 0.49278642E+03</pdfrwt>
<totfact> 0.19601653E+03</totfact>
</mgrwt>
</event>
<event>
 6    1  0.3017327E-006  0.2758025E+04  0.7818608E-02  0.8316420E-01
         -2   -1    0    0    0  501 -0.00000000000E+00  0.00000000000E+00  0.68878307001E+03  0.68878307001E+03  0.00000000000E+00 0. -1.
          2   -1    0    0  501    0  0.00000000000E+00 -0.00000000000E+00 -0.27609201525E+04  0.27609201525E+04  0.00000000000E+00 0.  1.
         23    2    1    2    0    0 -0.11044110359E+04 -0.82006341665E+03 -0.11254521109E+04  0.17798408991E+04  0.94675385404E+02 0.  0.
         11    1    3    3    0    0 -0.46129513361E+03 -0.29659556046E+03 -0.48445081689E+03  0.73174771661E+03  0.00000000000E+00 0. -1.
        -11    1    3    3    0    0 -0.64311590233E+03 -0.52346785619E+03 -0.64100129399E+03  0.10480931825E+04  0.00000000000E+00 0.  1.
         22    1    1    2    0    0  0.11044110359E+04  0.82006341665E+03 -0.94668497159E+03  0.16698623234E+04  0.00000000000E+00 0.  1.
<mgrwt>
<rscale>  0 0.27580247E+04</rscale>
<asrwt>0</asrwt>
<pdfrwt beam="1">  1        2 0.42475694E+00 0.27580247E+04</pdfrwt>
<pdfrwt beam="2">  1       -2 0.10596663E+00 0.27580247E+04</pdfrwt>
<totfact> 0.15323622E+00</totfact>
</mgrwt>
</event>
<event>
 6    1  0.3017327E-006  0.3731407E+04  0.7818608E-02  0.8061037E-01
         -2   -1    0    0    0  501 -0.00000000000E+00  0.00000000000E+00  0.99240608236E+03  0.99240608236E+03  0.00000000000E+00 0.  1.
          2   -1    0    0  501    0  0.00000000000E+00 -0.00000000000E+00 -0.35074846633E+04  0.35074846633E+04  0.00000000000E+00 0. -1.
         23    2    1    2    0    0  0.16318217715E+04 -0.64121820152E+03 -0.49296088224E+03  0.18235194965E+04  0.90608204860E+02 0.  0.
         11    1    3    3    0    0  0.52104902187E+03 -0.16101989994E+03 -0.14270171284E+03  0.56372268911E+03  0.00000000000E+00 0. -1.
        -11    1    3    3    0    0  0.11107727496E+04 -0.48019830158E+03 -0.35025916940E+03  0.12597968074E+04  0.00000000000E+00 0.  1.
         22    1    1    2    0    0 -0.16318217715E+04  0.64121820152E+03 -0.20221176987E+04  0.26763712491E+04  0.00000000000E+00 0.  1.
<mgrwt>
<rscale>  0 0.37314068E+04</rscale>
<asrwt>0</asrwt>
<pdfrwt beam="1">  1        2 0.53961303E+00 0.37314068E+04</pdfrwt>
<pdfrwt beam="2">  1       -2 0.15267786E+00 0.37314068E+04</pdfrwt>
<totfact> 0.18479542E-01</totfact>
</mgrwt>
</event>
<event>
 6    1  0.3017327E-006  0.1695606E+04  0.7818608E-02  0.8763875E-01
          1   -1    0    0  501    0  0.00000000000E+00  0.00000000000E+00  0.34362415955E+04  0.34362415955E+04  0.00000000000E+00 0. -1.
         -1   -1    0    0    0  501 -0.00000000000E+00 -0.00000000000E+00 -0.20917320183E+03  0.20917320183E+03  0.00000000000E+00 0.  1.
         23    2    1    2    0    0  0.49207196420E+03 -0.46128919994E+03  0.27134796419E+04  0.27976554270E+04  0.94771185975E+02 0.  0.
         11    1    3    3    0    0  0.44988221438E+03 -0.37880201064E+03  0.23733022619E+04  0.24450866235E+04  0.00000000000E+00 0. -1.
        -11    1    3    3    0    0  0.42189749818E+02 -0.82487189299E+02  0.34017737991E+03  0.35256880349E+03  0.00000000000E+00 0.  1.
         22    1    1    2    0    0 -0.49207196420E+03  0.46128919994E+03  0.51358875180E+03  0.84775937029E+03  0.00000000000E+00 0.  1.
<mgrwt>
<rscale>  0 0.16956057E+04</rscale>
<asrwt>0</asrwt>
<pdfrwt beam="1">  1        1 0.52865251E+00 0.16956057E+04</pdfrwt>
<pdfrwt beam="2">  1       -1 0.32180495E-01 0.16956057E+04</pdfrwt>
<totfact> 0.24243087E+00</totfact>
</mgrwt>
</event>
<event>
 6    1  0.3017327E-006  0.5399491E+04  0.7818608E-02  0.7769673E-01
         -2   -1    0    0    0  501 -0.00000000000E+00  0.00000000000E+00  0.23577795334E+04  0.23577795334E+04  0.00000000000E+00 0.  1.
          2   -1    0    0  501    0  0.00000000000E+00 -0.00000000000E+00 -0.30913097438E+04  0.30913097438E+04  0.00000000000E+00 0. -1.
         23    2    1    2    0    0 -0.59602389351E+03 -0.26306999293E+04 -0.46130594988E+03  0.27380133564E+04  0.89929754967E+02 0.  0.
         13    1    3    3    0    0 -0.13495751401E+03 -0.77896535481E+03 -0.12919232415E+03  0.80105630963E+03  0.00000000000E+00 0.  1.
        -13    1    3    3    0    0 -0.46106637949E+03 -0.18517345745E+04 -0.33211362572E+03  0.19369570468E+04  0.00000000000E+00 0. -1.
         22    1    1    2    0    0  0.59602389351E+03  0.26306999293E+04 -0.27222426052E+03  0.27110759207E+04  0.00000000000E+00 0.  1.
<mgrwt>
<rscale>  0 0.53994914E+04</rscale>
<asrwt>0</asrwt>
<pdfrwt beam="1">  1        2 0.47558611E+00 0.53994914E+04</pdfrwt>
<pdfrwt beam="2">  1       -2 0.36273531E+00 0.53994914E+04</pdfrwt>
<totfact> 0.13884108E-02</totfact>
</mgrwt>
</event>
<event>
 6    1  0.3017327E-006  0.3430643E+04  0.7818608E-02  0.8130426E-01
          2   -1    0    0  501    0  0.00000000000E+00  0.00000000000E+00  0.16736450199E+04  0.16736450199E+04  0.00000000000E+00 0. -1.
         -2   -1    0    0    0  501 -0.00000000000E+00 -0.00000000000E+00 -0.17580357191E+04  0.17580357191E+04  0.00000000000E+00 0.  1.
         23    2    1    2    0    0  0.33574976320E+03  0.10750656968E+04 -0.13345256713E+04  0.17490246231E+04  0.98154006494E+02 0.  0.
         13    1    3    3    0    0  0.26110244665E+03  0.73713079186E+03 -0.97713317794E+03  0.12515292803E+04  0.00000000000E+00 0.  1.
        -13    1    3    3    0    0  0.74647316547E+02  0.33793490491E+03 -0.35739249341E+03  0.49749534286E+03  0.00000000000E+00 0. -1.
         22    1    1    2    0    0 -0.33574976320E+03 -0.10750656968E+04  0.12501349722E+04  0.16826561159E+04  0.00000000000E+00 0. -1.
<mgrwt>
<rscale>  0 0.34306429E+04</rscale>
<asrwt>0</asrwt>
<pdfrwt beam="1">  1        2 0.25748385E+00 0.34306429E+04</pdfrwt>
<pdfrwt beam="2">  1       -2 0.27046703E+00 0.34306429E+04</pdfrwt>
<totfact> 0.40362948E-01</totfact>
</mgrwt>
</event>
<event>
 6    1  0.3017327E-006  0.4855034E+04  0.7818608E-02  0.7851267E-01
         -2   -1    0    0    0  501 -0.00000000000E+00  0.00000000000E+00  0.15503816648E+04  0.15503816648E+04  0.00000000000E+00 0. -1.
          2   -1    0    0  501    0  0.00000000000E+00 -0.00000000000E+00 -0.38008949170E+04  0.38008949170E+04  0.00000000000E+00 0.  1.
         23    2    1    2    0    0  0.32300907519E+03  0.21095921938E+04 -0.23981967139E+04  0.32119952792E+04  0.10417345183E+03 0.  0.
         13    1    3    3    0    0  0.64305679993E+02  0.68005478112E+03 -0.81015851473E+03  0.10597011582E+04  0.00000000000E+00 0.  1.
        -13    1    3    3    0    0  0.25870339520E+03  0.14295374127E+04 -0.15880381992E+04  0.21522941209E+04  0.00000000000E+00 0. -1.
         22    1    1    2    0    0 -0.32300907519E+03 -0.21095921938E+04  0.14768346164E+03  0.21392813026E+04  0.00000000000E+00 0. -1.
<mgrwt>
<rscale>  0 0.48550336E+04</rscale>
<asrwt>0</asrwt>
<pdfrwt beam="1">  1        2 0.58475306E+00 0.48550336E+04</pdfrwt>
<pdfrwt beam="2">  1       -2 0.23852026E+00 0.48550336E+04</pdfrwt>
<totfact> 0.27229513E-02</totfact>
</mgrwt>
</event>
<event>
 6    1  0.3017327E-006  0.1817523E+04  0.7818608E-02  0.8697036E-01
         -2   -1    0    0    0  501 -0.00000000000E+00  0.00000000000E+00  0.39092285422E+03  0.39092285422E+03  0.00000000000E+00 0.  1.
          2   -1    0    0  501    0  0.00000000000E+00 -0.00000000000E+00 -0.21125583216E+04  0.21125583216E+04  0.00000000000E+00 0. -1.
         23    2    1    2    0    0 -0.28766507178E+03  0.25409345285E+03 -0.19940919126E+04  0.20327931785E+04  0.92362734044E+02 0.  0.
         11    1    3    3    0    0 -0.22468651104E+03  0.22056675443E+03 -0.17645011440E+04  0.17923721736E+04  0.00000000000E+00 0.  1.
        -11    1    3    3    0    0 -0.62978560735E+02  0.33526698413E+02 -0.22959076857E+03  0.24042100497E+03  0.00000000000E+00 0. -1.
         22    1    1    2    0    0  0.28766507178E+03 -0.25409345285E+03  0.27245644516E+03  0.47068799731E+03  0.00000000000E+00 0.  1.
<mgrwt>
<rscale>  0 0.18175229E+04</rscale>
<asrwt>0</asrwt>
<pdfrwt beam="1">  1        2 0.32500897E+00 0.18175229E+04</pdfrwt>
<pdfrwt beam="2">  1       -2 0.60141979E-01 0.18175229E+04</pdfrwt>
<totfact> 0.14047770E+01</totfact>
</mgrwt>
</event>
<event>
 6    1  0.3017327E-006  0.4007580E+04  0.7818608E-02  0.8003019E-01
          2   -1    0    0  501    0  0.00000000000E+00  0.00000000000E+00  0.38679350300E+04  0.38679350300E+04  0.00000000000E+00 0. -1.
         -2   -1    0    0    0  501 -0.00000000000E+00 -0.00000000000E+00 -0.10380668066E+04  0.10380668066E+04  0.00000000000E+00 0.  1.
         23    2    1    2    0    0  0.10879301450E+04 -0.72397137816E+03  0.32735571993E+04  0.35259342787E+04  0.91155053527E+02 0.  0.
         13    1    3    3    0    0  0.44876208528E+03 -0.34477408650E+03  0.14793215397E+04  0.15838714588E+04  0.00000000000E+00 0. -1.
        -13    1    3    3    0    0  0.63916805972E+03 -0.37919729166E+03  0.17942356596E+04  0.19420628200E+04  0.00000000000E+00 0.  1.
         22    1    1    2    0    0 -0.10879301450E+04  0.72397137816E+03 -0.44368897596E+03  0.13800675578E+04  0.00000000000E+00 0.  1.
<mgrwt>
<rscale>  0 0.40075803E+04</rscale>
<asrwt>0</asrwt>
<pdfrwt beam="1">  1        2 0.59506692E+00 0.40075803E+04</pdfrwt>
<pdfrwt beam="2">  1       -2 0.15970259E+00 0.40075803E+04</pdfrwt>
<totfact> 0.86648950E-02</totfact>
</mgrwt>
</event>
<event>
 6    1  0.3017327E-006  0.1519034E+04  0.7818608E-02  0.8871893E-01
          2   -1    0    0  501    0  0.00000000000E+00  0.00000000000E+00  0.22867302898E+04  0.22867302898E+04  0.00000000000E+00 0. -1.
         -2   -1    0    0    0  501 -0.00000000000E+00 -0.00000000000E+00 -0.25226679921E+03  0.25226679921E+03  0.00000000000E+00 0.  1.
         23    2    1    2    0    0 -0.72314234899E+03 -0.16230511090E+03  0.12770822317E+04  0.14793253581E+04  0.90480289282E+02 0.  0.
         13    1    3    3    0    0 -0.41588369316E+03 -0.99885898342E+02  0.64780940784E+03  0.77626894039E+03  0.00000000000E+00 0.  1.
        -13    1    3    3    0    0 -0.30725865583E+03 -0.62419212556E+02  0.62927282382E+03  0.70305641771E+03  0.00000000000E+00 0. -1.
         22    1    1    2    0    0  0.72314234899E+03  0.16230511090E+03  0.75738125895E+03  0.10596717309E+04  0.00000000000E+00 0.  1.
<mgrwt>
<rscale>  0 0.15190341E+04</rscale>
<asrwt>0</asrwt>
<pdfrwt beam="1">  1        2 0.35180465E+00 0.15190341E+04</pdfrwt>
<pdfrwt beam="2">  1       -2 0.38810278E-01 0.15190341E+04</pdfrwt>
<totfact> 0.27961968E+01</totfact>
</mgrwt>
</event>
<event>
 6    1  0.3017327E-006  0.2466509E+04  0.7818608E-02  0.8415015E-01
         -2   -1    0    0    0  501 -0.00000000000E+00  0.00000000000E+00  0.10031407179E+04  0.10031407179E+04  0.00000000000E+00 0.  1.
          2   -1    0    0  501    0  0.00000000000E+00 -0.00000000000E+00 -0.15161548814E+04  0.15161548814E+04  0.00000000000E+00 0. -1.
         23    2    1    2    0    0 -0.11742589267E+04  0.34830527237E+03 -0.12555853722E+03  0.12346468333E+04  0.91582024100E+02 0.  0.
         11    1    3    3    0    0 -0.70752054720E+03  0.16639481398E+03 -0.91405960507E+02  0.73254870722E+03  0.00000000000E+00 0. -1.
        -11    1    3    3    0    0 -0.46673837947E+03  0.18191045839E+03 -0.34152576710E+02  0.50209812610E+03  0.00000000000E+00 0.  1.
         22    1    1    2    0    0  0.11742589267E+04 -0.34830527237E+03 -0.38745562627E+03  0.12846487660E+04  0.00000000000E+00 0. -1.
<mgrwt>
<rscale>  0 0.24665090E+04</rscale>
<asrwt>0</asrwt>
<pdfrwt beam="1">  1        2 0.23325460E+00 0.24665090E+04</pdfrwt>
<pdfrwt beam="2">  1       -2 0.15432934E+00 0.24665090E+04</pdfrwt>
<totfact> 0.30879513E+00</totfact>
</mgrwt>
</event>
<event>
 6    1  0.3017327E-006  0.1277707E+04  0.7818608E-02  0.9047433E-01
          2   -1    0    0  501    0  0.00000000000E+00  0.00000000000E+00  0.13828996272E+04  0.13828996272E+04  0.00000000000E+00 0. -1.
         -2   -1    0    0    0  501 -0.00000000000E+00 -0.00000000000E+00 -0.29512920766E+03  0.29512920766E+03  0.00000000000E+00 0.  1.
         23    2    1    2    0    0 -0.51841529516E+03  0.85970365535E+02  0.77765979861E+02  0.53949719709E+03  0.94150709182E+02 0.  0.
         13    1    3    3    0    0 -0.11078508217E+03 -0.12566106506E+01  0.50469653107E+02  0.12174604465E+03  0.00000000000E+00 0. -1.
        -13    1    3    3    0    0 -0.40763021299E+03  0.87226976186E+02  0.27296326754E+02  0.41775115244E+03  0.00000000000E+00 0.  1.
         22    1    1    2    0    0  0.51841529516E+03 -0.85970365535E+02  0.10100044397E+04  0.11385316377E+04  0.00000000000E+00 0. -1.
<mgrwt>
<rscale>  0 0.12777074E+04</rscale>
<asrwt>0</asrwt>
<pdfrwt beam="1">  1        2 0.21275378E+00 0.12777074E+04</pdfrwt>
<pdfrwt beam="2">  1       -2 0.45404494E-01 0.12777074E+04</pdfrwt>
<totfact> 0.66810035E+01</totfact>
</mgrwt>
</event>
<event>
 6    1  0.3017327E-006  0.2794152E+04  0.7818608E-02  0.8305086E-01
         -2   -1    0    0    0  501 -0.00000000000E+00  0.00000000000E+00  0.22591477306E+04  0.22591477306E+04  0.00000000000E+00 0.  1.
          2   -1    0    0  501    0  0.00000000000E+00 -0.00000000000E+00 -0.86396347034E+03  0.86396347034E+03  0.00000000000E+00 0. -1.
         23    2    1    2    0    0  0.81257960668E+03 -0.78648777319E+03  0.16122638489E+04  0.19716025459E+04  0.94727219285E+02 0.  0.
         11    1    3    3    0    0  0.70156670233E+03 -0.63094731618E+03  0.13275324553E+04  0.16286905088E+04  0.00000000000E+00 0.  1.
        -11    1    3    3    0    0  0.11101290435E+03 -0.15554045701E+03  0.28473139366E+03  0.34291203716E+03  0.00000000000E+00 0. -1.
         22    1    1    2    0    0 -0.81257960668E+03  0.78648777319E+03 -0.21707958871E+03  0.11515086549E+04  0.00000000000E+00 0. -1.
<mgrwt>
<rscale>  0 0.27941518E+04</rscale>
<asrwt>0</asrwt>
<pdfrwt beam="1">  1        2 0.13291746E+00 0.27941518E+04</pdfrwt>
<pdfrwt beam="2">  1       -2 0.34756119E+00 0.27941518E+04</pdfrwt>
<totfact> 0.43550550E-01</totfact>
</mgrwt>
</event>
<event>
 6    1  0.3017327E-006  0.2643301E+04  0.7818608E-02  0.8353640E-01
         -2   -1    0    0    0  501 -0.00000000000E+00  0.00000000000E+00  0.76525361989E+03  0.76525361989E+03  0.00000000000E+00 0.  1.
          2   -1    0    0  501    0  0.00000000000E+00 -0.00000000000E+00 -0.22825889298E+04  0.22825889298E+04  0.00000000000E+00 0. -1.
         23    2    1    2    0    0  0.85037329044E+01 -0.13175099779E+04 -0.66583099018E+03  0.14790964065E+04  0.92143457956E+02 0.  0.
         11    1    3    3    0    0  0.17879462387E+02 -0.17691813587E+03 -0.60747295699E+02  0.18790938218E+03  0.00000000000E+00 0. -1.
        -11    1    3    3    0    0 -0.93757294827E+01 -0.11405918420E+04 -0.60508369448E+03  0.12911870243E+04  0.00000000000E+00 0.  1.
         22    1    1    2    0    0 -0.85037329044E+01  0.13175099779E+04 -0.85150431974E+03  0.15687461432E+04  0.00000000000E+00 0.  1.
<mgrwt>
<rscale>  0 0.26433005E+04</rscale>
<asrwt>0</asrwt>
<pdfrwt beam="1">  1        2 0.35116753E+00 0.26433005E+04</pdfrwt>
<pdfrwt beam="2">  1       -2 0.11773133E+00 0.26433005E+04</pdfrwt>
<totfact> 0.22754127E+00</totfact>
</mgrwt>
</event>
<event>
 6    1  0.3017327E-006  0.2436468E+04  0.7818608E-02  0.8425975E-01
         -2   -1    0    0    0  501 -0.00000000000E+00  0.00000000000E+00  0.56013565907E+03  0.56013565907E+03  0.00000000000E+00 0.  1.
          2   -1    0    0  501    0  0.00000000000E+00 -0.00000000000E+00 -0.26495252308E+04  0.26495252308E+04  0.00000000000E+00 0. -1.
         23    2    1    2    0    0  0.57656100870E+03 -0.50148251159E+03  0.20103589663E+03  0.79513068043E+03  0.88938523965E+02 0.  0.
         13    1    3    3    0    0  0.34638640205E+03 -0.35177833860E+03  0.10940091507E+03  0.50566797333E+03  0.00000000000E+00 0. -1.
        -13    1    3    3    0    0  0.23017460665E+03 -0.14970417300E+03  0.91634981561E+02  0.28946270711E+03  0.00000000000E+00 0.  1.
         22    1    1    2    0    0 -0.57656100870E+03  0.50148251159E+03 -0.22904254684E+04  0.24145302095E+04  0.00000000000E+00 0. -1.
<mgrwt>
<rscale>  0 0.24364676E+04</rscale>
<asrwt>0</asrwt>
<pdfrwt beam="1">  1        2 0.40761928E+00 0.24364676E+04</pdfrwt>
<pdfrwt beam="2">  1       -2 0.86174715E-01 0.24364676E+04</pdfrwt>
<totfact> 0.29786378E+00</totfact>
</mgrwt>
</event>
<event>
 6    1  0.3017327E-006  0.7394207E+04  0.7818608E-02  0.7538093E-01
         -1   -1    0    0    0  501 -0.00000000000E+00  0.00000000000E+00  0.49337478586E+04  0.49337478586E+04  0.00000000000E+00 0.  1.
          1   -1    0    0  501    0  0.00000000000E+00 -0.00000000000E+00 -0.27704244776E+04  0.27704244776E+04  0.00000000000E+00 0. -1.
         23    2    1    2    0    0  0.33059781424E+04 -0.24253414027E+03 -0.62169585590E+03  0.33746635376E+04  0.11633558051E+03 0.  0.
         11    1    3    3    0    0  0.82927385656E+03 -0.78475693265E+02 -0.10825287402E+03  0.83998348099E+03  0.00000000000E+00 0. -1.
        -11    1    3    3    0    0  0.24767042859E+04 -0.16405844700E+03 -0.51344298188E+03  0.25346800566E+04  0.00000000000E+00 0.  1.
         22    1    1    2    0    0 -0.33059781424E+04  0.24253414027E+03  0.27850192369E+04  0.43295087987E+04  0.00000000000E+00 0.  1.
<mgrwt>
<rscale>  0 0.73942074E+04</rscale>
<asrwt>0</asrwt>
<pdfrwt beam="1">  1        1 0.42621915E+00 0.73942074E+04</pdfrwt>
<pdfrwt beam="2">  1       -1 0.75903813E+00 0.73942074E+04</pdfrwt>
<totfact> 0.62178793E-05</totfact>
</mgrwt>
</event>
<event>
 6    1  0.3017327E-006  0.2005100E+04  0.7818608E-02  0.8604240E-01
          1   -1    0    0  501    0  0.00000000000E+00  0.00000000000E+00  0.32400115471E+04  0.32400115471E+04  0.00000000000E+00 0. -1.
         -1   -1    0    0    0  501 -0.00000000000E+00 -0.00000000000E+00 -0.31021692574E+03  0.31021692574E+03  0.00000000000E+00 0.  1.
         23    2    1    2    0    0 -0.55132512446E+03 -0.63268040900E+03  0.50289875672E+03  0.98233684144E+03  0.88513376113E+02 0.  0.
         11    1    3    3    0    0 -0.82543848273E+02 -0.77839032203E+02  0.10262883386E+03  0.15298718692E+03  0.00000000000E+00 0. -1.
        -11    1    3    3    0    0 -0.46878127619E+03 -0.55484137679E+03  0.40026992285E+03  0.82934965451E+03  0.00000000000E+00 0.  1.
         22    1    1    2    0    0  0.55132512446E+03  0.63268040900E+03  0.24268958647E+04  0.25678916314E+04  0.00000000000E+00 0. -1.
<mgrwt>
<rscale>  0 0.20050999E+04</rscale>
<asrwt>0</asrwt>
<pdfrwt beam="1">  1        1 0.49846329E+00 0.20050999E+04</pdfrwt>
<pdfrwt beam="2">  1       -1 0.47725683E-01 0.20050999E+04</pdfrwt>
<totfact> 0.16171516E+00</totfact>
</mgrwt>
</event>
<event>
 6    1  0.3017327E-006  0.5846534E+03  0.7818608E-02  0.9937767E-01
         -2   -1    0    0    0  501 -0.00000000000E+00  0.00000000000E+00  0.43636956931E+02  0.43636956931E+02  0.00000000000E+00 0.  1.
          2   -1    0    0  501    0  0.00000000000E+00 -0.00000000000E+00 -0.19583148765E+04  0.19583148765E+04  0.00000000000E+00 0. -1.
         23    2    1    2    0    0  0.57064322203E+02  0.25968742270E+03 -0.13352767086E+04  0.13644570039E+04  0.89917365678E+02 0.  0.
         13    1    3    3    0    0 -0.21658924835E+01  0.69400010152E+02 -0.19729743709E+03  0.20915862684E+03  0.00000000000E+00 0. -1.
        -13    1    3    3    0    0  0.59230214686E+02  0.19028741254E+03 -0.11379792715E+04  0.11552983771E+04  0.00000000000E+00 0.  1.
         22    1    1    2    0    0 -0.57064322203E+02 -0.25968742270E+03 -0.57940121095E+03  0.63749482949E+03  0.00000000000E+00 0.  1.
<mgrwt>
<rscale>  0 0.58465341E+03</rscale>
<asrwt>0</asrwt>
<pdfrwt beam="1">  1        2 0.30127917E+00 0.58465341E+03</pdfrwt>
<pdfrwt beam="2">  1       -2 0.67133790E-02 0.58465341E+03</pdfrwt>
<totfact> 0.94645779E+02</totfact>
</mgrwt>
</event>
<event>
 6    1  0.3631260E-006  0.2935760E+04  0.7818608E-02  0.8262317E-01
          2   -1    0    0  501    0  0.00000000000E+00  0.00000000000E+00  0.19354171475E+04  0.19354171475E+04  0.00000000000E+00 0. -1.
         -2   -1    0    0    0  501 -0.00000000000E+00 -0.00000000000E+00 -0.11132856493E+04  0.11132856493E+04  0.00000000000E+00 0.  1.
         23    2    1    2    0    0  0.10658183430E+04 -0.99691178938E+03  0.55938886462E+03  0.15658556882E+04  0.95845073640E+02 0.  0.
         11    1    3    3    0    0  0.47614008799E+03 -0.50580501585E+03  0.28558563764E+03  0.75107073826E+03  0.00000000000E+00 0. -1.
        -11    1    3    3    0    0  0.58967825503E+03 -0.49110677353E+03  0.27380322698E+03  0.81478494989E+03  0.00000000000E+00 0.  1.
         22    1    1    2    0    0 -0.10658183430E+04  0.99691178938E+03  0.26274263366E+03  0.14828471087E+04  0.00000000000E+00 0. -1.
<mgrwt>
<rscale>  0 0.29357603E+04</rscale>
<asrwt>0</asrwt>
<pdfrwt beam="1">  1        2 0.29775648E+00 0.29357603E+04</pdfrwt>
<pdfrwt beam="2">  1       -2 0.17127472E+00 0.29357603E+04</pdfrwt>
<totfact> 0.13037038E+00</totfact>
</mgrwt>
</event>
<event>
 6    1  0.3017327E-006  0.4235025E+04  0.7818608E-02  0.7958743E-01
          2   -1    0    0  501    0  0.00000000000E+00  0.00000000000E+00  0.22327280697E+04  0.22327280697E+04  0.00000000000E+00 0. -1.
         -2   -1    0    0    0  501 -0.00000000000E+00 -0.00000000000E+00 -0.20082428541E+04  0.20082428541E+04  0.00000000000E+00 0.  1.
         23    2    1    2    0    0  0.89284124287E+03  0.34068330088E+03  0.20035474974E+04  0.22214924766E+04  0.87153043010E+02 0.  0.
         13    1    3    3    0    0  0.84194871852E+03  0.31133044200E+03  0.19185267730E+04  0.21181476028E+04  0.00000000000E+00 0.  1.
        -13    1    3    3    0    0  0.50892524347E+02  0.29352858880E+02  0.85020724409E+02  0.10334487379E+03  0.00000000000E+00 0. -1.
         22    1    1    2    0    0 -0.89284124287E+03 -0.34068330088E+03 -0.17790622818E+04  0.20194784472E+04  0.00000000000E+00 0.  1.
<mgrwt>
<rscale>  0 0.42350255E+04</rscale>
<asrwt>0</asrwt>
<pdfrwt beam="1">  1        2 0.34349663E+00 0.42350255E+04</pdfrwt>
<pdfrwt beam="2">  1       -2 0.30896044E+00 0.42350255E+04</pdfrwt>
<totfact> 0.10728530E-01</totfact>
</mgrwt>
</event>
<event>
 6    1  0.3017327E-006  0.1333609E+04  0.7818608E-02  0.9003330E-01
          2   -1    0    0  501    0  0.00000000000E+00  0.00000000000E+00  0.33545691298E+04  0.33545691298E+04  0.00000000000E+00 0. -1.
         -2   -1    0    0    0  501 -0.00000000000E+00 -0.00000000000E+00 -0.13254401881E+03  0.13254401881E+03  0.00000000000E+00 0.  1.
         23    2    1    2    0    0  0.59549108873E+03  0.16645305344E+03  0.98978201507E+03  0.11708175079E+04  0.93962459314E+02 0.  0.
         11    1    3    3    0    0  0.24495081599E+03  0.69160957241E+02  0.49600167518E+03  0.55749601079E+03  0.00000000000E+00 0. -1.
        -11    1    3    3    0    0  0.35054027274E+03  0.97292096199E+02  0.49378033989E+03  0.61332149715E+03  0.00000000000E+00 0.  1.
         22    1    1    2    0    0 -0.59549108873E+03 -0.16645305344E+03  0.22322430959E+04  0.23162956407E+04  0.00000000000E+00 0. -1.
<mgrwt>
<rscale>  0 0.13336087E+04</rscale>
<asrwt>0</asrwt>
<pdfrwt beam="1">  1        2 0.51608749E+00 0.13336087E+04</pdfrwt>
<pdfrwt beam="2">  1       -2 0.20391390E-01 0.13336087E+04</pdfrwt>
<totfact> 0.21026996E+01</totfact>
</mgrwt>
</event>
<event>
 6    1  0.3017327E-006  0.1352094E+04  0.7818608E-02  0.8989245E-01
         -2   -1    0    0    0  501 -0.00000000000E+00  0.00000000000E+00  0.14875485075E+03  0.14875485075E+03  0.00000000000E+00 0. -1.
          2   -1    0    0  501    0  0.00000000000E+00 -0.00000000000E+00 -0.30724336168E+04  0.30724336168E+04  0.00000000000E+00 0.  1.
         23    2    1    2    0    0  0.66595742940E+03  0.91483358265E+02 -0.15435967681E+04  0.16861005796E+04  0.91518738313E+02 0.  0.
         13    1    3    3    0    0  0.59843805273E+03  0.10370769968E+03 -0.13390942867E+04  0.14703934502E+04  0.00000000000E+00 0.  1.
        -13    1    3    3    0    0  0.67519376671E+02 -0.12224341418E+02 -0.20450248140E+03  0.21570712934E+03  0.00000000000E+00 0. -1.
         22    1    1    2    0    0 -0.66595742940E+03 -0.91483358265E+02 -0.13800819980E+04  0.15350878880E+04  0.00000000000E+00 0. -1.
<mgrwt>
<rscale>  0 0.13520938E+04</rscale>
<asrwt>0</asrwt>
<pdfrwt beam="1">  1        2 0.47268210E+00 0.13520938E+04</pdfrwt>
<pdfrwt beam="2">  1       -2 0.22885361E-01 0.13520938E+04</pdfrwt>
<totfact> 0.26042429E+01</totfact>
</mgrwt>
</event>
<event>
 6    1  0.3017327E-006  0.1336605E+04  0.7818608E-02  0.9001030E-01
          2   -1    0    0  501    0  0.00000000000E+00  0.00000000000E+00  0.54782089269E+03  0.54782089269E+03  0.00000000000E+00 0. -1.
         -2   -1    0    0    0  501 -0.00000000000E+00 -0.00000000000E+00 -0.81528144702E+03  0.81528144702E+03  0.00000000000E+00 0.  1.
         23    2    1    2    0    0 -0.54525681566E+03  0.59578193929E+02 -0.51820871345E+03  0.76000268334E+03  0.90604921342E+02 0.  0.
         11    1    3    3    0    0 -0.24822909224E+03  0.59968743585E+01 -0.28896909822E+03  0.38099446776E+03  0.00000000000E+00 0.  1.
        -11    1    3    3    0    0 -0.29702772342E+03  0.53581319571E+02 -0.22923961523E+03  0.37900821558E+03  0.00000000000E+00 0. -1.
         22    1    1    2    0    0  0.54525681566E+03 -0.59578193929E+02  0.25074815912E+03  0.60309965638E+03  0.00000000000E+00 0. -1.
<mgrwt>
<rscale>  0 0.13366050E+04</rscale>
<asrwt>0</asrwt>
<pdfrwt beam="1">  1        2 0.84280138E-01 0.13366050E+04</pdfrwt>
<pdfrwt beam="2">  1       -2 0.12542791E+00 0.13366050E+04</pdfrwt>
<totfact> 0.25697977E+01</totfact>
</mgrwt>
</event>
<event>
 6    1  0.3017327E-006  0.1501072E+04  0.7818608E-02  0.8883740E-01
         -2   -1    0    0    0  501 -0.00000000000E+00  0.00000000000E+00  0.25963617217E+03  0.25963617217E+03  0.00000000000E+00 0. -1.
          2   -1    0    0  501    0  0.00000000000E+00 -0.00000000000E+00 -0.21695908638E+04  0.21695908638E+04  0.00000000000E+00 0.  1.
         23    2    1    2    0    0 -0.50165132438E+03 -0.32616429456E+03 -0.23259165647E+03  0.64833289257E+03  0.90550884212E+02 0.  0.
         11    1    3    3    0    0 -0.26784358646E+03 -0.16958605104E+03 -0.74818277937E+02  0.32572594344E+03  0.00000000000E+00 0. -1.
        -11    1    3    3    0    0 -0.23380773792E+03 -0.15657824352E+03 -0.15777337853E+03  0.32260694913E+03  0.00000000000E+00 0.  1.
         22    1    1    2    0    0  0.50165132438E+03  0.32616429456E+03 -0.16773630352E+04  0.17808941434E+04  0.00000000000E+00 0.  1.
<mgrwt>
<rscale>  0 0.15010720E+04</rscale>
<asrwt>0</asrwt>
<pdfrwt beam="1">  1        2 0.33378321E+00 0.15010720E+04</pdfrwt>
<pdfrwt beam="2">  1       -2 0.39944026E-01 0.15010720E+04</pdfrwt>
<totfact> 0.30804052E+01</totfact>
</mgrwt>
</event>
<event>
 6    1  0.3017327E-006  0.3092984E+04  0.7818608E-02  0.8217666E-01
         -2   -1    0    0    0  501 -0.00000000000E+00  0.00000000000E+00  0.20518839102E+04  0.20518839102E+04  0.00000000000E+00 0.  1.
          2   -1    0    0  501    0  0.00000000000E+00 -0.00000000000E+00 -0.11655810729E+04  0.11655810729E+04  0.00000000000E+00 0. -1.
         23    2    1    2    0    0  0.32049693587E+03 -0.54219232716E+03 -0.10239736711E+04  0.12060358534E+04  0.96486242717E+02 0.  0.
         13    1    3    3    0    0  0.17298006223E+03 -0.36269390642E+03 -0.59108423932E+03  0.71473739909E+03  0.00000000000E+00 0.  1.
        -13    1    3    3    0    0  0.14751687364E+03 -0.17949842074E+03 -0.43288943179E+03  0.49129845431E+03  0.00000000000E+00 0. -1.
         22    1    1    2    0    0 -0.32049693587E+03  0.54219232716E+03  0.19102765083E+04  0.20114291297E+04  0.00000000000E+00 0.  1.
<mgrwt>
<rscale>  0 0.30929837E+04</rscale>
<asrwt>0</asrwt>
<pdfrwt beam="1">  1        2 0.17932016E+00 0.30929837E+04</pdfrwt>
<pdfrwt beam="2">  1       -2 0.31567445E+00 0.30929837E+04</pdfrwt>
<totfact> 0.42963738E-01</totfact>
</mgrwt>
</event>
<event>
 6    1  0.3017327E-006  0.2017490E+04  0.7818608E-02  0.8598487E-01
         -2   -1    0    0    0  501 -0.00000000000E+00  0.00000000000E+00  0.41919541724E+03  0.41919541724E+03  0.00000000000E+00 0. -1.
          2   -1    0    0  501    0  0.00000000000E+00 -0.00000000000E+00 -0.24274263971E+04  0.24274263971E+04  0.00000000000E+00 0.  1.
         23    2    1    2    0    0  0.16433472606E+03 -0.98504871326E+03 -0.11865351182E+04  0.15533658618E+04  0.88051372960E+02 0.  0.
         13    1    3    3    0    0  0.51348949895E+02 -0.34301804191E+03 -0.34907350016E+03  0.49208779729E+03  0.00000000000E+00 0. -1.
        -13    1    3    3    0    0  0.11298577617E+03 -0.64203067135E+03 -0.83746161800E+03  0.10612780645E+04  0.00000000000E+00 0.  1.
         22    1    1    2    0    0 -0.16433472606E+03  0.98504871326E+03 -0.82169586175E+03  0.12932559526E+04  0.00000000000E+00 0. -1.
<mgrwt>
<rscale>  0 0.20174896E+04</rscale>
<asrwt>0</asrwt>
<pdfrwt beam="1">  1        2 0.37345021E+00 0.20174896E+04</pdfrwt>
<pdfrwt beam="2">  1       -2 0.64491603E-01 0.20174896E+04</pdfrwt>
<totfact> 0.79001818E+00</totfact>
</mgrwt>
</event>
<event>
 6    1  0.3017327E-006  0.3630792E+04  0.7818608E-02  0.8083475E-01
          2   -1    0    0  501    0  0.00000000000E+00  0.00000000000E+00  0.28825769442E+04  0.28825769442E+04  0.00000000000E+00 0. -1.
         -2   -1    0    0    0  501 -0.00000000000E+00 -0.00000000000E+00 -0.11433040450E+04  0.11433040450E+04  0.00000000000E+00 0.  1.
         23    2    1    2    0    0 -0.89493065487E+03 -0.12649674644E+04 -0.17592647374E+03  0.15623404067E+04  0.94413236501E+02 0.  0.
         13    1    3    3    0    0 -0.72555194483E+03 -0.10447473095E+04 -0.10946298605E+03  0.12766772147E+04  0.00000000000E+00 0.  1.
        -13    1    3    3    0    0 -0.16937871004E+03 -0.22022015497E+03 -0.66463487689E+02  0.28566319200E+03  0.00000000000E+00 0. -1.
         22    1    1    2    0    0  0.89493065487E+03  0.12649674644E+04  0.19151993730E+04  0.24635405824E+04  0.00000000000E+00 0. -1.
<mgrwt>
<rscale>  0 0.36307916E+04</rscale>
<asrwt>0</asrwt>
<pdfrwt beam="1">  1        2 0.44347337E+00 0.36307916E+04</pdfrwt>
<pdfrwt beam="2">  1       -2 0.17589293E+00 0.36307916E+04</pdfrwt>
<totfact> 0.32406041E-01</totfact>
</mgrwt>
</event>
<event>
 6    1  0.3017327E-006  0.1673186E+04  0.7818608E-02  0.8776807E-01
          2   -1    0    0  501    0  0.00000000000E+00  0.00000000000E+00  0.27176784363E+04  0.27176784363E+04  0.00000000000E+00 0. -1.
         -2   -1    0    0    0  501 -0.00000000000E+00 -0.00000000000E+00 -0.25753162408E+03  0.25753162408E+03  0.00000000000E+00 0.  1.
         23    2    1    2    0    0 -0.32451183208E+02  0.39456997732E+03  0.25396194645E+04  0.25714100495E+04  0.75789655832E+02 0.  0.
         11    1    3    3    0    0  0.15808295320E+02  0.25354119007E+03  0.15986830546E+04  0.16187404197E+04  0.00000000000E+00 0.  1.
        -11    1    3    3    0    0 -0.48259478529E+02  0.14102878725E+03  0.94093640988E+03  0.95266962979E+03  0.00000000000E+00 0. -1.
         22    1    1    2    0    0  0.32451183208E+02 -0.39456997732E+03 -0.79472652307E+02  0.40380001085E+03  0.00000000000E+00 0.  1.
<mgrwt>
<rscale>  0 0.16731864E+04</rscale>
<asrwt>0</asrwt>
<pdfrwt beam="1">  1        2 0.41810435E+00 0.16731864E+04</pdfrwt>
<pdfrwt beam="2">  1       -2 0.39620252E-01 0.16731864E+04</pdfrwt>
<totfact> 0.14936800E+01</totfact>
</mgrwt>
</event>
<event>
 6    1  0.3017327E-006  0.2851322E+04  0.7818608E-02  0.8287510E-01
         -1   -1    0    0    0  501 -0.00000000000E+00  0.00000000000E+00  0.74787071831E+03  0.74787071831E+03  0.00000000000E+00 0.  1.
          1   -1    0    0  501    0  0.00000000000E+00 -0.00000000000E+00 -0.27177283679E+04  0.27177283679E+04  0.00000000000E+00 0. -1.
         23    2    1    2    0    0  0.43788889971E+03 -0.35843855520E+03  0.60266668708E+03  0.83157054630E+03  0.89875199074E+02 0.  0.
         11    1    3    3    0    0  0.26847827053E+03 -0.16462669623E+03  0.31218176212E+03  0.44344107101E+03  0.00000000000E+00 0. -1.
        -11    1    3    3    0    0  0.16941062918E+03 -0.19381185896E+03  0.29048492497E+03  0.38812947529E+03  0.00000000000E+00 0.  1.
         22    1    1    2    0    0 -0.43788889971E+03  0.35843855520E+03 -0.25725243366E+04  0.26340285399E+04  0.00000000000E+00 0. -1.
<mgrwt>
<rscale>  0 0.28513221E+04</rscale>
<asrwt>0</asrwt>
<pdfrwt beam="1">  1        1 0.41811206E+00 0.28513221E+04</pdfrwt>
<pdfrwt beam="2">  1       -1 0.11505703E+00 0.28513221E+04</pdfrwt>
<totfact> 0.56312012E-01</totfact>
</mgrwt>
</event>
<event>
 6    1  0.3017327E-006  0.1338802E+04  0.7818608E-02  0.8999348E-01
          2   -1    0    0  501    0  0.00000000000E+00  0.00000000000E+00  0.10333769597E+04  0.10333769597E+04  0.00000000000E+00 0.  1.
         -2   -1    0    0    0  501 -0.00000000000E+00 -0.00000000000E+00 -0.43362453820E+03  0.43362453820E+03  0.00000000000E+00 0. -1.
         23    2    1    2    0    0 -0.66464930585E+03 -0.40025307787E+02  0.29253276762E+03  0.73369075837E+03  0.96778012794E+02 0.  0.
         11    1    3    3    0    0 -0.24764065919E+03 -0.15268878700E+02  0.16083326832E+03  0.29567951390E+03  0.00000000000E+00 0.  1.
        -11    1    3    3    0    0 -0.41700864666E+03 -0.24756429088E+02  0.13169949930E+03  0.43801124447E+03  0.00000000000E+00 0. -1.
         22    1    1    2    0    0  0.66464930585E+03  0.40025307787E+02  0.30721965393E+03  0.73331073958E+03  0.00000000000E+00 0. -1.
<mgrwt>
<rscale>  0 0.13388019E+04</rscale>
<asrwt>0</asrwt>
<pdfrwt beam="1">  1        2 0.15898107E+00 0.13388019E+04</pdfrwt>
<pdfrwt beam="2">  1       -2 0.66711468E-01 0.13388019E+04</pdfrwt>
<totfact> 0.48396749E+01</totfact>
</mgrwt>
</event>
<event>
 6    1  0.3017327E-006  0.5402553E+04  0.7818608E-02  0.7769242E-01
          2   -1    0    0  501    0  0.00000000000E+00  0.00000000000E+00  0.47983234573E+04  0.47983234573E+04  0.00000000000E+00 0. -1.
         -2   -1    0    0    0  501 -0.00000000000E+00 -0.00000000000E+00 -0.15207176621E+04  0.15207176621E+04  0.00000000000E+00 0.  1.
         23    2    1    2    0    0  0.59471868342E+03  0.60614805560E+03 -0.13591376518E+04  0.16051790540E+04  0.90768172735E+02 0.  0.
         13    1    3    3    0    0  0.27625789687E+03  0.28212249672E+03 -0.71760898836E+03  0.81906909899E+03  0.00000000000E+00 0. -1.
        -13    1    3    3    0    0  0.31846078654E+03  0.32402555888E+03 -0.64152866348E+03  0.78610995506E+03  0.00000000000E+00 0.  1.
         22    1    1    2    0    0 -0.59471868342E+03 -0.60614805560E+03  0.46367434470E+04  0.47138620653E+04  0.00000000000E+00 0. -1.
<mgrwt>
<rscale>  0 0.54025532E+04</rscale>
<asrwt>0</asrwt>
<pdfrwt beam="1">  1        2 0.73820360E+00 0.54025532E+04</pdfrwt>
<pdfrwt beam="2">  1       -2 0.23395657E+00 0.54025532E+04</pdfrwt>
<totfact> 0.33536783E-03</totfact>
</mgrwt>
</event>
<event>
 6    1  0.3017327E-006  0.2375020E+04  0.7818608E-02  0.8448915E-01
         -2   -1    0    0    0  501 -0.00000000000E+00  0.00000000000E+00  0.55880217189E+03  0.55880217189E+03  0.00000000000E+00 0.  1.
          2   -1    0    0  501    0  0.00000000000E+00 -0.00000000000E+00 -0.25235772298E+04  0.25235772298E+04  0.00000000000E+00 0. -1.
         23    2    1    2    0    0 -0.26346584831E+03 -0.53265506955E+03  0.34765143523E+03  0.69481747317E+03  0.93670295542E+02 0.  0.
         13    1    3    3    0    0 -0.90413614849E+02 -0.24574934731E+03  0.10990854008E+03  0.28398459577E+03  0.00000000000E+00 0.  1.
        -13    1    3    3    0    0 -0.17305223346E+03 -0.28690572224E+03  0.23774289515E+03  0.41083287740E+03  0.00000000000E+00 0. -1.
         22    1    1    2    0    0  0.26346584831E+03  0.53265506955E+03 -0.23124264931E+04  0.23875619285E+04  0.00000000000E+00 0. -1.
<mgrwt>
<rscale>  0 0.23750204E+04</rscale>
<asrwt>0</asrwt>
<pdfrwt beam="1">  1        2 0.38824266E+00 0.23750204E+04</pdfrwt>
<pdfrwt beam="2">  1       -2 0.85969563E-01 0.23750204E+04</pdfrwt>
<totfact> 0.35682687E+00</totfact>
</mgrwt>
</event>
<event>
 6    1  0.3202640E-006  0.4252538E+04  0.7818608E-02  0.7955453E-01
          2   -1    0    0  501    0  0.00000000000E+00  0.00000000000E+00  0.25911212715E+04  0.25911212715E+04  0.00000000000E+00 0. -1.
         -2   -1    0    0    0  501 -0.00000000000E+00 -0.00000000000E+00 -0.17448119769E+04  0.17448119769E+04  0.00000000000E+00 0.  1.
         23    2    1    2    0    0  0.25079072463E+03  0.14742301781E+04  0.19631807498E+04  0.24694787344E+04  0.89420119589E+02 0.  0.
         13    1    3    3    0    0  0.18464824994E+03  0.98981517243E+03  0.12565687544E+04  0.16102155403E+04  0.00000000000E+00 0.  1.
        -13    1    3    3    0    0  0.66142474684E+02  0.48441500568E+03  0.70661199543E+03  0.85926319412E+03  0.00000000000E+00 0. -1.
         22    1    1    2    0    0 -0.25079072463E+03 -0.14742301781E+04 -0.11168714552E+04  0.18664545140E+04  0.00000000000E+00 0.  1.
<mgrwt>
<rscale>  0 0.42525378E+04</rscale>
<asrwt>0</asrwt>
<pdfrwt beam="1">  1        2 0.39863404E+00 0.42525378E+04</pdfrwt>
<pdfrwt beam="2">  1       -2 0.26843261E+00 0.42525378E+04</pdfrwt>
<totfact> 0.11795765E-01</totfact>
</mgrwt>
</event>
<event>
 6    1  0.3017327E-006  0.2445499E+04  0.7818608E-02  0.8422663E-01
          2   -1    0    0  501    0  0.00000000000E+00  0.00000000000E+00  0.14445779271E+04  0.14445779271E+04  0.00000000000E+00 0.  1.
         -2   -1    0    0    0  501 -0.00000000000E+00 -0.00000000000E+00 -0.10349853181E+04  0.10349853181E+04  0.00000000000E+00 0. -1.
         23    2    1    2    0    0  0.65464088687E+03 -0.43079493241E+03  0.11543005571E+04  0.13984855919E+04  0.95985466999E+02 0.  0.
         11    1    3    3    0    0  0.32261825043E+03 -0.26955545213E+03  0.61027278290E+03  0.74106379403E+03  0.00000000000E+00 0. -1.
        -11    1    3    3    0    0  0.33202263644E+03 -0.16123948028E+03  0.54402777424E+03  0.65742179782E+03  0.00000000000E+00 0.  1.
         22    1    1    2    0    0 -0.65464088687E+03  0.43079493241E+03 -0.74470794811E+03  0.10810776533E+04  0.00000000000E+00 0. -1.
<mgrwt>
<rscale>  0 0.24454995E+04</rscale>
<asrwt>0</asrwt>
<pdfrwt beam="1">  1        2 0.22224276E+00 0.24454995E+04</pdfrwt>
<pdfrwt beam="2">  1       -2 0.15922851E+00 0.24454995E+04</pdfrwt>
<totfact> 0.31208761E+00</totfact>
</mgrwt>
</event>
<event>
 6    1  0.3017327E-006  0.3302192E+04  0.7818608E-02  0.8162338E-01
         -2   -1    0    0    0  501 -0.00000000000E+00  0.00000000000E+00  0.13675380080E+04  0.13675380080E+04  0.00000000000E+00 0.  1.
          2   -1    0    0  501    0  0.00000000000E+00 -0.00000000000E+00 -0.19934492062E+04  0.19934492062E+04  0.00000000000E+00 0. -1.
         23    2    1    2    0    0  0.88529768865E+03 -0.37358639544E+03  0.10517513944E+04  0.14276298839E+04  0.92883246209E+02 0.  0.
         13    1    3    3    0    0  0.23508766385E+03 -0.14377711055E+03  0.31274387160E+03  0.41682945725E+03  0.00000000000E+00 0. -1.
        -13    1    3    3    0    0  0.65021002480E+03 -0.22980928489E+03  0.73900752278E+03  0.10108004266E+04  0.00000000000E+00 0.  1.
         22    1    1    2    0    0 -0.88529768865E+03  0.37358639544E+03 -0.16776625925E+04  0.19333573303E+04  0.00000000000E+00 0. -1.
<mgrwt>
<rscale>  0 0.33021917E+04</rscale>
<asrwt>0</asrwt>
<pdfrwt beam="1">  1        2 0.30668449E+00 0.33021917E+04</pdfrwt>
<pdfrwt beam="2">  1       -2 0.21039046E+00 0.33021917E+04</pdfrwt>
<totfact> 0.64058728E-01</totfact>
</mgrwt>
</event>
<event>
 6    1  0.3017327E-006  0.1068357E+04  0.7818608E-02  0.9236594E-01
          2   -1    0    0  501    0  0.00000000000E+00  0.00000000000E+00  0.18453716969E+04  0.18453716969E+04  0.00000000000E+00 0. -1.
         -2   -1    0    0    0  501 -0.00000000000E+00 -0.00000000000E+00 -0.15462824345E+03  0.15462824345E+03  0.00000000000E+00 0.  1.
         23    2    1    2    0    0 -0.30725489068E+03 -0.22950039678E+03  0.15376252332E+04  0.15870578266E+04  0.85937110990E+02 0.  0.
         11    1    3    3    0    0 -0.25942209388E+03 -0.21151846298E+03  0.12088813262E+04  0.12543659529E+04  0.00000000000E+00 0. -1.
        -11    1    3    3    0    0 -0.47832796802E+02 -0.17981933801E+02  0.32874390707E+03  0.33269187370E+03  0.00000000000E+00 0.  1.
         22    1    1    2    0    0  0.30725489068E+03  0.22950039678E+03  0.15311822023E+03  0.41294211378E+03  0.00000000000E+00 0.  1.
<mgrwt>
<rscale>  0 0.10683568E+04</rscale>
<asrwt>0</asrwt>
<pdfrwt beam="1">  1        2 0.28390332E+00 0.10683568E+04</pdfrwt>
<pdfrwt beam="2">  1       -2 0.23788962E-01 0.10683568E+04</pdfrwt>
<totfact> 0.12725385E+02</totfact>
</mgrwt>
</event>
<event>
 6    1  0.3017327E-006  0.8260735E+03  0.7818608E-02  0.9523025E-01
          2   -1    0    0  501    0  0.00000000000E+00  0.00000000000E+00  0.54362410269E+03  0.54362410269E+03  0.00000000000E+00 0.  1.
         -2   -1    0    0    0  501 -0.00000000000E+00 -0.00000000000E+00 -0.31381859327E+03  0.31381859327E+03  0.00000000000E+00 0. -1.
         23    2    1    2    0    0  0.27864187213E+03  0.16021492280E+03  0.37672486407E+03  0.50403724727E+03  0.93924485812E+02 0.  0.
         11    1    3    3    0    0  0.10561065787E+03  0.90130746078E+02  0.22067910935E+03  0.26072290223E+03  0.00000000000E+00 0.  1.
        -11    1    3    3    0    0  0.17303121426E+03  0.70084176726E+02  0.15604575472E+03  0.24331434504E+03  0.00000000000E+00 0. -1.
         22    1    1    2    0    0 -0.27864187213E+03 -0.16021492280E+03 -0.14691935464E+03  0.35340544869E+03  0.00000000000E+00 0. -1.
<mgrwt>
<rscale>  0 0.82607349E+03</rscale>
<asrwt>0</asrwt>
<pdfrwt beam="1">  1        2 0.83634477E-01 0.82607349E+03</pdfrwt>
<pdfrwt beam="2">  1       -2 0.48279784E-01 0.82607349E+03</pdfrwt>
<totfact> 0.22821729E+02</totfact>
</mgrwt>
</event>
<event>
 6    1  0.3017327E-006  0.1585754E+04  0.7818608E-02  0.8829348E-01
          2   -1    0    0  501    0  0.00000000000E+00  0.00000000000E+00  0.80611557397E+03  0.80611557397E+03  0.00000000000E+00 0. -1.
         -2   -1    0    0    0  501 -0.00000000000E+00 -0.00000000000E+00 -0.77985545912E+03  0.77985545912E+03  0.00000000000E+00 0.  1.
         23    2    1    2    0    0  0.54101700694E+03  0.43631306422E+03  0.38930388090E+03  0.80183503221E+03  0.91177932554E+02 0.  0.
         13    1    3    3    0    0  0.35726823165E+03  0.33509679208E+03  0.24923092179E+03  0.54958757426E+03  0.00000000000E+00 0. -1.
        -13    1    3    3    0    0  0.18374877529E+03  0.10121627215E+03  0.14007295911E+03  0.25224745795E+03  0.00000000000E+00 0.  1.
         22    1    1    2    0    0 -0.54101700694E+03 -0.43631306422E+03 -0.36304376605E+03  0.78413600088E+03  0.00000000000E+00 0.  1.
<mgrwt>
<rscale>  0 0.15857536E+04</rscale>
<asrwt>0</asrwt>
<pdfrwt beam="1">  1        2 0.12401778E+00 0.15857536E+04</pdfrwt>
<pdfrwt beam="2">  1       -2 0.11997776E+00 0.15857536E+04</pdfrwt>
<totfact> 0.17388254E+01</totfact>
</mgrwt>
</event>
<event>
 6    1  0.3017327E-006  0.1400313E+04  0.7818608E-02  0.8953592E-01
         -2   -1    0    0    0  501 -0.00000000000E+00  0.00000000000E+00  0.92635212660E+03  0.92635212660E+03  0.00000000000E+00 0.  1.
          2   -1    0    0  501    0  0.00000000000E+00 -0.00000000000E+00 -0.52919315580E+03  0.52919315580E+03  0.00000000000E+00 0. -1.
         23    2    1    2    0    0 -0.12631951962E+03  0.98417314329E+02 -0.50594682741E+03  0.53835246103E+03  0.90546073005E+02 0.  0.
         11    1    3    3    0    0 -0.91342348753E+02  0.10610635358E+03 -0.45517728188E+03  0.47622299492E+03  0.00000000000E+00 0.  1.
        -11    1    3    3    0    0 -0.34977170870E+02 -0.76890392542E+01 -0.50769545527E+02  0.62129466115E+02  0.00000000000E+00 0. -1.
         22    1    1    2    0    0  0.12631951962E+03 -0.98417314329E+02  0.90310579821E+03  0.91719282136E+03  0.00000000000E+00 0.  1.
<mgrwt>
<rscale>  0 0.14003131E+04</rscale>
<asrwt>0</asrwt>
<pdfrwt beam="1">  1        2 0.81414332E-01 0.14003131E+04</pdfrwt>
<pdfrwt beam="2">  1       -2 0.14251571E+00 0.14003131E+04</pdfrwt>
<totfact> 0.19213781E+01</totfact>
</mgrwt>
</event>
<event>
 6    1  0.3017327E-006  0.4897108E+04  0.7818608E-02  0.7844578E-01
          2   -1    0    0  501    0  0.00000000000E+00  0.00000000000E+00  0.35787177178E+04  0.35787177178E+04  0.00000000000E+00 0. -1.
         -2   -1    0    0    0  501 -0.00000000000E+00 -0.00000000000E+00 -0.16752976960E+04  0.16752976960E+04  0.00000000000E+00 0.  1.
         23    2    1    2    0    0 -0.22215163197E+04 -0.10012800133E+04  0.12006541709E+04  0.27179601571E+04  0.89669136352E+02 0.  0.
         11    1    3    3    0    0 -0.30712457095E+03 -0.10636767815E+03  0.15054252444E+03  0.35819357434E+03  0.00000000000E+00 0.  1.
        -11    1    3    3    0    0 -0.19143917487E+04 -0.89491233516E+03  0.10501116465E+04  0.23597665828E+04  0.00000000000E+00 0. -1.
         22    1    1    2    0    0  0.22215163197E+04  0.10012800133E+04  0.70276585089E+03  0.25360552566E+04  0.00000000000E+00 0. -1.
<mgrwt>
<rscale>  0 0.48971083E+04</rscale>
<asrwt>0</asrwt>
<pdfrwt beam="1">  1        2 0.55057195E+00 0.48971083E+04</pdfrwt>
<pdfrwt beam="2">  1       -2 0.25773811E+00 0.48971083E+04</pdfrwt>
<totfact> 0.30163605E-02</totfact>
</mgrwt>
</event>
<event>
 6    1  0.3017327E-006  0.1603943E+04  0.7818608E-02  0.8818129E-01
          2   -1    0    0  501    0  0.00000000000E+00  0.00000000000E+00  0.18818076686E+04  0.18818076686E+04  0.00000000000E+00 0. -1.
         -2   -1    0    0    0  501 -0.00000000000E+00 -0.00000000000E+00 -0.34177681478E+03  0.34177681478E+03  0.00000000000E+00 0.  1.
         23    2    1    2    0    0  0.14644784515E+03  0.33516047289E+03 -0.21487484913E+03  0.43096808822E+03  0.76044581243E+02 0.  0.
         11    1    3    3    0    0  0.53822852669E+02  0.20724344607E+03 -0.10426334469E+03  0.23815455161E+03  0.00000000000E+00 0. -1.
        -11    1    3    3    0    0  0.92624992485E+02  0.12791702682E+03 -0.11061150445E+03  0.19281353661E+03  0.00000000000E+00 0.  1.
         22    1    1    2    0    0 -0.14644784515E+03 -0.33516047289E+03  0.17549057029E+04  0.17926163951E+04  0.00000000000E+00 0. -1.
<mgrwt>
<rscale>  0 0.16039429E+04</rscale>
<asrwt>0</asrwt>
<pdfrwt beam="1">  1        2 0.28950887E+00 0.16039429E+04</pdfrwt>
<pdfrwt beam="2">  1       -2 0.52581049E-01 0.16039429E+04</pdfrwt>
<totfact> 0.25427662E+01</totfact>
</mgrwt>
</event>
<event>
 6    1  0.3017327E-006  0.2069589E+04  0.7818608E-02  0.8574759E-01
          1   -1    0    0  501    0  0.00000000000E+00  0.00000000000E+00  0.90084615761E+03  0.90084615761E+03  0.00000000000E+00 0. -1.
         -1   -1    0    0    0  501 -0.00000000000E+00 -0.00000000000E+00 -0.11886603402E+04  0.11886603402E+04  0.00000000000E+00 0.  1.
         23    2    1    2    0    0 -0.20009108620E+03  0.85637021500E+03  0.40267226418E+03  0.97139294316E+03  0.89738006225E+02 0.  0.
         13    1    3    3    0    0 -0.50361035834E+01  0.62629730348E+02  0.53714133486E+02  0.82662286436E+02  0.00000000000E+00 0.  1.
        -13    1    3    3    0    0 -0.19505498262E+03  0.79374048465E+03  0.34895813070E+03  0.88873065672E+03  0.00000000000E+00 0. -1.
         22    1    1    2    0    0  0.20009108620E+03 -0.85637021500E+03 -0.69048644674E+03  0.11181135546E+04  0.00000000000E+00 0. -1.
<mgrwt>
<rscale>  0 0.20695894E+04</rscale>
<asrwt>0</asrwt>
<pdfrwt beam="1">  1        1 0.13859172E+00 0.20695894E+04</pdfrwt>
<pdfrwt beam="2">  1       -1 0.18287082E+00 0.20695894E+04</pdfrwt>
<totfact> 0.33249499E+00</totfact>
</mgrwt>
</event>
<event>
 6    1  0.3017327E-006  0.3387028E+04  0.7818608E-02  0.8141097E-01
          2   -1    0    0  501    0  0.00000000000E+00  0.00000000000E+00  0.14729521053E+04  0.14729521053E+04  0.00000000000E+00 0. -1.
         -2   -1    0    0    0  501 -0.00000000000E+00 -0.00000000000E+00 -0.19471027732E+04  0.19471027732E+04  0.00000000000E+00 0.  1.
         23    2    1    2    0    0  0.51833962469E+03  0.63396454361E+03  0.12581686665E+04  0.15039345050E+04  0.90794234091E+02 0.  0.
         11    1    3    3    0    0  0.54787904698E+02  0.32329707479E+02  0.11592605599E+03  0.13223378897E+03  0.00000000000E+00 0.  1.
        -11    1    3    3    0    0  0.46355171999E+03  0.60163483613E+03  0.11422426105E+04  0.13717007160E+04  0.00000000000E+00 0. -1.
         22    1    1    2    0    0 -0.51833962469E+03 -0.63396454361E+03 -0.17323193345E+04  0.19161203735E+04  0.00000000000E+00 0.  1.
<mgrwt>
<rscale>  0 0.33870277E+04</rscale>
<asrwt>0</asrwt>
<pdfrwt beam="1">  1        2 0.22660802E+00 0.33870277E+04</pdfrwt>
<pdfrwt beam="2">  1       -2 0.29955427E+00 0.33870277E+04</pdfrwt>
<totfact> 0.34874711E-01</totfact>
</mgrwt>
</event>
<event>
 6    1  0.3017327E-006  0.2828532E+04  0.7818608E-02  0.8294465E-01
         -2   -1    0    0    0  501 -0.00000000000E+00  0.00000000000E+00  0.88877097506E+03  0.88877097506E+03  0.00000000000E+00 0.  1.
          2   -1    0    0  501    0  0.00000000000E+00 -0.00000000000E+00 -0.22504651254E+04  0.22504651254E+04  0.00000000000E+00 0. -1.
         23    2    1    2    0    0  0.22953868973E+03 -0.89217395027E+03  0.50717060015E+03  0.10556531712E+04  0.92299688523E+02 0.  0.
         13    1    3    3    0    0  0.81088953019E+02 -0.35999666419E+03  0.15358648029E+03  0.39970216844E+03  0.00000000000E+00 0. -1.
        -13    1    3    3    0    0  0.14844973671E+03 -0.53217728608E+03  0.35358411987E+03  0.65595100273E+03  0.00000000000E+00 0.  1.
         22    1    1    2    0    0 -0.22953868973E+03  0.89217395027E+03 -0.18688647505E+04  0.20835829293E+04  0.00000000000E+00 0. -1.
<mgrwt>
<rscale>  0 0.28285318E+04</rscale>
<asrwt>0</asrwt>
<pdfrwt beam="1">  1        2 0.34622540E+00 0.28285318E+04</pdfrwt>
<pdfrwt beam="2">  1       -2 0.13673400E+00 0.28285318E+04</pdfrwt>
<totfact> 0.16029444E+00</totfact>
</mgrwt>
</event>
<event>
 6    1  0.3017327E-006  0.3270090E+04  0.7818608E-02  0.8170548E-01
         -2   -1    0    0    0  501 -0.00000000000E+00  0.00000000000E+00  0.13164018760E+04  0.13164018760E+04  0.00000000000E+00 0.  1.
          2   -1    0    0  501    0  0.00000000000E+00 -0.00000000000E+00 -0.20308176546E+04  0.20308176546E+04  0.00000000000E+00 0. -1.
         23    2    1    2    0    0  0.13777173383E+04  0.87038001827E+03 -0.23720940378E+03  0.16491640648E+04  0.88359328548E+02 0.  0.
         13    1    3    3    0    0  0.14290538981E+03  0.66021007450E+02 -0.39269001974E+02  0.16224296095E+03  0.00000000000E+00 0. -1.
        -13    1    3    3    0    0  0.12348119485E+04  0.80435901082E+03 -0.19794040180E+03  0.14869211039E+04  0.00000000000E+00 0.  1.
         22    1    1    2    0    0 -0.13777173383E+04 -0.87038001827E+03 -0.47720637484E+03  0.16980554657E+04  0.00000000000E+00 0.  1.
<mgrwt>
<rscale>  0 0.32700900E+04</rscale>
<asrwt>0</asrwt>
<pdfrwt beam="1">  1        2 0.31243349E+00 0.32700900E+04</pdfrwt>
<pdfrwt beam="2">  1       -2 0.20252336E+00 0.32700900E+04</pdfrwt>
<totfact> 0.68847304E-01</totfact>
</mgrwt>
</event>
<event>
 6    1  0.3017327E-006  0.3333528E+04  0.7818608E-02  0.8154416E-01
         -2   -1    0    0    0  501 -0.00000000000E+00  0.00000000000E+00  0.15159314247E+04  0.15159314247E+04  0.00000000000E+00 0.  1.
          2   -1    0    0  501    0  0.00000000000E+00 -0.00000000000E+00 -0.18326045352E+04  0.18326045352E+04  0.00000000000E+00 0. -1.
         23    2    1    2    0    0 -0.11348028399E+04 -0.45584742584E+03  0.97782147837E+03  0.15677241783E+04  0.77781068554E+02 0.  0.
         11    1    3    3    0    0 -0.46437755774E+03 -0.15319928761E+03  0.36216596034E+03  0.60850696026E+03  0.00000000000E+00 0. -1.
        -11    1    3    3    0    0 -0.67042528216E+03 -0.30264813823E+03  0.61565551802E+03  0.95921721805E+03  0.00000000000E+00 0.  1.
         22    1    1    2    0    0  0.11348028399E+04  0.45584742584E+03 -0.12944945888E+04  0.17808117816E+04  0.00000000000E+00 0. -1.
<mgrwt>
<rscale>  0 0.33335283E+04</rscale>
<asrwt>0</asrwt>
<pdfrwt beam="1">  1        2 0.28193916E+00 0.33335283E+04</pdfrwt>
<pdfrwt beam="2">  1       -2 0.23322022E+00 0.33335283E+04</pdfrwt>
<totfact> 0.56275328E-01</totfact>
</mgrwt>
</event>
<event>
 6    1  0.3017327E-006  0.2529813E+04  0.7818608E-02  0.8392441E-01
         -2   -1    0    0    0  501 -0.00000000000E+00  0.00000000000E+00  0.81076227992E+03  0.81076227992E+03  0.00000000000E+00 0.  1.
          2   -1    0    0  501    0  0.00000000000E+00 -0.00000000000E+00 -0.19734372851E+04  0.19734372851E+04  0.00000000000E+00 0. -1.
         23    2    1    2    0    0  0.73988723562E+03  0.10178281429E+04 -0.70378484991E+03  0.14448014075E+04  0.93438440592E+02 0.  0.
         11    1    3    3    0    0  0.36352101437E+03  0.54750155331E+03 -0.41001213311E+03  0.77460662795E+03  0.00000000000E+00 0. -1.
        -11    1    3    3    0    0  0.37636622125E+03  0.47032658956E+03 -0.29377271679E+03  0.67019477951E+03  0.00000000000E+00 0.  1.
         22    1    1    2    0    0 -0.73988723562E+03 -0.10178281429E+04 -0.45889015525E+03  0.13393981575E+04  0.00000000000E+00 0.  1.
<mgrwt>
<rscale>  0 0.25298130E+04</rscale>
<asrwt>0</asrwt>
<pdfrwt beam="1">  1        2 0.30360574E+00 0.25298130E+04</pdfrwt>
<pdfrwt beam="2">  1       -2 0.12473266E+00 0.25298130E+04</pdfrwt>
<totfact> 0.29647844E+00</totfact>
</mgrwt>
</event>
<event>
 6    1  0.3017327E-006  0.1075720E+04  0.7818608E-02  0.9229185E-01
          3   -1    0    0  501    0  0.00000000000E+00  0.00000000000E+00  0.17556862992E+03  0.17556862992E+03  0.00000000000E+00 0. -1.
         -3   -1    0    0    0  501 -0.00000000000E+00 -0.00000000000E+00 -0.16477521077E+04  0.16477521077E+04  0.00000000000E+00 0.  1.
         23    2    1    2    0    0 -0.49019005280E+03  0.20533784692E+03 -0.65123613009E+03  0.84536139956E+03  0.89874798957E+02 0.  0.
         11    1    3    3    0    0 -0.29161641786E+03  0.10280930397E+03 -0.44050015931E+03  0.53819167450E+03  0.00000000000E+00 0.  1.
        -11    1    3    3    0    0 -0.19857363494E+03  0.10252854295E+03 -0.21073597078E+03  0.30716972506E+03  0.00000000000E+00 0. -1.
         22    1    1    2    0    0  0.49019005280E+03 -0.20533784692E+03 -0.82094734772E+03  0.97795933810E+03  0.00000000000E+00 0.  1.
<mgrwt>
<rscale>  0 0.10757204E+04</rscale>
<asrwt>0</asrwt>
<pdfrwt beam="1">  1        3 0.27010558E-01 0.10757204E+04</pdfrwt>
<pdfrwt beam="2">  1       -3 0.25350032E+00 0.10757204E+04</pdfrwt>
<totfact> 0.24212898E+00</totfact>
</mgrwt>
</event>
<event>
 6    1  0.3017327E-006  0.1566842E+04  0.7818608E-02  0.8841181E-01
          2   -1    0    0  501    0  0.00000000000E+00  0.00000000000E+00  0.10690456979E+04  0.10690456979E+04  0.00000000000E+00 0.  1.
         -2   -1    0    0    0  501 -0.00000000000E+00 -0.00000000000E+00 -0.57410869160E+03  0.57410869160E+03  0.00000000000E+00 0. -1.
         23    2    1    2    0    0  0.14248430535E+03  0.75313238222E+03  0.40407790291E+03  0.87129589269E+03  0.91473595000E+02 0.  0.
         11    1    3    3    0    0  0.94342489739E+02  0.33572486179E+03  0.22179504658E+03  0.41328528994E+03  0.00000000000E+00 0. -1.
        -11    1    3    3    0    0  0.48141815615E+02  0.41740752043E+03  0.18228285634E+03  0.45801060275E+03  0.00000000000E+00 0.  1.
         22    1    1    2    0    0 -0.14248430535E+03 -0.75313238222E+03  0.90859103393E+02  0.77185849681E+03  0.00000000000E+00 0.  1.
<mgrwt>
<rscale>  0 0.15668420E+04</rscale>
<asrwt>0</asrwt>
<pdfrwt beam="1">  1        2 0.16446857E+00 0.15668420E+04</pdfrwt>
<pdfrwt beam="2">  1       -2 0.88324414E-01 0.15668420E+04</pdfrwt>
<totfact> 0.24165699E+01</totfact>
</mgrwt>
</event>
<event>
 6    1  0.3017327E-006  0.3282321E+03  0.7818608E-02  0.1071922E+00
         -2   -1    0    0    0  501 -0.00000000000E+00  0.00000000000E+00  0.14029951398E+03  0.14029951398E+03  0.00000000000E+00 0.  1.
          2   -1    0    0  501    0  0.00000000000E+00 -0.00000000000E+00 -0.19197551656E+03  0.19197551656E+03  0.00000000000E+00 0. -1.
         23    2    1    2    0    0  0.91010083912E+02  0.96947612110E+02 -0.10468921402E+03  0.18912449630E+03  0.84419006753E+02 0.  0.
         13    1    3    3    0    0  0.26492885472E+02  0.48618245470E+02 -0.92205595726E+02  0.10755221363E+03  0.00000000000E+00 0.  1.
        -13    1    3    3    0    0  0.64517198441E+02  0.48329366640E+02 -0.12483618293E+02  0.81572282671E+02  0.00000000000E+00 0. -1.
         22    1    1    2    0    0 -0.91010083912E+02 -0.96947612110E+02  0.53013211437E+02  0.14315053424E+03  0.00000000000E+00 0.  1.
<mgrwt>
<rscale>  0 0.32823206E+03</rscale>
<asrwt>0</asrwt>
<pdfrwt beam="1">  1        2 0.29534695E-01 0.32823206E+03</pdfrwt>
<pdfrwt beam="2">  1       -2 0.21584541E-01 0.32823206E+03</pdfrwt>
<totfact> 0.32918886E+03</totfact>
</mgrwt>
</event>
<event>
 6    1  0.3017327E-006  0.4590667E+04  0.7818608E-02  0.7894953E-01
         -2   -1    0    0    0  501 -0.00000000000E+00  0.00000000000E+00  0.15322063855E+04  0.15322063855E+04  0.00000000000E+00 0.  1.
          2   -1    0    0  501    0  0.00000000000E+00 -0.00000000000E+00 -0.34385414524E+04  0.34385414524E+04  0.00000000000E+00 0. -1.
         23    2    1    2    0    0 -0.20731986901E+04  0.88267776694E+03 -0.48551561188E+03  0.23069158663E+04  0.94141148976E+02 0.  0.
         13    1    3    3    0    0 -0.12173862798E+04  0.47867849297E+03 -0.25223176766E+03  0.13322099379E+04  0.00000000000E+00 0. -1.
        -13    1    3    3    0    0 -0.85581241028E+03  0.40399927397E+03 -0.23328384422E+03  0.97470592844E+03  0.00000000000E+00 0.  1.
         22    1    1    2    0    0  0.20731986901E+04 -0.88267776694E+03 -0.14208194551E+04  0.26638319716E+04  0.00000000000E+00 0. -1.
<mgrwt>
<rscale>  0 0.45906667E+04</rscale>
<asrwt>0</asrwt>
<pdfrwt beam="1">  1        2 0.52900638E+00 0.45906667E+04</pdfrwt>
<pdfrwt beam="2">  1       -2 0.23572406E+00 0.45906667E+04</pdfrwt>
<totfact> 0.53041671E-02</totfact>
</mgrwt>
</event>
<event>
 6    1  0.3017327E-006  0.1939000E+04  0.7818608E-02  0.8635683E-01
         -2   -1    0    0    0  501 -0.00000000000E+00  0.00000000000E+00  0.78792079994E+03  0.78792079994E+03  0.00000000000E+00 0.  1.
          2   -1    0    0  501    0  0.00000000000E+00 -0.00000000000E+00 -0.11929248094E+04  0.11929248094E+04  0.00000000000E+00 0. -1.
         23    2    1    2    0    0  0.47658695282E+03  0.51132286686E+03  0.47943083501E+03  0.85354299165E+03  0.10047644136E+03 0.  0.
         11    1    3    3    0    0  0.86626056303E+02  0.14607394037E+03  0.14415584186E+03  0.22276125432E+03  0.00000000000E+00 0. -1.
        -11    1    3    3    0    0  0.38996089652E+03  0.36524892649E+03  0.33527499315E+03  0.63078173733E+03  0.00000000000E+00 0.  1.
         22    1    1    2    0    0 -0.47658695282E+03 -0.51132286686E+03 -0.88443484450E+03  0.11273026177E+04  0.00000000000E+00 0. -1.
<mgrwt>
<rscale>  0 0.19390000E+04</rscale>
<asrwt>0</asrwt>
<pdfrwt beam="1">  1        2 0.18352689E+00 0.19390000E+04</pdfrwt>
<pdfrwt beam="2">  1       -2 0.12121858E+00 0.19390000E+04</pdfrwt>
<totfact> 0.92480611E+00</totfact>
</mgrwt>
</event>
<event>
 6    1  0.3017327E-006  0.2229263E+04  0.7818608E-02  0.8506346E-01
         -2   -1    0    0    0  501 -0.00000000000E+00  0.00000000000E+00  0.73634629589E+03  0.73634629589E+03  0.00000000000E+00 0.  1.
          2   -1    0    0  501    0  0.00000000000E+00 -0.00000000000E+00 -0.16872548205E+04  0.16872548205E+04  0.00000000000E+00 0. -1.
         23    2    1    2    0    0  0.73920623963E+03 -0.68985510678E+02  0.42497466332E+03  0.86019476735E+03  0.90259115428E+02 0.  0.
         13    1    3    3    0    0  0.49090015782E+03 -0.10395518410E+02  0.25144791829E+03  0.55164942433E+03  0.00000000000E+00 0. -1.
        -13    1    3    3    0    0  0.24830608180E+03 -0.58589992268E+02  0.17352674503E+03  0.30854534301E+03  0.00000000000E+00 0.  1.
         22    1    1    2    0    0 -0.73920623963E+03  0.68985510678E+02 -0.13758831879E+04  0.15634063490E+04  0.00000000000E+00 0. -1.
<mgrwt>
<rscale>  0 0.22292634E+04</rscale>
<asrwt>0</asrwt>
<pdfrwt beam="1">  1        2 0.25957766E+00 0.22292634E+04</pdfrwt>
<pdfrwt beam="2">  1       -2 0.11328405E+00 0.22292634E+04</pdfrwt>
<totfact> 0.55606081E+00</totfact>
</mgrwt>
</event>
<event>
 6    1  0.3017327E-006  0.2183750E+04  0.7818608E-02  0.8525222E-01
         -2   -1    0    0    0  501 -0.00000000000E+00  0.00000000000E+00  0.80836248635E+03  0.80836248635E+03  0.00000000000E+00 0. -1.
          2   -1    0    0  501    0  0.00000000000E+00 -0.00000000000E+00 -0.14748228598E+04  0.14748228598E+04  0.00000000000E+00 0.  1.
         23    2    1    2    0    0 -0.42026766651E+03 -0.49950475520E+03  0.57889127433E+03  0.87711613072E+03  0.89931570045E+02 0.  0.
         13    1    3    3    0    0 -0.31552817757E+03 -0.39406608300E+03  0.39698713515E+03  0.64221872760E+03  0.00000000000E+00 0.  1.
        -13    1    3    3    0    0 -0.10473948894E+03 -0.10543867220E+03  0.18190413919E+03  0.23489740312E+03  0.00000000000E+00 0. -1.
         22    1    1    2    0    0  0.42026766651E+03  0.49950475520E+03 -0.12453516478E+04  0.14060692155E+04  0.00000000000E+00 0.  1.
<mgrwt>
<rscale>  0 0.21837504E+04</rscale>
<asrwt>0</asrwt>
<pdfrwt beam="1">  1        2 0.22689582E+00 0.21837504E+04</pdfrwt>
<pdfrwt beam="2">  1       -2 0.12436346E+00 0.21837504E+04</pdfrwt>
<totfact> 0.58318268E+00</totfact>
</mgrwt>
</event>
<event>
 6    1  0.3017327E-006  0.2161130E+04  0.7818608E-02  0.8534783E-01
          2   -1    0    0  501    0  0.00000000000E+00  0.00000000000E+00  0.36816238601E+04  0.36816238601E+04  0.00000000000E+00 0. -1.
         -2   -1    0    0    0  501 -0.00000000000E+00 -0.00000000000E+00 -0.31714831028E+03  0.31714831028E+03  0.00000000000E+00 0.  1.
         23    2    1    2    0    0  0.84835639896E+03  0.17997841573E+03  0.28720862119E+04  0.30015018610E+04  0.89629256510E+02 0.  0.
         11    1    3    3    0    0  0.17669764727E+03  0.75230247171E+02  0.62187806371E+03  0.65085633958E+03  0.00000000000E+00 0.  1.
        -11    1    3    3    0    0  0.67165875168E+03  0.10474816856E+03  0.22502081481E+04  0.23506455214E+04  0.00000000000E+00 0. -1.
         22    1    1    2    0    0 -0.84835639896E+03 -0.17997841573E+03  0.49238933795E+03  0.99727030935E+03  0.00000000000E+00 0.  1.
<mgrwt>
<rscale>  0 0.21611301E+04</rscale>
<asrwt>0</asrwt>
<pdfrwt beam="1">  1        2 0.56640364E+00 0.21611301E+04</pdfrwt>
<pdfrwt beam="2">  1       -2 0.48792050E-01 0.21611301E+04</pdfrwt>
<totfact> 0.22077672E+00</totfact>
</mgrwt>
</event>
<event>
 6    1  0.3017327E-006  0.1209933E+04  0.7818608E-02  0.9104206E-01
         -2   -1    0    0    0  501 -0.00000000000E+00  0.00000000000E+00  0.94982584959E+03  0.94982584959E+03  0.00000000000E+00 0.  1.
          2   -1    0    0  501    0  0.00000000000E+00 -0.00000000000E+00 -0.38531770126E+03  0.38531770126E+03  0.00000000000E+00 0. -1.
         23    2    1    2    0    0  0.59204902815E+03  0.73418276622E+02  0.36914564028E+03  0.70738658783E+03  0.90636558976E+02 0.  0.
         13    1    3    3    0    0  0.20769396928E+03  0.61563650122E+02  0.10399442813E+03  0.24029504567E+03  0.00000000000E+00 0. -1.
        -13    1    3    3    0    0  0.38435505887E+03  0.11854626500E+02  0.26515121215E+03  0.46709154216E+03  0.00000000000E+00 0.  1.
         22    1    1    2    0    0 -0.59204902815E+03 -0.73418276622E+02  0.19536250805E+03  0.62775696303E+03  0.00000000000E+00 0. -1.
<mgrwt>
<rscale>  0 0.12099334E+04</rscale>
<asrwt>0</asrwt>
<pdfrwt beam="1">  1        2 0.59279647E-01 0.12099334E+04</pdfrwt>
<pdfrwt beam="2">  1       -2 0.14612705E+00 0.12099334E+04</pdfrwt>
<totfact> 0.26235423E+01</totfact>
</mgrwt>
</event>
<event>
 6    1  0.3017327E-006  0.8553944E+03  0.7818608E-02  0.9483125E-01
         -2   -1    0    0    0  501 -0.00000000000E+00  0.00000000000E+00  0.17323355933E+03  0.17323355933E+03  0.00000000000E+00 0.  1.
          2   -1    0    0  501    0  0.00000000000E+00 -0.00000000000E+00 -0.10559438627E+04  0.10559438627E+04  0.00000000000E+00 0. -1.
         23    2    1    2    0    0  0.82967219082E+02  0.41231468852E+03 -0.38275001601E+03  0.57584194101E+03  0.90605763960E+02 0.  0.
         11    1    3    3    0    0  0.88481528867E+02  0.28648642879E+03 -0.30566535541E+03  0.42817609033E+03  0.00000000000E+00 0. -1.
        -11    1    3    3    0    0 -0.55143097851E+01  0.12582825972E+03 -0.77084660606E+02  0.14766585068E+03  0.00000000000E+00 0.  1.
         22    1    1    2    0    0 -0.82967219082E+02 -0.41231468852E+03 -0.49996028732E+03  0.65333548098E+03  0.00000000000E+00 0. -1.
<mgrwt>
<rscale>  0 0.85539444E+03</rscale>
<asrwt>0</asrwt>
<pdfrwt beam="1">  1        2 0.16245290E+00 0.85539444E+03</pdfrwt>
<pdfrwt beam="2">  1       -2 0.26651317E-01 0.85539444E+03</pdfrwt>
<totfact> 0.29699059E+02</totfact>
</mgrwt>
</event>
<event>
 6    1  0.3017327E-006  0.4044131E+04  0.7818608E-02  0.7995703E-01
          2   -1    0    0  501    0  0.00000000000E+00  0.00000000000E+00  0.47599459939E+04  0.47599459939E+04  0.00000000000E+00 0. -1.
         -2   -1    0    0    0  501 -0.00000000000E+00 -0.00000000000E+00 -0.85899078329E+03  0.85899078329E+03  0.00000000000E+00 0.  1.
         23    2    1    2    0    0  0.19956633768E+04 -0.17069204298E+03  0.15761354981E+04  0.25502897166E+04  0.89254932096E+02 0.  0.
         13    1    3    3    0    0  0.13329018793E+04 -0.72593446166E+02  0.10600224600E+04  0.17045658814E+04  0.00000000000E+00 0.  1.
        -13    1    3    3    0    0  0.66276149753E+03 -0.98098596818E+02  0.51611303817E+03  0.84572383523E+03  0.00000000000E+00 0. -1.
         22    1    1    2    0    0 -0.19956633768E+04  0.17069204298E+03  0.23248197125E+04  0.30686470606E+04  0.00000000000E+00 0. -1.
<mgrwt>
<rscale>  0 0.40441314E+04</rscale>
<asrwt>0</asrwt>
<pdfrwt beam="1">  1        2 0.73229936E+00 0.40441314E+04</pdfrwt>
<pdfrwt beam="2">  1       -2 0.13215243E+00 0.40441314E+04</pdfrwt>
<totfact> 0.21405015E-02</totfact>
</mgrwt>
</event>
<event>
 6    1  0.3017327E-006  0.2162137E+04  0.7818608E-02  0.8534355E-01
         -2   -1    0    0    0  501 -0.00000000000E+00  0.00000000000E+00  0.41094057373E+03  0.41094057373E+03  0.00000000000E+00 0. -1.
          2   -1    0    0  501    0  0.00000000000E+00 -0.00000000000E+00 -0.28439844382E+04  0.28439844382E+04  0.00000000000E+00 0.  1.
         23    2    1    2    0    0 -0.24037630331E+03 -0.97169790282E+03 -0.18257144178E+04  0.20841019517E+04  0.90940795092E+02 0.  0.
         13    1    3    3    0    0 -0.14311199440E+03 -0.59180485868E+03 -0.12007062948E+04  0.13462576425E+04  0.00000000000E+00 0.  1.
        -13    1    3    3    0    0 -0.97264308904E+02 -0.37989304414E+03 -0.62500812306E+03  0.73784430923E+03  0.00000000000E+00 0. -1.
         22    1    1    2    0    0  0.24037630331E+03  0.97169790282E+03 -0.60732944667E+03  0.11708230602E+04  0.00000000000E+00 0.  1.
<mgrwt>
<rscale>  0 0.21621365E+04</rscale>
<asrwt>0</asrwt>
<pdfrwt beam="1">  1        2 0.43753606E+00 0.21621365E+04</pdfrwt>
<pdfrwt beam="2">  1       -2 0.63221628E-01 0.21621365E+04</pdfrwt>
<totfact> 0.46236775E+00</totfact>
</mgrwt>
</event>
<event>
 6    1  0.3017327E-006  0.2189760E+04  0.7818608E-02  0.8522702E-01
         -2   -1    0    0    0  501 -0.00000000000E+00  0.00000000000E+00  0.12271674882E+04  0.12271674882E+04  0.00000000000E+00 0.  1.
          2   -1    0    0  501    0  0.00000000000E+00 -0.00000000000E+00 -0.97685338699E+03  0.97685338699E+03  0.00000000000E+00 0. -1.
         23    2    1    2    0    0 -0.23589659250E+03  0.71370120274E+03 -0.67327932164E+03  0.10132054319E+04  0.90904307979E+02 0.  0.
         13    1    3    3    0    0 -0.18324608624E+03  0.41338510583E+03 -0.40918908492E+03  0.60983774978E+03  0.00000000000E+00 0. -1.
        -13    1    3    3    0    0 -0.52650506261E+02  0.30031609692E+03 -0.26409023671E+03  0.40336768215E+03  0.00000000000E+00 0.  1.
         22    1    1    2    0    0  0.23589659250E+03 -0.71370120274E+03  0.92359342285E+03  0.11908154432E+04  0.00000000000E+00 0. -1.
<mgrwt>
<rscale>  0 0.21897605E+04</rscale>
<asrwt>0</asrwt>
<pdfrwt beam="1">  1        2 0.15028514E+00 0.21897605E+04</pdfrwt>
<pdfrwt beam="2">  1       -2 0.18879500E+00 0.21897605E+04</pdfrwt>
<totfact> 0.37656628E+00</totfact>
</mgrwt>
</event>
<event>
 6    1  0.3017327E-006  0.7512175E+03  0.7818608E-02  0.9633442E-01
         -2   -1    0    0    0  501 -0.00000000000E+00  0.00000000000E+00  0.15363591036E+03  0.15363591036E+03  0.00000000000E+00 0.  1.
          2   -1    0    0  501    0  0.00000000000E+00 -0.00000000000E+00 -0.91828759024E+03  0.91828759024E+03  0.00000000000E+00 0. -1.
         23    2    1    2    0    0  0.13670043070E+03  0.27395470455E+03 -0.91316680643E+02  0.33224910664E+03  0.91173158330E+02 0.  0.
         11    1    3    3    0    0  0.67749873721E+02  0.21143147469E+03 -0.38822969087E+02  0.22538974424E+03  0.00000000000E+00 0. -1.
        -11    1    3    3    0    0  0.68950556977E+02  0.62523229858E+02 -0.52493711555E+02  0.10685936240E+03  0.00000000000E+00 0.  1.
         22    1    1    2    0    0 -0.13670043070E+03 -0.27395470455E+03 -0.67333499923E+03  0.73967439396E+03  0.00000000000E+00 0. -1.
<mgrwt>
<rscale>  0 0.75121754E+03</rscale>
<asrwt>0</asrwt>
<pdfrwt beam="1">  1        2 0.14127501E+00 0.75121754E+03</pdfrwt>
<pdfrwt beam="2">  1       -2 0.23636295E-01 0.75121754E+03</pdfrwt>
<totfact> 0.45456400E+02</totfact>
</mgrwt>
</event>
<event>
 6    1  0.3017327E-006  0.2388844E+04  0.7818608E-02  0.8443692E-01
         -2   -1    0    0    0  501 -0.00000000000E+00  0.00000000000E+00  0.64528624016E+03  0.64528624016E+03  0.00000000000E+00 0.  1.
          2   -1    0    0  501    0  0.00000000000E+00 -0.00000000000E+00 -0.22108702060E+04  0.22108702060E+04  0.00000000000E+00 0. -1.
         23    2    1    2    0    0 -0.54476870546E+03  0.14696772605E+03 -0.20402456375E+04  0.21188124576E+04  0.91605206706E+02 0.  0.
         13    1    3    3    0    0 -0.48428002015E+03  0.98844775625E+02 -0.17526388996E+04  0.18209998736E+04  0.00000000000E+00 0. -1.
        -13    1    3    3    0    0 -0.60488685308E+02  0.48122950422E+02 -0.28760673798E+03  0.29781258391E+03  0.00000000000E+00 0.  1.
         22    1    1    2    0    0  0.54476870546E+03 -0.14696772605E+03  0.47466167169E+03  0.73734398860E+03  0.00000000000E+00 0.  1.
<mgrwt>
<rscale>  0 0.23888442E+04</rscale>
<asrwt>0</asrwt>
<pdfrwt beam="1">  1        2 0.34013388E+00 0.23888442E+04</pdfrwt>
<pdfrwt beam="2">  1       -2 0.99274806E-01 0.23888442E+04</pdfrwt>
<totfact> 0.38506111E+00</totfact>
</mgrwt>
</event>
<event>
 6    1  0.3017327E-006  0.2684032E+04  0.7818608E-02  0.8340205E-01
          2   -1    0    0  501    0  0.00000000000E+00  0.00000000000E+00  0.16487671348E+04  0.16487671348E+04  0.00000000000E+00 0. -1.
         -2   -1    0    0    0  501 -0.00000000000E+00 -0.00000000000E+00 -0.10923354305E+04  0.10923354305E+04  0.00000000000E+00 0.  1.
         23    2    1    2    0    0 -0.25899038783E+03  0.97763505785E+03  0.11769277855E+04  0.15545690790E+04  0.93164809565E+02 0.  0.
         11    1    3    3    0    0 -0.22405906929E+03  0.68051090222E+03  0.82552732223E+03  0.10930658326E+04  0.00000000000E+00 0. -1.
        -11    1    3    3    0    0 -0.34931318537E+02  0.29712415563E+03  0.35140046330E+03  0.46150324645E+03  0.00000000000E+00 0.  1.
         22    1    1    2    0    0  0.25899038783E+03 -0.97763505785E+03 -0.62049608121E+03  0.11865334863E+04  0.00000000000E+00 0.  1.
<mgrwt>
<rscale>  0 0.26840319E+04</rscale>
<asrwt>0</asrwt>
<pdfrwt beam="1">  1        2 0.25365648E+00 0.26840319E+04</pdfrwt>
<pdfrwt beam="2">  1       -2 0.16805160E+00 0.26840319E+04</pdfrwt>
<totfact> 0.20251084E+00</totfact>
</mgrwt>
</event>
<event>
 6    1  0.3017327E-006  0.1707634E+04  0.7818608E-02  0.8757022E-01
          2   -1    0    0  501    0  0.00000000000E+00  0.00000000000E+00  0.28315169476E+04  0.28315169476E+04  0.00000000000E+00 0. -1.
         -2   -1    0    0    0  501 -0.00000000000E+00 -0.00000000000E+00 -0.25746034337E+03  0.25746034337E+03  0.00000000000E+00 0.  1.
         23    2    1    2    0    0 -0.16472296831E+03  0.56807557954E+03  0.23985497302E+04  0.24720119895E+04  0.89212932900E+02 0.  0.
         11    1    3    3    0    0 -0.89574946448E+02  0.16296438000E+03  0.71780609136E+03  0.74150296356E+03  0.00000000000E+00 0. -1.
        -11    1    3    3    0    0 -0.75148021861E+02  0.40511119954E+03  0.16807436389E+04  0.17305090259E+04  0.00000000000E+00 0.  1.
         22    1    1    2    0    0  0.16472296831E+03 -0.56807557954E+03  0.17550687394E+03  0.61696530142E+03  0.00000000000E+00 0.  1.
<mgrwt>
<rscale>  0 0.17076338E+04</rscale>
<asrwt>0</asrwt>
<pdfrwt beam="1">  1        2 0.43561797E+00 0.17076338E+04</pdfrwt>
<pdfrwt beam="2">  1       -2 0.39609286E-01 0.17076338E+04</pdfrwt>
<totfact> 0.12731355E+01</totfact>
</mgrwt>
</event>
<event>
 6    1  0.3017327E-006  0.2130356E+04  0.7818608E-02  0.8547988E-01
         -2   -1    0    0    0  501 -0.00000000000E+00  0.00000000000E+00  0.66911317106E+03  0.66911317106E+03  0.00000000000E+00 0.  1.
          2   -1    0    0  501    0  0.00000000000E+00 -0.00000000000E+00 -0.16956832769E+04  0.16956832769E+04  0.00000000000E+00 0. -1.
         23    2    1    2    0    0  0.50722017451E+02  0.37581304266E+03 -0.16167838594E+04  0.16632549731E+04  0.92837984290E+02 0.  0.
         13    1    3    3    0    0  0.26244032505E+02  0.21247272538E+03 -0.11027186079E+04  0.11233083889E+04  0.00000000000E+00 0.  1.
        -13    1    3    3    0    0  0.24477984946E+02  0.16334031728E+03 -0.51406525144E+03  0.53994658415E+03  0.00000000000E+00 0. -1.
         22    1    1    2    0    0 -0.50722017451E+02 -0.37581304266E+03  0.59021375356E+03  0.70154147488E+03  0.00000000000E+00 0.  1.
<mgrwt>
<rscale>  0 0.21303559E+04</rscale>
<asrwt>0</asrwt>
<pdfrwt beam="1">  1        2 0.26087435E+00 0.21303559E+04</pdfrwt>
<pdfrwt beam="2">  1       -2 0.10294049E+00 0.21303559E+04</pdfrwt>
<totfact> 0.69882508E+00</totfact>
</mgrwt>
</event>
<event>
 6    1  0.3017327E-006  0.1048016E+04  0.7818608E-02  0.9257395E-01
         -4   -1    0    0    0  501 -0.00000000000E+00  0.00000000000E+00  0.11706937933E+04  0.11706937933E+04  0.00000000000E+00 0.  1.
          4   -1    0    0  501    0  0.00000000000E+00 -0.00000000000E+00 -0.23454838158E+03  0.23454838158E+03  0.00000000000E+00 0. -1.
         23    2    1    2    0    0  0.34045607700E+03 -0.39000424075E+03  0.53700101269E+03  0.75153742545E+03  0.91786524339E+02 0.  0.
         13    1    3    3    0    0  0.32193805892E+03 -0.32260591409E+03  0.47088107370E+03  0.65532257336E+03  0.00000000000E+00 0. -1.
        -13    1    3    3    0    0  0.18518018081E+02 -0.67398326662E+02  0.66119938981E+02  0.96214852083E+02  0.00000000000E+00 0.  1.
         22    1    1    2    0    0 -0.34045607700E+03  0.39000424075E+03  0.39914439907E+03  0.65370474947E+03  0.00000000000E+00 0.  1.
<mgrwt>
<rscale>  0 0.10480159E+04</rscale>
<asrwt>0</asrwt>
<pdfrwt beam="1">  1        4 0.36084367E-01 0.10480159E+04</pdfrwt>
<pdfrwt beam="2">  1       -4 0.18010673E+00 0.10480159E+04</pdfrwt>
<totfact> 0.26698985E+00</totfact>
</mgrwt>
</event>
<event>
 6    1  0.3017327E-006  0.1222656E+04  0.7818608E-02  0.9093254E-01
          1   -1    0    0  501    0  0.00000000000E+00  0.00000000000E+00  0.16645498409E+04  0.16645498409E+04  0.00000000000E+00 0. -1.
         -1   -1    0    0    0  501 -0.00000000000E+00 -0.00000000000E+00 -0.22451838808E+03  0.22451838808E+03  0.00000000000E+00 0.  1.
         23    2    1    2    0    0 -0.43808490875E+03 -0.17766091338E+03  0.13145634008E+04  0.13999629034E+04  0.91309412908E+02 0.  0.
         13    1    3    3    0    0 -0.17730028137E+03 -0.32310777118E+02  0.56840477789E+03  0.59629134458E+03  0.00000000000E+00 0.  1.
        -13    1    3    3    0    0 -0.26078462738E+03 -0.14535013626E+03  0.74615862291E+03  0.80367155887E+03  0.00000000000E+00 0. -1.
         22    1    1    2    0    0  0.43808490875E+03  0.17766091338E+03  0.12546805207E+03  0.48910532558E+03  0.00000000000E+00 0.  1.
<mgrwt>
<rscale>  0 0.12226562E+04</rscale>
<asrwt>0</asrwt>
<pdfrwt beam="1">  1        1 0.25608458E+00 0.12226562E+04</pdfrwt>
<pdfrwt beam="2">  1       -1 0.34541291E-01 0.12226562E+04</pdfrwt>
<totfact> 0.39572822E+01</totfact>
</mgrwt>
</event>
<event>
 6    1  0.3017327E-006  0.1024914E+04  0.7818608E-02  0.9281634E-01
         -2   -1    0    0    0  501 -0.00000000000E+00  0.00000000000E+00  0.12066375875E+03  0.12066375875E+03  0.00000000000E+00 0.  1.
          2   -1    0    0  501    0  0.00000000000E+00 -0.00000000000E+00 -0.21763972998E+04  0.21763972998E+04  0.00000000000E+00 0. -1.
         23    2    1    2    0    0 -0.29523234901E+03 -0.36035160363E+03 -0.58303167513E+03  0.75243611896E+03  0.96014377907E+02 0.  0.
         13    1    3    3    0    0 -0.79933625168E+02 -0.67675457219E+02 -0.19165540911E+03  0.21840592434E+03  0.00000000000E+00 0. -1.
        -13    1    3    3    0    0 -0.21529872384E+03 -0.29267614641E+03 -0.39137626602E+03  0.53403019462E+03  0.00000000000E+00 0.  1.
         22    1    1    2    0    0  0.29523234901E+03  0.36035160363E+03 -0.14727018660E+04  0.15446249396E+04  0.00000000000E+00 0. -1.
<mgrwt>
<rscale>  0 0.10249142E+04</rscale>
<asrwt>0</asrwt>
<pdfrwt beam="1">  1        2 0.33483035E+00 0.10249142E+04</pdfrwt>
<pdfrwt beam="2">  1       -2 0.18563655E-01 0.10249142E+04</pdfrwt>
<totfact> 0.13000972E+02</totfact>
</mgrwt>
</event>
<event>
 6    1  0.3017327E-006  0.2107337E+04  0.7818608E-02  0.8558018E-01
         -1   -1    0    0    0  501 -0.00000000000E+00  0.00000000000E+00  0.87422001096E+03  0.87422001096E+03  0.00000000000E+00 0.  1.
          1   -1    0    0  501    0  0.00000000000E+00 -0.00000000000E+00 -0.12699517975E+04  0.12699517975E+04  0.00000000000E+00 0. -1.
         23    2    1    2    0    0  0.77797816856E+03 -0.91171631099E+02  0.51596045915E+03  0.94219633120E+03  0.89198845527E+02 0.  0.
         11    1    3    3    0    0  0.38381993717E+03 -0.12788506696E+02  0.28930130823E+03  0.48080821230E+03  0.00000000000E+00 0.  1.
        -11    1    3    3    0    0  0.39415823139E+03 -0.78383124403E+02  0.22665915093E+03  0.46138811890E+03  0.00000000000E+00 0. -1.
         22    1    1    2    0    0 -0.77797816856E+03  0.91171631099E+02 -0.91169224572E+03  0.12019754773E+04  0.00000000000E+00 0. -1.
<mgrwt>
<rscale>  0 0.21073370E+04</rscale>
<asrwt>0</asrwt>
<pdfrwt beam="1">  1        1 0.19537720E+00 0.21073370E+04</pdfrwt>
<pdfrwt beam="2">  1       -1 0.13449539E+00 0.21073370E+04</pdfrwt>
<totfact> 0.40638770E+00</totfact>
</mgrwt>
</event>
<event>
 6    1  0.3017327E-006  0.1639202E+04  0.7818608E-02  0.8796820E-01
         -2   -1    0    0    0  501 -0.00000000000E+00  0.00000000000E+00  0.44240126239E+03  0.44240126239E+03  0.00000000000E+00 0.  1.
          2   -1    0    0  501    0  0.00000000000E+00 -0.00000000000E+00 -0.15184082536E+04  0.15184082536E+04  0.00000000000E+00 0. -1.
         23    2    1    2    0    0 -0.62399967407E+03  0.51954428872E+03 -0.41649244450E+03  0.91474006392E+03  0.63099659528E+02 0.  0.
         13    1    3    3    0    0 -0.37935945614E+03  0.27627068373E+03 -0.24769133183E+03  0.53065062284E+03  0.00000000000E+00 0.  1.
        -13    1    3    3    0    0 -0.24464021793E+03  0.24327360499E+03 -0.16880111267E+03  0.38408944108E+03  0.00000000000E+00 0. -1.
         22    1    1    2    0    0  0.62399967407E+03 -0.51954428872E+03 -0.65951454668E+03  0.10460694520E+04  0.00000000000E+00 0.  1.
<mgrwt>
<rscale>  0 0.16392019E+04</rscale>
<asrwt>0</asrwt>
<pdfrwt beam="1">  1        2 0.23360127E+00 0.16392019E+04</pdfrwt>
<pdfrwt beam="2">  1       -2 0.68061733E-01 0.16392019E+04</pdfrwt>
<totfact> 0.23414770E+01</totfact>
</mgrwt>
</event>
<event>
 6    1  0.3017327E-006  0.2260040E+04  0.7818608E-02  0.8493846E-01
          2   -1    0    0  501    0  0.00000000000E+00  0.00000000000E+00  0.38229660236E+04  0.38229660236E+04  0.00000000000E+00 0. -1.
         -2   -1    0    0    0  501 -0.00000000000E+00 -0.00000000000E+00 -0.33401944806E+03  0.33401944806E+03  0.00000000000E+00 0.  1.
         23    2    1    2    0    0 -0.76193125784E+03 -0.74533897994E+03  0.10672531718E+04  0.15111078520E+04  0.91368325310E+02 0.  0.
         11    1    3    3    0    0 -0.51143203342E+03 -0.44697398676E+03  0.64701943524E+03  0.93807388794E+03  0.00000000000E+00 0.  1.
        -11    1    3    3    0    0 -0.25049922442E+03 -0.29836499318E+03  0.42023373658E+03  0.57303396404E+03  0.00000000000E+00 0. -1.
         22    1    1    2    0    0  0.76193125784E+03  0.74533897994E+03  0.24216934037E+04  0.26458776196E+04  0.00000000000E+00 0. -1.
<mgrwt>
<rscale>  0 0.22600398E+04</rscale>
<asrwt>0</asrwt>
<pdfrwt beam="1">  1        2 0.58814859E+00 0.22600398E+04</pdfrwt>
<pdfrwt beam="2">  1       -2 0.51387610E-01 0.22600398E+04</pdfrwt>
<totfact> 0.15427075E+00</totfact>
</mgrwt>
</event>
<event>
 6    1  0.3017327E-006  0.2111090E+04  0.7818608E-02  0.8556374E-01
          2   -1    0    0  501    0  0.00000000000E+00  0.00000000000E+00  0.12248160911E+04  0.12248160911E+04  0.00000000000E+00 0. -1.
         -2   -1    0    0    0  501 -0.00000000000E+00 -0.00000000000E+00 -0.90966739359E+03  0.90966739359E+03  0.00000000000E+00 0.  1.
         23    2    1    2    0    0 -0.45935486812E+03 -0.13146819465E+03 -0.79158296429E+03  0.92901853194E+03  0.90449224824E+02 0.  0.
         11    1    3    3    0    0 -0.24819338313E+03 -0.10241219563E+03 -0.37680465287E+03  0.46267694958E+03  0.00000000000E+00 0.  1.
        -11    1    3    3    0    0 -0.21116148499E+03 -0.29055999015E+02 -0.41477831142E+03  0.46634158237E+03  0.00000000000E+00 0. -1.
         22    1    1    2    0    0  0.45935486812E+03  0.13146819465E+03  0.11067316618E+04  0.12054649527E+04  0.00000000000E+00 0. -1.
<mgrwt>
<rscale>  0 0.21110900E+04</rscale>
<asrwt>0</asrwt>
<pdfrwt beam="1">  1        2 0.18843324E+00 0.21110900E+04</pdfrwt>
<pdfrwt beam="2">  1       -2 0.13994883E+00 0.21110900E+04</pdfrwt>
<totfact> 0.60600585E+00</totfact>
</mgrwt>
</event>
<event>
 6    1  0.3017327E-006  0.2689366E+04  0.7818608E-02  0.8338463E-01
          1   -1    0    0  501    0  0.00000000000E+00  0.00000000000E+00  0.20964087851E+04  0.20964087851E+04  0.00000000000E+00 0. -1.
         -1   -1    0    0    0  501 -0.00000000000E+00 -0.00000000000E+00 -0.86250962656E+03  0.86250962656E+03  0.00000000000E+00 0.  1.
         23    2    1    2    0    0 -0.88978543147E+03  0.73154237770E+03 -0.14224220404E+03  0.11643049674E+04  0.92200043851E+02 0.  0.
         13    1    3    3    0    0 -0.45441999538E+03  0.39506585406E+03 -0.31016436272E+02  0.60293994772E+03  0.00000000000E+00 0.  1.
        -13    1    3    3    0    0 -0.43536543609E+03  0.33647652365E+03 -0.11122576777E+03  0.56136501969E+03  0.00000000000E+00 0. -1.
         22    1    1    2    0    0  0.88978543147E+03 -0.73154237770E+03  0.13761413625E+04  0.17946134442E+04  0.00000000000E+00 0. -1.
<mgrwt>
<rscale>  0 0.26893663E+04</rscale>
<asrwt>0</asrwt>
<pdfrwt beam="1">  1        1 0.32252443E+00 0.26893663E+04</pdfrwt>
<pdfrwt beam="2">  1       -1 0.13269379E+00 0.26893663E+04</pdfrwt>
<totfact> 0.10780243E+00</totfact>
</mgrwt>
</event>
<event>
 6    1  0.3017327E-006  0.1798022E+04  0.7818608E-02  0.8707352E-01
         -2   -1    0    0    0  501 -0.00000000000E+00  0.00000000000E+00  0.74478471651E+03  0.74478471651E+03  0.00000000000E+00 0. -1.
          2   -1    0    0  501    0  0.00000000000E+00 -0.00000000000E+00 -0.10851737414E+04  0.10851737414E+04  0.00000000000E+00 0.  1.
         23    2    1    2    0    0 -0.19233386595E+03 -0.87545649021E+03 -0.19516210036E+03  0.92193464660E+03  0.91972087854E+02 0.  0.
         11    1    3    3    0    0 -0.15840667180E+02 -0.37453774359E+02 -0.28033434817E+02  0.49392159479E+02  0.00000000000E+00 0. -1.
        -11    1    3    3    0    0 -0.17649319877E+03 -0.83800271585E+03 -0.16712866555E+03  0.87254248712E+03  0.00000000000E+00 0.  1.
         22    1    1    2    0    0  0.19233386595E+03  0.87545649021E+03 -0.14522692447E+03  0.90802381127E+03  0.00000000000E+00 0. -1.
<mgrwt>
<rscale>  0 0.17980220E+04</rscale>
<asrwt>0</asrwt>
<pdfrwt beam="1">  1        2 0.16694981E+00 0.17980220E+04</pdfrwt>
<pdfrwt beam="2">  1       -2 0.11458226E+00 0.17980220E+04</pdfrwt>
<totfact> 0.12501269E+01</totfact>
</mgrwt>
</event>
<event>
 6    1  0.3017327E-006  0.7327796E+03  0.7818608E-02  0.9662761E-01
         -2   -1    0    0    0  501 -0.00000000000E+00  0.00000000000E+00  0.91213865950E+02  0.91213865950E+02  0.00000000000E+00 0. -1.
          2   -1    0    0  501    0  0.00000000000E+00 -0.00000000000E+00 -0.14717222328E+04  0.14717222328E+04  0.00000000000E+00 0.  1.
         23    2    1    2    0    0 -0.12745259286E+03  0.27227368389E+03 -0.27510974388E+03  0.41738678159E+03  0.90273096242E+02 0.  0.
         11    1    3    3    0    0 -0.72476711061E+02  0.96610010866E+02 -0.61889764590E+02  0.13570818253E+03  0.00000000000E+00 0. -1.
        -11    1    3    3    0    0 -0.54975881802E+02  0.17566367303E+03 -0.21321997929E+03  0.28167859906E+03  0.00000000000E+00 0.  1.
         22    1    1    2    0    0  0.12745259286E+03 -0.27227368389E+03 -0.11053986230E+04  0.11455493172E+04  0.00000000000E+00 0.  1.
<mgrwt>
<rscale>  0 0.73277957E+03</rscale>
<asrwt>0</asrwt>
<pdfrwt beam="1">  1        2 0.22641879E+00 0.73277957E+03</pdfrwt>
<pdfrwt beam="2">  1       -2 0.14032904E-01 0.73277957E+03</pdfrwt>
<totfact> 0.52294533E+02</totfact>
</mgrwt>
</event>
<event>
 6    1  0.3017327E-006  0.1703048E+04  0.7818608E-02  0.8759628E-01
         -2   -1    0    0    0  501 -0.00000000000E+00  0.00000000000E+00  0.57281449508E+03  0.57281449508E+03  0.00000000000E+00 0.  1.
          2   -1    0    0  501    0  0.00000000000E+00 -0.00000000000E+00 -0.12658432550E+04  0.12658432550E+04  0.00000000000E+00 0. -1.
         23    2    1    2    0    0 -0.14446305056E+03 -0.50144992912E+03  0.37656144168E+03  0.64855489580E+03  0.80643221177E+02 0.  0.
         11    1    3    3    0    0 -0.63736312773E+02 -0.35598814834E+03  0.26107115931E+03  0.44603590611E+03  0.00000000000E+00 0.  1.
        -11    1    3    3    0    0 -0.80726737790E+02 -0.14546178078E+03  0.11549028237E+03  0.20251898969E+03  0.00000000000E+00 0. -1.
         22    1    1    2    0    0  0.14446305056E+03  0.50144992912E+03 -0.10695902016E+04  0.11901028542E+04  0.00000000000E+00 0. -1.
<mgrwt>
<rscale>  0 0.17030483E+04</rscale>
<asrwt>0</asrwt>
<pdfrwt beam="1">  1        2 0.19474511E+00 0.17030483E+04</pdfrwt>
<pdfrwt beam="2">  1       -2 0.88125308E-01 0.17030483E+04</pdfrwt>
<totfact> 0.18271518E+01</totfact>
</mgrwt>
</event>
<event>
 6    1  0.3017327E-006  0.4635730E+04  0.7818608E-02  0.7887296E-01
         -2   -1    0    0    0  501 -0.00000000000E+00  0.00000000000E+00  0.21176974144E+04  0.21176974144E+04  0.00000000000E+00 0.  1.
          2   -1    0    0  501    0  0.00000000000E+00 -0.00000000000E+00 -0.25369528221E+04  0.25369528221E+04  0.00000000000E+00 0. -1.
         23    2    1    2    0    0  0.10631525960E+04  0.16765069850E+04  0.98978032694E+03  0.22202404897E+04  0.93987356779E+02 0.  0.
         13    1    3    3    0    0  0.85655723538E+03  0.13097377984E+04  0.74432025190E+03  0.17329500961E+04  0.00000000000E+00 0.  1.
        -13    1    3    3    0    0  0.20659536066E+03  0.36676918661E+03  0.24546007504E+03  0.48729039363E+03  0.00000000000E+00 0. -1.
         22    1    1    2    0    0 -0.10631525960E+04 -0.16765069850E+04 -0.14090357346E+04  0.24344097467E+04  0.00000000000E+00 0. -1.
<mgrwt>
<rscale>  0 0.46357301E+04</rscale>
<asrwt>0</asrwt>
<pdfrwt beam="1">  1        2 0.39030043E+00 0.46357301E+04</pdfrwt>
<pdfrwt beam="2">  1       -2 0.32579960E+00 0.46357301E+04</pdfrwt>
<totfact> 0.54734335E-02</totfact>
</mgrwt>
</event>
<event>
 6    1  0.3017327E-006  0.1517882E+04  0.7818608E-02  0.8872648E-01
         -1   -1    0    0    0  501 -0.00000000000E+00  0.00000000000E+00  0.17349153757E+03  0.17349153757E+03  0.00000000000E+00 0.  1.
          1   -1    0    0  501    0  0.00000000000E+00 -0.00000000000E+00 -0.33199981463E+04  0.33199981463E+04  0.00000000000E+00 0. -1.
         23    2    1    2    0    0  0.20965944081E+03  0.13237496068E+03 -0.32231652506E+04  0.32339578771E+04  0.90604122915E+02 0.  0.
         13    1    3    3    0    0  0.16193428817E+03  0.14059897756E+03 -0.27357565386E+04  0.27441491622E+04  0.00000000000E+00 0.  1.
        -13    1    3    3    0    0  0.47725152638E+02 -0.82240168774E+01 -0.48740871200E+03  0.48980871489E+03  0.00000000000E+00 0. -1.
         22    1    1    2    0    0 -0.20965944081E+03 -0.13237496068E+03  0.76658641858E+02  0.25953180674E+03  0.00000000000E+00 0.  1.
<mgrwt>
<rscale>  0 0.15178822E+04</rscale>
<asrwt>0</asrwt>
<pdfrwt beam="1">  1        1 0.51076893E+00 0.15178822E+04</pdfrwt>
<pdfrwt beam="2">  1       -1 0.26691007E-01 0.15178822E+04</pdfrwt>
<totfact> 0.42053618E+00</totfact>
</mgrwt>
</event>
<event>
 6    1  0.3017327E-006  0.2607792E+04  0.7818608E-02  0.8365559E-01
         -2   -1    0    0    0  501 -0.00000000000E+00  0.00000000000E+00  0.17884175303E+04  0.17884175303E+04  0.00000000000E+00 0.  1.
          2   -1    0    0  501    0  0.00000000000E+00 -0.00000000000E+00 -0.95064217792E+03  0.95064217792E+03  0.00000000000E+00 0. -1.
         23    2    1    2    0    0 -0.11720653663E+04 -0.56712521777E+03  0.45047125172E+03  0.13806147510E+04  0.88343118683E+02 0.  0.
         13    1    3    3    0    0 -0.52599355976E+03 -0.24109991485E+03  0.15560565231E+03  0.59917569450E+03  0.00000000000E+00 0. -1.
        -13    1    3    3    0    0 -0.64607180652E+03 -0.32602530292E+03  0.29486559941E+03  0.78143905651E+03  0.00000000000E+00 0.  1.
         22    1    1    2    0    0  0.11720653663E+04  0.56712521777E+03  0.38730410069E+03  0.13584449572E+04  0.00000000000E+00 0. -1.
<mgrwt>
<rscale>  0 0.26077923E+04</rscale>
<asrwt>0</asrwt>
<pdfrwt beam="1">  1        2 0.14625264E+00 0.26077923E+04</pdfrwt>
<pdfrwt beam="2">  1       -2 0.27514116E+00 0.26077923E+04</pdfrwt>
<totfact> 0.10810317E+00</totfact>
</mgrwt>
</event>
<event>
 6    1  0.3017327E-006  0.1650906E+04  0.7818608E-02  0.8789871E-01
          2   -1    0    0  501    0  0.00000000000E+00  0.00000000000E+00  0.94377854746E+03  0.94377854746E+03  0.00000000000E+00 0. -1.
         -2   -1    0    0    0  501 -0.00000000000E+00 -0.00000000000E+00 -0.72196262617E+03  0.72196262617E+03  0.00000000000E+00 0.  1.
         23    2    1    2    0    0  0.37073480218E+03  0.68875817649E+03 -0.14789717354E+03  0.80057073279E+03  0.84898792915E+02 0.  0.
         11    1    3    3    0    0  0.28107511442E+03  0.43744607765E+03 -0.98007154910E+02  0.52911973429E+03  0.00000000000E+00 0.  1.
        -11    1    3    3    0    0  0.89659687755E+02  0.25131209884E+03 -0.49890018627E+02  0.27145099850E+03  0.00000000000E+00 0. -1.
         22    1    1    2    0    0 -0.37073480218E+03 -0.68875817649E+03  0.36971309483E+03  0.86517044085E+03  0.00000000000E+00 0. -1.
<mgrwt>
<rscale>  0 0.16509062E+04</rscale>
<asrwt>0</asrwt>
<pdfrwt beam="1">  1        2 0.14519670E+00 0.16509062E+04</pdfrwt>
<pdfrwt beam="2">  1       -2 0.11107117E+00 0.16509062E+04</pdfrwt>
<totfact> 0.16802848E+01</totfact>
</mgrwt>
</event>
<event>
 6    1  0.3017327E-006  0.2452495E+04  0.7818608E-02  0.8420108E-01
          1   -1    0    0  501    0  0.00000000000E+00  0.00000000000E+00  0.16037248093E+04  0.16037248093E+04  0.00000000000E+00 0. -1.
         -1   -1    0    0    0  501 -0.00000000000E+00 -0.00000000000E+00 -0.93761920737E+03  0.93761920737E+03  0.00000000000E+00 0.  1.
         23    2    1    2    0    0 -0.55974322433E+03  0.82353756247E+03 -0.40538970093E+03  0.10785970194E+04  0.86626362344E+02 0.  0.
         11    1    3    3    0    0 -0.32849681180E+03  0.54984726356E+03 -0.24037967099E+03  0.68412320150E+03  0.00000000000E+00 0. -1.
        -11    1    3    3    0    0 -0.23124641253E+03  0.27369029891E+03 -0.16501002994E+03  0.39447381790E+03  0.00000000000E+00 0.  1.
         22    1    1    2    0    0  0.55974322433E+03 -0.82353756247E+03  0.10714953029E+04  0.14627469973E+04  0.00000000000E+00 0.  1.
<mgrwt>
<rscale>  0 0.24524952E+04</rscale>
<asrwt>0</asrwt>
<pdfrwt beam="1">  1        1 0.24672689E+00 0.24524952E+04</pdfrwt>
<pdfrwt beam="2">  1       -1 0.14424911E+00 0.24524952E+04</pdfrwt>
<totfact> 0.19170252E+00</totfact>
</mgrwt>
</event>
<event>
 6    1  0.3017327E-006  0.2129351E+04  0.7818608E-02  0.8548423E-01
         -2   -1    0    0    0  501 -0.00000000000E+00  0.00000000000E+00  0.73048830499E+03  0.73048830499E+03  0.00000000000E+00 0.  1.
          2   -1    0    0  501    0  0.00000000000E+00 -0.00000000000E+00 -0.15517482393E+04  0.15517482393E+04  0.00000000000E+00 0. -1.
         23    2    1    2    0    0 -0.39854782085E+03  0.91977301729E+03 -0.32322341425E+02  0.10066012930E+04  0.85899129895E+02 0.  0.
         13    1    3    3    0    0 -0.53085279853E+02  0.21065435122E+03 -0.28719996413E+01  0.21725917934E+03  0.00000000000E+00 0.  1.
        -13    1    3    3    0    0 -0.34546254100E+03  0.70911866607E+03 -0.29450341783E+02  0.78934211369E+03  0.00000000000E+00 0. -1.
         22    1    1    2    0    0  0.39854782085E+03 -0.91977301729E+03 -0.78893759294E+03  0.12756352513E+04  0.00000000000E+00 0.  1.
<mgrwt>
<rscale>  0 0.21293510E+04</rscale>
<asrwt>0</asrwt>
<pdfrwt beam="1">  1        2 0.23873050E+00 0.21293510E+04</pdfrwt>
<pdfrwt beam="2">  1       -2 0.11238282E+00 0.21293510E+04</pdfrwt>
<totfact> 0.68066513E+00</totfact>
</mgrwt>
</event>
<event>
 6    1  0.3017327E-006  0.1825621E+04  0.7818608E-02  0.8692792E-01
         -2   -1    0    0    0  501 -0.00000000000E+00  0.00000000000E+00  0.23541897964E+03  0.23541897964E+03  0.00000000000E+00 0.  1.
          2   -1    0    0  501    0  0.00000000000E+00 -0.00000000000E+00 -0.35393190516E+04  0.35393190516E+04  0.00000000000E+00 0. -1.
         23    2    1    2    0    0 -0.76799805675E+03  0.28379360040E+03 -0.24799060019E+04  0.26131330853E+04  0.90393145148E+02 0.  0.
         13    1    3    3    0    0 -0.28560581286E+03  0.10628618703E+03 -0.10654937352E+04  0.11082167358E+04  0.00000000000E+00 0. -1.
        -13    1    3    3    0    0 -0.48239224389E+03  0.17750741337E+03 -0.14144122667E+04  0.15049163495E+04  0.00000000000E+00 0.  1.
         22    1    1    2    0    0  0.76799805675E+03 -0.28379360040E+03 -0.82399407006E+03  0.11616049459E+04  0.00000000000E+00 0.  1.
<mgrwt>
<rscale>  0 0.18256209E+04</rscale>
<asrwt>0</asrwt>
<pdfrwt beam="1">  1        2 0.54451057E+00 0.18256209E+04</pdfrwt>
<pdfrwt beam="2">  1       -2 0.36218308E-01 0.18256209E+04</pdfrwt>
<totfact> 0.51977674E+00</totfact>
</mgrwt>
</event>
<event>
 6    1  0.3017327E-006  0.2966623E+04  0.7818608E-02  0.8253327E-01
          2   -1    0    0  501    0  0.00000000000E+00  0.00000000000E+00  0.42264525095E+04  0.42264525095E+04  0.00000000000E+00 0.  1.
         -2   -1    0    0    0  501 -0.00000000000E+00 -0.00000000000E+00 -0.52058142520E+03  0.52058142520E+03  0.00000000000E+00 0. -1.
         23    2    1    2    0    0 -0.90848829940E+03 -0.48517201542E+03  0.35595660646E+04  0.37067704905E+04  0.94308145412E+02 0.  0.
         11    1    3    3    0    0 -0.54761604820E+03 -0.30753579524E+03  0.20090629941E+04  0.21049455375E+04  0.00000000000E+00 0.  1.
        -11    1    3    3    0    0 -0.36087225120E+03 -0.17763622018E+03  0.15505030705E+04  0.16018249530E+04  0.00000000000E+00 0. -1.
         22    1    1    2    0    0  0.90848829940E+03  0.48517201542E+03  0.14630501978E+03  0.10402634443E+04  0.00000000000E+00 0. -1.
<mgrwt>
<rscale>  0 0.29666228E+04</rscale>
<asrwt>0</asrwt>
<pdfrwt beam="1">  1        2 0.65022344E+00 0.29666228E+04</pdfrwt>
<pdfrwt beam="2">  1       -2 0.80089453E-01 0.29666228E+04</pdfrwt>
<totfact> 0.26087542E-01</totfact>
</mgrwt>
</event>
<event>
 6    1  0.3017327E-006  0.1802812E+04  0.7818608E-02  0.8704806E-01
          2   -1    0    0  501    0  0.00000000000E+00  0.00000000000E+00  0.38739401009E+04  0.38739401009E+04  0.00000000000E+00 0. -1.
         -2   -1    0    0    0  501 -0.00000000000E+00 -0.00000000000E+00 -0.20974323256E+03  0.20974323256E+03  0.00000000000E+00 0.  1.
         23    2    1    2    0    0  0.87835255294E+03 -0.19220996111E+03  0.18507029168E+04  0.20595271663E+04  0.90016589589E+02 0.  0.
         11    1    3    3    0    0  0.60356947096E+03 -0.17393032483E+03  0.13013957187E+04  0.14450531758E+04  0.00000000000E+00 0. -1.
        -11    1    3    3    0    0  0.27478308198E+03 -0.18279636286E+02  0.54930719805E+03  0.61447399055E+03  0.00000000000E+00 0.  1.
         22    1    1    2    0    0 -0.87835255294E+03  0.19220996111E+03  0.18134939516E+04  0.20241561671E+04  0.00000000000E+00 0.  1.
<mgrwt>
<rscale>  0 0.18028119E+04</rscale>
<asrwt>0</asrwt>
<pdfrwt beam="1">  1        2 0.59599073E+00 0.18028119E+04</pdfrwt>
<pdfrwt beam="2">  1       -2 0.32268193E-01 0.18028119E+04</pdfrwt>
<totfact> 0.36827538E+00</totfact>
</mgrwt>
</event>
<event>
 6    1  0.3017327E-006  0.3345758E+04  0.7818608E-02  0.8151349E-01
          1   -1    0    0  501    0  0.00000000000E+00  0.00000000000E+00  0.29748572474E+04  0.29748572474E+04  0.00000000000E+00 0.  1.
         -1   -1    0    0    0  501 -0.00000000000E+00 -0.00000000000E+00 -0.94072574787E+03  0.94072574787E+03  0.00000000000E+00 0. -1.
         23    2    1    2    0    0  0.21753590154E+03  0.16104751464E+04  0.14763962589E+04  0.21974384541E+04  0.89653669487E+02 0.  0.
         11    1    3    3    0    0  0.19029616207E+03  0.13636173271E+04  0.12064388254E+04  0.18306172411E+04  0.00000000000E+00 0. -1.
        -11    1    3    3    0    0  0.27239739468E+02  0.24685781929E+03  0.26995743351E+03  0.36682121293E+03  0.00000000000E+00 0.  1.
         22    1    1    2    0    0 -0.21753590154E+03 -0.16104751464E+04  0.55773524059E+03  0.17181445412E+04  0.00000000000E+00 0. -1.
<mgrwt>
<rscale>  0 0.33457584E+04</rscale>
<asrwt>0</asrwt>
<pdfrwt beam="1">  1        1 0.45767034E+00 0.33457584E+04</pdfrwt>
<pdfrwt beam="2">  1       -1 0.14472704E+00 0.33457584E+04</pdfrwt>
<totfact> 0.19772011E-01</totfact>
</mgrwt>
</event>
<event>
 6    1  0.3017327E-006  0.1042747E+04  0.7818608E-02  0.9262864E-01
         -2   -1    0    0    0  501 -0.00000000000E+00  0.00000000000E+00  0.18671753362E+03  0.18671753362E+03  0.00000000000E+00 0.  1.
          2   -1    0    0  501    0  0.00000000000E+00 -0.00000000000E+00 -0.14558380351E+04  0.14558380351E+04  0.00000000000E+00 0. -1.
         23    2    1    2    0    0  0.13281037852E+03 -0.49240256863E+03 -0.77699583703E+03  0.93383448706E+03  0.90694168597E+02 0.  0.
         11    1    3    3    0    0  0.81088941952E+02 -0.26751159831E+03 -0.50441741463E+03  0.57669298584E+03  0.00000000000E+00 0.  1.
        -11    1    3    3    0    0  0.51721436565E+02 -0.22489097032E+03 -0.27257842241E+03  0.35714150122E+03  0.00000000000E+00 0. -1.
         22    1    1    2    0    0 -0.13281037852E+03  0.49240256863E+03 -0.49212466444E+03  0.70872108165E+03  0.00000000000E+00 0.  1.
<mgrwt>
<rscale>  0 0.10427473E+04</rscale>
<asrwt>0</asrwt>
<pdfrwt beam="1">  1        2 0.22397508E+00 0.10427473E+04</pdfrwt>
<pdfrwt beam="2">  1       -2 0.28725774E-01 0.10427473E+04</pdfrwt>
<totfact> 0.14876866E+02</totfact>
</mgrwt>
</event>
<event>
 6    1  0.3017327E-006  0.4613279E+04  0.7818608E-02  0.7891100E-01
         -2   -1    0    0    0  501 -0.00000000000E+00  0.00000000000E+00  0.32427906513E+04  0.32427906513E+04  0.00000000000E+00 0.  1.
          2   -1    0    0  501    0  0.00000000000E+00 -0.00000000000E+00 -0.16407427334E+04  0.16407427334E+04  0.00000000000E+00 0. -1.
         23    2    1    2    0    0  0.20821901783E+04  0.25395038340E+03  0.18147558019E+04  0.27751569052E+04  0.90280075797E+02 0.  0.
         13    1    3    3    0    0  0.13070810667E+04  0.11683570671E+03  0.11196349024E+04  0.17250199454E+04  0.00000000000E+00 0.  1.
        -13    1    3    3    0    0  0.77510911162E+03  0.13711467670E+03  0.69512089947E+03  0.10501369598E+04  0.00000000000E+00 0. -1.
         22    1    1    2    0    0 -0.20821901783E+04 -0.25395038340E+03 -0.21270788403E+03  0.21083764796E+04  0.00000000000E+00 0. -1.
<mgrwt>
<rscale>  0 0.46132787E+04</rscale>
<asrwt>0</asrwt>
<pdfrwt beam="1">  1        2 0.25242196E+00 0.46132787E+04</pdfrwt>
<pdfrwt beam="2">  1       -2 0.49889087E+00 0.46132787E+04</pdfrwt>
<totfact> 0.13375668E-02</totfact>
</mgrwt>
</event>
<event>
 6    1  0.3017327E-006  0.1174405E+04  0.7818608E-02  0.9135559E-01
         -2   -1    0    0    0  501 -0.00000000000E+00  0.00000000000E+00  0.45950732334E+03  0.45950732334E+03  0.00000000000E+00 0.  1.
          2   -1    0    0  501    0  0.00000000000E+00 -0.00000000000E+00 -0.75038407717E+03  0.75038407717E+03  0.00000000000E+00 0. -1.
         23    2    1    2    0    0  0.17838475530E+03  0.55114073837E+03 -0.22161843541E+03  0.62647564045E+03  0.88202963389E+02 0.  0.
         13    1    3    3    0    0  0.34370691391E+02  0.15827892786E+03 -0.24022220567E+02  0.16373952031E+03  0.00000000000E+00 0. -1.
        -13    1    3    3    0    0  0.14401406391E+03  0.39286181051E+03 -0.19759621484E+03  0.46273612014E+03  0.00000000000E+00 0.  1.
         22    1    1    2    0    0 -0.17838475530E+03 -0.55114073837E+03 -0.69258318416E+02  0.58341576006E+03  0.00000000000E+00 0. -1.
<mgrwt>
<rscale>  0 0.11744053E+04</rscale>
<asrwt>0</asrwt>
<pdfrwt beam="1">  1        2 0.11544370E+00 0.11744053E+04</pdfrwt>
<pdfrwt beam="2">  1       -2 0.70693435E-01 0.11744053E+04</pdfrwt>
<totfact> 0.67416107E+01</totfact>
</mgrwt>
</event>
<event>
 6    1  0.3017327E-006  0.3302370E+04  0.7818608E-02  0.8162293E-01
         -2   -1    0    0    0  501 -0.00000000000E+00  0.00000000000E+00  0.79301511308E+03  0.79301511308E+03  0.00000000000E+00 0. -1.
          2   -1    0    0  501    0  0.00000000000E+00 -0.00000000000E+00 -0.34380318684E+04  0.34380318684E+04  0.00000000000E+00 0.  1.
         23    2    1    2    0    0  0.19496354960E+03  0.11555495663E+04 -0.28115286212E+04  0.30473950954E+04  0.92833691106E+02 0.  0.
         13    1    3    3    0    0  0.65253575075E+02  0.66321261604E+03 -0.15923246661E+04  0.17261537723E+04  0.00000000000E+00 0. -1.
        -13    1    3    3    0    0  0.12970997452E+03  0.49233695025E+03 -0.12192039550E+04  0.13212413232E+04  0.00000000000E+00 0.  1.
         22    1    1    2    0    0 -0.19496354960E+03 -0.11555495663E+04  0.16651186587E+03  0.11836518860E+04  0.00000000000E+00 0. -1.
<mgrwt>
<rscale>  0 0.33023696E+04</rscale>
<asrwt>0</asrwt>
<pdfrwt beam="1">  1        2 0.52892799E+00 0.33023696E+04</pdfrwt>
<pdfrwt beam="2">  1       -2 0.12200232E+00 0.33023696E+04</pdfrwt>
<totfact> 0.38147900E-01</totfact>
</mgrwt>
</event>
<event>
 6    1  0.3017327E-006  0.8843771E+03  0.7818608E-02  0.9445324E-01
          2   -1    0    0  501    0  0.00000000000E+00  0.00000000000E+00  0.41183636445E+03  0.41183636445E+03  0.00000000000E+00 0.  1.
         -2   -1    0    0    0  501 -0.00000000000E+00 -0.00000000000E+00 -0.47477771337E+03  0.47477771337E+03  0.00000000000E+00 0. -1.
         23    2    1    2    0    0  0.42534271845E+03  0.60550537686E+02  0.50898917777E+02  0.44215665345E+03  0.91263413282E+02 0.  0.
         11    1    3    3    0    0  0.18528463967E+03 -0.54415004359E+01 -0.10742912199E+02  0.18567557133E+03  0.00000000000E+00 0. -1.
        -11    1    3    3    0    0  0.24005807878E+03  0.65992038122E+02  0.61641829976E+02  0.25648108212E+03  0.00000000000E+00 0.  1.
         22    1    1    2    0    0 -0.42534271845E+03 -0.60550537686E+02 -0.11384026669E+03  0.44445742437E+03  0.00000000000E+00 0. -1.
<mgrwt>
<rscale>  0 0.88437713E+03</rscale>
<asrwt>0</asrwt>
<pdfrwt beam="1">  1        2 0.63359441E-01 0.88437713E+03</pdfrwt>
<pdfrwt beam="2">  1       -2 0.73042725E-01 0.88437713E+03</pdfrwt>
<totfact> 0.13087077E+02</totfact>
</mgrwt>
</event>
<event>
 6    1  0.3017327E-006  0.2782883E+04  0.7818608E-02  0.8308602E-01
         -2   -1    0    0    0  501 -0.00000000000E+00  0.00000000000E+00  0.18102539208E+04  0.18102539208E+04  0.00000000000E+00 0.  1.
          2   -1    0    0  501    0  0.00000000000E+00 -0.00000000000E+00 -0.10695235252E+04  0.10695235252E+04  0.00000000000E+00 0. -1.
         23    2    1    2    0    0  0.38823951991E+03 -0.11996769765E+04  0.97573987975E+03  0.15971300937E+04  0.93816045071E+02 0.  0.
         11    1    3    3    0    0  0.13294886187E+03 -0.31333886220E+03  0.30004218731E+03  0.45374216975E+03  0.00000000000E+00 0.  1.
        -11    1    3    3    0    0  0.25529065804E+03 -0.88633811433E+03  0.67569769244E+03  0.11433879239E+04  0.00000000000E+00 0. -1.
         22    1    1    2    0    0 -0.38823951991E+03  0.11996769765E+04 -0.23500948408E+03  0.12826473523E+04  0.00000000000E+00 0. -1.
<mgrwt>
<rscale>  0 0.27828828E+04</rscale>
<asrwt>0</asrwt>
<pdfrwt beam="1">  1        2 0.16454208E+00 0.27828828E+04</pdfrwt>
<pdfrwt beam="2">  1       -2 0.27850060E+00 0.27828828E+04</pdfrwt>
<totfact> 0.85284800E-01</totfact>
</mgrwt>
</event>
<event>
 6    1  0.3017327E-006  0.1800350E+04  0.7818608E-02  0.8706113E-01
          2   -1    0    0  501    0  0.00000000000E+00  0.00000000000E+00  0.11842555057E+04  0.11842555057E+04  0.00000000000E+00 0. -1.
         -2   -1    0    0    0  501 -0.00000000000E+00 -0.00000000000E+00 -0.68424038169E+03  0.68424038169E+03  0.00000000000E+00 0.  1.
         23    2    1    2    0    0 -0.23257147523E+02  0.49235193368E+03 -0.52850763630E+03  0.72796513815E+03  0.87530561606E+02 0.  0.
         11    1    3    3    0    0 -0.49092288989E+02  0.16258179384E+03 -0.17930725861E+03  0.24696960444E+03  0.00000000000E+00 0. -1.
        -11    1    3    3    0    0  0.25835141466E+02  0.32977013985E+03 -0.34920037769E+03  0.48099553371E+03  0.00000000000E+00 0.  1.
         22    1    1    2    0    0  0.23257147523E+02 -0.49235193368E+03  0.10285227603E+04  0.11405307493E+04  0.00000000000E+00 0. -1.
<mgrwt>
<rscale>  0 0.18003505E+04</rscale>
<asrwt>0</asrwt>
<pdfrwt beam="1">  1        2 0.18219315E+00 0.18003505E+04</pdfrwt>
<pdfrwt beam="2">  1       -2 0.10526775E+00 0.18003505E+04</pdfrwt>
<totfact> 0.13353384E+01</totfact>
</mgrwt>
</event>
<event>
 6    1  0.3017327E-006  0.1267133E+04  0.7818608E-02  0.9056043E-01
         -2   -1    0    0    0  501 -0.00000000000E+00  0.00000000000E+00  0.27096652765E+03  0.27096652765E+03  0.00000000000E+00 0.  1.
          2   -1    0    0  501    0  0.00000000000E+00 -0.00000000000E+00 -0.14813886657E+04  0.14813886657E+04  0.00000000000E+00 0. -1.
         23    2    1    2    0    0  0.36431934494E+03 -0.44210128195E+03 -0.23701195043E+03  0.62288207637E+03  0.60210363045E+02 0.  0.
         13    1    3    3    0    0  0.23900956716E+03 -0.27268279080E+03 -0.17864911218E+03  0.40422392665E+03  0.00000000000E+00 0.  1.
        -13    1    3    3    0    0  0.12530977778E+03 -0.16941849115E+03 -0.58362838242E+02  0.21865814972E+03  0.00000000000E+00 0. -1.
         22    1    1    2    0    0 -0.36431934494E+03  0.44210128195E+03 -0.97341018758E+03  0.11294731169E+04  0.00000000000E+00 0. -1.
<mgrwt>
<rscale>  0 0.12671334E+04</rscale>
<asrwt>0</asrwt>
<pdfrwt beam="1">  1        2 0.22790595E+00 0.12671334E+04</pdfrwt>
<pdfrwt beam="2">  1       -2 0.41687158E-01 0.12671334E+04</pdfrwt>
<totfact> 0.69630188E+01</totfact>
</mgrwt>
</event>
<event>
 6    1  0.3017327E-006  0.2579802E+04  0.7818608E-02  0.8375095E-01
         -2   -1    0    0    0  501 -0.00000000000E+00  0.00000000000E+00  0.13676112967E+04  0.13676112967E+04  0.00000000000E+00 0.  1.
          2   -1    0    0  501    0  0.00000000000E+00 -0.00000000000E+00 -0.12166062202E+04  0.12166062202E+04  0.00000000000E+00 0. -1.
         23    2    1    2    0    0 -0.10364744298E+04 -0.76378720982E+03  0.12102220618E+03  0.12963708187E+04  0.90998789499E+02 0.  0.
         13    1    3    3    0    0 -0.77952506364E+03 -0.55181446601E+03  0.53999794259E+02  0.95659526839E+03  0.00000000000E+00 0. -1.
        -13    1    3    3    0    0 -0.25694936618E+03 -0.21197274381E+03  0.67022411920E+02  0.33977555032E+03  0.00000000000E+00 0.  1.
         22    1    1    2    0    0  0.10364744298E+04  0.76378720982E+03  0.29982870291E+02  0.12878466982E+04  0.00000000000E+00 0. -1.
<mgrwt>
<rscale>  0 0.25798019E+04</rscale>
<asrwt>0</asrwt>
<pdfrwt beam="1">  1        2 0.18717019E+00 0.25798019E+04</pdfrwt>
<pdfrwt beam="2">  1       -2 0.21040174E+00 0.25798019E+04</pdfrwt>
<totfact> 0.18671486E+00</totfact>
</mgrwt>
</event>
<event>
 6    1  0.3017327E-006  0.4997610E+04  0.7818608E-02  0.7828876E-01
         -2   -1    0    0    0  501 -0.00000000000E+00  0.00000000000E+00  0.22858283244E+04  0.22858283244E+04  0.00000000000E+00 0.  1.
          2   -1    0    0  501    0  0.00000000000E+00 -0.00000000000E+00 -0.27316254739E+04  0.27316254739E+04  0.00000000000E+00 0. -1.
         23    2    1    2    0    0 -0.26716620530E+03  0.16386218396E+04  0.16509805983E+04  0.23429564179E+04  0.85138275771E+02 0.  0.
         11    1    3    3    0    0 -0.12856322376E+03  0.90827477788E+03  0.96489964427E+03  0.13313612951E+04  0.00000000000E+00 0.  1.
        -11    1    3    3    0    0 -0.13860298154E+03  0.73034706168E+03  0.68608095398E+03  0.10115951228E+04  0.00000000000E+00 0. -1.
         22    1    1    2    0    0  0.26716620530E+03 -0.16386218396E+04 -0.20967777477E+04  0.26744973804E+04  0.00000000000E+00 0. -1.
<mgrwt>
<rscale>  0 0.49976102E+04</rscale>
<asrwt>0</asrwt>
<pdfrwt beam="1">  1        2 0.42025007E+00 0.49976102E+04</pdfrwt>
<pdfrwt beam="2">  1       -2 0.35166590E+00 0.49976102E+04</pdfrwt>
<totfact> 0.28113345E-02</totfact>
</mgrwt>
</event>
<event>
 6    1  0.3017327E-006  0.1668979E+04  0.7818608E-02  0.8779257E-01
         -2   -1    0    0    0  501 -0.00000000000E+00  0.00000000000E+00  0.74353201319E+03  0.74353201319E+03  0.00000000000E+00 0.  1.
          2   -1    0    0  501    0  0.00000000000E+00 -0.00000000000E+00 -0.93657425107E+03  0.93657425107E+03  0.00000000000E+00 0. -1.
         23    2    1    2    0    0  0.29967099144E+03  0.77061848985E+03 -0.19157092984E+03  0.85327029216E+03  0.87836269946E+02 0.  0.
         11    1    3    3    0    0  0.18050782103E+03  0.49354989487E+03 -0.16345083539E+03  0.55035511060E+03  0.00000000000E+00 0.  1.
        -11    1    3    3    0    0  0.11916317041E+03  0.27706859498E+03 -0.28120094452E+02  0.30291518156E+03  0.00000000000E+00 0. -1.
         22    1    1    2    0    0 -0.29967099144E+03 -0.77061848985E+03 -0.14713080362E+01  0.82683597210E+03  0.00000000000E+00 0.  1.
<mgrwt>
<rscale>  0 0.16689793E+04</rscale>
<asrwt>0</asrwt>
<pdfrwt beam="1">  1        2 0.14408835E+00 0.16689793E+04</pdfrwt>
<pdfrwt beam="2">  1       -2 0.11438954E+00 0.16689793E+04</pdfrwt>
<totfact> 0.15790932E+01</totfact>
</mgrwt>
</event>
<event>
 6    1  0.3017327E-006  0.2753103E+04  0.7818608E-02  0.8317978E-01
          2   -1    0    0  501    0  0.00000000000E+00  0.00000000000E+00  0.95521905896E+03  0.95521905896E+03  0.00000000000E+00 0. -1.
         -2   -1    0    0    0  501 -0.00000000000E+00 -0.00000000000E+00 -0.19837279029E+04  0.19837279029E+04  0.00000000000E+00 0.  1.
         23    2    1    2    0    0  0.49492314829E+03 -0.12658276981E+04 -0.73657268285E+03  0.15488047367E+04  0.94805649965E+02 0.  0.
         11    1    3    3    0    0  0.27807548750E+03 -0.72166532525E+03 -0.36567956887E+03  0.85548136479E+03  0.00000000000E+00 0. -1.
        -11    1    3    3    0    0  0.21684766079E+03 -0.54416237285E+03 -0.37089311398E+03  0.69332337190E+03  0.00000000000E+00 0.  1.
         22    1    1    2    0    0 -0.49492314829E+03  0.12658276981E+04 -0.29193616106E+03  0.13901422251E+04  0.00000000000E+00 0. -1.
<mgrwt>
<rscale>  0 0.27531035E+04</rscale>
<asrwt>0</asrwt>
<pdfrwt beam="1">  1        2 0.14695678E+00 0.27531035E+04</pdfrwt>
<pdfrwt beam="2">  1       -2 0.30518891E+00 0.27531035E+04</pdfrwt>
<totfact> 0.69501144E-01</totfact>
</mgrwt>
</event>
<event>
 6    1  0.3017327E-006  0.4466710E+04  0.7818608E-02  0.7916491E-01
         -2   -1    0    0    0  501 -0.00000000000E+00  0.00000000000E+00  0.12209145364E+04  0.12209145364E+04  0.00000000000E+00 0.  1.
          2   -1    0    0  501    0  0.00000000000E+00 -0.00000000000E+00 -0.40853590077E+04  0.40853590077E+04  0.00000000000E+00 0. -1.
         23    2    1    2    0    0 -0.17809459968E+04  0.64847545856E+03 -0.28341389051E+04  0.34106977763E+04  0.90702392190E+02 0.  0.
         13    1    3    3    0    0 -0.53158773220E+03  0.14976062433E+03 -0.82185953453E+03  0.99018526354E+03  0.00000000000E+00 0.  1.
        -13    1    3    3    0    0 -0.12493582646E+04  0.49871483422E+03 -0.20122793705E+04  0.24205125127E+04  0.00000000000E+00 0. -1.
         22    1    1    2    0    0  0.17809459968E+04 -0.64847545856E+03 -0.30305566250E+02  0.18955757678E+04  0.00000000000E+00 0.  1.
<mgrwt>
<rscale>  0 0.44667098E+04</rscale>
<asrwt>0</asrwt>
<pdfrwt beam="1">  1        2 0.62851678E+00 0.44667098E+04</pdfrwt>
<pdfrwt beam="2">  1       -2 0.18783300E+00 0.44667098E+04</pdfrwt>
<totfact> 0.35282426E-02</totfact>
</mgrwt>
</event>
<event>
 6    1  0.3017327E-006  0.3352813E+04  0.7818608E-02  0.8149586E-01
          2   -1    0    0  501    0  0.00000000000E+00  0.00000000000E+00  0.22538390045E+04  0.22538390045E+04  0.00000000000E+00 0. -1.
         -2   -1    0    0    0  501 -0.00000000000E+00 -0.00000000000E+00 -0.12469123013E+04  0.12469123013E+04  0.00000000000E+00 0.  1.
         23    2    1    2    0    0 -0.59586872856E+03 -0.55895533974E+03 -0.10230814919E+04  0.13125045450E+04  0.92096841190E+02 0.  0.
         11    1    3    3    0    0 -0.30640417972E+03 -0.34196882096E+03 -0.60801784588E+03  0.76191331316E+03  0.00000000000E+00 0. -1.
        -11    1    3    3    0    0 -0.28946454884E+03 -0.21698651878E+03 -0.41506364601E+03  0.55059123186E+03  0.00000000000E+00 0.  1.
         22    1    1    2    0    0  0.59586872856E+03  0.55895533974E+03  0.20300081951E+04  0.21882467607E+04  0.00000000000E+00 0. -1.
<mgrwt>
<rscale>  0 0.33528135E+04</rscale>
<asrwt>0</asrwt>
<pdfrwt beam="1">  1        2 0.34674446E+00 0.33528135E+04</pdfrwt>
<pdfrwt beam="2">  1       -2 0.19183266E+00 0.33528135E+04</pdfrwt>
<totfact> 0.60336234E-01</totfact>
</mgrwt>
</event>
<event>
 6    1  0.3017327E-006  0.2614716E+04  0.7818608E-02  0.8363220E-01
         -2   -1    0    0    0  501 -0.00000000000E+00  0.00000000000E+00  0.76633897246E+03  0.76633897246E+03  0.00000000000E+00 0.  1.
          2   -1    0    0  501    0  0.00000000000E+00 -0.00000000000E+00 -0.22303246084E+04  0.22303246084E+04  0.00000000000E+00 0. -1.
         23    2    1    2    0    0 -0.88505973803E+03 -0.95827344429E+03 -0.79986025651E+03  0.15328735503E+04  0.91138122610E+02 0.  0.
         11    1    3    3    0    0 -0.43413656134E+03 -0.40399401121E+03 -0.35448994071E+03  0.69090435883E+03  0.00000000000E+00 0.  1.
        -11    1    3    3    0    0 -0.45092317669E+03 -0.55427943308E+03 -0.44537031580E+03  0.84196919149E+03  0.00000000000E+00 0. -1.
         22    1    1    2    0    0  0.88505973803E+03  0.95827344429E+03 -0.66412537942E+03  0.14637900305E+04  0.00000000000E+00 0.  1.
<mgrwt>
<rscale>  0 0.26147158E+04</rscale>
<asrwt>0</asrwt>
<pdfrwt beam="1">  1        2 0.34312686E+00 0.26147158E+04</pdfrwt>
<pdfrwt beam="2">  1       -2 0.11789830E+00 0.26147158E+04</pdfrwt>
<totfact> 0.24330028E+00</totfact>
</mgrwt>
</event>
<event>
 6    1  0.3017327E-006  0.9689682E+03  0.7818608E-02  0.9343250E-01
          1   -1    0    0  501    0  0.00000000000E+00  0.00000000000E+00  0.31780291219E+03  0.31780291219E+03  0.00000000000E+00 0. -1.
         -1   -1    0    0    0  501 -0.00000000000E+00 -0.00000000000E+00 -0.73858622377E+03  0.73858622377E+03  0.00000000000E+00 0.  1.
         23    2    1    2    0    0 -0.12518401254E+03 -0.39680221701E+03  0.49491309522E+02  0.42847094410E+03  0.89526106805E+02 0.  0.
         13    1    3    3    0    0 -0.10202525696E+02 -0.15227238606E+03  0.41427579741E+02  0.15813669862E+03  0.00000000000E+00 0. -1.
        -13    1    3    3    0    0 -0.11498148685E+03 -0.24452983096E+03  0.80637297816E+01  0.27033424549E+03  0.00000000000E+00 0.  1.
         22    1    1    2    0    0  0.12518401254E+03  0.39680221701E+03 -0.47027462110E+03  0.62791819186E+03  0.00000000000E+00 0.  1.
<mgrwt>
<rscale>  0 0.96896822E+03</rscale>
<asrwt>0</asrwt>
<pdfrwt beam="1">  1        1 0.48892756E-01 0.96896822E+03</pdfrwt>
<pdfrwt beam="2">  1       -1 0.11362865E+00 0.96896822E+03</pdfrwt>
<totfact> 0.57714107E+01</totfact>
</mgrwt>
</event>
<event>
 6    1  0.3017327E-006  0.4107394E+04  0.7818608E-02  0.7983225E-01
         -2   -1    0    0    0  501 -0.00000000000E+00  0.00000000000E+00  0.18142334998E+04  0.18142334998E+04  0.00000000000E+00 0. -1.
          2   -1    0    0  501    0  0.00000000000E+00 -0.00000000000E+00 -0.23247671273E+04  0.23247671273E+04  0.00000000000E+00 0.  1.
         23    2    1    2    0    0 -0.28841459239E+03 -0.19654884130E+04  0.26550656220E+03  0.20062638748E+04  0.90957803055E+02 0.  0.
         11    1    3    3    0    0 -0.91611864976E+02 -0.78983666727E+03  0.14414053618E+03  0.80809107713E+03  0.00000000000E+00 0. -1.
        -11    1    3    3    0    0 -0.19680272742E+03 -0.11756517457E+04  0.12136602603E+03  0.11981727976E+04  0.00000000000E+00 0.  1.
         22    1    1    2    0    0  0.28841459239E+03  0.19654884130E+04 -0.77604018970E+03  0.21327367523E+04  0.00000000000E+00 0.  1.
<mgrwt>
<rscale>  0 0.41073935E+04</rscale>
<asrwt>0</asrwt>
<pdfrwt beam="1">  1        2 0.35765648E+00 0.41073935E+04</pdfrwt>
<pdfrwt beam="2">  1       -2 0.27911285E+00 0.41073935E+04</pdfrwt>
<totfact> 0.14637437E-01</totfact>
</mgrwt>
</event>
<event>
 6    1  0.3017327E-006  0.3221186E+04  0.7818608E-02  0.8183244E-01
         -2   -1    0    0    0  501 -0.00000000000E+00  0.00000000000E+00  0.13033920459E+04  0.13033920459E+04  0.00000000000E+00 0.  1.
          2   -1    0    0  501    0  0.00000000000E+00 -0.00000000000E+00 -0.19901987885E+04  0.19901987885E+04  0.00000000000E+00 0. -1.
         23    2    1    2    0    0 -0.13016713359E+04  0.58770430597E+03 -0.11022249161E+04  0.18062049138E+04  0.87930694272E+02 0.  0.
         13    1    3    3    0    0 -0.64063177243E+03  0.33683849541E+03 -0.56658709167E+03  0.91917907520E+03  0.00000000000E+00 0. -1.
        -13    1    3    3    0    0 -0.66103956346E+03  0.25086581055E+03 -0.53563782443E+03  0.88702583859E+03  0.00000000000E+00 0.  1.
         22    1    1    2    0    0  0.13016713359E+04 -0.58770430597E+03  0.41541817352E+03  0.14873859206E+04  0.00000000000E+00 0.  1.
<mgrwt>
<rscale>  0 0.32211857E+04</rscale>
<asrwt>0</asrwt>
<pdfrwt beam="1">  1        2 0.30618443E+00 0.32211857E+04</pdfrwt>
<pdfrwt beam="2">  1       -2 0.20052185E+00 0.32211857E+04</pdfrwt>
<totfact> 0.75050491E-01</totfact>
</mgrwt>
</event>
<event>
 6    1  0.3017327E-006  0.3270069E+04  0.7818608E-02  0.8170553E-01
          2   -1    0    0  501    0  0.00000000000E+00  0.00000000000E+00  0.23093641407E+04  0.23093641407E+04  0.00000000000E+00 0. -1.
         -2   -1    0    0    0  501 -0.00000000000E+00 -0.00000000000E+00 -0.11576080932E+04  0.11576080932E+04  0.00000000000E+00 0.  1.
         23    2    1    2    0    0 -0.41450977316E+03 -0.21221407830E+03  0.22366387660E+04  0.22863691338E+04  0.89875910508E+02 0.  0.
         13    1    3    3    0    0 -0.20915317736E+03 -0.73672139880E+02  0.12196841949E+04  0.12396782531E+04  0.00000000000E+00 0. -1.
        -13    1    3    3    0    0 -0.20535659580E+03 -0.13854193842E+03  0.10169545711E+04  0.10466908807E+04  0.00000000000E+00 0.  1.
         22    1    1    2    0    0  0.41450977316E+03  0.21221407830E+03 -0.10848827185E+04  0.11806031001E+04  0.00000000000E+00 0.  1.
<mgrwt>
<rscale>  0 0.32700695E+04</rscale>
<asrwt>0</asrwt>
<pdfrwt beam="1">  1        2 0.35528679E+00 0.32700695E+04</pdfrwt>
<pdfrwt beam="2">  1       -2 0.17809355E+00 0.32700695E+04</pdfrwt>
<totfact> 0.70088139E-01</totfact>
</mgrwt>
</event>
<event>
 6    1  0.3017327E-006  0.9022956E+03  0.7818608E-02  0.9422716E-01
          1   -1    0    0  501    0  0.00000000000E+00  0.00000000000E+00  0.72957595109E+03  0.72957595109E+03  0.00000000000E+00 0. -1.
         -1   -1    0    0    0  501 -0.00000000000E+00 -0.00000000000E+00 -0.27897620634E+03  0.27897620634E+03  0.00000000000E+00 0.  1.
         23    2    1    2    0    0  0.33832221053E+03  0.22138433886E+03  0.17375835286E+02  0.41596807111E+03  0.96200690777E+02 0.  0.
         11    1    3    3    0    0  0.18804936063E+03  0.16336724797E+03 -0.22217231499E+02  0.25009003403E+03  0.00000000000E+00 0. -1.
        -11    1    3    3    0    0  0.15027284989E+03  0.58017090889E+02  0.39593066785E+02  0.16587803708E+03  0.00000000000E+00 0.  1.
         22    1    1    2    0    0 -0.33832221053E+03 -0.22138433886E+03  0.43322390947E+03  0.59258408632E+03  0.00000000000E+00 0.  1.
<mgrwt>
<rscale>  0 0.90229559E+03</rscale>
<asrwt>0</asrwt>
<pdfrwt beam="1">  1        1 0.11224245E+00 0.90229559E+03</pdfrwt>
<pdfrwt beam="2">  1       -1 0.42919417E-01 0.90229559E+03</pdfrwt>
<totfact> 0.13769748E+02</totfact>
</mgrwt>
</event>
<event>
 6    1  0.3017327E-006  0.1186010E+04  0.7818608E-02  0.9125191E-01
          2   -1    0    0  501    0  0.00000000000E+00  0.00000000000E+00  0.33162096635E+03  0.33162096635E+03  0.00000000000E+00 0. -1.
         -2   -1    0    0    0  501 -0.00000000000E+00 -0.00000000000E+00 -0.10604115314E+04  0.10604115314E+04  0.00000000000E+00 0.  1.
         23    2    1    2    0    0 -0.26849511033E+03  0.49511626294E+03 -0.56931213213E+03  0.80665816564E+03  0.96702400785E+02 0.  0.
         13    1    3    3    0    0 -0.14756306222E+03  0.28764601818E+03 -0.39219787108E+03  0.50826593353E+03  0.00000000000E+00 0.  1.
        -13    1    3    3    0    0 -0.12093204811E+03  0.20747024476E+03 -0.17711426104E+03  0.29839223211E+03  0.00000000000E+00 0. -1.
         22    1    1    2    0    0  0.26849511033E+03 -0.49511626294E+03 -0.15947843288E+03  0.58537433207E+03  0.00000000000E+00 0. -1.
<mgrwt>
<rscale>  0 0.11860096E+04</rscale>
<asrwt>0</asrwt>
<pdfrwt beam="1">  1        2 0.51018610E-01 0.11860096E+04</pdfrwt>
<pdfrwt beam="2">  1       -2 0.16314024E+00 0.11860096E+04</pdfrwt>
<totfact> 0.23128702E+01</totfact>
</mgrwt>
</event>
<event>
 6    1  0.3017327E-006  0.3639002E+04  0.7818608E-02  0.8081616E-01
          2   -1    0    0  501    0  0.00000000000E+00  0.00000000000E+00  0.28311316194E+04  0.28311316194E+04  0.00000000000E+00 0. -1.
         -2   -1    0    0    0  501 -0.00000000000E+00 -0.00000000000E+00 -0.11693498877E+04  0.11693498877E+04  0.00000000000E+00 0.  1.
         23    2    1    2    0    0  0.16024871760E+04 -0.83715665936E+03  0.10441547596E+04  0.20899162771E+04  0.93244096972E+02 0.  0.
         11    1    3    3    0    0  0.50045212999E+03 -0.30999535820E+03  0.34813398793E+03  0.68392011965E+03  0.00000000000E+00 0. -1.
        -11    1    3    3    0    0  0.11020350460E+04 -0.52716130117E+03  0.69602077168E+03  0.14059961574E+04  0.00000000000E+00 0.  1.
         22    1    1    2    0    0 -0.16024871760E+04  0.83715665936E+03  0.61762697206E+03  0.19105652300E+04  0.00000000000E+00 0.  1.
<mgrwt>
<rscale>  0 0.36390018E+04</rscale>
<asrwt>0</asrwt>
<pdfrwt beam="1">  1        2 0.43555871E+00 0.36390018E+04</pdfrwt>
<pdfrwt beam="2">  1       -2 0.17989998E+00 0.36390018E+04</pdfrwt>
<totfact> 0.32653193E-01</totfact>
</mgrwt>
</event>
<event>
 6    1  0.3017327E-006  0.4619735E+04  0.7818608E-02  0.7890004E-01
         -2   -1    0    0    0  501 -0.00000000000E+00  0.00000000000E+00  0.15281859057E+04  0.15281859057E+04  0.00000000000E+00 0. -1.
          2   -1    0    0  501    0  0.00000000000E+00 -0.00000000000E+00 -0.34913859071E+04  0.34913859071E+04  0.00000000000E+00 0.  1.
         23    2    1    2    0    0 -0.21078000998E+04  0.64379305119E+03 -0.17300780755E+04  0.28033505726E+04  0.91178571857E+02 0.  0.
         11    1    3    3    0    0 -0.19925410785E+04  0.58927354535E+03 -0.16163958410E+04  0.26325270702E+04  0.00000000000E+00 0. -1.
        -11    1    3    3    0    0 -0.11525902131E+03  0.54519505839E+02 -0.11368223457E+03  0.17082350238E+03  0.00000000000E+00 0.  1.
         22    1    1    2    0    0  0.21078000998E+04 -0.64379305119E+03 -0.23312192592E+03  0.22162212403E+04  0.00000000000E+00 0. -1.
<mgrwt>
<rscale>  0 0.46197345E+04</rscale>
<asrwt>0</asrwt>
<pdfrwt beam="1">  1        2 0.53713630E+00 0.46197345E+04</pdfrwt>
<pdfrwt beam="2">  1       -2 0.23510552E+00 0.46197345E+04</pdfrwt>
<totfact> 0.49052712E-02</totfact>
</mgrwt>
</event>
<event>
 6    1  0.3017327E-006  0.1457096E+04  0.7818608E-02  0.8913496E-01
         -2   -1    0    0    0  501 -0.00000000000E+00  0.00000000000E+00  0.13127045273E+03  0.13127045273E+03  0.00000000000E+00 0.  1.
          2   -1    0    0  501    0  0.00000000000E+00 -0.00000000000E+00 -0.40434237110E+04  0.40434237110E+04  0.00000000000E+00 0. -1.
         23    2    1    2    0    0  0.45632511254E+03 -0.53725652490E+03 -0.14658268022E+04  0.16288366831E+04  0.87083548170E+02 0.  0.
         13    1    3    3    0    0  0.33372770451E+03 -0.32929457604E+03 -0.97101512448E+03  0.10782761569E+04  0.00000000000E+00 0.  1.
        -13    1    3    3    0    0  0.12259740802E+03 -0.20796194887E+03 -0.49481167771E+03  0.55056052622E+03  0.00000000000E+00 0. -1.
         22    1    1    2    0    0 -0.45632511254E+03  0.53725652490E+03 -0.24463264561E+04  0.25458574806E+04  0.00000000000E+00 0. -1.
<mgrwt>
<rscale>  0 0.14570958E+04</rscale>
<asrwt>0</asrwt>
<pdfrwt beam="1">  1        2 0.62206508E+00 0.14570958E+04</pdfrwt>
<pdfrwt beam="2">  1       -2 0.20195458E-01 0.14570958E+04</pdfrwt>
<totfact> 0.65948508E+00</totfact>
</mgrwt>
</event>
<event>
 6    1  0.3017327E-006  0.4710028E+04  0.7818608E-02  0.7874865E-01
         -1   -1    0    0    0  501 -0.00000000000E+00  0.00000000000E+00  0.24445807232E+04  0.24445807232E+04  0.00000000000E+00 0.  1.
          1   -1    0    0  501    0  0.00000000000E+00 -0.00000000000E+00 -0.22687284513E+04  0.22687284513E+04  0.00000000000E+00 0. -1.
         23    2    1    2    0    0  0.18343806895E+04 -0.11037758499E+04 -0.89189754056E+03  0.23209539954E+04  0.89847565623E+02 0.  0.
         11    1    3    3    0    0  0.31715557155E+03 -0.15487683789E+03 -0.16071845358E+03  0.38782072250E+03  0.00000000000E+00 0. -1.
        -11    1    3    3    0    0  0.15172251179E+04 -0.94889901202E+03 -0.73117908698E+03  0.19331332729E+04  0.00000000000E+00 0.  1.
         22    1    1    2    0    0 -0.18343806895E+04  0.11037758499E+04  0.10677498124E+04  0.23923551791E+04  0.00000000000E+00 0. -1.
<mgrwt>
<rscale>  0 0.47100275E+04</rscale>
<asrwt>0</asrwt>
<pdfrwt beam="1">  1        1 0.34903515E+00 0.47100275E+04</pdfrwt>
<pdfrwt beam="2">  1       -1 0.37608934E+00 0.47100275E+04</pdfrwt>
<totfact> 0.15018751E-02</totfact>
</mgrwt>
</event>
<event>
 6    1  0.3017327E-006  0.2862062E+04  0.7818608E-02  0.8284255E-01
         -2   -1    0    0    0  501 -0.00000000000E+00  0.00000000000E+00  0.30514879554E+04  0.30514879554E+04  0.00000000000E+00 0.  1.
          2   -1    0    0  501    0  0.00000000000E+00 -0.00000000000E+00 -0.67109889799E+03  0.67109889799E+03  0.00000000000E+00 0. -1.
         23    2    1    2    0    0  0.11389865891E+04 -0.83878155568E+03  0.92177443064E+03  0.16907400142E+04  0.89937458179E+02 0.  0.
         13    1    3    3    0    0  0.46842478830E+03 -0.30099562121E+03  0.33147816891E+03  0.64799531075E+03  0.00000000000E+00 0. -1.
        -13    1    3    3    0    0  0.67056180083E+03 -0.53778593447E+03  0.59029626173E+03  0.10427447035E+04  0.00000000000E+00 0.  1.
         22    1    1    2    0    0 -0.11389865891E+04  0.83878155568E+03  0.14586146268E+04  0.20318468392E+04  0.00000000000E+00 0. -1.
<mgrwt>
<rscale>  0 0.28620623E+04</rscale>
<asrwt>0</asrwt>
<pdfrwt beam="1">  1        2 0.10324599E+00 0.28620623E+04</pdfrwt>
<pdfrwt beam="2">  1       -2 0.46945968E+00 0.28620623E+04</pdfrwt>
<totfact> 0.96497980E-02</totfact>
</mgrwt>
</event>
<event>
 6    1  0.3017327E-006  0.1295985E+04  0.7818608E-02  0.9032755E-01
         -2   -1    0    0    0  501 -0.00000000000E+00  0.00000000000E+00  0.24116180219E+03  0.24116180219E+03  0.00000000000E+00 0.  1.
          2   -1    0    0  501    0  0.00000000000E+00 -0.00000000000E+00 -0.17411305997E+04  0.17411305997E+04  0.00000000000E+00 0. -1.
         23    2    1    2    0    0 -0.12816807071E+03 -0.53720693646E+03 -0.25099330142E+03  0.61665770083E+03  0.11068304162E+03 0.  0.
         11    1    3    3    0    0 -0.30446148596E+02 -0.18555432165E+03 -0.14238706264E+03  0.23586320156E+03  0.00000000000E+00 0. -1.
        -11    1    3    3    0    0 -0.97721922116E+02 -0.35165261481E+03 -0.10860623879E+03  0.38079449927E+03  0.00000000000E+00 0.  1.
         22    1    1    2    0    0  0.12816807071E+03  0.53720693646E+03 -0.12489754961E+04  0.13656347011E+04  0.00000000000E+00 0.  1.
<mgrwt>
<rscale>  0 0.12959849E+04</rscale>
<asrwt>0</asrwt>
<pdfrwt beam="1">  1        2 0.26786626E+00 0.12959849E+04</pdfrwt>
<pdfrwt beam="2">  1       -2 0.37101813E-01 0.12959849E+04</pdfrwt>
<totfact> 0.62454159E+01</totfact>
</mgrwt>
</event>
<event>
 6    1  0.3017327E-006  0.1463176E+04  0.7818608E-02  0.8909316E-01
          2   -1    0    0  501    0  0.00000000000E+00  0.00000000000E+00  0.10884509297E+04  0.10884509297E+04  0.00000000000E+00 0. -1.
         -2   -1    0    0    0  501 -0.00000000000E+00 -0.00000000000E+00 -0.49172756584E+03  0.49172756584E+03  0.00000000000E+00 0.  1.
         23    2    1    2    0    0 -0.70169408712E+02 -0.47421943118E+03 -0.29248997363E+03  0.56997644922E+03  0.97544621386E+02 0.  0.
         13    1    3    3    0    0 -0.74165244153E+02 -0.20162675103E+03 -0.10511719464E+03  0.23917243734E+03  0.00000000000E+00 0. -1.
        -13    1    3    3    0    0  0.39958354411E+01 -0.27259268015E+03 -0.18737277899E+03  0.33080401188E+03  0.00000000000E+00 0.  1.
         22    1    1    2    0    0  0.70169408712E+02  0.47421943118E+03  0.88921333748E+03  0.10102020463E+04  0.00000000000E+00 0. -1.
<mgrwt>
<rscale>  0 0.14631764E+04</rscale>
<asrwt>0</asrwt>
<pdfrwt beam="1">  1        2 0.16745399E+00 0.14631764E+04</pdfrwt>
<pdfrwt beam="2">  1       -2 0.75650395E-01 0.14631764E+04</pdfrwt>
<totfact> 0.33619278E+01</totfact>
</mgrwt>
</event>
<event>
 6    1  0.3017327E-006  0.3240896E+04  0.7818608E-02  0.8178099E-01
          2   -1    0    0  501    0  0.00000000000E+00  0.00000000000E+00  0.32658053307E+04  0.32658053307E+04  0.00000000000E+00 0. -1.
         -2   -1    0    0    0  501 -0.00000000000E+00 -0.00000000000E+00 -0.80404402257E+03  0.80404402257E+03  0.00000000000E+00 0.  1.
         23    2    1    2    0    0  0.17608654175E+03 -0.15008683473E+04  0.19619648955E+04  0.24781808199E+04  0.91987276289E+02 0.  0.
         11    1    3    3    0    0  0.53352897057E+01 -0.33062786797E+03  0.39902261038E+03  0.51822996439E+03  0.00000000000E+00 0. -1.
        -11    1    3    3    0    0  0.17075125205E+03 -0.11702404793E+04  0.15629422851E+04  0.19599508555E+04  0.00000000000E+00 0.  1.
         22    1    1    2    0    0 -0.17608654175E+03  0.15008683473E+04  0.49979641266E+03  0.15916685334E+04  0.00000000000E+00 0.  1.
<mgrwt>
<rscale>  0 0.32408957E+04</rscale>
<asrwt>0</asrwt>
<pdfrwt beam="1">  1        2 0.50243158E+00 0.32408957E+04</pdfrwt>
<pdfrwt beam="2">  1       -2 0.12369908E+00 0.32408957E+04</pdfrwt>
<totfact> 0.48435625E-01</totfact>
</mgrwt>
</event>
<event>
 6    1  0.3017327E-006  0.1735110E+04  0.7818608E-02  0.8741589E-01
          2   -1    0    0  501    0  0.00000000000E+00  0.00000000000E+00  0.13925573568E+04  0.13925573568E+04  0.00000000000E+00 0. -1.
         -2   -1    0    0    0  501 -0.00000000000E+00 -0.00000000000E+00 -0.54048186582E+03  0.54048186582E+03  0.00000000000E+00 0.  1.
         23    2    1    2    0    0  0.41276857893E+03  0.52358506647E+03 -0.18691040706E+03  0.69853085169E+03  0.92144608680E+02 0.  0.
         11    1    3    3    0    0  0.14022043459E+03  0.25127305893E+03 -0.76341933504E+02  0.29770457039E+03  0.00000000000E+00 0. -1.
        -11    1    3    3    0    0  0.27254814433E+03  0.27231200754E+03 -0.11056847355E+03  0.40082628129E+03  0.00000000000E+00 0.  1.
         22    1    1    2    0    0 -0.41276857893E+03 -0.52358506647E+03  0.10389858981E+04  0.12345083710E+04  0.00000000000E+00 0. -1.
<mgrwt>
<rscale>  0 0.17351104E+04</rscale>
<asrwt>0</asrwt>
<pdfrwt beam="1">  1        2 0.21423959E+00 0.17351104E+04</pdfrwt>
<pdfrwt beam="2">  1       -2 0.83151057E-01 0.17351104E+04</pdfrwt>
<totfact> 0.17566516E+01</totfact>
</mgrwt>
</event>
<event>
 6    1  0.3017327E-006  0.2403091E+04  0.7818608E-02  0.8438347E-01
          1   -1    0    0  501    0  0.00000000000E+00  0.00000000000E+00  0.18385895560E+04  0.18385895560E+04  0.00000000000E+00 0. -1.
         -1   -1    0    0    0  501 -0.00000000000E+00 -0.00000000000E+00 -0.78522766010E+03  0.78522766010E+03  0.00000000000E+00 0.  1.
         23    2    1    2    0    0 -0.18419655855E+03 -0.78813289499E+02  0.18191440843E+04  0.18322603534E+04  0.88050531967E+02 0.  0.
         13    1    3    3    0    0 -0.44911342178E+02 -0.10537448990E+02  0.80509849851E+03  0.80641903424E+03  0.00000000000E+00 0.  1.
        -13    1    3    3    0    0 -0.13928521637E+03 -0.68275840509E+02  0.10140455858E+04  0.10258413191E+04  0.00000000000E+00 0. -1.
         22    1    1    2    0    0  0.18419655855E+03  0.78813289499E+02 -0.76578218845E+03  0.79155686272E+03  0.00000000000E+00 0.  1.
<mgrwt>
<rscale>  0 0.24030908E+04</rscale>
<asrwt>0</asrwt>
<pdfrwt beam="1">  1        1 0.28285993E+00 0.24030908E+04</pdfrwt>
<pdfrwt beam="2">  1       -1 0.12080426E+00 0.24030908E+04</pdfrwt>
<totfact> 0.20922544E+00</totfact>
</mgrwt>
</event>
<event>
 6    1  0.3153711E-006  0.3243432E+04  0.7818608E-02  0.8177440E-01
         -2   -1    0    0    0  501 -0.00000000000E+00  0.00000000000E+00  0.12750215102E+04  0.12750215102E+04  0.00000000000E+00 0.  1.
          2   -1    0    0  501    0  0.00000000000E+00 -0.00000000000E+00 -0.20626814058E+04  0.20626814058E+04  0.00000000000E+00 0. -1.
         23    2    1    2    0    0 -0.67519618251E+02 -0.13288674388E+04  0.55778943227E+03  0.14454340497E+04  0.87766578995E+02 0.  0.
         11    1    3    3    0    0  0.26422418362E+01 -0.67950567070E+03  0.25905255926E+03  0.72721603834E+03  0.00000000000E+00 0.  1.
        -11    1    3    3    0    0 -0.70161860087E+02 -0.64936176811E+03  0.29873687301E+03  0.71821801133E+03  0.00000000000E+00 0. -1.
         22    1    1    2    0    0  0.67519618251E+02  0.13288674388E+04 -0.13454493278E+04  0.18922688663E+04  0.00000000000E+00 0. -1.
<mgrwt>
<rscale>  0 0.32434322E+04</rscale>
<asrwt>0</asrwt>
<pdfrwt beam="1">  1        2 0.31733560E+00 0.32434322E+04</pdfrwt>
<pdfrwt beam="2">  1       -2 0.19615716E+00 0.32434322E+04</pdfrwt>
<totfact> 0.72939244E-01</totfact>
</mgrwt>
</event>
<event>
 6    1  0.3017327E-006  0.1986641E+04  0.7818608E-02  0.8612892E-01
          2   -1    0    0  501    0  0.00000000000E+00  0.00000000000E+00  0.25546484694E+04  0.25546484694E+04  0.00000000000E+00 0. -1.
         -2   -1    0    0    0  501 -0.00000000000E+00 -0.00000000000E+00 -0.38623148905E+03  0.38623148905E+03  0.00000000000E+00 0.  1.
         23    2    1    2    0    0 -0.30326670586E+02  0.63749465763E+03  0.22092414955E+04  0.23013599927E+04  0.90502404780E+02 0.  0.
         11    1    3    3    0    0  0.22378627644E+02  0.38409743544E+03  0.13838839652E+04  0.14363726787E+04  0.00000000000E+00 0. -1.
        -11    1    3    3    0    0 -0.52705298230E+02  0.25339722219E+03  0.82535753030E+03  0.86498731406E+03  0.00000000000E+00 0.  1.
         22    1    1    2    0    0  0.30326670586E+02 -0.63749465763E+03 -0.40824515186E+02  0.63951996568E+03  0.00000000000E+00 0.  1.
<mgrwt>
<rscale>  0 0.19866411E+04</rscale>
<asrwt>0</asrwt>
<pdfrwt beam="1">  1        2 0.39302283E+00 0.19866411E+04</pdfrwt>
<pdfrwt beam="2">  1       -2 0.59420230E-01 0.19866411E+04</pdfrwt>
<totfact> 0.79606198E+00</totfact>
</mgrwt>
</event>
<event>
 6    1  0.3017327E-006  0.3016672E+04  0.7818608E-02  0.8238986E-01
          2   -1    0    0  501    0  0.00000000000E+00  0.00000000000E+00  0.36145695479E+04  0.36145695479E+04  0.00000000000E+00 0. -1.
         -2   -1    0    0    0  501 -0.00000000000E+00 -0.00000000000E+00 -0.62941858286E+03  0.62941858286E+03  0.00000000000E+00 0.  1.
         23    2    1    2    0    0 -0.66657448955E+03  0.13514755470E+04  0.14921406457E+04  0.21226942997E+04  0.92410384756E+02 0.  0.
         13    1    3    3    0    0 -0.21661144461E+03  0.51574362075E+03  0.51272983681E+03  0.75881742589E+03  0.00000000000E+00 0.  1.
        -13    1    3    3    0    0 -0.44996304494E+03  0.83573192621E+03  0.97941080885E+03  0.13638768738E+04  0.00000000000E+00 0. -1.
         22    1    1    2    0    0  0.66657448955E+03 -0.13514755470E+04  0.14930103194E+04  0.21212938311E+04  0.00000000000E+00 0. -1.
<mgrwt>
<rscale>  0 0.30166718E+04</rscale>
<asrwt>0</asrwt>
<pdfrwt beam="1">  1        2 0.55608761E+00 0.30166718E+04</pdfrwt>
<pdfrwt beam="2">  1       -2 0.96833630E-01 0.30166718E+04</pdfrwt>
<totfact> 0.51295187E-01</totfact>
</mgrwt>
</event>
<event>
 6    1  0.3017327E-006  0.2635939E+04  0.7818608E-02  0.8356095E-01
         -2   -1    0    0    0  501 -0.00000000000E+00  0.00000000000E+00  0.11430873116E+04  0.11430873116E+04  0.00000000000E+00 0.  1.
          2   -1    0    0  501    0  0.00000000000E+00 -0.00000000000E+00 -0.15196072862E+04  0.15196072862E+04  0.00000000000E+00 0. -1.
         23    2    1    2    0    0  0.10849096687E+04  0.37713087977E+03  0.46123960815E+03  0.12410414023E+04  0.90471521732E+02 0.  0.
         13    1    3    3    0    0  0.39670346918E+03  0.10890796093E+03  0.20146074080E+03  0.45806224085E+03  0.00000000000E+00 0.  1.
        -13    1    3    3    0    0  0.68820619956E+03  0.26822291884E+03  0.25977886735E+03  0.78297916143E+03  0.00000000000E+00 0. -1.
         22    1    1    2    0    0 -0.10849096687E+04 -0.37713087977E+03 -0.83775958273E+03  0.14216531955E+04  0.00000000000E+00 0. -1.
<mgrwt>
<rscale>  0 0.26359392E+04</rscale>
<asrwt>0</asrwt>
<pdfrwt beam="1">  1        2 0.23378574E+00 0.26359392E+04</pdfrwt>
<pdfrwt beam="2">  1       -2 0.17585959E+00 0.26359392E+04</pdfrwt>
<totfact> 0.21149977E+00</totfact>
</mgrwt>
</event>
<event>
 6    1  0.3017327E-006  0.3069738E+04  0.7818608E-02  0.8224093E-01
         -2   -1    0    0    0  501 -0.00000000000E+00  0.00000000000E+00  0.10660156810E+04  0.10660156810E+04  0.00000000000E+00 0. -1.
          2   -1    0    0  501    0  0.00000000000E+00 -0.00000000000E+00 -0.22099322197E+04  0.22099322197E+04  0.00000000000E+00 0.  1.
         23    2    1    2    0    0  0.30627735908E+02  0.60988095417E+03 -0.20736458240E+04  0.21636127981E+04  0.91216777837E+02 0.  0.
         13    1    3    3    0    0  0.51322860953E+02  0.44137658792E+03 -0.13953461582E+04  0.14643900538E+04  0.00000000000E+00 0. -1.
        -13    1    3    3    0    0 -0.20695125046E+02  0.16850436625E+03 -0.67829966577E+03  0.69922274436E+03  0.00000000000E+00 0.  1.
         22    1    1    2    0    0 -0.30627735908E+02 -0.60988095417E+03  0.92972928526E+03  0.11123351025E+04  0.00000000000E+00 0. -1.
<mgrwt>
<rscale>  0 0.30697377E+04</rscale>
<asrwt>0</asrwt>
<pdfrwt beam="1">  1        2 0.33998957E+00 0.30697377E+04</pdfrwt>
<pdfrwt beam="2">  1       -2 0.16400241E+00 0.30697377E+04</pdfrwt>
<totfact> 0.10214142E+00</totfact>
</mgrwt>
</event>
<event>
 6    1  0.3017327E-006  0.1376287E+04  0.7818608E-02  0.8971164E-01
         -2   -1    0    0    0  501 -0.00000000000E+00  0.00000000000E+00  0.38492365728E+03  0.38492365728E+03  0.00000000000E+00 0.  1.
          2   -1    0    0  501    0  0.00000000000E+00 -0.00000000000E+00 -0.12302225168E+04  0.12302225168E+04  0.00000000000E+00 0. -1.
         23    2    1    2    0    0 -0.44376059896E+03 -0.47526970729E+03 -0.67776109753E+03  0.94367490477E+03  0.91419126592E+02 0.  0.
         13    1    3    3    0    0 -0.17871169401E+03 -0.20576943328E+03 -0.34824908934E+03  0.44221754542E+03  0.00000000000E+00 0. -1.
        -13    1    3    3    0    0 -0.26504890495E+03 -0.26950027400E+03 -0.32951200819E+03  0.50145735935E+03  0.00000000000E+00 0.  1.
         22    1    1    2    0    0  0.44376059896E+03  0.47526970729E+03 -0.16753776202E+03  0.67147126935E+03  0.00000000000E+00 0.  1.
<mgrwt>
<rscale>  0 0.13762874E+04</rscale>
<asrwt>0</asrwt>
<pdfrwt beam="1">  1        2 0.18926500E+00 0.13762874E+04</pdfrwt>
<pdfrwt beam="2">  1       -2 0.59219024E-01 0.13762874E+04</pdfrwt>
<totfact> 0.47170770E+01</totfact>
</mgrwt>
</event>
<event>
 6    1  0.3017327E-006  0.2133334E+04  0.7818608E-02  0.8546700E-01
          2   -1    0    0  501    0  0.00000000000E+00  0.00000000000E+00  0.84019420127E+03  0.84019420127E+03  0.00000000000E+00 0. -1.
         -2   -1    0    0    0  501 -0.00000000000E+00 -0.00000000000E+00 -0.13541857562E+04  0.13541857562E+04  0.00000000000E+00 0.  1.
         23    2    1    2    0    0  0.98312545741E+02 -0.73107901120E+03  0.53218540762E+03  0.91429085345E+03  0.92545012537E+02 0.  0.
         11    1    3    3    0    0  0.59252457534E+02 -0.42277915722E+03  0.36347283569E+03  0.56068312957E+03  0.00000000000E+00 0. -1.
        -11    1    3    3    0    0  0.39060088207E+02 -0.30829985398E+03  0.16871257192E+03  0.35360772387E+03  0.00000000000E+00 0.  1.
         22    1    1    2    0    0 -0.98312545741E+02  0.73107901120E+03 -0.10461769626E+04  0.12800891040E+04  0.00000000000E+00 0.  1.
<mgrwt>
<rscale>  0 0.21333345E+04</rscale>
<asrwt>0</asrwt>
<pdfrwt beam="1">  1        2 0.12926065E+00 0.21333345E+04</pdfrwt>
<pdfrwt beam="2">  1       -2 0.20833627E+00 0.21333345E+04</pdfrwt>
<totfact> 0.34768399E+00</totfact>
</mgrwt>
</event>
<event>
 6    1  0.3017327E-006  0.3815964E+04  0.7818608E-02  0.8042738E-01
          2   -1    0    0  501    0  0.00000000000E+00  0.00000000000E+00  0.23379575218E+04  0.23379575218E+04  0.00000000000E+00 0. -1.
         -2   -1    0    0    0  501 -0.00000000000E+00 -0.00000000000E+00 -0.15570834217E+04  0.15570834217E+04  0.00000000000E+00 0.  1.
         23    2    1    2    0    0  0.36042662284E+03  0.98365160798E+03 -0.12358032095E+04  0.16224949686E+04  0.88331841603E+02 0.  0.
         13    1    3    3    0    0  0.12907158531E+03  0.34011384424E+03 -0.36583351764E+03  0.51591769092E+03  0.00000000000E+00 0. -1.
        -13    1    3    3    0    0  0.23135503752E+03  0.64353776374E+03 -0.86996969190E+03  0.11065772777E+04  0.00000000000E+00 0.  1.
         22    1    1    2    0    0 -0.36042662284E+03 -0.98365160798E+03  0.20166773097E+04  0.22725459749E+04  0.00000000000E+00 0. -1.
<mgrwt>
<rscale>  0 0.38159638E+04</rscale>
<asrwt>0</asrwt>
<pdfrwt beam="1">  1        2 0.35968577E+00 0.38159638E+04</pdfrwt>
<pdfrwt beam="2">  1       -2 0.23955129E+00 0.38159638E+04</pdfrwt>
<totfact> 0.25753393E-01</totfact>
</mgrwt>
</event>
<event>
 6    1  0.3017327E-006  0.3072941E+04  0.7818608E-02  0.8223203E-01
         -2   -1    0    0    0  501 -0.00000000000E+00  0.00000000000E+00  0.61460799411E+03  0.61460799411E+03  0.00000000000E+00 0.  1.
          2   -1    0    0  501    0  0.00000000000E+00 -0.00000000000E+00 -0.38410530936E+04  0.38410530936E+04  0.00000000000E+00 0. -1.
         23    2    1    2    0    0  0.99695918284E+03  0.10626813908E+04 -0.91370651113E+03  0.17221689753E+04  0.88244209571E+02 0.  0.
         13    1    3    3    0    0  0.68434718961E+03  0.66817824030E+03 -0.59943727230E+03  0.11287684794E+04  0.00000000000E+00 0. -1.
        -13    1    3    3    0    0  0.31261199323E+03  0.39450315045E+03 -0.31426923882E+03  0.59340049587E+03  0.00000000000E+00 0.  1.
         22    1    1    2    0    0 -0.99695918284E+03 -0.10626813908E+04 -0.23127385884E+04  0.27334921124E+04  0.00000000000E+00 0. -1.
<mgrwt>
<rscale>  0 0.30729412E+04</rscale>
<asrwt>0</asrwt>
<pdfrwt beam="1">  1        2 0.59093125E+00 0.30729412E+04</pdfrwt>
<pdfrwt beam="2">  1       -2 0.94555075E-01 0.30729412E+04</pdfrwt>
<totfact> 0.36590797E-01</totfact>
</mgrwt>
</event>
<event>
 6    1  0.3017327E-006  0.1340489E+04  0.7818608E-02  0.8998059E-01
         -2   -1    0    0    0  501 -0.00000000000E+00  0.00000000000E+00  0.41111668007E+03  0.41111668007E+03  0.00000000000E+00 0.  1.
          2   -1    0    0  501    0  0.00000000000E+00 -0.00000000000E+00 -0.10927016612E+04  0.10927016612E+04  0.00000000000E+00 0. -1.
         23    2    1    2    0    0  0.41681318549E+03 -0.26242930806E+03  0.16276333785E+03  0.52630800522E+03  0.88914784377E+02 0.  0.
         11    1    3    3    0    0  0.17946974220E+03 -0.16551203427E+03  0.79865400130E+02  0.25686981915E+03  0.00000000000E+00 0. -1.
        -11    1    3    3    0    0  0.23734344330E+03 -0.96917273794E+02  0.82897937719E+02  0.26943818607E+03  0.00000000000E+00 0.  1.
         22    1    1    2    0    0 -0.41681318549E+03  0.26242930806E+03 -0.84434831898E+03  0.97751033605E+03  0.00000000000E+00 0. -1.
<mgrwt>
<rscale>  0 0.13404893E+04</rscale>
<asrwt>0</asrwt>
<pdfrwt beam="1">  1        2 0.16810794E+00 0.13404893E+04</pdfrwt>
<pdfrwt beam="2">  1       -2 0.63248722E-01 0.13404893E+04</pdfrwt>
<totfact> 0.49815971E+01</totfact>
</mgrwt>
</event>
<event>
 6    1  0.3017327E-006  0.4187711E+04  0.7818608E-02  0.7967714E-01
          1   -1    0    0  501    0  0.00000000000E+00  0.00000000000E+00  0.31489854653E+04  0.31489854653E+04  0.00000000000E+00 0. -1.
         -1   -1    0    0    0  501 -0.00000000000E+00 -0.00000000000E+00 -0.13922675109E+04  0.13922675109E+04  0.00000000000E+00 0.  1.
         23    2    1    2    0    0  0.17447024979E+04  0.10415028240E+04  0.33511303451E+03  0.20613990517E+04  0.91380335855E+02 0.  0.
         13    1    3    3    0    0  0.38208833265E+03  0.18554631212E+03  0.63266348057E+02  0.42944331254E+03  0.00000000000E+00 0.  1.
        -13    1    3    3    0    0  0.13626141652E+04  0.85595651188E+03  0.27184668645E+03  0.16319557391E+04  0.00000000000E+00 0. -1.
         22    1    1    2    0    0 -0.17447024979E+04 -0.10415028240E+04  0.14216049199E+04  0.24798539245E+04  0.00000000000E+00 0. -1.
<mgrwt>
<rscale>  0 0.41877107E+04</rscale>
<asrwt>0</asrwt>
<pdfrwt beam="1">  1        1 0.48445930E+00 0.41877107E+04</pdfrwt>
<pdfrwt beam="2">  1       -1 0.21419500E+00 0.41877107E+04</pdfrwt>
<totfact> 0.43044684E-02</totfact>
</mgrwt>
</event>
<event>
 6    1  0.3017327E-006  0.5052682E+03  0.7818608E-02  0.1012413E+00
         -2   -1    0    0    0  501 -0.00000000000E+00  0.00000000000E+00  0.74723366708E+02  0.74723366708E+02  0.00000000000E+00 0.  1.
          2   -1    0    0  501    0  0.00000000000E+00 -0.00000000000E+00 -0.85413681860E+03  0.85413681860E+03  0.00000000000E+00 0. -1.
         23    2    1    2    0    0  0.33769078962E+02 -0.68077731445E+02 -0.82960916329E+03  0.83778583296E+03  0.88649928819E+02 0.  0.
         11    1    3    3    0    0 -0.11282918355E+01 -0.76936503501E+02 -0.65495012349E+03  0.65945444337E+03  0.00000000000E+00 0. -1.
        -11    1    3    3    0    0  0.34897370798E+02  0.88587720556E+01 -0.17465903980E+03  0.17833138959E+03  0.00000000000E+00 0.  1.
         22    1    1    2    0    0 -0.33769078962E+02  0.68077731445E+02  0.50195711399E+02  0.91074352348E+02  0.00000000000E+00 0.  1.
<mgrwt>
<rscale>  0 0.50526816E+03</rscale>
<asrwt>0</asrwt>
<pdfrwt beam="1">  1        2 0.13140566E+00 0.50526816E+03</pdfrwt>
<pdfrwt beam="2">  1       -2 0.11495903E-01 0.50526816E+03</pdfrwt>
<totfact> 0.17285865E+03</totfact>
</mgrwt>
</event>
<event>
 6    1  0.3017327E-006  0.2905047E+04  0.7818608E-02  0.8271378E-01
          2   -1    0    0  501    0  0.00000000000E+00  0.00000000000E+00  0.14170007948E+04  0.14170007948E+04  0.00000000000E+00 0. -1.
         -2   -1    0    0    0  501 -0.00000000000E+00 -0.00000000000E+00 -0.14889362959E+04  0.14889362959E+04  0.00000000000E+00 0.  1.
         23    2    1    2    0    0  0.50599784789E+03  0.37746616084E+03 -0.13429863888E+04  0.14867525066E+04  0.91137537659E+02 0.  0.
         13    1    3    3    0    0  0.18226792093E+03  0.84781591703E+02 -0.39995584690E+03  0.44763176022E+03  0.00000000000E+00 0.  1.
        -13    1    3    3    0    0  0.32372992696E+03  0.29268456914E+03 -0.94303054193E+03  0.10391207464E+04  0.00000000000E+00 0. -1.
         22    1    1    2    0    0 -0.50599784789E+03 -0.37746616084E+03  0.12710508877E+04  0.14191845841E+04  0.00000000000E+00 0. -1.
<mgrwt>
<rscale>  0 0.29050466E+04</rscale>
<asrwt>0</asrwt>
<pdfrwt beam="1">  1        2 0.21800012E+00 0.29050466E+04</pdfrwt>
<pdfrwt beam="2">  1       -2 0.22906712E+00 0.29050466E+04</pdfrwt>
<totfact> 0.10579068E+00</totfact>
</mgrwt>
</event>
<event>
 6    1  0.3017327E-006  0.2457145E+04  0.7818608E-02  0.8418414E-01
          2   -1    0    0  501    0  0.00000000000E+00  0.00000000000E+00  0.13486948739E+04  0.13486948739E+04  0.00000000000E+00 0. -1.
         -2   -1    0    0    0  501 -0.00000000000E+00 -0.00000000000E+00 -0.11191491858E+04  0.11191491858E+04  0.00000000000E+00 0.  1.
         23    2    1    2    0    0  0.11881805856E+04  0.97636921430E+02 -0.17626278953E+03  0.12084844633E+04  0.89777807609E+02 0.  0.
         13    1    3    3    0    0  0.11235692072E+04  0.77564890605E+02 -0.15126190477E+03  0.11363556835E+04  0.00000000000E+00 0.  1.
        -13    1    3    3    0    0  0.64611378402E+02  0.20072030825E+02 -0.25000884765E+02  0.72128779828E+02  0.00000000000E+00 0. -1.
         22    1    1    2    0    0 -0.11881805856E+04 -0.97636921430E+02  0.40580847764E+03  0.12593595963E+04  0.00000000000E+00 0. -1.
<mgrwt>
<rscale>  0 0.24571453E+04</rscale>
<asrwt>0</asrwt>
<pdfrwt beam="1">  1        2 0.20749152E+00 0.24571453E+04</pdfrwt>
<pdfrwt beam="2">  1       -2 0.17217680E+00 0.24571453E+04</pdfrwt>
<totfact> 0.28517332E+00</totfact>
</mgrwt>
</event>
<event>
 6    1  0.3017327E-006  0.2390986E+04  0.7818608E-02  0.8442886E-01
         -1   -1    0    0    0  501 -0.00000000000E+00  0.00000000000E+00  0.63711160964E+03  0.63711160964E+03  0.00000000000E+00 0.  1.
          1   -1    0    0  501    0  0.00000000000E+00 -0.00000000000E+00 -0.22432538886E+04  0.22432538886E+04  0.00000000000E+00 0. -1.
         23    2    1    2    0    0 -0.74181438979E+03  0.50499784441E+03 -0.17525911389E+04  0.19711027858E+04  0.91428006511E+02 0.  0.
         13    1    3    3    0    0 -0.49177080566E+03  0.38569302641E+03 -0.12187915223E+04  0.13696898958E+04  0.00000000000E+00 0.  1.
        -13    1    3    3    0    0 -0.25004358414E+03  0.11930481800E+03 -0.53379961656E+03  0.60141288996E+03  0.00000000000E+00 0. -1.
         22    1    1    2    0    0  0.74181438979E+03 -0.50499784441E+03  0.14644885987E+03  0.90926271249E+03  0.00000000000E+00 0.  1.
<mgrwt>
<rscale>  0 0.23909857E+04</rscale>
<asrwt>0</asrwt>
<pdfrwt beam="1">  1        1 0.34511598E+00 0.23909857E+04</pdfrwt>
<pdfrwt beam="2">  1       -1 0.98017171E-01 0.23909857E+04</pdfrwt>
<totfact> 0.18205939E+00</totfact>
</mgrwt>
</event>
<event>
 6    1  0.3017327E-006  0.1455908E+04  0.7818608E-02  0.8914315E-01
          2   -1    0    0  501    0  0.00000000000E+00  0.00000000000E+00  0.16502918530E+04  0.16502918530E+04  0.00000000000E+00 0. -1.
         -2   -1    0    0    0  501 -0.00000000000E+00 -0.00000000000E+00 -0.32110499413E+03  0.32110499413E+03  0.00000000000E+00 0.  1.
         23    2    1    2    0    0 -0.53333105209E+03 -0.31870016435E+03  0.16130280153E+03  0.64853442901E+03  0.92555420892E+02 0.  0.
         11    1    3    3    0    0 -0.51746699342E+03 -0.30392696786E+03  0.17211034678E+03  0.62431215152E+03  0.00000000000E+00 0.  1.
        -11    1    3    3    0    0 -0.15864058673E+02 -0.14773196494E+02 -0.10807545243E+02  0.24222277482E+02  0.00000000000E+00 0. -1.
         22    1    1    2    0    0  0.53333105209E+03  0.31870016435E+03  0.11678840574E+04  0.13228624181E+04  0.00000000000E+00 0. -1.
<mgrwt>
<rscale>  0 0.14559079E+04</rscale>
<asrwt>0</asrwt>
<pdfrwt beam="1">  1        2 0.25389105E+00 0.14559079E+04</pdfrwt>
<pdfrwt beam="2">  1       -2 0.49400769E-01 0.14559079E+04</pdfrwt>
<totfact> 0.39293320E+01</totfact>
</mgrwt>
</event>
<event>
 6    1  0.3017327E-006  0.1311098E+04  0.7818608E-02  0.9020810E-01
          2   -1    0    0  501    0  0.00000000000E+00  0.00000000000E+00  0.99217256850E+03  0.99217256850E+03  0.00000000000E+00 0. -1.
         -2   -1    0    0    0  501 -0.00000000000E+00 -0.00000000000E+00 -0.43313502288E+03  0.43313502288E+03  0.00000000000E+00 0.  1.
         23    2    1    2    0    0 -0.35152872033E+03  0.20745960733E+03 -0.27237479766E+03  0.49910112710E+03  0.91115173173E+02 0.  0.
         13    1    3    3    0    0 -0.16922150130E+03  0.94938496559E+02 -0.75698935669E+02  0.20827761160E+03  0.00000000000E+00 0. -1.
        -13    1    3    3    0    0 -0.18230721903E+03  0.11252111077E+03 -0.19667586200E+03  0.29082351551E+03  0.00000000000E+00 0.  1.
         22    1    1    2    0    0  0.35152872033E+03 -0.20745960733E+03  0.83141234329E+03  0.92620646428E+03  0.00000000000E+00 0. -1.
<mgrwt>
<rscale>  0 0.13110983E+04</rscale>
<asrwt>0</asrwt>
<pdfrwt beam="1">  1        2 0.15264193E+00 0.13110983E+04</pdfrwt>
<pdfrwt beam="2">  1       -2 0.66636158E-01 0.13110983E+04</pdfrwt>
<totfact> 0.51653450E+01</totfact>
</mgrwt>
</event>
<event>
 6    1  0.3017327E-006  0.1392666E+04  0.7818608E-02  0.8959144E-01
         -2   -1    0    0    0  501 -0.00000000000E+00  0.00000000000E+00  0.53920108697E+03  0.53920108697E+03  0.00000000000E+00 0.  1.
          2   -1    0    0  501    0  0.00000000000E+00 -0.00000000000E+00 -0.89925630233E+03  0.89925630233E+03  0.00000000000E+00 0. -1.
         23    2    1    2    0    0  0.34866703787E+02  0.49871575216E+03 -0.67697365813E+03  0.84653645889E+03  0.91638168587E+02 0.  0.
         13    1    3    3    0    0 -0.29591049754E+02  0.22617614756E+03 -0.31226370652E+03  0.38670389493E+03  0.00000000000E+00 0. -1.
        -13    1    3    3    0    0  0.64457753540E+02  0.27253960461E+03 -0.36470995162E+03  0.45983256396E+03  0.00000000000E+00 0.  1.
         22    1    1    2    0    0 -0.34866703787E+02 -0.49871575216E+03  0.31691844277E+03  0.59192093041E+03  0.00000000000E+00 0.  1.
<mgrwt>
<rscale>  0 0.13926665E+04</rscale>
<asrwt>0</asrwt>
<pdfrwt beam="1">  1        2 0.13834712E+00 0.13926665E+04</pdfrwt>
<pdfrwt beam="2">  1       -2 0.82954014E-01 0.13926665E+04</pdfrwt>
<totfact> 0.36418285E+01</totfact>
</mgrwt>
</event>
<event>
 6    1  0.3017327E-006  0.1116092E+04  0.7818608E-02  0.9189648E-01
         -2   -1    0    0    0  501 -0.00000000000E+00  0.00000000000E+00  0.28679731101E+03  0.28679731101E+03  0.00000000000E+00 0.  1.
          2   -1    0    0  501    0  0.00000000000E+00 -0.00000000000E+00 -0.10858375919E+04  0.10858375919E+04  0.00000000000E+00 0. -1.
         23    2    1    2    0    0 -0.29095476543E+03  0.15348404586E+03  0.14609092603E+03  0.37189266529E+03  0.93539125342E+02 0.  0.
         13    1    3    3    0    0 -0.29412873011E+03  0.15121556869E+03  0.13003367779E+03  0.35536828144E+03  0.00000000000E+00 0. -1.
        -13    1    3    3    0    0  0.31739646877E+01  0.22684771636E+01  0.16057248242E+02  0.16524383849E+02  0.00000000000E+00 0.  1.
         22    1    1    2    0    0  0.29095476543E+03 -0.15348404586E+03 -0.94513120688E+03  0.10007422376E+04  0.00000000000E+00 0. -1.
<mgrwt>
<rscale>  0 0.11160919E+04</rscale>
<asrwt>0</asrwt>
<pdfrwt beam="1">  1        2 0.16705193E+00 0.11160919E+04</pdfrwt>
<pdfrwt beam="2">  1       -2 0.44122664E-01 0.11160919E+04</pdfrwt>
<totfact> 0.10735784E+02</totfact>
</mgrwt>
</event>
<event>
 6    1  0.3094446E-006  0.3172386E+04  0.7818608E-02  0.8196148E-01
         -2   -1    0    0    0  501 -0.00000000000E+00  0.00000000000E+00  0.12950786074E+04  0.12950786074E+04  0.00000000000E+00 0.  1.
          2   -1    0    0  501    0  0.00000000000E+00 -0.00000000000E+00 -0.19427451927E+04  0.19427451927E+04  0.00000000000E+00 0. -1.
         23    2    1    2    0    0  0.65004183389E+03 -0.92540807852E+03 -0.14572630853E+04  0.18470035420E+04  0.94190694044E+02 0.  0.
         13    1    3    3    0    0  0.10666490075E+03 -0.21744884533E+03 -0.32411986222E+03  0.40461720981E+03  0.00000000000E+00 0.  1.
        -13    1    3    3    0    0  0.54337693314E+03 -0.70795923319E+03 -0.11331432231E+04  0.14423863322E+04  0.00000000000E+00 0. -1.
         22    1    1    2    0    0 -0.65004183389E+03  0.92540807852E+03  0.80959650001E+03  0.13908202581E+04  0.00000000000E+00 0.  1.
<mgrwt>
<rscale>  0 0.31723857E+04</rscale>
<asrwt>0</asrwt>
<pdfrwt beam="1">  1        2 0.29888387E+00 0.31723857E+04</pdfrwt>
<pdfrwt beam="2">  1       -2 0.19924286E+00 0.31723857E+04</pdfrwt>
<totfact> 0.81638917E-01</totfact>
</mgrwt>
</event>
<event>
 6    1  0.3017327E-006  0.1824705E+04  0.7818608E-02  0.8693271E-01
          2   -1    0    0  501    0  0.00000000000E+00  0.00000000000E+00  0.31960733009E+04  0.31960733009E+04  0.00000000000E+00 0. -1.
         -2   -1    0    0    0  501 -0.00000000000E+00 -0.00000000000E+00 -0.26044040799E+03  0.26044040799E+03  0.00000000000E+00 0.  1.
         23    2    1    2    0    0 -0.88619279182E+02 -0.34922283728E+03  0.30545898203E+04  0.30770921527E+04  0.90372447031E+02 0.  0.
         11    1    3    3    0    0 -0.83646311902E+02 -0.14672039331E+03  0.13890041645E+04  0.13992341292E+04  0.00000000000E+00 0. -1.
        -11    1    3    3    0    0 -0.49729672801E+01 -0.20250244397E+03  0.16655856558E+04  0.16778580235E+04  0.00000000000E+00 0.  1.
         22    1    1    2    0    0  0.88619279182E+02  0.34922283728E+03 -0.11895692740E+03  0.37942155619E+03  0.00000000000E+00 0.  1.
<mgrwt>
<rscale>  0 0.18247045E+04</rscale>
<asrwt>0</asrwt>
<pdfrwt beam="1">  1        2 0.49170356E+00 0.18247045E+04</pdfrwt>
<pdfrwt beam="2">  1       -2 0.40067757E-01 0.18247045E+04</pdfrwt>
<totfact> 0.72817837E+00</totfact>
</mgrwt>
</event>
<event>
 6    1  0.3017327E-006  0.1588594E+04  0.7818608E-02  0.8827586E-01
         -2   -1    0    0    0  501 -0.00000000000E+00  0.00000000000E+00  0.12498611722E+03  0.12498611722E+03  0.00000000000E+00 0.  1.
          2   -1    0    0  501    0  0.00000000000E+00 -0.00000000000E+00 -0.50478251460E+04  0.50478251460E+04  0.00000000000E+00 0. -1.
         23    2    1    2    0    0  0.72028061176E+03  0.22790652525E+03 -0.16984379534E+04  0.18610884731E+04  0.90627143133E+02 0.  0.
         13    1    3    3    0    0  0.65081501849E+03  0.21378291993E+03 -0.15929075775E+04  0.17339601712E+04  0.00000000000E+00 0.  1.
        -13    1    3    3    0    0  0.69465593269E+02  0.14123605325E+02 -0.10553037596E+03  0.12712830183E+03  0.00000000000E+00 0. -1.
         22    1    1    2    0    0 -0.72028061176E+03 -0.22790652525E+03 -0.32244010754E+04  0.33117227902E+04  0.00000000000E+00 0.  1.
<mgrwt>
<rscale>  0 0.15885944E+04</rscale>
<asrwt>0</asrwt>
<pdfrwt beam="1">  1        2 0.77658819E+00 0.15885944E+04</pdfrwt>
<pdfrwt beam="2">  1       -2 0.19228641E-01 0.15885944E+04</pdfrwt>
<totfact> 0.68691399E-01</totfact>
</mgrwt>
</event>
<event>
 6    1  0.3017327E-006  0.4984130E+04  0.7818608E-02  0.7830960E-01
         -2   -1    0    0    0  501 -0.00000000000E+00  0.00000000000E+00  0.17485802419E+04  0.17485802419E+04  0.00000000000E+00 0.  1.
          2   -1    0    0  501    0  0.00000000000E+00 -0.00000000000E+00 -0.35516742075E+04  0.35516742075E+04  0.00000000000E+00 0. -1.
         23    2    1    2    0    0  0.22545410975E+04 -0.93190314022E+03 -0.14385123024E+04  0.28336132488E+04  0.92991272739E+02 0.  0.
         13    1    3    3    0    0  0.10211251064E+04 -0.41423095988E+03 -0.59681204179E+03  0.12531833004E+04  0.00000000000E+00 0.  1.
        -13    1    3    3    0    0  0.12334159911E+04 -0.51767218035E+03 -0.84170026056E+03  0.15804299485E+04  0.00000000000E+00 0. -1.
         22    1    1    2    0    0 -0.22545410975E+04  0.93190314022E+03 -0.36458166331E+03  0.24666412006E+04  0.00000000000E+00 0. -1.
<mgrwt>
<rscale>  0 0.49841298E+04</rscale>
<asrwt>0</asrwt>
<pdfrwt beam="1">  1        2 0.54641141E+00 0.49841298E+04</pdfrwt>
<pdfrwt beam="2">  1       -2 0.26901235E+00 0.49841298E+04</pdfrwt>
<totfact> 0.26720749E-02</totfact>
</mgrwt>
</event>
<event>
 6    1  0.3017327E-006  0.2766197E+04  0.7818608E-02  0.8313840E-01
         -2   -1    0    0    0  501 -0.00000000000E+00  0.00000000000E+00  0.12334909398E+04  0.12334909398E+04  0.00000000000E+00 0.  1.
          2   -1    0    0  501    0  0.00000000000E+00 -0.00000000000E+00 -0.15508516182E+04  0.15508516182E+04  0.00000000000E+00 0. -1.
         23    2    1    2    0    0 -0.10928491919E+04 -0.34611300896E+03 -0.93500821849E+03  0.14821897041E+04  0.92370878005E+02 0.  0.
         13    1    3    3    0    0 -0.95624992587E+03 -0.32458006336E+03 -0.79309957228E+03  0.12840455871E+04  0.00000000000E+00 0. -1.
        -13    1    3    3    0    0 -0.13659926604E+03 -0.21532945604E+02 -0.14190864621E+03  0.19814411699E+03  0.00000000000E+00 0.  1.
         22    1    1    2    0    0  0.10928491919E+04  0.34611300896E+03  0.61764754008E+03  0.13021528539E+04  0.00000000000E+00 0.  1.
<mgrwt>
<rscale>  0 0.27661970E+04</rscale>
<asrwt>0</asrwt>
<pdfrwt beam="1">  1        2 0.23859256E+00 0.27661970E+04</pdfrwt>
<pdfrwt beam="2">  1       -2 0.18976784E+00 0.27661970E+04</pdfrwt>
<totfact> 0.16131495E+00</totfact>
</mgrwt>
</event>
<event>
 6    1  0.3017327E-006  0.1761052E+04  0.7818608E-02  0.8727290E-01
         -2   -1    0    0    0  501 -0.00000000000E+00  0.00000000000E+00  0.83476759564E+03  0.83476759564E+03  0.00000000000E+00 0.  1.
          2   -1    0    0  501    0  0.00000000000E+00 -0.00000000000E+00 -0.92879270608E+03  0.92879270608E+03  0.00000000000E+00 0. -1.
         23    2    1    2    0    0  0.50069816217E+03 -0.13760178995E+03 -0.75628782210E+03  0.92199937021E+03  0.92079675366E+02 0.  0.
         13    1    3    3    0    0  0.30191132977E+03 -0.41664026064E+02 -0.47642226168E+03  0.56556565802E+03  0.00000000000E+00 0. -1.
        -13    1    3    3    0    0  0.19878683240E+03 -0.95937763882E+02 -0.27986556042E+03  0.35643371219E+03  0.00000000000E+00 0.  1.
         22    1    1    2    0    0 -0.50069816217E+03  0.13760178995E+03  0.66226271165E+03  0.84156093151E+03  0.00000000000E+00 0.  1.
<mgrwt>
<rscale>  0 0.17610520E+04</rscale>
<asrwt>0</asrwt>
<pdfrwt beam="1">  1        2 0.14289118E+00 0.17610520E+04</pdfrwt>
<pdfrwt beam="2">  1       -2 0.12842579E+00 0.17610520E+04</pdfrwt>
<totfact> 0.11894370E+01</totfact>
</mgrwt>
</event>
<event>
 6    1  0.3017327E-006  0.5068063E+04  0.7818608E-02  0.7818093E-01
         -2   -1    0    0    0  501 -0.00000000000E+00  0.00000000000E+00  0.26114939776E+04  0.26114939776E+04  0.00000000000E+00 0.  1.
          2   -1    0    0  501    0  0.00000000000E+00 -0.00000000000E+00 -0.24588671155E+04  0.24588671155E+04  0.00000000000E+00 0. -1.
         23    2    1    2    0    0 -0.18624283344E+04 -0.13206682432E+04 -0.10215522064E+04  0.25029693439E+04  0.92101664689E+02 0.  0.
         13    1    3    3    0    0 -0.15220089145E+04 -0.11160518782E+04 -0.82428604226E+03  0.20594976110E+04  0.00000000000E+00 0. -1.
        -13    1    3    3    0    0 -0.34041941992E+03 -0.20461636509E+03 -0.19726616411E+03  0.44347173284E+03  0.00000000000E+00 0.  1.
         22    1    1    2    0    0  0.18624283344E+04  0.13206682432E+04  0.11741790685E+04  0.25673917493E+04  0.00000000000E+00 0.  1.
<mgrwt>
<rscale>  0 0.50680634E+04</rscale>
<asrwt>0</asrwt>
<pdfrwt beam="1">  1        2 0.37828725E+00 0.50680634E+04</pdfrwt>
<pdfrwt beam="2">  1       -2 0.40176830E+00 0.50680634E+04</pdfrwt>
<totfact> 0.19259623E-02</totfact>
</mgrwt>
</event>
<event>
 6    1  0.3017327E-006  0.3142670E+04  0.7818608E-02  0.8204124E-01
          2   -1    0    0  501    0  0.00000000000E+00  0.00000000000E+00  0.16825008974E+04  0.16825008974E+04  0.00000000000E+00 0. -1.
         -2   -1    0    0    0  501 -0.00000000000E+00 -0.00000000000E+00 -0.14675142415E+04  0.14675142415E+04  0.00000000000E+00 0.  1.
         23    2    1    2    0    0  0.11570856786E+04 -0.30428823879E+02 -0.95558354904E+03  0.15038050109E+04  0.92284400959E+02 0.  0.
         13    1    3    3    0    0  0.31850798784E+03  0.26077075518E+02 -0.23433503112E+03  0.39628305414E+03  0.00000000000E+00 0. -1.
        -13    1    3    3    0    0  0.83857769079E+03 -0.56505899396E+02 -0.72124851792E+03  0.11075219568E+04  0.00000000000E+00 0.  1.
         22    1    1    2    0    0 -0.11570856786E+04  0.30428823879E+02  0.11705702049E+04  0.16462101280E+04  0.00000000000E+00 0. -1.
<mgrwt>
<rscale>  0 0.31426702E+04</rscale>
<asrwt>0</asrwt>
<pdfrwt beam="1">  1        2 0.25884629E+00 0.31426702E+04</pdfrwt>
<pdfrwt beam="2">  1       -2 0.22577142E+00 0.31426702E+04</pdfrwt>
<totfact> 0.77123457E-01</totfact>
</mgrwt>
</event>
<event>
 6    1  0.3017327E-006  0.9553884E+03  0.7818608E-02  0.9358874E-01
         -1   -1    0    0    0  501 -0.00000000000E+00  0.00000000000E+00  0.33989824659E+03  0.33989824659E+03  0.00000000000E+00 0.  1.
          1   -1    0    0  501    0  0.00000000000E+00 -0.00000000000E+00 -0.67135317293E+03  0.67135317293E+03  0.00000000000E+00 0. -1.
         23    2    1    2    0    0 -0.40200047952E+03  0.23099748167E+03 -0.71174041682E+02  0.47954627474E+03  0.99672781278E+02 0.  0.
         11    1    3    3    0    0 -0.20265670160E+03  0.89406822478E+02 -0.78290386166E+02  0.23493127330E+03  0.00000000000E+00 0. -1.
        -11    1    3    3    0    0 -0.19934377793E+03  0.14159065920E+03  0.71163444841E+01  0.24461500144E+03  0.00000000000E+00 0.  1.
         22    1    1    2    0    0  0.40200047952E+03 -0.23099748167E+03 -0.26028088466E+03  0.53170514479E+03  0.00000000000E+00 0. -1.
<mgrwt>
<rscale>  0 0.95538844E+03</rscale>
<asrwt>0</asrwt>
<pdfrwt beam="1">  1        1 0.10328510E+00 0.95538844E+03</pdfrwt>
<pdfrwt beam="2">  1       -1 0.52292038E-01 0.95538844E+03</pdfrwt>
<totfact> 0.10742824E+02</totfact>
</mgrwt>
</event>
<event>
 6    1  0.3017327E-006  0.2128557E+04  0.7818608E-02  0.8548767E-01
          2   -1    0    0  501    0  0.00000000000E+00  0.00000000000E+00  0.78394639595E+03  0.78394639595E+03  0.00000000000E+00 0. -1.
         -2   -1    0    0    0  501 -0.00000000000E+00 -0.00000000000E+00 -0.14448551938E+04  0.14448551938E+04  0.00000000000E+00 0.  1.
         23    2    1    2    0    0  0.37250781340E+03  0.10307541217E+03 -0.13671468049E+04  0.14237185293E+04  0.92181629690E+02 0.  0.
         11    1    3    3    0    0  0.13603163926E+03  0.74623436823E+02 -0.64082059133E+03  0.65933625296E+03  0.00000000000E+00 0. -1.
        -11    1    3    3    0    0  0.23647617414E+03  0.28451975344E+02 -0.72632621359E+03  0.76438227634E+03  0.00000000000E+00 0.  1.
         22    1    1    2    0    0 -0.37250781340E+03 -0.10307541217E+03  0.70623800706E+03  0.80508306046E+03  0.00000000000E+00 0. -1.
<mgrwt>
<rscale>  0 0.21285573E+04</rscale>
<asrwt>0</asrwt>
<pdfrwt beam="1">  1        2 0.12060714E+00 0.21285573E+04</pdfrwt>
<pdfrwt beam="2">  1       -2 0.22228542E+00 0.21285573E+04</pdfrwt>
<totfact> 0.31088808E+00</totfact>
</mgrwt>
</event>
<event>
 6    1  0.3017327E-006  0.6413859E+03  0.7818608E-02  0.9823079E-01
          2   -1    0    0  501    0  0.00000000000E+00  0.00000000000E+00  0.88933966024E+03  0.88933966024E+03  0.00000000000E+00 0. -1.
         -2   -1    0    0    0  501 -0.00000000000E+00 -0.00000000000E+00 -0.11564082582E+03  0.11564082582E+03  0.00000000000E+00 0.  1.
         23    2    1    2    0    0  0.24538223232E+03  0.67683586730E+02  0.68344681464E+03  0.73490839397E+03  0.90538893518E+02 0.  0.
         13    1    3    3    0    0  0.60131050271E+02 -0.50215991735E+01  0.26170829491E+03  0.26857436826E+03  0.00000000000E+00 0.  1.
        -13    1    3    3    0    0  0.18525118205E+03  0.72705185904E+02  0.42173851973E+03  0.46633402571E+03  0.00000000000E+00 0. -1.
         22    1    1    2    0    0 -0.24538223232E+03 -0.67683586730E+02  0.90252019785E+02  0.27007209209E+03  0.00000000000E+00 0.  1.
<mgrwt>
<rscale>  0 0.64138591E+03</rscale>
<asrwt>0</asrwt>
<pdfrwt beam="1">  1        2 0.13682148E+00 0.64138591E+03</pdfrwt>
<pdfrwt beam="2">  1       -2 0.17790897E-01 0.64138591E+03</pdfrwt>
<totfact> 0.78523478E+02</totfact>
</mgrwt>
</event>
<event>
 6    1  0.3017327E-006  0.9346684E+03  0.7818608E-02  0.9383253E-01
         -2   -1    0    0    0  501 -0.00000000000E+00  0.00000000000E+00  0.37978817562E+03  0.37978817562E+03  0.00000000000E+00 0.  1.
          2   -1    0    0  501    0  0.00000000000E+00 -0.00000000000E+00 -0.57506068430E+03  0.57506068430E+03  0.00000000000E+00 0. -1.
         23    2    1    2    0    0 -0.50921924693E+02 -0.14621648735E+03 -0.54427132279E+03  0.57304724149E+03  0.90440945213E+02 0.  0.
         13    1    3    3    0    0 -0.33253676028E+01 -0.90316137260E+02 -0.17958889106E+03  0.20104783638E+03  0.00000000000E+00 0.  1.
        -13    1    3    3    0    0 -0.47596557090E+02 -0.55900350091E+02 -0.36468243173E+03  0.37199940511E+03  0.00000000000E+00 0. -1.
         22    1    1    2    0    0  0.50921924693E+02  0.14621648735E+03  0.34899881411E+03  0.38180161843E+03  0.00000000000E+00 0.  1.
<mgrwt>
<rscale>  0 0.93466839E+03</rscale>
<asrwt>0</asrwt>
<pdfrwt beam="1">  1        2 0.88470874E-01 0.93466839E+03</pdfrwt>
<pdfrwt beam="2">  1       -2 0.58428950E-01 0.93466839E+03</pdfrwt>
<totfact> 0.14330627E+02</totfact>
</mgrwt>
</event>
<event>
 6    1  0.3017327E-006  0.3671311E+04  0.7818608E-02  0.8074350E-01
         -2   -1    0    0    0  501 -0.00000000000E+00  0.00000000000E+00  0.95889968385E+03  0.95889968385E+03  0.00000000000E+00 0.  1.
          2   -1    0    0  501    0  0.00000000000E+00 -0.00000000000E+00 -0.35140602542E+04  0.35140602542E+04  0.00000000000E+00 0. -1.
         23    2    1    2    0    0  0.64035560557E+03  0.11862241382E+04 -0.27943835561E+04  0.31038687633E+04  0.90768019964E+02 0.  0.
         11    1    3    3    0    0  0.39811193153E+03  0.67171015826E+03 -0.15424879875E+04  0.17288599823E+04  0.00000000000E+00 0. -1.
        -11    1    3    3    0    0  0.24224367404E+03  0.51451397998E+03 -0.12518955686E+04  0.13750087810E+04  0.00000000000E+00 0.  1.
         22    1    1    2    0    0 -0.64035560557E+03 -0.11862241382E+04  0.23922298580E+03  0.13690911747E+04  0.00000000000E+00 0.  1.
<mgrwt>
<rscale>  0 0.36713111E+04</rscale>
<asrwt>0</asrwt>
<pdfrwt beam="1">  1        2 0.54062466E+00 0.36713111E+04</pdfrwt>
<pdfrwt beam="2">  1       -2 0.14752303E+00 0.36713111E+04</pdfrwt>
<totfact> 0.20128168E-01</totfact>
</mgrwt>
</event>
<event>
 6    1  0.3017327E-006  0.2085027E+04  0.7818608E-02  0.8567868E-01
          2   -1    0    0  501    0  0.00000000000E+00  0.00000000000E+00  0.13861466585E+04  0.13861466585E+04  0.00000000000E+00 0. -1.
         -2   -1    0    0    0  501 -0.00000000000E+00 -0.00000000000E+00 -0.78406878116E+03  0.78406878116E+03  0.00000000000E+00 0.  1.
         23    2    1    2    0    0 -0.54450947417E+03  0.65683978238E+03 -0.31763336035E+03  0.91570444811E+03  0.98461248767E+02 0.  0.
         13    1    3    3    0    0 -0.36002731984E+03  0.50041858517E+03 -0.24220535778E+03  0.66234573053E+03  0.00000000000E+00 0. -1.
        -13    1    3    3    0    0 -0.18448215433E+03  0.15642119720E+03 -0.75428002569E+02  0.25335871758E+03  0.00000000000E+00 0.  1.
         22    1    1    2    0    0  0.54450947417E+03 -0.65683978238E+03  0.91971123768E+03  0.12545109915E+04  0.00000000000E+00 0. -1.
<mgrwt>
<rscale>  0 0.20850269E+04</rscale>
<asrwt>0</asrwt>
<pdfrwt beam="1">  1        2 0.21325333E+00 0.20850269E+04</pdfrwt>
<pdfrwt beam="2">  1       -2 0.12062597E+00 0.20850269E+04</pdfrwt>
<totfact> 0.71290652E+00</totfact>
</mgrwt>
</event>
<event>
 6    1  0.3017327E-006  0.3566534E+04  0.7818608E-02  0.8098201E-01
         -2   -1    0    0    0  501 -0.00000000000E+00  0.00000000000E+00  0.21667244684E+04  0.21667244684E+04  0.00000000000E+00 0.  1.
          2   -1    0    0  501    0  0.00000000000E+00 -0.00000000000E+00 -0.14676722213E+04  0.14676722213E+04  0.00000000000E+00 0. -1.
         23    2    1    2    0    0 -0.15007268464E+04  0.78512387475E+03  0.91405307631E+03  0.19271105618E+04  0.98293056242E+02 0.  0.
         11    1    3    3    0    0 -0.94274009554E+03  0.53614544579E+03  0.61621932980E+03  0.12473720733E+04  0.00000000000E+00 0. -1.
        -11    1    3    3    0    0 -0.55798675086E+03  0.24897842895E+03  0.29783374650E+03  0.67973848852E+03  0.00000000000E+00 0.  1.
         22    1    1    2    0    0  0.15007268464E+04 -0.78512387475E+03 -0.21500082923E+03  0.17072861280E+04  0.00000000000E+00 0.  1.
<mgrwt>
<rscale>  0 0.35665341E+04</rscale>
<asrwt>0</asrwt>
<pdfrwt beam="1">  1        2 0.22579573E+00 0.35665341E+04</pdfrwt>
<pdfrwt beam="2">  1       -2 0.33334223E+00 0.35665341E+04</pdfrwt>
<totfact> 0.21405774E-01</totfact>
</mgrwt>
</event>
<event>
 6    1  0.3017327E-006  0.1054130E+04  0.7818608E-02  0.9251091E-01
         -2   -1    0    0    0  501 -0.00000000000E+00  0.00000000000E+00  0.23574050023E+03  0.23574050023E+03  0.00000000000E+00 0.  1.
          2   -1    0    0  501    0  0.00000000000E+00 -0.00000000000E+00 -0.11784036259E+04  0.11784036259E+04  0.00000000000E+00 0. -1.
         23    2    1    2    0    0 -0.17139684227E+03 -0.32191602154E+03  0.29126041726E+02  0.37617447902E+03  0.87476339066E+02 0.  0.
         13    1    3    3    0    0 -0.13626297919E+03 -0.29004009851E+03  0.50026309724E+02  0.32433545891E+03  0.00000000000E+00 0. -1.
        -13    1    3    3    0    0 -0.35133863075E+02 -0.31875923032E+02 -0.20900267998E+02  0.51839020112E+02  0.00000000000E+00 0.  1.
         22    1    1    2    0    0  0.17139684227E+03  0.32191602154E+03 -0.97178916739E+03  0.10379696471E+04  0.00000000000E+00 0. -1.
<mgrwt>
<rscale>  0 0.10541299E+04</rscale>
<asrwt>0</asrwt>
<pdfrwt beam="1">  1        2 0.18129286E+00 0.10541299E+04</pdfrwt>
<pdfrwt beam="2">  1       -2 0.36267770E-01 0.10541299E+04</pdfrwt>
<totfact> 0.13884049E+02</totfact>
</mgrwt>
</event>
<event>
 6    1  0.3017327E-006  0.3372434E+04  0.7818608E-02  0.8144705E-01
          2   -1    0    0  501    0  0.00000000000E+00  0.00000000000E+00  0.22552917005E+04  0.22552917005E+04  0.00000000000E+00 0. -1.
         -2   -1    0    0    0  501 -0.00000000000E+00 -0.00000000000E+00 -0.12607358577E+04  0.12607358577E+04  0.00000000000E+00 0.  1.
         23    2    1    2    0    0 -0.94712872377E+03  0.36989032509E+03 -0.90314947373E+03  0.13630860494E+04  0.91939839607E+02 0.  0.
         11    1    3    3    0    0 -0.17126797769E+03  0.10080620268E+03 -0.20057706663E+03  0.28235752219E+03  0.00000000000E+00 0.  1.
        -11    1    3    3    0    0 -0.77586074608E+03  0.26908412241E+03 -0.70257240711E+03  0.10807285272E+04  0.00000000000E+00 0. -1.
         22    1    1    2    0    0  0.94712872377E+03 -0.36989032509E+03  0.18977053166E+04  0.21529415088E+04  0.00000000000E+00 0. -1.
<mgrwt>
<rscale>  0 0.33724336E+04</rscale>
<asrwt>0</asrwt>
<pdfrwt beam="1">  1        2 0.34696795E+00 0.33724336E+04</pdfrwt>
<pdfrwt beam="2">  1       -2 0.19395936E+00 0.33724336E+04</pdfrwt>
<totfact> 0.58189663E-01</totfact>
</mgrwt>
</event>
<event>
 6    1  0.3017327E-006  0.2245493E+04  0.7818608E-02  0.8499728E-01
         -2   -1    0    0    0  501 -0.00000000000E+00  0.00000000000E+00  0.30883868284E+03  0.30883868284E+03  0.00000000000E+00 0.  1.
          2   -1    0    0  501    0  0.00000000000E+00 -0.00000000000E+00 -0.40816109587E+04  0.40816109587E+04  0.00000000000E+00 0. -1.
         23    2    1    2    0    0  0.76765645626E+03 -0.65494134219E+03 -0.28435823681E+04  0.30187213590E+04  0.92050867794E+02 0.  0.
         11    1    3    3    0    0  0.25644867454E+03 -0.23217820257E+03 -0.85148797811E+03  0.91907802568E+03  0.00000000000E+00 0.  1.
        -11    1    3    3    0    0  0.51120778172E+03 -0.42276313962E+03 -0.19920943900E+04  0.20996433333E+04  0.00000000000E+00 0. -1.
         22    1    1    2    0    0 -0.76765645626E+03  0.65494134219E+03 -0.92918990774E+03  0.13717282826E+04  0.00000000000E+00 0.  1.
<mgrwt>
<rscale>  0 0.22454927E+04</rscale>
<asrwt>0</asrwt>
<pdfrwt beam="1">  1        2 0.62794013E+00 0.22454927E+04</pdfrwt>
<pdfrwt beam="2">  1       -2 0.47513645E-01 0.22454927E+04</pdfrwt>
<totfact> 0.11288138E+00</totfact>
</mgrwt>
</event>
<event>
 6    1  0.3017327E-006  0.2431058E+04  0.7818608E-02  0.8427967E-01
         -2   -1    0    0    0  501 -0.00000000000E+00  0.00000000000E+00  0.41578864426E+03  0.41578864426E+03  0.00000000000E+00 0.  1.
          2   -1    0    0  501    0  0.00000000000E+00 -0.00000000000E+00 -0.35535134896E+04  0.35535134896E+04  0.00000000000E+00 0. -1.
         23    2    1    2    0    0  0.37413992941E+03 -0.24697488099E+03 -0.34128208864E+04  0.34433219913E+04  0.90236658906E+02 0.  0.
         11    1    3    3    0    0  0.28403129150E+03 -0.16735152265E+03 -0.22013567998E+04  0.22259047749E+04  0.00000000000E+00 0.  1.
        -11    1    3    3    0    0  0.90108637905E+02 -0.79623358339E+02 -0.12114640866E+04  0.12174172164E+04  0.00000000000E+00 0. -1.
         22    1    1    2    0    0 -0.37413992941E+03  0.24697488099E+03  0.27509604101E+03  0.52598014259E+03  0.00000000000E+00 0.  1.
<mgrwt>
<rscale>  0 0.24310578E+04</rscale>
<asrwt>0</asrwt>
<pdfrwt beam="1">  1        2 0.54669437E+00 0.24310578E+04</pdfrwt>
<pdfrwt beam="2">  1       -2 0.63967485E-01 0.24310578E+04</pdfrwt>
<totfact> 0.15134558E+00</totfact>
</mgrwt>
</event>
<event>
 6    1  0.3017327E-006  0.4193207E+04  0.7818608E-02  0.7966666E-01
          2   -1    0    0  501    0  0.00000000000E+00  0.00000000000E+00  0.28066623251E+04  0.28066623251E+04  0.00000000000E+00 0. -1.
         -2   -1    0    0    0  501 -0.00000000000E+00 -0.00000000000E+00 -0.15661829110E+04  0.15661829110E+04  0.00000000000E+00 0.  1.
         23    2    1    2    0    0 -0.86366825838E+03 -0.44337652880E+03 -0.13162046506E+04  0.16380437784E+04  0.91033681168E+02 0.  0.
         13    1    3    3    0    0 -0.70958471832E+03 -0.40192578813E+03 -0.11042219915E+04  0.13727202986E+04  0.00000000000E+00 0.  1.
        -13    1    3    3    0    0 -0.15408354006E+03 -0.41450740666E+02 -0.21198265904E+03  0.26532347984E+03  0.00000000000E+00 0. -1.
         22    1    1    2    0    0  0.86366825838E+03  0.44337652880E+03  0.25566840646E+04  0.27348014577E+04  0.00000000000E+00 0. -1.
<mgrwt>
<rscale>  0 0.41932072E+04</rscale>
<asrwt>0</asrwt>
<pdfrwt beam="1">  1        2 0.43179420E+00 0.41932072E+04</pdfrwt>
<pdfrwt beam="2">  1       -2 0.24095122E+00 0.41932072E+04</pdfrwt>
<totfact> 0.13000095E-01</totfact>
</mgrwt>
</event>
<event>
 6    1  0.3017327E-006  0.1770169E+04  0.7818608E-02  0.8722326E-01
         -2   -1    0    0    0  501 -0.00000000000E+00  0.00000000000E+00  0.46723038766E+03  0.46723038766E+03  0.00000000000E+00 0.  1.
          2   -1    0    0  501    0  0.00000000000E+00 -0.00000000000E+00 -0.16766337230E+04  0.16766337230E+04  0.00000000000E+00 0. -1.
         23    2    1    2    0    0  0.15062155066E+03 -0.84997521622E+03 -0.38194332589E+03  0.94810711739E+03  0.88778838389E+02 0.  0.
         11    1    3    3    0    0  0.98613029499E+02 -0.31247850416E+03 -0.13747007736E+03  0.35533838424E+03  0.00000000000E+00 0.  1.
        -11    1    3    3    0    0  0.52008521160E+02 -0.53749671206E+03 -0.24447324853E+03  0.59276873315E+03  0.00000000000E+00 0. -1.
         22    1    1    2    0    0 -0.15062155066E+03  0.84997521622E+03 -0.82746000940E+03  0.11957569932E+04  0.00000000000E+00 0. -1.
<mgrwt>
<rscale>  0 0.17701686E+04</rscale>
<asrwt>0</asrwt>
<pdfrwt beam="1">  1        2 0.25794365E+00 0.17701686E+04</pdfrwt>
<pdfrwt beam="2">  1       -2 0.71881598E-01 0.17701686E+04</pdfrwt>
<totfact> 0.16770188E+01</totfact>
</mgrwt>
</event>
<event>
 6    1  0.3017327E-006  0.1318594E+04  0.7818608E-02  0.9014949E-01
         -2   -1    0    0    0  501 -0.00000000000E+00  0.00000000000E+00  0.17975168231E+03  0.17975168231E+03  0.00000000000E+00 0.  1.
          2   -1    0    0  501    0  0.00000000000E+00 -0.00000000000E+00 -0.24181820501E+04  0.24181820501E+04  0.00000000000E+00 0. -1.
         23    2    1    2    0    0  0.49512841845E+03  0.29752346364E+03 -0.51121469161E+03  0.77668516227E+03  0.90702911781E+02 0.  0.
         11    1    3    3    0    0  0.45461493200E+03  0.23925827215E+03 -0.45149114928E+03  0.68393239071E+03  0.00000000000E+00 0.  1.
        -11    1    3    3    0    0  0.40513486449E+02  0.58265191488E+02 -0.59723542334E+02  0.92752771561E+02  0.00000000000E+00 0. -1.
         22    1    1    2    0    0 -0.49512841845E+03 -0.29752346364E+03 -0.17272156761E+04  0.18212485701E+04  0.00000000000E+00 0. -1.
<mgrwt>
<rscale>  0 0.13185936E+04</rscale>
<asrwt>0</asrwt>
<pdfrwt beam="1">  1        2 0.37202799E+00 0.13185936E+04</pdfrwt>
<pdfrwt beam="2">  1       -2 0.27654106E-01 0.13185936E+04</pdfrwt>
<totfact> 0.45487241E+01</totfact>
</mgrwt>
</event>
<event>
 6    1  0.3017327E-006  0.3289196E+04  0.7818608E-02  0.8165650E-01
          2   -1    0    0  501    0  0.00000000000E+00  0.00000000000E+00  0.13550222892E+04  0.13550222892E+04  0.00000000000E+00 0. -1.
         -2   -1    0    0    0  501 -0.00000000000E+00 -0.00000000000E+00 -0.19960578761E+04  0.19960578761E+04  0.00000000000E+00 0.  1.
         23    2    1    2    0    0 -0.29170996253E+03  0.14810927277E+04  0.34094895101E+03  0.15502403603E+04  0.90931937045E+02 0.  0.
         11    1    3    3    0    0 -0.22530533807E+03  0.10417877777E+04  0.27780098170E+03  0.11014797568E+04  0.00000000000E+00 0.  1.
        -11    1    3    3    0    0 -0.66404624462E+02  0.43930494999E+03  0.63147969307E+02  0.44876060351E+03  0.00000000000E+00 0. -1.
         22    1    1    2    0    0  0.29170996253E+03 -0.14810927277E+04 -0.98198453794E+03  0.18008398050E+04  0.00000000000E+00 0.  1.
<mgrwt>
<rscale>  0 0.32891962E+04</rscale>
<asrwt>0</asrwt>
<pdfrwt beam="1">  1        2 0.20846497E+00 0.32891962E+04</pdfrwt>
<pdfrwt beam="2">  1       -2 0.30708582E+00 0.32891962E+04</pdfrwt>
<totfact> 0.36916299E-01</totfact>
</mgrwt>
</event>
<event>
 6    1  0.3183836E-006  0.1973001E+04  0.7818608E-02  0.8619348E-01
          2   -1    0    0  501    0  0.00000000000E+00  0.00000000000E+00  0.12238920846E+04  0.12238920846E+04  0.00000000000E+00 0. -1.
         -2   -1    0    0    0  501 -0.00000000000E+00 -0.00000000000E+00 -0.79515479632E+03  0.79515479632E+03  0.00000000000E+00 0.  1.
         23    2    1    2    0    0 -0.57392973336E+03  0.39761619988E+02  0.10322150288E+04  0.11852833001E+04  0.91936448756E+02 0.  0.
         11    1    3    3    0    0 -0.32807750449E+03  0.26528829272E+01  0.50257955887E+03  0.60019005301E+03  0.00000000000E+00 0. -1.
        -11    1    3    3    0    0 -0.24585222887E+03  0.37108737061E+02  0.52963546992E+03  0.58509324710E+03  0.00000000000E+00 0.  1.
         22    1    1    2    0    0  0.57392973336E+03 -0.39761619988E+02 -0.60347774056E+03  0.83376358077E+03  0.00000000000E+00 0.  1.
<mgrwt>
<rscale>  0 0.19730014E+04</rscale>
<asrwt>0</asrwt>
<pdfrwt beam="1">  1        2 0.18829109E+00 0.19730014E+04</pdfrwt>
<pdfrwt beam="2">  1       -2 0.12233151E+00 0.19730014E+04</pdfrwt>
<totfact> 0.86389653E+00</totfact>
</mgrwt>
</event>
<event>
 6    1  0.3017327E-006  0.3914906E+04  0.7818608E-02  0.8021936E-01
         -2   -1    0    0    0  501 -0.00000000000E+00  0.00000000000E+00  0.14388992894E+04  0.14388992894E+04  0.00000000000E+00 0.  1.
          2   -1    0    0  501    0  0.00000000000E+00 -0.00000000000E+00 -0.26628846736E+04  0.26628846736E+04  0.00000000000E+00 0. -1.
         23    2    1    2    0    0  0.17108765630E+03  0.79191230337E+03 -0.24780911217E+04  0.26087410020E+04  0.90542397955E+02 0.  0.
         11    1    3    3    0    0  0.11089071791E+03  0.49592559458E+03 -0.14107381139E+04  0.14994735652E+04  0.00000000000E+00 0.  1.
        -11    1    3    3    0    0  0.60196938392E+02  0.29598670878E+03 -0.10673530078E+04  0.11092674368E+04  0.00000000000E+00 0. -1.
         22    1    1    2    0    0 -0.17108765630E+03 -0.79191230337E+03  0.12541057375E+04  0.14930429609E+04  0.00000000000E+00 0.  1.
<mgrwt>
<rscale>  0 0.39149063E+04</rscale>
<asrwt>0</asrwt>
<pdfrwt beam="1">  1        2 0.40967456E+00 0.39149063E+04</pdfrwt>
<pdfrwt beam="2">  1       -2 0.22136912E+00 0.39149063E+04</pdfrwt>
<totfact> 0.21497429E-01</totfact>
</mgrwt>
</event>
<event>
 6    1  0.3017327E-006  0.1512099E+04  0.7818608E-02  0.8876447E-01
         -2   -1    0    0    0  501 -0.00000000000E+00  0.00000000000E+00  0.55904502878E+03  0.55904502878E+03  0.00000000000E+00 0.  1.
          2   -1    0    0  501    0  0.00000000000E+00 -0.00000000000E+00 -0.10224775987E+04  0.10224775987E+04  0.00000000000E+00 0. -1.
         23    2    1    2    0    0 -0.66838321573E+03 -0.34579386691E+03 -0.19670500094E+03  0.78311601585E+03  0.90930277751E+02 0.  0.
         13    1    3    3    0    0 -0.62785604248E+03 -0.33436590736E+03 -0.16452028920E+03  0.73011690547E+03  0.00000000000E+00 0. -1.
        -13    1    3    3    0    0 -0.40527173247E+02 -0.11427959552E+02 -0.32184711745E+02  0.52999110380E+02  0.00000000000E+00 0.  1.
         22    1    1    2    0    0  0.66838321573E+03  0.34579386691E+03 -0.26672756898E+03  0.79840661165E+03  0.00000000000E+00 0.  1.
<mgrwt>
<rscale>  0 0.15120992E+04</rscale>
<asrwt>0</asrwt>
<pdfrwt beam="1">  1        2 0.15730425E+00 0.15120992E+04</pdfrwt>
<pdfrwt beam="2">  1       -2 0.86006928E-01 0.15120992E+04</pdfrwt>
<totfact> 0.27596862E+01</totfact>
</mgrwt>
</event>
<event>
 6    1  0.3017327E-006  0.4171179E+04  0.7818608E-02  0.7970877E-01
         -2   -1    0    0    0  501 -0.00000000000E+00  0.00000000000E+00  0.10493238360E+04  0.10493238360E+04  0.00000000000E+00 0.  1.
          2   -1    0    0  501    0  0.00000000000E+00 -0.00000000000E+00 -0.41452247796E+04  0.41452247796E+04  0.00000000000E+00 0. -1.
         23    2    1    2    0    0  0.48167544477E+03 -0.57228140194E+03 -0.39718222259E+04  0.40426999580E+04  0.92379213749E+02 0.  0.
         13    1    3    3    0    0  0.17779738451E+03 -0.14533818739E+03 -0.12026509880E+04  0.12243792294E+04  0.00000000000E+00 0. -1.
        -13    1    3    3    0    0  0.30387806027E+03 -0.42694321455E+03 -0.27691712380E+04  0.28183207286E+04  0.00000000000E+00 0.  1.
         22    1    1    2    0    0 -0.48167544477E+03  0.57228140194E+03  0.87592128231E+03  0.11518486576E+04  0.00000000000E+00 0.  1.
<mgrwt>
<rscale>  0 0.41711788E+04</rscale>
<asrwt>0</asrwt>
<pdfrwt beam="1">  1        2 0.63772689E+00 0.41711788E+04</pdfrwt>
<pdfrwt beam="2">  1       -2 0.16143444E+00 0.41711788E+04</pdfrwt>
<totfact> 0.49336221E-02</totfact>
</mgrwt>
</event>
<event>
 6    1  0.3017327E-006  0.8332316E+03  0.7818608E-02  0.9513123E-01
          2   -1    0    0  501    0  0.00000000000E+00  0.00000000000E+00  0.13096852487E+04  0.13096852487E+04  0.00000000000E+00 0. -1.
         -2   -1    0    0    0  501 -0.00000000000E+00 -0.00000000000E+00 -0.13252705498E+03  0.13252705498E+03  0.00000000000E+00 0.  1.
         23    2    1    2    0    0 -0.11695698630E+03 -0.20606753256E+03  0.10848941648E+02  0.25207784232E+03  0.85339172922E+02 0.  0.
         13    1    3    3    0    0 -0.29603448166E+02 -0.49188511227E+01 -0.10383132072E+02  0.31754821230E+02  0.00000000000E+00 0. -1.
        -13    1    3    3    0    0 -0.87353538129E+02 -0.20114868144E+03  0.21232073720E+02  0.22032302109E+03  0.00000000000E+00 0.  1.
         22    1    1    2    0    0  0.11695698630E+03  0.20606753256E+03  0.11663092521E+04  0.11901344613E+04  0.00000000000E+00 0. -1.
<mgrwt>
<rscale>  0 0.83323161E+03</rscale>
<asrwt>0</asrwt>
<pdfrwt beam="1">  1        2 0.20149003E+00 0.83323161E+03</pdfrwt>
<pdfrwt beam="2">  1       -2 0.20388779E-01 0.83323161E+03</pdfrwt>
<totfact> 0.33852085E+02</totfact>
</mgrwt>
</event>
<event>
 6    1  0.3017327E-006  0.3163396E+04  0.7818608E-02  0.8198552E-01
          2   -1    0    0  501    0  0.00000000000E+00  0.00000000000E+00  0.31607020786E+04  0.31607020786E+04  0.00000000000E+00 0.  1.
         -2   -1    0    0    0  501 -0.00000000000E+00 -0.00000000000E+00 -0.79152328064E+03  0.79152328064E+03  0.00000000000E+00 0. -1.
         23    2    1    2    0    0 -0.91272556547E+03  0.32213895519E+02 -0.42581900422E+03  0.10117970899E+04  0.91136347624E+02 0.  0.
         13    1    3    3    0    0 -0.80888151192E+03  0.16367828267E+02 -0.34629273376E+03  0.88004310326E+03  0.00000000000E+00 0. -1.
        -13    1    3    3    0    0 -0.10384405354E+03  0.15846067252E+02 -0.79526270463E+02  0.13175398665E+03  0.00000000000E+00 0.  1.
         22    1    1    2    0    0  0.91272556547E+03 -0.32213895519E+02  0.27949978022E+04  0.29404282693E+04  0.00000000000E+00 0.  1.
<mgrwt>
<rscale>  0 0.31633965E+04</rscale>
<asrwt>0</asrwt>
<pdfrwt beam="1">  1        2 0.48626185E+00 0.31633965E+04</pdfrwt>
<pdfrwt beam="2">  1       -2 0.12177281E+00 0.31633965E+04</pdfrwt>
<totfact> 0.59418048E-01</totfact>
</mgrwt>
</event>
<event>
 6    1  0.3017327E-006  0.3852014E+04  0.7818608E-02  0.8035084E-01
         -2   -1    0    0    0  501 -0.00000000000E+00  0.00000000000E+00  0.14338926591E+04  0.14338926591E+04  0.00000000000E+00 0.  1.
          2   -1    0    0  501    0  0.00000000000E+00 -0.00000000000E+00 -0.25870162342E+04  0.25870162342E+04  0.00000000000E+00 0. -1.
         23    2    1    2    0    0 -0.11517239026E+03  0.41063714159E+03 -0.25362745804E+04  0.25734993988E+04  0.91229745684E+02 0.  0.
         13    1    3    3    0    0 -0.10388486722E+02  0.65658184832E+02 -0.23769243526E+03  0.24681290824E+03  0.00000000000E+00 0.  1.
        -13    1    3    3    0    0 -0.10478390354E+03  0.34497895675E+03 -0.22985821452E+04  0.23266864905E+04  0.00000000000E+00 0. -1.
         22    1    1    2    0    0  0.11517239026E+03 -0.41063714159E+03  0.13831510053E+04  0.14474094946E+04  0.00000000000E+00 0.  1.
<mgrwt>
<rscale>  0 0.38520143E+04</rscale>
<asrwt>0</asrwt>
<pdfrwt beam="1">  1        2 0.39800250E+00 0.38520143E+04</pdfrwt>
<pdfrwt beam="2">  1       -2 0.22059887E+00 0.38520143E+04</pdfrwt>
<totfact> 0.24224898E-01</totfact>
</mgrwt>
</event>
<event>
 6    1  0.3017327E-006  0.2966411E+04  0.7818608E-02  0.8253388E-01
          2   -1    0    0  501    0  0.00000000000E+00  0.00000000000E+00  0.21060132893E+04  0.21060132893E+04  0.00000000000E+00 0.  1.
         -2   -1    0    0    0  501 -0.00000000000E+00 -0.00000000000E+00 -0.10445799163E+04  0.10445799163E+04  0.00000000000E+00 0. -1.
         23    2    1    2    0    0 -0.64518754054E+03  0.73523138565E+03  0.17134603703E+04  0.19750204269E+04  0.89034224935E+02 0.  0.
         13    1    3    3    0    0 -0.17771416508E+03  0.26207788234E+03  0.52539814610E+03  0.61344140128E+03  0.00000000000E+00 0.  1.
        -13    1    3    3    0    0 -0.46747337546E+03  0.47315350331E+03  0.11880622242E+04  0.13615790256E+04  0.00000000000E+00 0. -1.
         22    1    1    2    0    0  0.64518754054E+03 -0.73523138565E+03 -0.65202699725E+03  0.11755727787E+04  0.00000000000E+00 0. -1.
<mgrwt>
<rscale>  0 0.29664114E+04</rscale>
<asrwt>0</asrwt>
<pdfrwt beam="1">  1        2 0.32400204E+00 0.29664114E+04</pdfrwt>
<pdfrwt beam="2">  1       -2 0.16070460E+00 0.29664114E+04</pdfrwt>
<totfact> 0.12456895E+00</totfact>
</mgrwt>
</event>
<event>
 6    1  0.3017327E-006  0.2277121E+04  0.7818608E-02  0.8486997E-01
         -2   -1    0    0    0  501 -0.00000000000E+00  0.00000000000E+00  0.55522116998E+03  0.55522116998E+03  0.00000000000E+00 0.  1.
          2   -1    0    0  501    0  0.00000000000E+00 -0.00000000000E+00 -0.23347803488E+04  0.23347803488E+04  0.00000000000E+00 0. -1.
         23    2    1    2    0    0 -0.37023933847E+03 -0.48121396782E+03  0.32879362943E+03  0.69596514383E+03  0.87282186563E+02 0.  0.
         11    1    3    3    0    0 -0.18856868685E+03 -0.31495072303E+03  0.20107299834E+03  0.41854803578E+03  0.00000000000E+00 0. -1.
        -11    1    3    3    0    0 -0.18167065162E+03 -0.16626324480E+03  0.12772063109E+03  0.27741710805E+03  0.00000000000E+00 0.  1.
         22    1    1    2    0    0  0.37023933847E+03  0.48121396782E+03 -0.21083528082E+04  0.21940363749E+04  0.00000000000E+00 0. -1.
<mgrwt>
<rscale>  0 0.22771205E+04</rscale>
<asrwt>0</asrwt>
<pdfrwt beam="1">  1        2 0.35919698E+00 0.22771205E+04</pdfrwt>
<pdfrwt beam="2">  1       -2 0.85418642E-01 0.22771205E+04</pdfrwt>
<totfact> 0.46874611E+00</totfact>
</mgrwt>
</event>
<event>
 6    1  0.3017327E-006  0.2049244E+04  0.7818608E-02  0.8583938E-01
         -2   -1    0    0    0  501 -0.00000000000E+00  0.00000000000E+00  0.10450051091E+04  0.10450051091E+04  0.00000000000E+00 0. -1.
          2   -1    0    0  501    0  0.00000000000E+00 -0.00000000000E+00 -0.10046361038E+04  0.10046361038E+04  0.00000000000E+00 0.  1.
         23    2    1    2    0    0  0.27370945837E+03  0.46010136355E+03  0.89159316134E+03  0.10440604374E+04  0.92269708815E+02 0.  0.
         11    1    3    3    0    0  0.25650783389E+03  0.37386871912E+03  0.77707755739E+03  0.89967973089E+03  0.00000000000E+00 0.  1.
        -11    1    3    3    0    0  0.17201624476E+02  0.86232644436E+02  0.11451560395E+03  0.14438070646E+03  0.00000000000E+00 0. -1.
         22    1    1    2    0    0 -0.27370945837E+03 -0.46010136355E+03 -0.85122415604E+03  0.10055807756E+04  0.00000000000E+00 0.  1.
<mgrwt>
<rscale>  0 0.20492436E+04</rscale>
<asrwt>0</asrwt>
<pdfrwt beam="1">  1        2 0.15455940E+00 0.20492436E+04</pdfrwt>
<pdfrwt beam="2">  1       -2 0.16077002E+00 0.20492436E+04</pdfrwt>
<totfact> 0.57543162E+00</totfact>
</mgrwt>
</event>
<event>
 6    1  0.3017327E-006  0.1114695E+04  0.7818608E-02  0.9190986E-01
          4   -1    0    0  501    0  0.00000000000E+00  0.00000000000E+00  0.32086917970E+03  0.32086917970E+03  0.00000000000E+00 0. -1.
         -4   -1    0    0    0  501 -0.00000000000E+00 -0.00000000000E+00 -0.96810920785E+03  0.96810920785E+03  0.00000000000E+00 0.  1.
         23    2    1    2    0    0 -0.20617249178E+03  0.81193752442E+02  0.26084225829E+03  0.35425224543E+03  0.91413608823E+02 0.  0.
         11    1    3    3    0    0 -0.59033476776E+02  0.70641333804E+02  0.94759784664E+02  0.13211573037E+03  0.00000000000E+00 0. -1.
        -11    1    3    3    0    0 -0.14713901501E+03  0.10552418638E+02  0.16608247363E+03  0.22213651506E+03  0.00000000000E+00 0.  1.
         22    1    1    2    0    0  0.20617249178E+03 -0.81193752442E+02 -0.90808228644E+03  0.93472614212E+03  0.00000000000E+00 0.  1.
<mgrwt>
<rscale>  0 0.11146953E+04</rscale>
<asrwt>0</asrwt>
<pdfrwt beam="1">  1        4 0.49364491E-01 0.11146953E+04</pdfrwt>
<pdfrwt beam="2">  1       -4 0.14893987E+00 0.11146953E+04</pdfrwt>
<totfact> 0.23776309E+00</totfact>
</mgrwt>
</event>
<event>
 6    1  0.3017327E-006  0.3180285E+04  0.7818608E-02  0.8194043E-01
         -4   -1    0    0    0  501 -0.00000000000E+00  0.00000000000E+00  0.14862563208E+04  0.14862563208E+04  0.00000000000E+00 0.  1.
          4   -1    0    0  501    0  0.00000000000E+00 -0.00000000000E+00 -0.17012905323E+04  0.17012905323E+04  0.00000000000E+00 0. -1.
         23    2    1    2    0    0 -0.11286702166E+04 -0.38224075829E+03 -0.11610096051E+04  0.16660758870E+04  0.88662860632E+02 0.  0.
         13    1    3    3    0    0 -0.80837142623E+03 -0.31434789109E+03 -0.85558556171E+03  0.12183208169E+04  0.00000000000E+00 0. -1.
        -13    1    3    3    0    0 -0.32029879036E+03 -0.67892867202E+02 -0.30542404343E+03  0.44775507013E+03  0.00000000000E+00 0.  1.
         22    1    1    2    0    0  0.11286702166E+04  0.38224075829E+03  0.94597539368E+03  0.15214709661E+04  0.00000000000E+00 0.  1.
<mgrwt>
<rscale>  0 0.31802854E+04</rscale>
<asrwt>0</asrwt>
<pdfrwt beam="1">  1        4 0.26173700E+00 0.31802854E+04</pdfrwt>
<pdfrwt beam="2">  1       -4 0.22865482E+00 0.31802854E+04</pdfrwt>
<totfact> 0.76632145E-03</totfact>
</mgrwt>
</event>
<event>
 6    1  0.3017327E-006  0.4988739E+04  0.7818608E-02  0.7830247E-01
          2   -1    0    0  501    0  0.00000000000E+00  0.00000000000E+00  0.41176095010E+04  0.41176095010E+04  0.00000000000E+00 0.  1.
         -2   -1    0    0    0  501 -0.00000000000E+00 -0.00000000000E+00 -0.15110412948E+04  0.15110412948E+04  0.00000000000E+00 0. -1.
         23    2    1    2    0    0 -0.15903716190E+04  0.17255978396E+04  0.22548328898E+04  0.32557438184E+04  0.92879811028E+02 0.  0.
         13    1    3    3    0    0 -0.24763285813E+03  0.23383421518E+03  0.35908682836E+03  0.49491799615E+03  0.00000000000E+00 0.  1.
        -13    1    3    3    0    0 -0.13427387609E+04  0.14917636244E+04  0.18957460614E+04  0.27608258222E+04  0.00000000000E+00 0. -1.
         22    1    1    2    0    0  0.15903716190E+04 -0.17255978396E+04  0.35173531641E+03  0.23729069774E+04  0.00000000000E+00 0. -1.
<mgrwt>
<rscale>  0 0.49887385E+04</rscale>
<asrwt>0</asrwt>
<pdfrwt beam="1">  1        2 0.63347838E+00 0.49887385E+04</pdfrwt>
<pdfrwt beam="2">  1       -2 0.23246789E+00 0.49887385E+04</pdfrwt>
<totfact> 0.16353744E-02</totfact>
</mgrwt>
</event>
<event>
 6    1  0.3017327E-006  0.1107326E+04  0.7818608E-02  0.9198081E-01
          2   -1    0    0  501    0  0.00000000000E+00  0.00000000000E+00  0.39357885440E+03  0.39357885440E+03  0.00000000000E+00 0. -1.
         -2   -1    0    0    0  501 -0.00000000000E+00 -0.00000000000E+00 -0.77885928748E+03  0.77885928748E+03  0.00000000000E+00 0.  1.
         23    2    1    2    0    0 -0.31354142865E+03  0.87114380829E+02  0.27537379155E+03  0.43598641410E+03  0.91412719987E+02 0.  0.
         11    1    3    3    0    0 -0.28750877046E+03  0.90173751015E+02  0.21497268272E+03  0.37014301666E+03  0.00000000000E+00 0. -1.
        -11    1    3    3    0    0 -0.26032658191E+02 -0.30593701863E+01  0.60401108830E+02  0.65843397439E+02  0.00000000000E+00 0.  1.
         22    1    1    2    0    0  0.31354142865E+03 -0.87114380829E+02 -0.66065422463E+03  0.73645172778E+03  0.00000000000E+00 0.  1.
<mgrwt>
<rscale>  0 0.11073257E+04</rscale>
<asrwt>0</asrwt>
<pdfrwt beam="1">  1        2 0.60550593E-01 0.11073257E+04</pdfrwt>
<pdfrwt beam="2">  1       -2 0.11982450E+00 0.11073257E+04</pdfrwt>
<totfact> 0.42817297E+01</totfact>
</mgrwt>
</event>
<event>
 6    1  0.3017327E-006  0.2870405E+04  0.7818608E-02  0.8281738E-01
         -2   -1    0    0    0  501 -0.00000000000E+00  0.00000000000E+00  0.92320225035E+03  0.92320225035E+03  0.00000000000E+00 0.  1.
          2   -1    0    0  501    0  0.00000000000E+00 -0.00000000000E+00 -0.22311539804E+04  0.22311539804E+04  0.00000000000E+00 0. -1.
         23    2    1    2    0    0  0.37956744527E+03  0.45333062950E+03 -0.20900847784E+04  0.21738909277E+04  0.88132171123E+02 0.  0.
         11    1    3    3    0    0  0.25213787577E+03  0.27194227470E+03 -0.11641361040E+04  0.12217769754E+04  0.00000000000E+00 0. -1.
        -11    1    3    3    0    0  0.12742956951E+03  0.18138835480E+03 -0.92594867444E+03  0.95211395229E+03  0.00000000000E+00 0.  1.
         22    1    1    2    0    0 -0.37956744527E+03 -0.45333062950E+03  0.78213304834E+03  0.98046530303E+03  0.00000000000E+00 0.  1.
<mgrwt>
<rscale>  0 0.28704051E+04</rscale>
<asrwt>0</asrwt>
<pdfrwt beam="1">  1        2 0.34325445E+00 0.28704051E+04</pdfrwt>
<pdfrwt beam="2">  1       -2 0.14203112E+00 0.28704051E+04</pdfrwt>
<totfact> 0.14841094E+00</totfact>
</mgrwt>
</event>
<event>
 6    1  0.3017327E-006  0.7988862E+03  0.7818608E-02  0.9561631E-01
          3   -1    0    0  501    0  0.00000000000E+00  0.00000000000E+00  0.67703587482E+03  0.67703587482E+03  0.00000000000E+00 0. -1.
         -3   -1    0    0    0  501 -0.00000000000E+00 -0.00000000000E+00 -0.23566665874E+03  0.23566665874E+03  0.00000000000E+00 0.  1.
         23    2    1    2    0    0 -0.24475816252E+03  0.23035931110E+03 -0.11972792793E+02  0.34835251155E+03  0.90742240463E+02 0.  0.
         11    1    3    3    0    0 -0.49259924277E+02  0.93286851089E+02 -0.27702293009E+02  0.10907059074E+03  0.00000000000E+00 0. -1.
        -11    1    3    3    0    0 -0.19549823825E+03  0.13707246001E+03  0.15729500216E+02  0.23928192082E+03  0.00000000000E+00 0.  1.
         22    1    1    2    0    0  0.24475816252E+03 -0.23035931110E+03  0.45334200887E+03  0.56435002201E+03  0.00000000000E+00 0.  1.
<mgrwt>
<rscale>  0 0.79888618E+03</rscale>
<asrwt>0</asrwt>
<pdfrwt beam="1">  1        3 0.10415936E+00 0.79888618E+03</pdfrwt>
<pdfrwt beam="2">  1       -3 0.36256409E-01 0.79888618E+03</pdfrwt>
<totfact> 0.15787646E+01</totfact>
</mgrwt>
</event>
<event>
 6    1  0.3017327E-006  0.3024889E+04  0.7818608E-02  0.8236659E-01
         -2   -1    0    0    0  501 -0.00000000000E+00  0.00000000000E+00  0.95687280442E+03  0.95687280442E+03  0.00000000000E+00 0.  1.
          2   -1    0    0  501    0  0.00000000000E+00 -0.00000000000E+00 -0.23905879016E+04  0.23905879016E+04  0.00000000000E+00 0. -1.
         23    2    1    2    0    0  0.75069765642E+02 -0.13003063816E+04 -0.15653889705E+04  0.20383502582E+04  0.89425894610E+02 0.  0.
         13    1    3    3    0    0  0.17535669652E+02 -0.36025214257E+03 -0.37280051264E+03  0.51871892983E+03  0.00000000000E+00 0.  1.
        -13    1    3    3    0    0  0.57534095990E+02 -0.94005423899E+03 -0.11925884579E+04  0.15196313284E+04  0.00000000000E+00 0. -1.
         22    1    1    2    0    0 -0.75069765642E+02  0.13003063816E+04  0.13167387330E+03  0.13091104478E+04  0.00000000000E+00 0.  1.
<mgrwt>
<rscale>  0 0.30248891E+04</rscale>
<asrwt>0</asrwt>
<pdfrwt beam="1">  1        2 0.36778275E+00 0.30248891E+04</pdfrwt>
<pdfrwt beam="2">  1       -2 0.14721120E+00 0.30248891E+04</pdfrwt>
<totfact> 0.10825814E+00</totfact>
</mgrwt>
</event>
<event>
 6    1  0.3017327E-006  0.3108036E+04  0.7818608E-02  0.8213536E-01
          2   -1    0    0  501    0  0.00000000000E+00  0.00000000000E+00  0.17119276177E+04  0.17119276177E+04  0.00000000000E+00 0. -1.
         -2   -1    0    0    0  501 -0.00000000000E+00 -0.00000000000E+00 -0.14106743935E+04  0.14106743935E+04  0.00000000000E+00 0.  1.
         23    2    1    2    0    0 -0.14160580015E+04  0.53700705948E+03  0.49465200662E+03  0.15958407546E+04  0.91816450793E+02 0.  0.
         13    1    3    3    0    0 -0.11221967535E+04  0.42912264467E+03  0.43086823036E+03  0.12763695506E+04  0.00000000000E+00 0. -1.
        -13    1    3    3    0    0 -0.29386124806E+03  0.10788441481E+03  0.63783776254E+02  0.31947120400E+03  0.00000000000E+00 0.  1.
         22    1    1    2    0    0  0.14160580015E+04 -0.53700705948E+03 -0.19339878238E+03  0.15267612566E+04  0.00000000000E+00 0.  1.
<mgrwt>
<rscale>  0 0.31080363E+04</rscale>
<asrwt>0</asrwt>
<pdfrwt beam="1">  1        2 0.26337348E+00 0.31080363E+04</pdfrwt>
<pdfrwt beam="2">  1       -2 0.21702683E+00 0.31080363E+04</pdfrwt>
<totfact> 0.84599586E-01</totfact>
</mgrwt>
</event>
<event>
 6    1  0.3017327E-006  0.1843737E+04  0.7818608E-02  0.8683380E-01
         -2   -1    0    0    0  501 -0.00000000000E+00  0.00000000000E+00  0.92949303631E+03  0.92949303631E+03  0.00000000000E+00 0.  1.
          2   -1    0    0  501    0  0.00000000000E+00 -0.00000000000E+00 -0.91430617401E+03  0.91430617401E+03  0.00000000000E+00 0. -1.
         23    2    1    2    0    0  0.20032415544E+03  0.19646044903E+03  0.88331207257E+03  0.93145724811E+03  0.92983397530E+02 0.  0.
         13    1    3    3    0    0  0.14636956527E+03  0.99777580840E+02  0.64139209498E+03  0.66540471503E+03  0.00000000000E+00 0.  1.
        -13    1    3    3    0    0  0.53954590179E+02  0.96682868188E+02  0.24191997759E+03  0.26605253309E+03  0.00000000000E+00 0. -1.
         22    1    1    2    0    0 -0.20032415544E+03 -0.19646044903E+03 -0.86812521027E+03  0.91234196221E+03  0.00000000000E+00 0. -1.
<mgrwt>
<rscale>  0 0.18437367E+04</rscale>
<asrwt>0</asrwt>
<pdfrwt beam="1">  1        2 0.14066249E+00 0.18437367E+04</pdfrwt>
<pdfrwt beam="2">  1       -2 0.14299893E+00 0.18437367E+04</pdfrwt>
<totfact> 0.91667570E+00</totfact>
</mgrwt>
</event>
<event>
 6    1  0.3017327E-006  0.2131528E+04  0.7818608E-02  0.8547481E-01
         -2   -1    0    0    0  501 -0.00000000000E+00  0.00000000000E+00  0.10513194223E+04  0.10513194223E+04  0.00000000000E+00 0.  1.
          2   -1    0    0  501    0  0.00000000000E+00 -0.00000000000E+00 -0.10804070627E+04  0.10804070627E+04  0.00000000000E+00 0. -1.
         23    2    1    2    0    0 -0.73625218246E+02 -0.44321785041E+03  0.94964607839E+03  0.10547945337E+04  0.94345632528E+02 0.  0.
         13    1    3    3    0    0 -0.48952018610E+02 -0.19362550696E+03  0.52372775185E+03  0.56051574030E+03  0.00000000000E+00 0.  1.
        -13    1    3    3    0    0 -0.24673199636E+02 -0.24959234345E+03  0.42591832654E+03  0.49427879336E+03  0.00000000000E+00 0. -1.
         22    1    1    2    0    0  0.73625218246E+02  0.44321785041E+03 -0.97873371870E+03  0.10769319513E+04  0.00000000000E+00 0. -1.
<mgrwt>
<rscale>  0 0.21315280E+04</rscale>
<asrwt>0</asrwt>
<pdfrwt beam="1">  1        2 0.16621647E+00 0.21315280E+04</pdfrwt>
<pdfrwt beam="2">  1       -2 0.16174145E+00 0.21315280E+04</pdfrwt>
<totfact> 0.50359515E+00</totfact>
</mgrwt>
</event>
<event>
 6    1  0.3017327E-006  0.3451532E+04  0.7818608E-02  0.8125373E-01
         -2   -1    0    0    0  501 -0.00000000000E+00  0.00000000000E+00  0.13686416060E+04  0.13686416060E+04  0.00000000000E+00 0.  1.
          2   -1    0    0  501    0  0.00000000000E+00 -0.00000000000E+00 -0.21760759064E+04  0.21760759064E+04  0.00000000000E+00 0. -1.
         23    2    1    2    0    0 -0.10595128918E+04  0.10007265941E+04  0.54272180093E+03  0.15580260966E+04  0.94218259419E+02 0.  0.
         13    1    3    3    0    0 -0.54899239990E+03  0.53258593685E+03  0.33374952573E+03  0.83452332574E+03  0.00000000000E+00 0. -1.
        -13    1    3    3    0    0 -0.51052049188E+03  0.46814065725E+03  0.20897227520E+03  0.72350277083E+03  0.00000000000E+00 0.  1.
         22    1    1    2    0    0  0.10595128918E+04 -0.10007265941E+04 -0.13501561014E+04  0.19866914159E+04  0.00000000000E+00 0. -1.
<mgrwt>
<rscale>  0 0.34515318E+04</rscale>
<asrwt>0</asrwt>
<pdfrwt beam="1">  1        2 0.33478091E+00 0.34515318E+04</pdfrwt>
<pdfrwt beam="2">  1       -2 0.21056025E+00 0.34515318E+04</pdfrwt>
<totfact> 0.49901310E-01</totfact>
</mgrwt>
</event>
<event>
 6    1  0.3017327E-006  0.5016659E+04  0.7818608E-02  0.7825943E-01
          2   -1    0    0  501    0  0.00000000000E+00  0.00000000000E+00  0.25314251151E+04  0.25314251151E+04  0.00000000000E+00 0. -1.
         -2   -1    0    0    0  501 -0.00000000000E+00 -0.00000000000E+00 -0.24854442072E+04  0.24854442072E+04  0.00000000000E+00 0.  1.
         23    2    1    2    0    0  0.38818226896E+03  0.39037989530E+03 -0.24234092745E+04  0.24868555259E+04  0.91956286279E+02 0.  0.
         13    1    3    3    0    0  0.22567605487E+03  0.28265794551E+03 -0.14860231931E+04  0.15294084237E+04  0.00000000000E+00 0. -1.
        -13    1    3    3    0    0  0.16250621408E+03  0.10772194979E+03 -0.93738608138E+03  0.95744710227E+03  0.00000000000E+00 0.  1.
         22    1    1    2    0    0 -0.38818226896E+03 -0.39037989530E+03  0.24693901824E+04  0.25300137963E+04  0.00000000000E+00 0. -1.
<mgrwt>
<rscale>  0 0.50166586E+04</rscale>
<asrwt>0</asrwt>
<pdfrwt beam="1">  1        2 0.38945002E+00 0.50166586E+04</pdfrwt>
<pdfrwt beam="2">  1       -2 0.38237603E+00 0.50166586E+04</pdfrwt>
<totfact> 0.23462426E-02</totfact>
</mgrwt>
</event>
<event>
 6    1  0.3017327E-006  0.5534893E+04  0.7818608E-02  0.7750906E-01
         -2   -1    0    0    0  501 -0.00000000000E+00  0.00000000000E+00  0.19921877739E+04  0.19921877739E+04  0.00000000000E+00 0.  1.
          2   -1    0    0  501    0  0.00000000000E+00 -0.00000000000E+00 -0.38443962531E+04  0.38443962531E+04  0.00000000000E+00 0. -1.
         23    2    1    2    0    0  0.11871307238E+04 -0.18647617802E+04  0.82805165305E+03  0.23623344347E+04  0.91315875563E+02 0.  0.
         13    1    3    3    0    0  0.70030247461E+03 -0.10944741227E+04  0.53448187881E+03  0.14049797294E+04  0.00000000000E+00 0. -1.
        -13    1    3    3    0    0  0.48682824919E+03 -0.77028765754E+03  0.29356977423E+03  0.95735470538E+03  0.00000000000E+00 0.  1.
         22    1    1    2    0    0 -0.11871307238E+04  0.18647617802E+04 -0.26802601322E+04  0.34742495922E+04  0.00000000000E+00 0. -1.
<mgrwt>
<rscale>  0 0.55348927E+04</rscale>
<asrwt>0</asrwt>
<pdfrwt beam="1">  1        2 0.59144557E+00 0.55348927E+04</pdfrwt>
<pdfrwt beam="2">  1       -2 0.30649043E+00 0.55348927E+04</pdfrwt>
<totfact> 0.91543270E-03</totfact>
</mgrwt>
</event>
<event>
 6    1  0.3017327E-006  0.1396498E+04  0.7818608E-02  0.8956357E-01
          2   -1    0    0  501    0  0.00000000000E+00  0.00000000000E+00  0.25257991329E+04  0.25257991329E+04  0.00000000000E+00 0. -1.
         -2   -1    0    0    0  501 -0.00000000000E+00 -0.00000000000E+00 -0.19302865317E+03  0.19302865317E+03  0.00000000000E+00 0.  1.
         23    2    1    2    0    0  0.14359319717E+03 -0.42019494373E+03  0.22120263675E+04  0.22586518005E+04  0.10613438880E+03 0.  0.
         11    1    3    3    0    0  0.13103081303E+03 -0.28105878007E+03  0.16922755256E+04  0.17204533026E+04  0.00000000000E+00 0.  1.
        -11    1    3    3    0    0  0.12562384138E+02 -0.13913616366E+03  0.51975084195E+03  0.53819849799E+03  0.00000000000E+00 0. -1.
         22    1    1    2    0    0 -0.14359319717E+03  0.42019494373E+03  0.12074411219E+03  0.46017598551E+03  0.00000000000E+00 0.  1.
<mgrwt>
<rscale>  0 0.13964979E+04</rscale>
<asrwt>0</asrwt>
<pdfrwt beam="1">  1        2 0.38858446E+00 0.13964979E+04</pdfrwt>
<pdfrwt beam="2">  1       -2 0.29696718E-01 0.13964979E+04</pdfrwt>
<totfact> 0.34351625E+01</totfact>
</mgrwt>
</event>
<event>
 6    1  0.3017327E-006  0.2832201E+04  0.7818608E-02  0.8293340E-01
          2   -1    0    0  501    0  0.00000000000E+00  0.00000000000E+00  0.70444410223E+03  0.70444410223E+03  0.00000000000E+00 0. -1.
         -2   -1    0    0    0  501 -0.00000000000E+00 -0.00000000000E+00 -0.28467000031E+04  0.28467000031E+04  0.00000000000E+00 0.  1.
         23    2    1    2    0    0 -0.84980357102E+03 -0.70227849351E+03 -0.21841503902E+04  0.24479141474E+04  0.80059691197E+02 0.  0.
         13    1    3    3    0    0 -0.37350657970E+03 -0.25817939445E+03 -0.88389491440E+03  0.99369712916E+03  0.00000000000E+00 0. -1.
        -13    1    3    3    0    0 -0.47629699132E+03 -0.44409909906E+03 -0.13002554758E+04  0.14542170182E+04  0.00000000000E+00 0.  1.
         22    1    1    2    0    0  0.84980357102E+03  0.70227849351E+03  0.41894489384E+02  0.11032299579E+04  0.00000000000E+00 0. -1.
<mgrwt>
<rscale>  0 0.28322013E+04</rscale>
<asrwt>0</asrwt>
<pdfrwt beam="1">  1        2 0.10837602E+00 0.28322013E+04</pdfrwt>
<pdfrwt beam="2">  1       -2 0.43795385E+00 0.28322013E+04</pdfrwt>
<totfact> 0.14694475E-01</totfact>
</mgrwt>
</event>
<event>
 6    1  0.3017327E-006  0.2175026E+04  0.7818608E-02  0.8528895E-01
          2   -1    0    0  501    0  0.00000000000E+00  0.00000000000E+00  0.19876866793E+04  0.19876866793E+04  0.00000000000E+00 0. -1.
         -2   -1    0    0    0  501 -0.00000000000E+00 -0.00000000000E+00 -0.59500535345E+03  0.59500535345E+03  0.00000000000E+00 0.  1.
         23    2    1    2    0    0 -0.24532105401E+03  0.10430024571E+04  0.90864102575E+03  0.14069660625E+04  0.76736185228E+02 0.  0.
         11    1    3    3    0    0 -0.14892641929E+03  0.63905997132E+03  0.60488658597E+03  0.89244860199E+03  0.00000000000E+00 0.  1.
        -11    1    3    3    0    0 -0.96394634726E+02  0.40394248580E+03  0.30375443978E+03  0.51451746046E+03  0.00000000000E+00 0. -1.
         22    1    1    2    0    0  0.24532105401E+03 -0.10430024571E+04  0.48404030010E+03  0.11757259703E+04  0.00000000000E+00 0.  1.
<mgrwt>
<rscale>  0 0.21750257E+04</rscale>
<asrwt>0</asrwt>
<pdfrwt beam="1">  1        2 0.30579795E+00 0.21750257E+04</pdfrwt>
<pdfrwt beam="2">  1       -2 0.91539286E-01 0.21750257E+04</pdfrwt>
<totfact> 0.63165448E+00</totfact>
</mgrwt>
</event>
<event>
 6    1  0.3017327E-006  0.1549027E+04  0.7818608E-02  0.8852490E-01
         -2   -1    0    0    0  501 -0.00000000000E+00  0.00000000000E+00  0.38559275333E+03  0.38559275333E+03  0.00000000000E+00 0.  1.
          2   -1    0    0  501    0  0.00000000000E+00 -0.00000000000E+00 -0.15557110499E+04  0.15557110499E+04  0.00000000000E+00 0. -1.
         23    2    1    2    0    0  0.38179565491E+03 -0.53360893508E+03 -0.10964650715E+04  0.12810529303E+04  0.91403169475E+02 0.  0.
         11    1    3    3    0    0  0.24096464199E+03 -0.36596947323E+03 -0.80483533105E+03  0.91638284802E+03  0.00000000000E+00 0. -1.
        -11    1    3    3    0    0  0.14083101292E+03 -0.16763946185E+03 -0.29162974049E+03  0.36467008227E+03  0.00000000000E+00 0.  1.
         22    1    1    2    0    0 -0.38179565491E+03  0.53360893508E+03 -0.73653225069E+02  0.66025087298E+03  0.00000000000E+00 0.  1.
<mgrwt>
<rscale>  0 0.15490267E+04</rscale>
<asrwt>0</asrwt>
<pdfrwt beam="1">  1        2 0.23934016E+00 0.15490267E+04</pdfrwt>
<pdfrwt beam="2">  1       -2 0.59321961E-01 0.15490267E+04</pdfrwt>
<totfact> 0.30152777E+01</totfact>
</mgrwt>
</event>
<event>
 6    1  0.3017327E-006  0.1433555E+04  0.7818608E-02  0.8929882E-01
         -1   -1    0    0    0  501 -0.00000000000E+00  0.00000000000E+00  0.58912515989E+03  0.58912515989E+03  0.00000000000E+00 0.  1.
          1   -1    0    0  501    0  0.00000000000E+00 -0.00000000000E+00 -0.87208944054E+03  0.87208944054E+03  0.00000000000E+00 0. -1.
         23    2    1    2    0    0  0.86263608113E+02  0.67025844084E+03  0.92387532315E+02  0.68818370125E+03  0.91507174217E+02 0.  0.
         11    1    3    3    0    0 -0.99091530529E+01  0.56085562878E+02 -0.10947209408E+02  0.57996750524E+02  0.00000000000E+00 0.  1.
        -11    1    3    3    0    0  0.96172761166E+02  0.61417287796E+03  0.10333474172E+03  0.63018695072E+03  0.00000000000E+00 0. -1.
         22    1    1    2    0    0 -0.86263608113E+02 -0.67025844084E+03 -0.37535181296E+03  0.77303089919E+03  0.00000000000E+00 0.  1.
<mgrwt>
<rscale>  0 0.14335548E+04</rscale>
<asrwt>0</asrwt>
<pdfrwt beam="1">  1        1 0.13416761E+00 0.14335548E+04</pdfrwt>
<pdfrwt beam="2">  1       -1 0.90634640E-01 0.14335548E+04</pdfrwt>
<totfact> 0.22203694E+01</totfact>
</mgrwt>
</event>
<event>
 6    1  0.3017327E-006  0.2426674E+04  0.7818608E-02  0.8429584E-01
          2   -1    0    0  501    0  0.00000000000E+00  0.00000000000E+00  0.46464094134E+04  0.46464094134E+04  0.00000000000E+00 0. -1.
         -2   -1    0    0    0  501 -0.00000000000E+00 -0.00000000000E+00 -0.31684390090E+03  0.31684390090E+03  0.00000000000E+00 0.  1.
         23    2    1    2    0    0 -0.10524516322E+04  0.22120590178E+03  0.10262640166E+04  0.14892948716E+04  0.90525651339E+02 0.  0.
         13    1    3    3    0    0 -0.27044332876E+03  0.46695962333E+02  0.21073173381E+03  0.34601729813E+03  0.00000000000E+00 0. -1.
        -13    1    3    3    0    0 -0.78200830345E+03  0.17450993944E+03  0.81553228281E+03  0.11432775734E+04  0.00000000000E+00 0.  1.
         22    1    1    2    0    0  0.10524516322E+04 -0.22120590178E+03  0.33033014958E+04  0.34739584427E+04  0.00000000000E+00 0. -1.
<mgrwt>
<rscale>  0 0.24266738E+04</rscale>
<asrwt>0</asrwt>
<pdfrwt beam="1">  1        2 0.71483217E+00 0.24266738E+04</pdfrwt>
<pdfrwt beam="2">  1       -2 0.48745219E-01 0.24266738E+04</pdfrwt>
<totfact> 0.31543684E-01</totfact>
</mgrwt>
</event>
<event>
 6    1  0.3017327E-006  0.1265129E+04  0.7818608E-02  0.9057685E-01
          2   -1    0    0  501    0  0.00000000000E+00  0.00000000000E+00  0.11839007374E+04  0.11839007374E+04  0.00000000000E+00 0. -1.
         -2   -1    0    0    0  501 -0.00000000000E+00 -0.00000000000E+00 -0.33798239320E+03  0.33798239320E+03  0.00000000000E+00 0.  1.
         23    2    1    2    0    0  0.53684247457E+03  0.92787896955E+02  0.47986087130E+02  0.55570233842E+03  0.98452973782E+02 0.  0.
         11    1    3    3    0    0  0.24000235031E+03  0.89067308519E+02  0.76450377923E+01  0.25611044533E+03  0.00000000000E+00 0.  1.
        -11    1    3    3    0    0  0.29684012425E+03  0.37205884355E+01  0.40341049338E+02  0.29959189309E+03  0.00000000000E+00 0. -1.
         22    1    1    2    0    0 -0.53684247457E+03 -0.92787896955E+02  0.79793225707E+03  0.96618079219E+03  0.00000000000E+00 0. -1.
<mgrwt>
<rscale>  0 0.12651286E+04</rscale>
<asrwt>0</asrwt>
<pdfrwt beam="1">  1        2 0.18213857E+00 0.12651286E+04</pdfrwt>
<pdfrwt beam="2">  1       -2 0.51997292E-01 0.12651286E+04</pdfrwt>
<totfact> 0.66435208E+01</totfact>
</mgrwt>
</event>
<event>
 6    1  0.3017327E-006  0.2858049E+04  0.7818608E-02  0.8285470E-01
          2   -1    0    0  501    0  0.00000000000E+00  0.00000000000E+00  0.19802168760E+04  0.19802168760E+04  0.00000000000E+00 0. -1.
         -2   -1    0    0    0  501 -0.00000000000E+00 -0.00000000000E+00 -0.10312565710E+04  0.10312565710E+04  0.00000000000E+00 0.  1.
         23    2    1    2    0    0 -0.78912093080E+03  0.11864875655E+04  0.56553165555E+03  0.15358440504E+04  0.92338006114E+02 0.  0.
         13    1    3    3    0    0 -0.15255442056E+03  0.20310706898E+03  0.66733352731E+02  0.26263791248E+03  0.00000000000E+00 0. -1.
        -13    1    3    3    0    0 -0.63656651024E+03  0.98338049651E+03  0.49879830281E+03  0.12732061380E+04  0.00000000000E+00 0.  1.
         22    1    1    2    0    0  0.78912093080E+03 -0.11864875655E+04  0.38342864945E+03  0.14756293965E+04  0.00000000000E+00 0.  1.
<mgrwt>
<rscale>  0 0.28580495E+04</rscale>
<asrwt>0</asrwt>
<pdfrwt beam="1">  1        2 0.30464875E+00 0.28580495E+04</pdfrwt>
<pdfrwt beam="2">  1       -2 0.15865486E+00 0.28580495E+04</pdfrwt>
<totfact> 0.15297801E+00</totfact>
</mgrwt>
</event>
<event>
 6    1  0.3017327E-006  0.3554758E+04  0.7818608E-02  0.8100934E-01
          2   -1    0    0  501    0  0.00000000000E+00  0.00000000000E+00  0.30297197628E+04  0.30297197628E+04  0.00000000000E+00 0. -1.
         -2   -1    0    0    0  501 -0.00000000000E+00 -0.00000000000E+00 -0.10426955680E+04  0.10426955680E+04  0.00000000000E+00 0.  1.
         23    2    1    2    0    0  0.14005659646E+04  0.21847946346E+03  0.22203220575E+04  0.26358408671E+04  0.92242833603E+02 0.  0.
         13    1    3    3    0    0  0.54604001866E+03  0.10222654496E+03  0.94826235587E+03  0.10990047607E+04  0.00000000000E+00 0. -1.
        -13    1    3    3    0    0  0.85452594596E+03  0.11625291850E+03  0.12720597016E+04  0.15368361064E+04  0.00000000000E+00 0.  1.
         22    1    1    2    0    0 -0.14005659646E+04 -0.21847946346E+03 -0.23329786265E+03  0.14365744638E+04  0.00000000000E+00 0.  1.
<mgrwt>
<rscale>  0 0.35547576E+04</rscale>
<asrwt>0</asrwt>
<pdfrwt beam="1">  1        2 0.46611073E+00 0.35547576E+04</pdfrwt>
<pdfrwt beam="2">  1       -2 0.16041470E+00 0.35547576E+04</pdfrwt>
<totfact> 0.34098944E-01</totfact>
</mgrwt>
</event>
<event>
 6    1  0.3017327E-006  0.3233821E+04  0.7818608E-02  0.8179942E-01
         -1   -1    0    0    0  501 -0.00000000000E+00  0.00000000000E+00  0.10196311357E+04  0.10196311357E+04  0.00000000000E+00 0.  1.
          1   -1    0    0  501    0  0.00000000000E+00 -0.00000000000E+00 -0.25640641153E+04  0.25640641153E+04  0.00000000000E+00 0. -1.
         23    2    1    2    0    0  0.29618421575E+02 -0.13417521965E+04 -0.17696622276E+04  0.22228483008E+04  0.90409960074E+02 0.  0.
         11    1    3    3    0    0 -0.26488567733E+02 -0.53551223008E+03 -0.66931244049E+03  0.85758622644E+03  0.00000000000E+00 0. -1.
        -11    1    3    3    0    0  0.56106989308E+02 -0.80623996646E+03 -0.11003497871E+04  0.13652620744E+04  0.00000000000E+00 0.  1.
         22    1    1    2    0    0 -0.29618421575E+02  0.13417521965E+04  0.22522924795E+03  0.13608469502E+04  0.00000000000E+00 0.  1.
<mgrwt>
<rscale>  0 0.32338210E+04</rscale>
<asrwt>0</asrwt>
<pdfrwt beam="1">  1        1 0.39447140E+00 0.32338210E+04</pdfrwt>
<pdfrwt beam="2">  1       -1 0.15686633E+00 0.32338210E+04</pdfrwt>
<totfact> 0.31478867E-01</totfact>
</mgrwt>
</event>
<event>
 6    1  0.3017327E-006  0.3001360E+04  0.7818608E-02  0.8243343E-01
          2   -1    0    0  501    0  0.00000000000E+00  0.00000000000E+00  0.11979195672E+04  0.11979195672E+04  0.00000000000E+00 0. -1.
         -2   -1    0    0    0  501 -0.00000000000E+00 -0.00000000000E+00 -0.18799601564E+04  0.18799601564E+04  0.00000000000E+00 0.  1.
         23    2    1    2    0    0  0.36931575333E+03 -0.25259061344E+03  0.11260809922E+04  0.12152203890E+04  0.92228245262E+02 0.  0.
         13    1    3    3    0    0  0.26865228503E+03 -0.13760976966E+03  0.68985610342E+03  0.75300195377E+03  0.00000000000E+00 0.  1.
        -13    1    3    3    0    0  0.10066346830E+03 -0.11498084378E+03  0.43622488874E+03  0.46221843521E+03  0.00000000000E+00 0. -1.
         22    1    1    2    0    0 -0.36931575333E+03  0.25259061344E+03 -0.18081215814E+04  0.18626593346E+04  0.00000000000E+00 0.  1.
<mgrwt>
<rscale>  0 0.30013604E+04</rscale>
<asrwt>0</asrwt>
<pdfrwt beam="1">  1        2 0.18429532E+00 0.30013604E+04</pdfrwt>
<pdfrwt beam="2">  1       -2 0.28922464E+00 0.30013604E+04</pdfrwt>
<totfact> 0.60138656E-01</totfact>
</mgrwt>
</event>
<event>
 6    1  0.3017327E-006  0.2754378E+04  0.7818608E-02  0.8317574E-01
         -2   -1    0    0    0  501 -0.00000000000E+00  0.00000000000E+00  0.23079051509E+04  0.23079051509E+04  0.00000000000E+00 0.  1.
          2   -1    0    0  501    0  0.00000000000E+00 -0.00000000000E+00 -0.82180578953E+03  0.82180578953E+03  0.00000000000E+00 0. -1.
         23    2    1    2    0    0 -0.10941487748E+04  0.78003053484E+03  0.10789829667E+04  0.17256621751E+04  0.89980683123E+02 0.  0.
         11    1    3    3    0    0 -0.25748769824E+03  0.21265792031E+03  0.22918466060E+03  0.40502952296E+03  0.00000000000E+00 0. -1.
        -11    1    3    3    0    0 -0.83666107655E+03  0.56737261454E+03  0.84979830611E+03  0.13206326521E+04  0.00000000000E+00 0.  1.
         22    1    1    2    0    0  0.10941487748E+04 -0.78003053484E+03  0.40711639463E+03  0.14040487653E+04  0.00000000000E+00 0. -1.
<mgrwt>
<rscale>  0 0.27543782E+04</rscale>
<asrwt>0</asrwt>
<pdfrwt beam="1">  1        2 0.12643166E+00 0.27543782E+04</pdfrwt>
<pdfrwt beam="2">  1       -2 0.35506233E+00 0.27543782E+04</pdfrwt>
<totfact> 0.41943969E-01</totfact>
</mgrwt>
</event>
<event>
 6    1  0.3017327E-006  0.3706390E+04  0.7818608E-02  0.8066547E-01
          2   -1    0    0  501    0  0.00000000000E+00  0.00000000000E+00  0.26933008114E+04  0.26933008114E+04  0.00000000000E+00 0.  1.
         -2   -1    0    0    0  501 -0.00000000000E+00 -0.00000000000E+00 -0.12751385101E+04  0.12751385101E+04  0.00000000000E+00 0. -1.
         23    2    1    2    0    0  0.74174424601E+03  0.17563946060E+03 -0.10977866141E+04  0.13395550161E+04  0.90765877301E+02 0.  0.
         11    1    3    3    0    0  0.38445667270E+03  0.45281621822E+02 -0.56906814941E+03  0.68825570621E+03  0.00000000000E+00 0. -1.
        -11    1    3    3    0    0  0.35728757331E+03  0.13035783878E+03 -0.52871846466E+03  0.65129930987E+03  0.00000000000E+00 0.  1.
         22    1    1    2    0    0 -0.74174424601E+03 -0.17563946060E+03  0.25159489154E+04  0.26288843054E+04  0.00000000000E+00 0.  1.
<mgrwt>
<rscale>  0 0.37063899E+04</rscale>
<asrwt>0</asrwt>
<pdfrwt beam="1">  1        2 0.41435397E+00 0.37063899E+04</pdfrwt>
<pdfrwt beam="2">  1       -2 0.19617516E+00 0.37063899E+04</pdfrwt>
<totfact> 0.30516886E-01</totfact>
</mgrwt>
</event>
<event>
 6    1  0.3017327E-006  0.1219059E+04  0.7818608E-02  0.9096336E-01
          2   -1    0    0  501    0  0.00000000000E+00  0.00000000000E+00  0.70149642976E+03  0.70149642976E+03  0.00000000000E+00 0. -1.
         -2   -1    0    0    0  501 -0.00000000000E+00 -0.00000000000E+00 -0.52961986058E+03  0.52961986058E+03  0.00000000000E+00 0.  1.
         23    2    1    2    0    0 -0.30167277974E+03  0.40590678986E+03 -0.25090645355E+03  0.57194084146E+03  0.91626904378E+02 0.  0.
         11    1    3    3    0    0 -0.13226417059E+03  0.24392745085E+03 -0.11017678661E+03  0.29855206649E+03  0.00000000000E+00 0. -1.
        -11    1    3    3    0    0 -0.16940860915E+03  0.16197933902E+03 -0.14072966694E+03  0.27338877497E+03  0.00000000000E+00 0.  1.
         22    1    1    2    0    0  0.30167277974E+03 -0.40590678986E+03  0.42278302273E+03  0.65917544888E+03  0.00000000000E+00 0. -1.
<mgrwt>
<rscale>  0 0.12190594E+04</rscale>
<asrwt>0</asrwt>
<pdfrwt beam="1">  1        2 0.10792253E+00 0.12190594E+04</pdfrwt>
<pdfrwt beam="2">  1       -2 0.81479978E-01 0.12190594E+04</pdfrwt>
<totfact> 0.53437326E+01</totfact>
</mgrwt>
</event>
<event>
 6    1  0.3017327E-006  0.1231436E+04  0.7818608E-02  0.9085777E-01
         -2   -1    0    0    0  501 -0.00000000000E+00  0.00000000000E+00  0.29519947492E+03  0.29519947492E+03  0.00000000000E+00 0.  1.
          2   -1    0    0  501    0  0.00000000000E+00 -0.00000000000E+00 -0.12842461572E+04  0.12842461572E+04  0.00000000000E+00 0. -1.
         23    2    1    2    0    0 -0.60219051751E+03  0.57088162454E+02 -0.37408394326E+03  0.71684975452E+03  0.89678850769E+02 0.  0.
         11    1    3    3    0    0 -0.41042493836E+03  0.16019808167E+02 -0.21087583915E+03  0.46170757392E+03  0.00000000000E+00 0.  1.
        -11    1    3    3    0    0 -0.19176557915E+03  0.41068354288E+02 -0.16320810412E+03  0.25514218060E+03  0.00000000000E+00 0. -1.
         22    1    1    2    0    0  0.60219051751E+03 -0.57088162454E+02 -0.61496273905E+03  0.86259587762E+03  0.00000000000E+00 0. -1.
<mgrwt>
<rscale>  0 0.12314362E+04</rscale>
<asrwt>0</asrwt>
<pdfrwt beam="1">  1        2 0.19757633E+00 0.12314362E+04</pdfrwt>
<pdfrwt beam="2">  1       -2 0.45415304E-01 0.12314362E+04</pdfrwt>
<totfact> 0.76416937E+01</totfact>
</mgrwt>
</event>
<event>
 6    1  0.3017327E-006  0.2871014E+04  0.7818608E-02  0.8281554E-01
          2   -1    0    0  501    0  0.00000000000E+00  0.00000000000E+00  0.32740846035E+04  0.32740846035E+04  0.00000000000E+00 0. -1.
         -2   -1    0    0    0  501 -0.00000000000E+00 -0.00000000000E+00 -0.62939113670E+03  0.62939113670E+03  0.00000000000E+00 0.  1.
         23    2    1    2    0    0  0.12279547306E+04  0.67673932612E+03  0.17331045983E+04  0.22310992273E+04  0.91122321805E+02 0.  0.
         13    1    3    3    0    0  0.10412439745E+04  0.53516819823E+03  0.14414399126E+04  0.18569714689E+04  0.00000000000E+00 0. -1.
        -13    1    3    3    0    0  0.18671075608E+03  0.14157112789E+03  0.29166468567E+03  0.37412775834E+03  0.00000000000E+00 0.  1.
         22    1    1    2    0    0 -0.12279547306E+04 -0.67673932612E+03  0.91158886857E+03  0.16723765130E+04  0.00000000000E+00 0. -1.
<mgrwt>
<rscale>  0 0.28710136E+04</rscale>
<asrwt>0</asrwt>
<pdfrwt beam="1">  1        2 0.50370531E+00 0.28710136E+04</pdfrwt>
<pdfrwt beam="2">  1       -2 0.96829407E-01 0.28710136E+04</pdfrwt>
<totfact> 0.89317432E-01</totfact>
</mgrwt>
</event>
<event>
 6    1  0.3017327E-006  0.1682288E+04  0.7818608E-02  0.8771531E-01
         -2   -1    0    0    0  501 -0.00000000000E+00  0.00000000000E+00  0.25200461034E+03  0.25200461034E+03  0.00000000000E+00 0.  1.
          2   -1    0    0  501    0  0.00000000000E+00 -0.00000000000E+00 -0.28075809986E+04  0.28075809986E+04  0.00000000000E+00 0. -1.
         23    2    1    2    0    0 -0.76796383575E+03 -0.24396738709E+03 -0.85866853661E+03  0.11810796079E+04  0.91372016660E+02 0.  0.
         13    1    3    3    0    0 -0.13593220678E+03 -0.34947903067E+02 -0.10351467777E+03  0.17439670090E+03  0.00000000000E+00 0.  1.
        -13    1    3    3    0    0 -0.63203162897E+03 -0.20901948403E+03 -0.75515385883E+03  0.10066829070E+04  0.00000000000E+00 0. -1.
         22    1    1    2    0    0  0.76796383575E+03  0.24396738709E+03 -0.16969078517E+04  0.18785060011E+04  0.00000000000E+00 0.  1.
<mgrwt>
<rscale>  0 0.16822882E+04</rscale>
<asrwt>0</asrwt>
<pdfrwt beam="1">  1        2 0.43193553E+00 0.16822882E+04</pdfrwt>
<pdfrwt beam="2">  1       -2 0.38769940E-01 0.16822882E+04</pdfrwt>
<totfact> 0.13755118E+01</totfact>
</mgrwt>
</event>
<event>
 6    1  0.3017327E-006  0.4472555E+04  0.7818608E-02  0.7915459E-01
         -2   -1    0    0    0  501 -0.00000000000E+00  0.00000000000E+00  0.15483522370E+04  0.15483522370E+04  0.00000000000E+00 0.  1.
          2   -1    0    0  501    0  0.00000000000E+00 -0.00000000000E+00 -0.32298444228E+04  0.32298444228E+04  0.00000000000E+00 0. -1.
         23    2    1    2    0    0  0.21525840084E+04 -0.42517910041E+03 -0.12973906467E+04  0.25506578446E+04  0.90762157161E+02 0.  0.
         13    1    3    3    0    0  0.15576843364E+04 -0.31337489171E+03 -0.98566989581E+03  0.18697939614E+04  0.00000000000E+00 0.  1.
        -13    1    3    3    0    0  0.59489967204E+03 -0.11180420870E+03 -0.31172075093E+03  0.68086388319E+03  0.00000000000E+00 0. -1.
         22    1    1    2    0    0 -0.21525840084E+04  0.42517910041E+03 -0.38410153906E+03  0.22275388152E+04  0.00000000000E+00 0.  1.
<mgrwt>
<rscale>  0 0.44725549E+04</rscale>
<asrwt>0</asrwt>
<pdfrwt beam="1">  1        2 0.49689914E+00 0.44725549E+04</pdfrwt>
<pdfrwt beam="2">  1       -2 0.23820804E+00 0.44725549E+04</pdfrwt>
<totfact> 0.71465479E-02</totfact>
</mgrwt>
</event>
<event>
 6    1  0.3017327E-006  0.1851039E+04  0.7818608E-02  0.8679619E-01
          1   -1    0    0  501    0  0.00000000000E+00  0.00000000000E+00  0.13714889921E+04  0.13714889921E+04  0.00000000000E+00 0. -1.
         -1   -1    0    0    0  501 -0.00000000000E+00 -0.00000000000E+00 -0.62456657773E+03  0.62456657773E+03  0.00000000000E+00 0.  1.
         23    2    1    2    0    0 -0.39248240595E+02 -0.38370244265E+03  0.12788968966E+04  0.13389674184E+04  0.92132983567E+02 0.  0.
         11    1    3    3    0    0 -0.61123414543E+02 -0.21014142640E+03  0.78829256253E+03  0.81810797273E+03  0.00000000000E+00 0. -1.
        -11    1    3    3    0    0  0.21875173948E+02 -0.17356101624E+03  0.49060433404E+03  0.52085944570E+03  0.00000000000E+00 0.  1.
         22    1    1    2    0    0  0.39248240595E+02  0.38370244265E+03 -0.53197448225E+03  0.65708815136E+03  0.00000000000E+00 0.  1.
<mgrwt>
<rscale>  0 0.18510388E+04</rscale>
<asrwt>0</asrwt>
<pdfrwt beam="1">  1        1 0.21099831E+00 0.18510388E+04</pdfrwt>
<pdfrwt beam="2">  1       -1 0.96087166E-01 0.18510388E+04</pdfrwt>
<totfact> 0.78900718E+00</totfact>
</mgrwt>
</event>
<event>
 6    1  0.3017327E-006  0.3417792E+04  0.7818608E-02  0.8133553E-01
          2   -1    0    0  501    0  0.00000000000E+00  0.00000000000E+00  0.29765508060E+04  0.29765508060E+04  0.00000000000E+00 0. -1.
         -2   -1    0    0    0  501 -0.00000000000E+00 -0.00000000000E+00 -0.98111061904E+03  0.98111061904E+03  0.00000000000E+00 0.  1.
         23    2    1    2    0    0  0.39442601739E+03  0.15679729491E+04  0.36238744014E+03  0.16596248008E+04  0.94439241983E+02 0.  0.
         11    1    3    3    0    0  0.20305630193E+03  0.96862556367E+03  0.19707797547E+03  0.10091120219E+04  0.00000000000E+00 0. -1.
        -11    1    3    3    0    0  0.19136971546E+03  0.59934738544E+03  0.16530946467E+03  0.65051277892E+03  0.00000000000E+00 0.  1.
         22    1    1    2    0    0 -0.39442601739E+03 -0.15679729491E+04  0.16330527468E+04  0.22980366242E+04  0.00000000000E+00 0.  1.
<mgrwt>
<rscale>  0 0.34177920E+04</rscale>
<asrwt>0</asrwt>
<pdfrwt beam="1">  1        2 0.45793089E+00 0.34177920E+04</pdfrwt>
<pdfrwt beam="2">  1       -2 0.15094010E+00 0.34177920E+04</pdfrwt>
<totfact> 0.43873866E-01</totfact>
</mgrwt>
</event>
<event>
 6    1  0.3017327E-006  0.4771069E+04  0.7818608E-02  0.7864826E-01
          2   -1    0    0  501    0  0.00000000000E+00  0.00000000000E+00  0.33184655885E+04  0.33184655885E+04  0.00000000000E+00 0.  1.
         -2   -1    0    0    0  501 -0.00000000000E+00 -0.00000000000E+00 -0.17148814845E+04  0.17148814845E+04  0.00000000000E+00 0. -1.
         23    2    1    2    0    0  0.49642324194E+03 -0.32106439205E+03  0.32392747698E+04  0.32940936892E+04  0.92918354059E+02 0.  0.
         13    1    3    3    0    0  0.12369707842E+03 -0.93888027930E+02  0.10834133632E+04  0.10944863840E+04  0.00000000000E+00 0.  1.
        -13    1    3    3    0    0  0.37272616351E+03 -0.22717636412E+03  0.21558614065E+04  0.21996073053E+04  0.00000000000E+00 0. -1.
         22    1    1    2    0    0 -0.49642324194E+03  0.32106439205E+03 -0.16356906658E+04  0.17392533838E+04  0.00000000000E+00 0. -1.
<mgrwt>
<rscale>  0 0.47710691E+04</rscale>
<asrwt>0</asrwt>
<pdfrwt beam="1">  1        2 0.51053317E+00 0.47710691E+04</pdfrwt>
<pdfrwt beam="2">  1       -2 0.26382792E+00 0.47710691E+04</pdfrwt>
<totfact> 0.42374049E-02</totfact>
</mgrwt>
</event>
<event>
 6    1  0.3017327E-006  0.2901511E+03  0.7818608E-02  0.1090270E+00
          2   -1    0    0  501    0  0.00000000000E+00  0.00000000000E+00  0.51244824380E+03  0.51244824380E+03  0.00000000000E+00 0. -1.
         -2   -1    0    0    0  501 -0.00000000000E+00 -0.00000000000E+00 -0.41071296435E+02  0.41071296435E+02  0.00000000000E+00 0.  1.
         23    2    1    2    0    0 -0.62499616218E+02  0.10729852190E+03  0.33727967598E+03  0.37075944332E+03  0.91026425578E+02 0.  0.
         13    1    3    3    0    0 -0.22358976121E+02 -0.66596725713E+01  0.11906712358E+03  0.12133117889E+03  0.00000000000E+00 0. -1.
        -13    1    3    3    0    0 -0.40140640097E+02  0.11395819447E+03  0.21821255240E+03  0.24942826443E+03  0.00000000000E+00 0.  1.
         22    1    1    2    0    0  0.62499616218E+02 -0.10729852190E+03  0.13409727138E+03  0.18276009691E+03  0.00000000000E+00 0.  1.
<mgrwt>
<rscale>  0 0.29015109E+03</rscale>
<asrwt>0</asrwt>
<pdfrwt beam="1">  1        2 0.78838187E-01 0.29015109E+03</pdfrwt>
<pdfrwt beam="2">  1       -2 0.63186613E-02 0.29015109E+03</pdfrwt>
<totfact> 0.82471487E+03</totfact>
</mgrwt>
</event>
<event>
 6    1  0.3017327E-006  0.1200755E+04  0.7818608E-02  0.9112196E-01
          2   -1    0    0  501    0  0.00000000000E+00  0.00000000000E+00  0.46029298501E+03  0.46029298501E+03  0.00000000000E+00 0.  1.
         -2   -1    0    0    0  501 -0.00000000000E+00 -0.00000000000E+00 -0.78309539583E+03  0.78309539583E+03  0.00000000000E+00 0. -1.
         23    2    1    2    0    0 -0.40062402927E+03 -0.43649854957E+03 -0.23784076975E+03  0.64484926177E+03  0.90728948189E+02 0.  0.
         11    1    3    3    0    0 -0.13946790727E+03 -0.11948823448E+03 -0.35773132088E+02  0.18710545774E+03  0.00000000000E+00 0. -1.
        -11    1    3    3    0    0 -0.26115612200E+03 -0.31701031509E+03 -0.20206763767E+03  0.45774380403E+03  0.00000000000E+00 0.  1.
         22    1    1    2    0    0  0.40062402927E+03  0.43649854957E+03 -0.84961641063E+02  0.59853911907E+03  0.00000000000E+00 0.  1.
<mgrwt>
<rscale>  0 0.12007553E+04</rscale>
<asrwt>0</asrwt>
<pdfrwt beam="1">  1        2 0.70814306E-01 0.12007553E+04</pdfrwt>
<pdfrwt beam="2">  1       -2 0.12047621E+00 0.12007553E+04</pdfrwt>
<totfact> 0.35144615E+01</totfact>
</mgrwt>
</event>
<event>
 6    1  0.3017327E-006  0.2523958E+04  0.7818608E-02  0.8394500E-01
         -2   -1    0    0    0  501 -0.00000000000E+00  0.00000000000E+00  0.61917881952E+03  0.61917881952E+03  0.00000000000E+00 0.  1.
          2   -1    0    0  501    0  0.00000000000E+00 -0.00000000000E+00 -0.25721017141E+04  0.25721017141E+04  0.00000000000E+00 0. -1.
         23    2    1    2    0    0  0.47741369728E+03  0.41809041084E+03 -0.23545581779E+04  0.24402583430E+04  0.90515953866E+02 0.  0.
         13    1    3    3    0    0  0.27847378511E+03  0.26161744372E+03 -0.15729325635E+04  0.16186748238E+04  0.00000000000E+00 0. -1.
        -13    1    3    3    0    0  0.19893991217E+03  0.15647296712E+03 -0.78162561434E+03  0.82158351924E+03  0.00000000000E+00 0.  1.
         22    1    1    2    0    0 -0.47741369728E+03 -0.41809041084E+03  0.40163528327E+03  0.75102219058E+03  0.00000000000E+00 0.  1.
<mgrwt>
<rscale>  0 0.25239579E+04</rscale>
<asrwt>0</asrwt>
<pdfrwt beam="1">  1        2 0.39570796E+00 0.25239579E+04</pdfrwt>
<pdfrwt beam="2">  1       -2 0.95258280E-01 0.25239579E+04</pdfrwt>
<totfact> 0.26045487E+00</totfact>
</mgrwt>
</event>
<event>
 6    1  0.3017327E-006  0.3993796E+03  0.7818608E-02  0.1043995E+00
          2   -1    0    0  501    0  0.00000000000E+00  0.00000000000E+00  0.50805987724E+03  0.50805987724E+03  0.00000000000E+00 0.  1.
         -2   -1    0    0    0  501 -0.00000000000E+00 -0.00000000000E+00 -0.78486826346E+02  0.78486826346E+02  0.00000000000E+00 0. -1.
         23    2    1    2    0    0 -0.13372148322E+03 -0.36175004693E+02  0.37083698012E+02  0.17032806133E+03  0.91904198910E+02 0.  0.
         13    1    3    3    0    0 -0.47290658272E+02  0.26152752358E+02 -0.79887153614E+01  0.54627762071E+02  0.00000000000E+00 0. -1.
        -13    1    3    3    0    0 -0.86430824950E+02 -0.62327757051E+02  0.45072413374E+02  0.11570029926E+03  0.00000000000E+00 0.  1.
         22    1    1    2    0    0  0.13372148322E+03  0.36175004693E+02  0.39248935288E+03  0.41621864226E+03  0.00000000000E+00 0.  1.
<mgrwt>
<rscale>  0 0.39937956E+03</rscale>
<asrwt>0</asrwt>
<pdfrwt beam="1">  1        2 0.78163056E-01 0.39937956E+03</pdfrwt>
<pdfrwt beam="2">  1       -2 0.12074897E-01 0.39937956E+03</pdfrwt>
<totfact> 0.30093899E+03</totfact>
</mgrwt>
</event>
<event>
 6    1  0.3017327E-006  0.2895045E+04  0.7818608E-02  0.8274353E-01
          2   -1    0    0  501    0  0.00000000000E+00  0.00000000000E+00  0.21025956949E+04  0.21025956949E+04  0.00000000000E+00 0. -1.
         -2   -1    0    0    0  501 -0.00000000000E+00 -0.00000000000E+00 -0.99654055354E+03  0.99654055354E+03  0.00000000000E+00 0.  1.
         23    2    1    2    0    0  0.11713680165E+04 -0.68373556835E+03  0.16571914713E+02  0.13594319464E+04  0.90461212018E+02 0.  0.
         11    1    3    3    0    0  0.57251354648E+03 -0.34483916225E+03  0.52448142352E+02  0.67040034036E+03  0.00000000000E+00 0. -1.
        -11    1    3    3    0    0  0.59885447003E+03 -0.33889640610E+03 -0.35876227640E+02  0.68903160599E+03  0.00000000000E+00 0.  1.
         22    1    1    2    0    0 -0.11713680165E+04  0.68373556835E+03  0.10894832266E+04  0.17397043021E+04  0.00000000000E+00 0. -1.
<mgrwt>
<rscale>  0 0.28950453E+04</rscale>
<asrwt>0</asrwt>
<pdfrwt beam="1">  1        2 0.32347626E+00 0.28950453E+04</pdfrwt>
<pdfrwt beam="2">  1       -2 0.15331393E+00 0.28950453E+04</pdfrwt>
<totfact> 0.14293792E+00</totfact>
</mgrwt>
</event>
<event>
 6    1  0.3017327E-006  0.1450246E+04  0.7818608E-02  0.8918230E-01
          2   -1    0    0  501    0  0.00000000000E+00  0.00000000000E+00  0.32609705159E+04  0.32609705159E+04  0.00000000000E+00 0. -1.
         -2   -1    0    0    0  501 -0.00000000000E+00 -0.00000000000E+00 -0.16124140249E+03  0.16124140249E+03  0.00000000000E+00 0.  1.
         23    2    1    2    0    0 -0.49008255017E+03 -0.51272908277E+03  0.12532802115E+04  0.14442216339E+04  0.10951173875E+03 0.  0.
         13    1    3    3    0    0 -0.33687118066E+03 -0.32911099928E+03  0.72781031644E+03  0.86689336076E+03  0.00000000000E+00 0. -1.
        -13    1    3    3    0    0 -0.15321136950E+03 -0.18361808348E+03  0.52546989504E+03  0.57732827310E+03  0.00000000000E+00 0.  1.
         22    1    1    2    0    0  0.49008255017E+03  0.51272908277E+03  0.18464489020E+04  0.19779902846E+04  0.00000000000E+00 0. -1.
<mgrwt>
<rscale>  0 0.14502461E+04</rscale>
<asrwt>0</asrwt>
<pdfrwt beam="1">  1        2 0.50168772E+00 0.14502461E+04</pdfrwt>
<pdfrwt beam="2">  1       -2 0.24806372E-01 0.14502461E+04</pdfrwt>
<totfact> 0.16881397E+01</totfact>
</mgrwt>
</event>
<event>
 6    1  0.3017327E-006  0.3451190E+03  0.7818608E-02  0.1064636E+00
          2   -1    0    0  501    0  0.00000000000E+00  0.00000000000E+00  0.46276828084E+02  0.46276828084E+02  0.00000000000E+00 0. -1.
         -2   -1    0    0    0  501 -0.00000000000E+00 -0.00000000000E+00 -0.64344916255E+03  0.64344916255E+03  0.00000000000E+00 0.  1.
         23    2    1    2    0    0  0.58142431102E+02 -0.65827136977E+02 -0.58754082099E+03  0.60137147570E+03  0.93432763023E+02 0.  0.
         13    1    3    3    0    0  0.86595562954E+01  0.81152841153E+01 -0.30327804342E+03  0.30351016024E+03  0.00000000000E+00 0.  1.
        -13    1    3    3    0    0  0.49482874807E+02 -0.73942421093E+02 -0.28426277757E+03  0.29786131546E+03  0.00000000000E+00 0. -1.
         22    1    1    2    0    0 -0.58142431102E+02  0.65827136977E+02 -0.96315134818E+01  0.88354514933E+02  0.00000000000E+00 0. -1.
<mgrwt>
<rscale>  0 0.34511903E+03</rscale>
<asrwt>0</asrwt>
<pdfrwt beam="1">  1        2 0.71195132E-02 0.34511903E+03</pdfrwt>
<pdfrwt beam="2">  1       -2 0.98992163E-01 0.34511903E+03</pdfrwt>
<totfact> 0.87235579E+02</totfact>
</mgrwt>
</event>
<event>
 6    1  0.3017327E-006  0.2878567E+04  0.7818608E-02  0.8279283E-01
          2   -1    0    0  501    0  0.00000000000E+00  0.00000000000E+00  0.27613425194E+04  0.27613425194E+04  0.00000000000E+00 0. -1.
         -2   -1    0    0    0  501 -0.00000000000E+00 -0.00000000000E+00 -0.75019184299E+03  0.75019184299E+03  0.00000000000E+00 0.  1.
         23    2    1    2    0    0  0.10115570087E+04 -0.88372694820E+03  0.16324053148E+04  0.21159452575E+04  0.90864294201E+02 0.  0.
         11    1    3    3    0    0  0.74377958811E+03 -0.59651965727E+03  0.11714595356E+04  0.15104175651E+04  0.00000000000E+00 0.  1.
        -11    1    3    3    0    0  0.26777742064E+03 -0.28720729094E+03  0.46094577913E+03  0.60552769240E+03  0.00000000000E+00 0. -1.
         22    1    1    2    0    0 -0.10115570087E+04  0.88372694820E+03  0.37874536170E+03  0.13955891050E+04  0.00000000000E+00 0.  1.
<mgrwt>
<rscale>  0 0.28785668E+04</rscale>
<asrwt>0</asrwt>
<pdfrwt beam="1">  1        2 0.42482192E+00 0.28785668E+04</pdfrwt>
<pdfrwt beam="2">  1       -2 0.11541413E+00 0.28785668E+04</pdfrwt>
<totfact> 0.12325866E+00</totfact>
</mgrwt>
</event>
<event>
 6    1  0.3017327E-006  0.7616946E+04  0.7818608E-02  0.7516953E-01
          2   -1    0    0  501    0  0.00000000000E+00  0.00000000000E+00  0.41173246953E+04  0.41173246953E+04  0.00000000000E+00 0. -1.
         -2   -1    0    0    0  501 -0.00000000000E+00 -0.00000000000E+00 -0.35227893543E+04  0.35227893543E+04  0.00000000000E+00 0.  1.
         23    2    1    2    0    0 -0.29510720921E+04 -0.15243346484E+04  0.21651394344E+04  0.39659856045E+04  0.93757301590E+02 0.  0.
         13    1    3    3    0    0 -0.25860383191E+04 -0.13406375082E+04  0.19345384177E+04  0.34967616455E+04  0.00000000000E+00 0. -1.
        -13    1    3    3    0    0 -0.36503377294E+03 -0.18369714024E+03  0.23060101673E+03  0.46922395893E+03  0.00000000000E+00 0.  1.
         22    1    1    2    0    0  0.29510720921E+04  0.15243346484E+04 -0.15706040934E+04  0.36741284451E+04  0.00000000000E+00 0.  1.
<mgrwt>
<rscale>  0 0.76169463E+04</rscale>
<asrwt>0</asrwt>
<pdfrwt beam="1">  1        2 0.63343457E+00 0.76169463E+04</pdfrwt>
<pdfrwt beam="2">  1       -2 0.54196759E+00 0.76169463E+04</pdfrwt>
<totfact> 0.15622002E-04</totfact>
</mgrwt>
</event>
<event>
 6    1  0.3017327E-006  0.1496090E+04  0.7818608E-02  0.8887057E-01
          1   -1    0    0  501    0  0.00000000000E+00  0.00000000000E+00  0.19189077353E+04  0.19189077353E+04  0.00000000000E+00 0. -1.
         -1   -1    0    0    0  501 -0.00000000000E+00 -0.00000000000E+00 -0.29160913936E+03  0.29160913936E+03  0.00000000000E+00 0.  1.
         23    2    1    2    0    0  0.58380656623E+02  0.45522891693E+02  0.19124163524E+04  0.19159446936E+04  0.89594248203E+02 0.  0.
         11    1    3    3    0    0 -0.63365135299E+01 -0.19491793896E+02  0.19354828568E+03  0.19463047121E+03  0.00000000000E+00 0. -1.
        -11    1    3    3    0    0  0.64717170153E+02  0.65014685589E+02  0.17188680667E+04  0.17213142224E+04  0.00000000000E+00 0.  1.
         22    1    1    2    0    0 -0.58380656623E+02 -0.45522891693E+02 -0.28511775651E+03  0.29457218099E+03  0.00000000000E+00 0.  1.
<mgrwt>
<rscale>  0 0.14960896E+04</rscale>
<asrwt>0</asrwt>
<pdfrwt beam="1">  1        1 0.29521657E+00 0.14960896E+04</pdfrwt>
<pdfrwt beam="2">  1       -1 0.44862946E-01 0.14960896E+04</pdfrwt>
<totfact> 0.16129234E+01</totfact>
</mgrwt>
</event>
<event>
 6    1  0.3017327E-006  0.4056535E+04  0.7818608E-02  0.7993238E-01
          2   -1    0    0  501    0  0.00000000000E+00  0.00000000000E+00  0.26170987726E+04  0.26170987726E+04  0.00000000000E+00 0.  1.
         -2   -1    0    0    0  501 -0.00000000000E+00 -0.00000000000E+00 -0.15719195996E+04  0.15719195996E+04  0.00000000000E+00 0. -1.
         23    2    1    2    0    0 -0.13391223001E+04 -0.27288287034E+03  0.20691031913E+04  0.24813492033E+04  0.90511087200E+02 0.  0.
         11    1    3    3    0    0 -0.81306536282E+03 -0.20082183626E+03  0.13158279888E+04  0.15597461301E+04  0.00000000000E+00 0. -1.
        -11    1    3    3    0    0 -0.52605693725E+03 -0.72061034079E+02  0.75327520246E+03  0.92160307318E+03  0.00000000000E+00 0.  1.
         22    1    1    2    0    0  0.13391223001E+04  0.27288287034E+03 -0.10239240183E+04  0.17076691690E+04  0.00000000000E+00 0. -1.
<mgrwt>
<rscale>  0 0.40565349E+04</rscale>
<asrwt>0</asrwt>
<pdfrwt beam="1">  1        2 0.40263058E+00 0.40565349E+04</pdfrwt>
<pdfrwt beam="2">  1       -2 0.24183378E+00 0.40565349E+04</pdfrwt>
<totfact> 0.16849905E-01</totfact>
</mgrwt>
</event>
<event>
 6    1  0.3017327E-006  0.5148334E+04  0.7818608E-02  0.7806024E-01
         -2   -1    0    0    0  501 -0.00000000000E+00  0.00000000000E+00  0.19343988263E+04  0.19343988263E+04  0.00000000000E+00 0.  1.
          2   -1    0    0  501    0  0.00000000000E+00 -0.00000000000E+00 -0.34255271662E+04  0.34255271662E+04  0.00000000000E+00 0. -1.
         23    2    1    2    0    0 -0.63160681214E+03 -0.15774765306E+04 -0.27576877837E+04  0.32406024698E+04  0.96452502604E+02 0.  0.
         11    1    3    3    0    0 -0.57058662333E+03 -0.13594903200E+04 -0.24308559699E+04  0.28430342544E+04  0.00000000000E+00 0.  1.
        -11    1    3    3    0    0 -0.61020188804E+02 -0.21798621052E+03 -0.32683181377E+03  0.39756821542E+03  0.00000000000E+00 0. -1.
         22    1    1    2    0    0  0.63160681214E+03  0.15774765306E+04  0.12665594438E+04  0.21193235228E+04  0.00000000000E+00 0.  1.
<mgrwt>
<rscale>  0 0.51483340E+04</rscale>
<asrwt>0</asrwt>
<pdfrwt beam="1">  1        2 0.52700418E+00 0.51483340E+04</pdfrwt>
<pdfrwt beam="2">  1       -2 0.29759982E+00 0.51483340E+04</pdfrwt>
<totfact> 0.21625644E-02</totfact>
</mgrwt>
</event>
<event>
 6    1  0.3743570E-006  0.4080545E+04  0.7818608E-02  0.7988492E-01
          2   -1    0    0  501    0  0.00000000000E+00  0.00000000000E+00  0.22156616978E+04  0.22156616978E+04  0.00000000000E+00 0. -1.
         -2   -1    0    0    0  501 -0.00000000000E+00 -0.00000000000E+00 -0.18787666783E+04  0.18787666783E+04  0.00000000000E+00 0.  1.
         23    2    1    2    0    0 -0.18790443237E+04  0.75494690231E+03 -0.72904428585E+02  0.20283480332E+04  0.90157040859E+02 0.  0.
         11    1    3    3    0    0 -0.81120450247E+03  0.28032948123E+03 -0.16905554864E+02  0.85844228732E+03  0.00000000000E+00 0. -1.
        -11    1    3    3    0    0 -0.10678398213E+04  0.47461742108E+03 -0.55998873721E+02  0.11699057458E+04  0.00000000000E+00 0.  1.
         22    1    1    2    0    0  0.18790443237E+04 -0.75494690231E+03  0.40979944814E+03  0.20660803430E+04  0.00000000000E+00 0.  1.
<mgrwt>
<rscale>  0 0.40805448E+04</rscale>
<asrwt>0</asrwt>
<pdfrwt beam="1">  1        2 0.34087103E+00 0.40805448E+04</pdfrwt>
<pdfrwt beam="2">  1       -2 0.28904103E+00 0.40805448E+04</pdfrwt>
<totfact> 0.14708992E-01</totfact>
</mgrwt>
</event>
<event>
 6    1  0.3017327E-006  0.2069929E+04  0.7818608E-02  0.8574607E-01
         -2   -1    0    0    0  501 -0.00000000000E+00  0.00000000000E+00  0.56531506968E+03  0.56531506968E+03  0.00000000000E+00 0.  1.
          2   -1    0    0  501    0  0.00000000000E+00 -0.00000000000E+00 -0.18947871878E+04  0.18947871878E+04  0.00000000000E+00 0. -1.
         23    2    1    2    0    0 -0.67003232375E+03 -0.11392714623E+03  0.25842674699E+03  0.73286587663E+03  0.91571284055E+02 0.  0.
         11    1    3    3    0    0 -0.44071879573E+03 -0.83830779585E+02  0.21526062513E+03  0.49759199476E+03  0.00000000000E+00 0. -1.
        -11    1    3    3    0    0 -0.22931352802E+03 -0.30096366640E+02  0.43166121853E+02  0.23527388188E+03  0.00000000000E+00 0.  1.
         22    1    1    2    0    0  0.67003232375E+03  0.11392714623E+03 -0.15878988651E+04  0.17272363808E+04  0.00000000000E+00 0. -1.
<mgrwt>
<rscale>  0 0.20699292E+04</rscale>
<asrwt>0</asrwt>
<pdfrwt beam="1">  1        2 0.29150571E+00 0.20699292E+04</pdfrwt>
<pdfrwt beam="2">  1       -2 0.86971551E-01 0.20699292E+04</pdfrwt>
<totfact> 0.80738375E+00</totfact>
</mgrwt>
</event>
<event>
 6    1  0.3017327E-006  0.1175864E+04  0.7818608E-02  0.9134249E-01
         -2   -1    0    0    0  501 -0.00000000000E+00  0.00000000000E+00  0.42512615876E+03  0.42512615876E+03  0.00000000000E+00 0.  1.
          2   -1    0    0  501    0  0.00000000000E+00 -0.00000000000E+00 -0.81308516091E+03  0.81308516091E+03  0.00000000000E+00 0. -1.
         23    2    1    2    0    0 -0.36451419696E+03 -0.45259863299E+03 -0.12820814679E+03  0.60166860372E+03  0.88609578679E+02 0.  0.
         11    1    3    3    0    0 -0.13675131189E+03 -0.24029413381E+03 -0.61036144253E+02  0.28313884042E+03  0.00000000000E+00 0. -1.
        -11    1    3    3    0    0 -0.22776288507E+03 -0.21230449918E+03 -0.67172002540E+02  0.31852976331E+03  0.00000000000E+00 0.  1.
         22    1    1    2    0    0  0.36451419696E+03  0.45259863299E+03 -0.25975085536E+03  0.63654271595E+03  0.00000000000E+00 0. -1.
<mgrwt>
<rscale>  0 0.11758635E+04</rscale>
<asrwt>0</asrwt>
<pdfrwt beam="1">  1        2 0.12509002E+00 0.11758635E+04</pdfrwt>
<pdfrwt beam="2">  1       -2 0.65404025E-01 0.11758635E+04</pdfrwt>
<totfact> 0.71787670E+01</totfact>
</mgrwt>
</event>
<event>
 6    1  0.3017327E-006  0.1571370E+04  0.7818608E-02  0.8838332E-01
          2   -1    0    0  501    0  0.00000000000E+00  0.00000000000E+00  0.15301926325E+04  0.15301926325E+04  0.00000000000E+00 0. -1.
         -2   -1    0    0    0  501 -0.00000000000E+00 -0.00000000000E+00 -0.40341382680E+03  0.40341382680E+03  0.00000000000E+00 0.  1.
         23    2    1    2    0    0 -0.72082309189E+03  0.29820357327E+03  0.64815112046E+03  0.10184038795E+04  0.92386611538E+02 0.  0.
         11    1    3    3    0    0 -0.48903567513E+03  0.23306648225E+03  0.40654079571E+03  0.67731181539E+03  0.00000000000E+00 0.  1.
        -11    1    3    3    0    0 -0.23178741675E+03  0.65137091025E+02  0.24161032476E+03  0.34109206414E+03  0.00000000000E+00 0. -1.
         22    1    1    2    0    0  0.72082309189E+03 -0.29820357327E+03  0.47862768523E+03  0.91520257975E+03  0.00000000000E+00 0. -1.
<mgrwt>
<rscale>  0 0.15713699E+04</rscale>
<asrwt>0</asrwt>
<pdfrwt beam="1">  1        2 0.23541425E+00 0.15713699E+04</pdfrwt>
<pdfrwt beam="2">  1       -2 0.62063667E-01 0.15713699E+04</pdfrwt>
<totfact> 0.28269894E+01</totfact>
</mgrwt>
</event>
<event>
 6    1  0.3017327E-006  0.5833028E+03  0.7818608E-02  0.9940666E-01
          1   -1    0    0  501    0  0.00000000000E+00  0.00000000000E+00  0.88739833546E+02  0.88739833546E+02  0.00000000000E+00 0.  1.
         -1   -1    0    0    0  501 -0.00000000000E+00 -0.00000000000E+00 -0.95853857544E+03  0.95853857544E+03  0.00000000000E+00 0. -1.
         23    2    1    2    0    0 -0.17161898615E+03  0.19142806031E+02 -0.85167705690E+03  0.87364684822E+03  0.89919312293E+02 0.  0.
         13    1    3    3    0    0 -0.48691482018E+02  0.36150820610E+02 -0.16381460682E+03  0.17467961432E+03  0.00000000000E+00 0.  1.
        -13    1    3    3    0    0 -0.12292750413E+03 -0.17008014579E+02 -0.68786245008E+03  0.69896723390E+03  0.00000000000E+00 0. -1.
         22    1    1    2    0    0  0.17161898615E+03 -0.19142806031E+02 -0.18121684997E+02  0.17363156077E+03  0.00000000000E+00 0.  1.
<mgrwt>
<rscale>  0 0.58330285E+03</rscale>
<asrwt>0</asrwt>
<pdfrwt beam="1">  1        1 0.13652282E-01 0.58330285E+03</pdfrwt>
<pdfrwt beam="2">  1       -1 0.14746747E+00 0.58330285E+03</pdfrwt>
<totfact> 0.16385249E+02</totfact>
</mgrwt>
</event>
<event>
 6    1  0.3017327E-006  0.3847338E+04  0.7818608E-02  0.8036072E-01
          2   -1    0    0  501    0  0.00000000000E+00  0.00000000000E+00  0.29502386406E+04  0.29502386406E+04  0.00000000000E+00 0. -1.
         -2   -1    0    0    0  501 -0.00000000000E+00 -0.00000000000E+00 -0.12543059453E+04  0.12543059453E+04  0.00000000000E+00 0.  1.
         23    2    1    2    0    0  0.25222357782E+03  0.98199726584E+03  0.26332682983E+04  0.28237718328E+04  0.10793548760E+03 0.  0.
         11    1    3    3    0    0  0.14181432037E+02  0.11950141290E+03  0.40743334185E+03  0.42483364832E+03  0.00000000000E+00 0.  1.
        -11    1    3    3    0    0  0.23804214578E+03  0.86249585294E+03  0.22258349565E+04  0.23989381845E+04  0.00000000000E+00 0. -1.
         22    1    1    2    0    0 -0.25222357782E+03 -0.98199726584E+03 -0.93733560299E+03  0.13807727532E+04  0.00000000000E+00 0.  1.
<mgrwt>
<rscale>  0 0.38473377E+04</rscale>
<asrwt>0</asrwt>
<pdfrwt beam="1">  1        2 0.45388286E+00 0.38473377E+04</pdfrwt>
<pdfrwt beam="2">  1       -2 0.19297015E+00 0.38473377E+04</pdfrwt>
<totfact> 0.22105613E-01</totfact>
</mgrwt>
</event>
<event>
 6    1  0.3017327E-006  0.2778131E+04  0.7818608E-02  0.8310090E-01
         -2   -1    0    0    0  501 -0.00000000000E+00  0.00000000000E+00  0.68619437404E+03  0.68619437404E+03  0.00000000000E+00 0.  1.
          2   -1    0    0  501    0  0.00000000000E+00 -0.00000000000E+00 -0.28118901476E+04  0.28118901476E+04  0.00000000000E+00 0. -1.
         23    2    1    2    0    0  0.93794004414E+03 -0.29605602974E+03  0.16840410397E+03  0.10020326497E+04  0.91262203219E+02 0.  0.
         11    1    3    3    0    0  0.36900642898E+03 -0.14706108040E+03  0.10242187848E+03  0.41022304565E+03  0.00000000000E+00 0.  1.
        -11    1    3    3    0    0  0.56893361516E+03 -0.14899494935E+03  0.65982225491E+02  0.59180960407E+03  0.00000000000E+00 0. -1.
         22    1    1    2    0    0 -0.93794004414E+03  0.29605602974E+03 -0.22940998775E+04  0.24960518719E+04  0.00000000000E+00 0. -1.
<mgrwt>
<rscale>  0 0.27781312E+04</rscale>
<asrwt>0</asrwt>
<pdfrwt beam="1">  1        2 0.43259848E+00 0.27781312E+04</pdfrwt>
<pdfrwt beam="2">  1       -2 0.10556837E+00 0.27781312E+04</pdfrwt>
<totfact> 0.14380405E+00</totfact>
</mgrwt>
</event>
<event>
 6    1  0.3017327E-006  0.2882342E+04  0.7818608E-02  0.8278151E-01
         -2   -1    0    0    0  501 -0.00000000000E+00  0.00000000000E+00  0.95981151256E+03  0.95981151256E+03  0.00000000000E+00 0.  1.
          2   -1    0    0  501    0  0.00000000000E+00 -0.00000000000E+00 -0.21639397936E+04  0.21639397936E+04  0.00000000000E+00 0. -1.
         23    2    1    2    0    0  0.29711066291E+03 -0.92705954355E+03 -0.17524326008E+04  0.20064546713E+04  0.84416732003E+02 0.  0.
         11    1    3    3    0    0  0.71022445329E+02 -0.13015364399E+03 -0.29048477972E+03  0.32613734229E+03  0.00000000000E+00 0. -1.
        -11    1    3    3    0    0  0.22608821758E+03 -0.79690589956E+03 -0.14619478210E+04  0.16803173290E+04  0.00000000000E+00 0.  1.
         22    1    1    2    0    0 -0.29711066291E+03  0.92705954355E+03  0.54830431967E+03  0.11172966349E+04  0.00000000000E+00 0.  1.
<mgrwt>
<rscale>  0 0.28823423E+04</rscale>
<asrwt>0</asrwt>
<pdfrwt beam="1">  1        2 0.33291381E+00 0.28823423E+04</pdfrwt>
<pdfrwt beam="2">  1       -2 0.14766331E+00 0.28823423E+04</pdfrwt>
<totfact> 0.14606012E+00</totfact>
</mgrwt>
</event>
<event>
 6    1  0.3017327E-006  0.1451345E+04  0.7818608E-02  0.8917468E-01
         -2   -1    0    0    0  501 -0.00000000000E+00  0.00000000000E+00  0.11186021610E+04  0.11186021610E+04  0.00000000000E+00 0.  1.
          2   -1    0    0  501    0  0.00000000000E+00 -0.00000000000E+00 -0.47076690213E+03  0.47076690213E+03  0.00000000000E+00 0. -1.
         23    2    1    2    0    0 -0.35076572371E+03 -0.25280787680E+03  0.95948952553E+03  0.10563805104E+04  0.91494358281E+02 0.  0.
         11    1    3    3    0    0 -0.24644060966E+03 -0.13222057577E+03  0.55200433667E+03  0.61880856688E+03  0.00000000000E+00 0. -1.
        -11    1    3    3    0    0 -0.10432511406E+03 -0.12058730103E+03  0.40748518886E+03  0.43757194349E+03  0.00000000000E+00 0.  1.
         22    1    1    2    0    0  0.35076572371E+03  0.25280787680E+03 -0.31165426662E+03  0.53298855279E+03  0.00000000000E+00 0. -1.
<mgrwt>
<rscale>  0 0.14513454E+04</rscale>
<asrwt>0</asrwt>
<pdfrwt beam="1">  1        2 0.72425678E-01 0.14513454E+04</pdfrwt>
<pdfrwt beam="2">  1       -2 0.17209264E+00 0.14513454E+04</pdfrwt>
<totfact> 0.13173804E+01</totfact>
</mgrwt>
</event>
<event>
 6    1  0.3017327E-006  0.3408233E+04  0.7818608E-02  0.8135889E-01
          2   -1    0    0  501    0  0.00000000000E+00  0.00000000000E+00  0.41229828534E+04  0.41229828534E+04  0.00000000000E+00 0. -1.
         -2   -1    0    0    0  501 -0.00000000000E+00 -0.00000000000E+00 -0.70434778177E+03  0.70434778177E+03  0.00000000000E+00 0.  1.
         23    2    1    2    0    0 -0.15472638327E+04 -0.17318314441E+03  0.73388684650E+03  0.17238018691E+04  0.94261396208E+02 0.  0.
         13    1    3    3    0    0 -0.54890780569E+03 -0.21974079432E+02  0.23424113392E+03  0.59720310459E+03  0.00000000000E+00 0.  1.
        -13    1    3    3    0    0 -0.99835602704E+03 -0.15120906497E+03  0.49964571258E+03  0.11265987645E+04  0.00000000000E+00 0. -1.
         22    1    1    2    0    0  0.15472638327E+04  0.17318314441E+03  0.26847482251E+04  0.31035287661E+04  0.00000000000E+00 0. -1.
<mgrwt>
<rscale>  0 0.34082335E+04</rscale>
<asrwt>0</asrwt>
<pdfrwt beam="1">  1        2 0.63430504E+00 0.34082335E+04</pdfrwt>
<pdfrwt beam="2">  1       -2 0.10836120E+00 0.34082335E+04</pdfrwt>
<totfact> 0.15225458E-01</totfact>
</mgrwt>
</event>
<event>
 6    1  0.3017327E-006  0.1312456E+04  0.7818608E-02  0.9019746E-01
          2   -1    0    0  501    0  0.00000000000E+00  0.00000000000E+00  0.18511789264E+04  0.18511789264E+04  0.00000000000E+00 0. -1.
         -2   -1    0    0    0  501 -0.00000000000E+00 -0.00000000000E+00 -0.23262739287E+03  0.23262739287E+03  0.00000000000E+00 0.  1.
         23    2    1    2    0    0 -0.38989966179E+03 -0.16436132629E+03  0.16029903521E+04  0.16603933504E+04  0.91058317797E+02 0.  0.
         11    1    3    3    0    0 -0.11175744105E+03 -0.16713013266E+02  0.54217241738E+03  0.55382305894E+03  0.00000000000E+00 0.  1.
        -11    1    3    3    0    0 -0.27814222074E+03 -0.14764831302E+03  0.10608179347E+04  0.11065702915E+04  0.00000000000E+00 0. -1.
         22    1    1    2    0    0  0.38989966179E+03  0.16436132629E+03  0.15561181430E+02  0.42341296887E+03  0.00000000000E+00 0.  1.
<mgrwt>
<rscale>  0 0.13124556E+04</rscale>
<asrwt>0</asrwt>
<pdfrwt beam="1">  1        2 0.28479675E+00 0.13124556E+04</pdfrwt>
<pdfrwt beam="2">  1       -2 0.35788831E-01 0.13124556E+04</pdfrwt>
<totfact> 0.58113073E+01</totfact>
</mgrwt>
</event>
<event>
 6    1  0.3017327E-006  0.4842344E+04  0.7818608E-02  0.7853298E-01
         -2   -1    0    0    0  501 -0.00000000000E+00  0.00000000000E+00  0.17967546127E+04  0.17967546127E+04  0.00000000000E+00 0.  1.
          2   -1    0    0  501    0  0.00000000000E+00 -0.00000000000E+00 -0.32625905652E+04  0.32625905652E+04  0.00000000000E+00 0. -1.
         23    2    1    2    0    0  0.19647588740E+04 -0.10413395615E+04 -0.17316579088E+04  0.28198526400E+04  0.90908101848E+02 0.  0.
         13    1    3    3    0    0  0.39712776993E+03 -0.20413919269E+03 -0.30294932234E+03  0.53959389132E+03  0.00000000000E+00 0.  1.
        -13    1    3    3    0    0  0.15676311041E+04 -0.83720036876E+03 -0.14287085864E+04  0.22802587486E+04  0.00000000000E+00 0. -1.
         22    1    1    2    0    0 -0.19647588740E+04  0.10413395615E+04  0.26582195623E+03  0.22394925380E+04  0.00000000000E+00 0.  1.
<mgrwt>
<rscale>  0 0.48423443E+04</rscale>
<asrwt>0</asrwt>
<pdfrwt beam="1">  1        2 0.50193701E+00 0.48423443E+04</pdfrwt>
<pdfrwt beam="2">  1       -2 0.27642379E+00 0.48423443E+04</pdfrwt>
<totfact> 0.38459969E-02</totfact>
</mgrwt>
</event>
<event>
 6    1  0.3017327E-006  0.3053304E+04  0.7818608E-02  0.8228671E-01
          2   -1    0    0  501    0  0.00000000000E+00  0.00000000000E+00  0.22130539280E+04  0.22130539280E+04  0.00000000000E+00 0. -1.
         -2   -1    0    0    0  501 -0.00000000000E+00 -0.00000000000E+00 -0.10531450952E+04  0.10531450952E+04  0.00000000000E+00 0.  1.
         23    2    1    2    0    0  0.74948939831E+03  0.12026341296E+04  0.11841358394E+04  0.18489304688E+04  0.91120713298E+02 0.  0.
         11    1    3    3    0    0  0.39250981855E+03  0.67321643410E+03  0.59975960566E+03  0.98335950159E+03  0.00000000000E+00 0. -1.
        -11    1    3    3    0    0  0.35697957976E+03  0.52941769545E+03  0.58437623375E+03  0.86557096716E+03  0.00000000000E+00 0.  1.
         22    1    1    2    0    0 -0.74948939831E+03 -0.12026341296E+04 -0.24227006585E+02  0.14172685545E+04  0.00000000000E+00 0.  1.
<mgrwt>
<rscale>  0 0.30533044E+04</rscale>
<asrwt>0</asrwt>
<pdfrwt beam="1">  1        2 0.34046983E+00 0.30533044E+04</pdfrwt>
<pdfrwt beam="2">  1       -2 0.16202232E+00 0.30533044E+04</pdfrwt>
<totfact> 0.10531828E+00</totfact>
</mgrwt>
</event>
<event>
 6    1  0.3017327E-006  0.1204543E+04  0.7818608E-02  0.9108889E-01
          2   -1    0    0  501    0  0.00000000000E+00  0.00000000000E+00  0.12422453505E+04  0.12422453505E+04  0.00000000000E+00 0. -1.
         -2   -1    0    0    0  501 -0.00000000000E+00 -0.00000000000E+00 -0.29199644730E+03  0.29199644730E+03  0.00000000000E+00 0.  1.
         23    2    1    2    0    0  0.32609027424E+03  0.19150944232E+03 -0.11344304810E+03  0.40532581301E+03  0.91700360319E+02 0.  0.
         11    1    3    3    0    0  0.13029577165E+03  0.12361049407E+03 -0.74626780151E+02  0.19448829957E+03  0.00000000000E+00 0. -1.
        -11    1    3    3    0    0  0.19579450259E+03  0.67898948247E+02 -0.38816267944E+02  0.21083751344E+03  0.00000000000E+00 0.  1.
         22    1    1    2    0    0 -0.32609027424E+03 -0.19150944232E+03  0.10636919513E+04  0.11289159848E+04  0.00000000000E+00 0. -1.
<mgrwt>
<rscale>  0 0.12045434E+04</rscale>
<asrwt>0</asrwt>
<pdfrwt beam="1">  1        2 0.19111467E+00 0.12045434E+04</pdfrwt>
<pdfrwt beam="2">  1       -2 0.44922531E-01 0.12045434E+04</pdfrwt>
<totfact> 0.82826281E+01</totfact>
</mgrwt>
</event>
<event>
 6    1  0.3017327E-006  0.1174053E+04  0.7818608E-02  0.9135876E-01
          2   -1    0    0  501    0  0.00000000000E+00  0.00000000000E+00  0.14232252037E+03  0.14232252037E+03  0.00000000000E+00 0. -1.
         -2   -1    0    0    0  501 -0.00000000000E+00 -0.00000000000E+00 -0.24212623386E+04  0.24212623386E+04  0.00000000000E+00 0.  1.
         23    2    1    2    0    0  0.44573370665E+03  0.21101218205E+03 -0.46543127501E+03  0.68421849912E+03  0.91235982784E+02 0.  0.
         11    1    3    3    0    0  0.26204170891E+02  0.49548042935E+01 -0.32025551307E+01  0.26860100838E+02  0.00000000000E+00 0. -1.
        -11    1    3    3    0    0  0.41952953576E+03  0.20605737776E+03 -0.46222871988E+03  0.65735839828E+03  0.00000000000E+00 0.  1.
         22    1    1    2    0    0 -0.44573370665E+03 -0.21101218205E+03 -0.18135085432E+04  0.18793663598E+04  0.00000000000E+00 0.  1.
<mgrwt>
<rscale>  0 0.11740531E+04</rscale>
<asrwt>0</asrwt>
<pdfrwt beam="1">  1        2 0.21895774E-01 0.11740531E+04</pdfrwt>
<pdfrwt beam="2">  1       -2 0.37250187E+00 0.11740531E+04</pdfrwt>
<totfact> 0.28810838E+00</totfact>
</mgrwt>
</event>
<event>
 6    1  0.3017327E-006  0.6077404E+04  0.7818608E-02  0.7680878E-01
          2   -1    0    0  501    0  0.00000000000E+00  0.00000000000E+00  0.40698398996E+04  0.40698398996E+04  0.00000000000E+00 0. -1.
         -2   -1    0    0    0  501 -0.00000000000E+00 -0.00000000000E+00 -0.22688140527E+04  0.22688140527E+04  0.00000000000E+00 0.  1.
         23    2    1    2    0    0  0.25260766522E+03 -0.13597837408E+04 -0.19205299910E+04  0.23684146260E+04  0.90166179733E+02 0.  0.
         11    1    3    3    0    0  0.21146499006E+03 -0.10649708692E+04 -0.14461964468E+04  0.18084149294E+04  0.00000000000E+00 0.  1.
        -11    1    3    3    0    0  0.41142675159E+02 -0.29481287158E+03 -0.47433354419E+03  0.55999969653E+03  0.00000000000E+00 0. -1.
         22    1    1    2    0    0 -0.25260766522E+03  0.13597837408E+04  0.37215558378E+04  0.39702393263E+04  0.00000000000E+00 0. -1.
<mgrwt>
<rscale>  0 0.60774040E+04</rscale>
<asrwt>0</asrwt>
<pdfrwt beam="1">  1        2 0.62612921E+00 0.60774040E+04</pdfrwt>
<pdfrwt beam="2">  1       -2 0.34904832E+00 0.60774040E+04</pdfrwt>
<totfact> 0.31460589E-03</totfact>
</mgrwt>
</event>
<event>
 6    1  0.3017327E-006  0.1500699E+04  0.7818608E-02  0.8883988E-01
          2   -1    0    0  501    0  0.00000000000E+00  0.00000000000E+00  0.74909465313E+03  0.74909465313E+03  0.00000000000E+00 0. -1.
         -2   -1    0    0    0  501 -0.00000000000E+00 -0.00000000000E+00 -0.75160677589E+03  0.75160677589E+03  0.00000000000E+00 0.  1.
         23    2    1    2    0    0 -0.41086563577E+03 -0.44769668462E+02  0.62202841459E+03  0.75179170371E+03  0.86351162962E+02 0.  0.
         13    1    3    3    0    0 -0.13177779060E+03 -0.33079625343E+01  0.13333563760E+03  0.18749592253E+03  0.00000000000E+00 0. -1.
        -13    1    3    3    0    0 -0.27908784517E+03 -0.41461705928E+02  0.48869277699E+03  0.56429578118E+03  0.00000000000E+00 0.  1.
         22    1    1    2    0    0  0.41086563577E+03  0.44769668462E+02 -0.62454053734E+03  0.74890972530E+03  0.00000000000E+00 0.  1.
<mgrwt>
<rscale>  0 0.15006993E+04</rscale>
<asrwt>0</asrwt>
<pdfrwt beam="1">  1        2 0.11524533E+00 0.15006993E+04</pdfrwt>
<pdfrwt beam="2">  1       -2 0.11563181E+00 0.15006993E+04</pdfrwt>
<totfact> 0.21111565E+01</totfact>
</mgrwt>
</event>
<event>
 6    1  0.3017327E-006  0.3375458E+04  0.7818608E-02  0.8143956E-01
         -2   -1    0    0    0  501 -0.00000000000E+00  0.00000000000E+00  0.12710844441E+04  0.12710844441E+04  0.00000000000E+00 0.  1.
          2   -1    0    0  501    0  0.00000000000E+00 -0.00000000000E+00 -0.22409440276E+04  0.22409440276E+04  0.00000000000E+00 0. -1.
         23    2    1    2    0    0 -0.40455650814E+02  0.62144570205E+03  0.11454195456E+04  0.13069803511E+04  0.91543882056E+02 0.  0.
         11    1    3    3    0    0 -0.15061692631E+02  0.13967731895E+02  0.26399525591E+02  0.33449769365E+02  0.00000000000E+00 0. -1.
        -11    1    3    3    0    0 -0.25393958183E+02  0.60747797015E+03  0.11190200200E+04  0.12735305817E+04  0.00000000000E+00 0.  1.
         22    1    1    2    0    0  0.40455650814E+02 -0.62144570205E+03 -0.21152791291E+04  0.22050481207E+04  0.00000000000E+00 0. -1.
<mgrwt>
<rscale>  0 0.33754580E+04</rscale>
<asrwt>0</asrwt>
<pdfrwt beam="1">  1        2 0.34476062E+00 0.33754580E+04</pdfrwt>
<pdfrwt beam="2">  1       -2 0.19555145E+00 0.33754580E+04</pdfrwt>
<totfact> 0.57843527E-01</totfact>
</mgrwt>
</event>
<event>
 6    1  0.3017327E-006  0.1235480E+04  0.7818608E-02  0.9082355E-01
          2   -1    0    0  501    0  0.00000000000E+00  0.00000000000E+00  0.22101837783E+04  0.22101837783E+04  0.00000000000E+00 0. -1.
         -2   -1    0    0    0  501 -0.00000000000E+00 -0.00000000000E+00 -0.17265661629E+03  0.17265661629E+03  0.00000000000E+00 0.  1.
         23    2    1    2    0    0  0.53570621653E+03  0.16541797495E+03  0.54194524772E+03  0.78562108617E+03  0.95663904578E+02 0.  0.
         13    1    3    3    0    0  0.32535313798E+03  0.57258064633E+02  0.28402601951E+03  0.43566492872E+03  0.00000000000E+00 0.  1.
        -13    1    3    3    0    0  0.21035307856E+03  0.10815991031E+03  0.25791922821E+03  0.34995615745E+03  0.00000000000E+00 0. -1.
         22    1    1    2    0    0 -0.53570621653E+03 -0.16541797495E+03  0.14955819143E+04  0.15972193084E+04  0.00000000000E+00 0.  1.
<mgrwt>
<rscale>  0 0.12354802E+04</rscale>
<asrwt>0</asrwt>
<pdfrwt beam="1">  1        2 0.34002825E+00 0.12354802E+04</pdfrwt>
<pdfrwt beam="2">  1       -2 0.26562558E-01 0.12354802E+04</pdfrwt>
<totfact> 0.64612503E+01</totfact>
</mgrwt>
</event>
<event>
 6    1  0.3017327E-006  0.3697640E+04  0.7818608E-02  0.8068485E-01
         -2   -1    0    0    0  501 -0.00000000000E+00  0.00000000000E+00  0.24765050722E+04  0.24765050722E+04  0.00000000000E+00 0.  1.
          2   -1    0    0  501    0  0.00000000000E+00 -0.00000000000E+00 -0.13802257965E+04  0.13802257965E+04  0.00000000000E+00 0. -1.
         23    2    1    2    0    0  0.13815130807E+03  0.41398755568E+03 -0.13241578988E+04  0.13972619024E+04  0.92060864904E+02 0.  0.
         13    1    3    3    0    0  0.88827777719E+02  0.15311942832E+03 -0.44587967073E+03  0.47973389936E+03  0.00000000000E+00 0.  1.
        -13    1    3    3    0    0  0.49323530355E+02  0.26086812737E+03 -0.87827822804E+03  0.91752800304E+03  0.00000000000E+00 0. -1.
         22    1    1    2    0    0 -0.13815130807E+03 -0.41398755568E+03  0.24204371745E+04  0.24594689663E+04  0.00000000000E+00 0.  1.
<mgrwt>
<rscale>  0 0.36976404E+04</rscale>
<asrwt>0</asrwt>
<pdfrwt beam="1">  1        2 0.21234243E+00 0.36976404E+04</pdfrwt>
<pdfrwt beam="2">  1       -2 0.38100078E+00 0.36976404E+04</pdfrwt>
<totfact> 0.11839738E-01</totfact>
</mgrwt>
</event>
<event>
 6    1  0.3017327E-006  0.3937286E+04  0.7818608E-02  0.8017319E-01
          2   -1    0    0  501    0  0.00000000000E+00  0.00000000000E+00  0.17785942701E+04  0.17785942701E+04  0.00000000000E+00 0. -1.
         -2   -1    0    0    0  501 -0.00000000000E+00 -0.00000000000E+00 -0.21789985234E+04  0.21789985234E+04  0.00000000000E+00 0.  1.
         23    2    1    2    0    0  0.87621090383E+03  0.20889512495E+03 -0.19589505444E+04  0.21574680027E+04  0.76146083723E+02 0.  0.
         13    1    3    3    0    0  0.47028566236E+03  0.10738938020E+03 -0.11385123942E+04  0.12364916315E+04  0.00000000000E+00 0. -1.
        -13    1    3    3    0    0  0.40592524148E+03  0.10150574474E+03 -0.82043815022E+03  0.92097637115E+03  0.00000000000E+00 0.  1.
         22    1    1    2    0    0 -0.87621090383E+03 -0.20889512495E+03  0.15585462911E+04  0.18001247909E+04  0.00000000000E+00 0. -1.
<mgrwt>
<rscale>  0 0.39372855E+04</rscale>
<asrwt>0</asrwt>
<pdfrwt beam="1">  1        2 0.27362989E+00 0.39372855E+04</pdfrwt>
<pdfrwt beam="2">  1       -2 0.33523054E+00 0.39372855E+04</pdfrwt>
<totfact> 0.13538968E-01</totfact>
</mgrwt>
</event>
<event>
 6    1  0.3017327E-006  0.4763367E+04  0.7818608E-02  0.7866084E-01
          2   -1    0    0  501    0  0.00000000000E+00  0.00000000000E+00  0.35879318587E+04  0.35879318587E+04  0.00000000000E+00 0. -1.
         -2   -1    0    0    0  501 -0.00000000000E+00 -0.00000000000E+00 -0.15809707335E+04  0.15809707335E+04  0.00000000000E+00 0.  1.
         23    2    1    2    0    0 -0.64239566491E+03  0.75082583570E+03 -0.13466228869E+04  0.16727708223E+04  0.91418808401E+02 0.  0.
         11    1    3    3    0    0 -0.38669837856E+03  0.39364362711E+03 -0.70744183364E+03  0.89719835551E+03  0.00000000000E+00 0. -1.
        -11    1    3    3    0    0 -0.25569728635E+03  0.35718220859E+03 -0.63918105327E+03  0.77557246679E+03  0.00000000000E+00 0.  1.
         22    1    1    2    0    0  0.64239566491E+03 -0.75082583570E+03  0.33535840121E+04  0.34961317698E+04  0.00000000000E+00 0. -1.
<mgrwt>
<rscale>  0 0.47633666E+04</rscale>
<asrwt>0</asrwt>
<pdfrwt beam="1">  1        2 0.55198951E+00 0.47633666E+04</pdfrwt>
<pdfrwt beam="2">  1       -2 0.24322627E+00 0.47633666E+04</pdfrwt>
<totfact> 0.36878458E-02</totfact>
</mgrwt>
</event>
<event>
 6    1  0.3017327E-006  0.2653289E+04  0.7818608E-02  0.8350322E-01
          2   -1    0    0  501    0  0.00000000000E+00  0.00000000000E+00  0.17453979928E+04  0.17453979928E+04  0.00000000000E+00 0. -1.
         -2   -1    0    0    0  501 -0.00000000000E+00 -0.00000000000E+00 -0.10083581027E+04  0.10083581027E+04  0.00000000000E+00 0.  1.
         23    2    1    2    0    0  0.62205057700E+03  0.36411060306E+03 -0.78506580313E+03  0.10696156046E+04  0.90696057193E+02 0.  0.
         11    1    3    3    0    0  0.10450126519E+03  0.38698519087E+02 -0.84792544922E+02  0.14002808818E+03  0.00000000000E+00 0.  1.
        -11    1    3    3    0    0  0.51754931181E+03  0.32541208397E+03 -0.70027325820E+03  0.92958751643E+03  0.00000000000E+00 0. -1.
         22    1    1    2    0    0 -0.62205057700E+03 -0.36411060306E+03  0.15221056932E+04  0.16841404908E+04  0.00000000000E+00 0. -1.
<mgrwt>
<rscale>  0 0.26532894E+04</rscale>
<asrwt>0</asrwt>
<pdfrwt beam="1">  1        2 0.26852277E+00 0.26532894E+04</pdfrwt>
<pdfrwt beam="2">  1       -2 0.15513202E+00 0.26532894E+04</pdfrwt>
<totfact> 0.22322994E+00</totfact>
</mgrwt>
</event>
<event>
 6    1  0.3017327E-006  0.1633709E+04  0.7818608E-02  0.8800103E-01
         -2   -1    0    0    0  501 -0.00000000000E+00  0.00000000000E+00  0.16612494132E+03  0.16612494132E+03  0.00000000000E+00 0.  1.
          2   -1    0    0  501    0  0.00000000000E+00 -0.00000000000E+00 -0.40165637926E+04  0.40165637926E+04  0.00000000000E+00 0. -1.
         23    2    1    2    0    0  0.49077875367E+03  0.64396678432E+03 -0.21542810832E+04  0.23031919452E+04  0.90604342835E+02 0.  0.
         13    1    3    3    0    0  0.33766613158E+03  0.37887995640E+03 -0.14004267378E+04  0.14895514378E+04  0.00000000000E+00 0. -1.
        -13    1    3    3    0    0  0.15311262208E+03  0.26508682791E+03 -0.75385434534E+03  0.81364050745E+03  0.00000000000E+00 0.  1.
         22    1    1    2    0    0 -0.49077875367E+03 -0.64396678432E+03 -0.16961577682E+04  0.18794967887E+04  0.00000000000E+00 0.  1.
<mgrwt>
<rscale>  0 0.16337092E+04</rscale>
<asrwt>0</asrwt>
<pdfrwt beam="1">  1        2 0.61793281E+00 0.16337092E+04</pdfrwt>
<pdfrwt beam="2">  1       -2 0.25557687E-01 0.16337092E+04</pdfrwt>
<totfact> 0.44581978E+00</totfact>
</mgrwt>
</event>
<event>
 6    1  0.3017327E-006  0.1891882E+04  0.7818608E-02  0.8658908E-01
          2   -1    0    0  501    0  0.00000000000E+00  0.00000000000E+00  0.13108795631E+04  0.13108795631E+04  0.00000000000E+00 0. -1.
         -2   -1    0    0    0  501 -0.00000000000E+00 -0.00000000000E+00 -0.68259829553E+03  0.68259829553E+03  0.00000000000E+00 0.  1.
         23    2    1    2    0    0  0.25880195763E+03  0.89930570984E+03  0.18596580873E+03  0.95840676050E+03  0.90724988476E+02 0.  0.
         13    1    3    3    0    0  0.11788890339E+03  0.50805456203E+03  0.66778280269E+02  0.52581039383E+03  0.00000000000E+00 0. -1.
        -13    1    3    3    0    0  0.14091305424E+03  0.39125114781E+03  0.11918752846E+03  0.43259636667E+03  0.00000000000E+00 0.  1.
         22    1    1    2    0    0 -0.25880195763E+03 -0.89930570984E+03  0.44231545882E+03  0.10350710981E+04  0.00000000000E+00 0. -1.
<mgrwt>
<rscale>  0 0.18918818E+04</rscale>
<asrwt>0</asrwt>
<pdfrwt beam="1">  1        2 0.20167378E+00 0.18918818E+04</pdfrwt>
<pdfrwt beam="2">  1       -2 0.10501512E+00 0.18918818E+04</pdfrwt>
<totfact> 0.11221309E+01</totfact>
</mgrwt>
</event>
<event>
 6    1  0.3017327E-006  0.1467863E+04  0.7818608E-02  0.8906109E-01
          2   -1    0    0  501    0  0.00000000000E+00  0.00000000000E+00  0.18758612180E+04  0.18758612180E+04  0.00000000000E+00 0.  1.
         -2   -1    0    0    0  501 -0.00000000000E+00 -0.00000000000E+00 -0.28715119185E+03  0.28715119185E+03  0.00000000000E+00 0. -1.
         23    2    1    2    0    0 -0.32588948102E+03 -0.51848622194E+03  0.13858037932E+04  0.15178745521E+04  0.91973291924E+02 0.  0.
         13    1    3    3    0    0 -0.21559357591E+03 -0.29031355397E+03  0.72599656635E+03  0.81106939527E+03  0.00000000000E+00 0.  1.
        -13    1    3    3    0    0 -0.11029590512E+03 -0.22817266797E+03  0.65980722682E+03  0.70680515678E+03  0.00000000000E+00 0. -1.
         22    1    1    2    0    0  0.32588948102E+03  0.51848622194E+03  0.20290623300E+03  0.64513785780E+03  0.00000000000E+00 0. -1.
<mgrwt>
<rscale>  0 0.14678635E+04</rscale>
<asrwt>0</asrwt>
<pdfrwt beam="1">  1        2 0.28859403E+00 0.14678635E+04</pdfrwt>
<pdfrwt beam="2">  1       -2 0.44177108E-01 0.14678635E+04</pdfrwt>
<totfact> 0.36860863E+01</totfact>
</mgrwt>
</event>
<event>
 6    1  0.3017327E-006  0.1833389E+04  0.7818608E-02  0.8688742E-01
         -2   -1    0    0    0  501 -0.00000000000E+00  0.00000000000E+00  0.33954279454E+03  0.33954279454E+03  0.00000000000E+00 0.  1.
          2   -1    0    0  501    0  0.00000000000E+00 -0.00000000000E+00 -0.24748842389E+04  0.24748842389E+04  0.00000000000E+00 0. -1.
         23    2    1    2    0    0 -0.15850009303E+03  0.38241122088E+03 -0.23219414348E+04  0.23603563586E+04  0.92246905676E+02 0.  0.
         13    1    3    3    0    0 -0.11114191655E+03  0.23266456958E+03 -0.16684509971E+04  0.16882576987E+04  0.00000000000E+00 0. -1.
        -13    1    3    3    0    0 -0.47358176480E+02  0.14974665130E+03 -0.65349043773E+03  0.67209865991E+03  0.00000000000E+00 0.  1.
         22    1    1    2    0    0  0.15850009303E+03 -0.38241122088E+03  0.18659999042E+03  0.45407067487E+03  0.00000000000E+00 0.  1.
<mgrwt>
<rscale>  0 0.18333893E+04</rscale>
<asrwt>0</asrwt>
<pdfrwt beam="1">  1        2 0.38075141E+00 0.18333893E+04</pdfrwt>
<pdfrwt beam="2">  1       -2 0.52237354E-01 0.18333893E+04</pdfrwt>
<totfact> 0.11735402E+01</totfact>
</mgrwt>
</event>
<event>
 6    1  0.3017327E-006  0.4759851E+04  0.7818608E-02  0.7866659E-01
          2   -1    0    0  501    0  0.00000000000E+00  0.00000000000E+00  0.32438893533E+04  0.32438893533E+04  0.00000000000E+00 0. -1.
         -2   -1    0    0    0  501 -0.00000000000E+00 -0.00000000000E+00 -0.17460658305E+04  0.17460658305E+04  0.00000000000E+00 0.  1.
         23    2    1    2    0    0 -0.18633142195E+04  0.12045578200E+04 -0.15083010128E+03  0.22257268657E+04  0.90614231556E+02 0.  0.
         11    1    3    3    0    0 -0.12422258566E+04  0.77040231560E+03 -0.13247150130E+03  0.14677171067E+04  0.00000000000E+00 0.  1.
        -11    1    3    3    0    0 -0.62108836289E+03  0.43415550444E+03 -0.18358599980E+02  0.75800975900E+03  0.00000000000E+00 0. -1.
         22    1    1    2    0    0  0.18633142195E+04 -0.12045578200E+04  0.16486536240E+04  0.27642283181E+04  0.00000000000E+00 0.  1.
<mgrwt>
<rscale>  0 0.47598506E+04</rscale>
<asrwt>0</asrwt>
<pdfrwt beam="1">  1        2 0.49905990E+00 0.47598506E+04</pdfrwt>
<pdfrwt beam="2">  1       -2 0.26862551E+00 0.47598506E+04</pdfrwt>
<totfact> 0.44447420E-02</totfact>
</mgrwt>
</event>
<event>
 6    1  0.3017327E-006  0.2460116E+04  0.7818608E-02  0.8417334E-01
          2   -1    0    0  501    0  0.00000000000E+00  0.00000000000E+00  0.27422882791E+04  0.27422882791E+04  0.00000000000E+00 0. -1.
         -2   -1    0    0    0  501 -0.00000000000E+00 -0.00000000000E+00 -0.55174462665E+03  0.55174462665E+03  0.00000000000E+00 0.  1.
         23    2    1    2    0    0  0.83914900416E+03  0.79958197788E+03  0.55271963596E+03  0.12875509348E+04  0.93733789491E+02 0.  0.
         13    1    3    3    0    0  0.15066718059E+03  0.10355860794E+03  0.10722135103E+03  0.21194669779E+03  0.00000000000E+00 0. -1.
        -13    1    3    3    0    0  0.68848182357E+03  0.69602336993E+03  0.44549828492E+03  0.10756042370E+04  0.00000000000E+00 0.  1.
         22    1    1    2    0    0 -0.83914900416E+03 -0.79958197788E+03  0.16378240165E+04  0.20064819709E+04  0.00000000000E+00 0. -1.
<mgrwt>
<rscale>  0 0.24601161E+04</rscale>
<asrwt>0</asrwt>
<pdfrwt beam="1">  1        2 0.42189049E+00 0.24601161E+04</pdfrwt>
<pdfrwt beam="2">  1       -2 0.84883791E-01 0.24601161E+04</pdfrwt>
<totfact> 0.27094447E+00</totfact>
</mgrwt>
</event>
<event>
 6    1  0.3017327E-006  0.4272668E+04  0.7818608E-02  0.7951691E-01
         -1   -1    0    0    0  501 -0.00000000000E+00  0.00000000000E+00  0.14899491186E+04  0.14899491186E+04  0.00000000000E+00 0.  1.
          1   -1    0    0  501    0  0.00000000000E+00 -0.00000000000E+00 -0.30631398599E+04  0.30631398599E+04  0.00000000000E+00 0. -1.
         23    2    1    2    0    0 -0.33721258218E+03 -0.13770513122E+04 -0.24886369526E+04  0.28654798983E+04  0.87627186250E+02 0.  0.
         11    1    3    3    0    0 -0.21372801137E+03 -0.10288796011E+04 -0.18611289560E+04  0.21373052864E+04  0.00000000000E+00 0.  1.
        -11    1    3    3    0    0 -0.12348457082E+03 -0.34817171108E+03 -0.62750799663E+03  0.72817461193E+03  0.00000000000E+00 0. -1.
         22    1    1    2    0    0  0.33721258218E+03  0.13770513122E+04  0.91544621122E+03  0.16876090802E+04  0.00000000000E+00 0.  1.
<mgrwt>
<rscale>  0 0.42726678E+04</rscale>
<asrwt>0</asrwt>
<pdfrwt beam="1">  1        1 0.47125228E+00 0.42726678E+04</pdfrwt>
<pdfrwt beam="2">  1       -1 0.22922294E+00 0.42726678E+04</pdfrwt>
<totfact> 0.39266118E-02</totfact>
</mgrwt>
</event>
<event>
 6    1  0.3017327E-006  0.3751365E+04  0.7818608E-02  0.8056673E-01
          1   -1    0    0  501    0  0.00000000000E+00  0.00000000000E+00  0.13110245109E+04  0.13110245109E+04  0.00000000000E+00 0. -1.
         -1   -1    0    0    0  501 -0.00000000000E+00 -0.00000000000E+00 -0.26835378907E+04  0.26835378907E+04  0.00000000000E+00 0.  1.
         23    2    1    2    0    0  0.56271659584E+03  0.17751977980E+04 -0.91624726228E+03  0.20772319764E+04  0.86060729665E+02 0.  0.
         11    1    3    3    0    0  0.16018225204E+03  0.42226952144E+03 -0.19225456095E+03  0.49084795896E+03  0.00000000000E+00 0.  1.
        -11    1    3    3    0    0  0.40253434380E+03  0.13529282765E+04 -0.72399270133E+03  0.15863840175E+04  0.00000000000E+00 0. -1.
         22    1    1    2    0    0 -0.56271659584E+03 -0.17751977980E+04 -0.45626611758E+03  0.19173304251E+04  0.00000000000E+00 0. -1.
<mgrwt>
<rscale>  0 0.37513645E+04</rscale>
<asrwt>0</asrwt>
<pdfrwt beam="1">  1        1 0.20169608E+00 0.37513645E+04</pdfrwt>
<pdfrwt beam="2">  1       -1 0.41285198E+00 0.37513645E+04</pdfrwt>
<totfact> 0.41408401E-02</totfact>
</mgrwt>
</event>
<event>
 6    1  0.3017327E-006  0.4010916E+04  0.7818608E-02  0.8002348E-01
         -1   -1    0    0    0  501 -0.00000000000E+00  0.00000000000E+00  0.25948214407E+04  0.25948214407E+04  0.00000000000E+00 0.  1.
          1   -1    0    0  501    0  0.00000000000E+00 -0.00000000000E+00 -0.15499571805E+04  0.15499571805E+04  0.00000000000E+00 0. -1.
         23    2    1    2    0    0  0.19750182536E+04  0.34123962026E+03  0.54895249583E+03  0.20800582869E+04  0.90288726017E+02 0.  0.
         13    1    3    3    0    0  0.15632592577E+04  0.30411942060E+03  0.42078037211E+03  0.16472171231E+04  0.00000000000E+00 0. -1.
        -13    1    3    3    0    0  0.41175899582E+03  0.37120199662E+02  0.12817212372E+03  0.43284116390E+03  0.00000000000E+00 0.  1.
         22    1    1    2    0    0 -0.19750182536E+04 -0.34123962026E+03  0.49591176437E+03  0.20647203342E+04  0.00000000000E+00 0.  1.
<mgrwt>
<rscale>  0 0.40109162E+04</rscale>
<asrwt>0</asrwt>
<pdfrwt beam="1">  1        1 0.23845495E+00 0.40109162E+04</pdfrwt>
<pdfrwt beam="2">  1       -1 0.39920330E+00 0.40109162E+04</pdfrwt>
<totfact> 0.34196299E-02</totfact>
</mgrwt>
</event>
<event>
 6    1  0.3017327E-006  0.1917860E+04  0.7818608E-02  0.8646017E-01
         -2   -1    0    0    0  501 -0.00000000000E+00  0.00000000000E+00  0.53275233118E+03  0.53275233118E+03  0.00000000000E+00 0.  1.
          2   -1    0    0  501    0  0.00000000000E+00 -0.00000000000E+00 -0.17260295694E+04  0.17260295694E+04  0.00000000000E+00 0. -1.
         23    2    1    2    0    0 -0.60566865376E+03  0.66882606323E+03 -0.22309234964E+03  0.93385868053E+03  0.90327281242E+02 0.  0.
         11    1    3    3    0    0 -0.26913777681E+03  0.31217576858E+03 -0.56808094362E+02  0.41607212473E+03  0.00000000000E+00 0. -1.
        -11    1    3    3    0    0 -0.33653087695E+03  0.35665029465E+03 -0.16628425528E+03  0.51778655580E+03  0.00000000000E+00 0.  1.
         22    1    1    2    0    0  0.60566865376E+03 -0.66882606323E+03 -0.97018488860E+03  0.13249232201E+04  0.00000000000E+00 0. -1.
<mgrwt>
<rscale>  0 0.19178595E+04</rscale>
<asrwt>0</asrwt>
<pdfrwt beam="1">  1        2 0.26554301E+00 0.19178595E+04</pdfrwt>
<pdfrwt beam="2">  1       -2 0.81961898E-01 0.19178595E+04</pdfrwt>
<totfact> 0.11608884E+01</totfact>
</mgrwt>
</event>
<event>
 6    1  0.3017327E-006  0.2454332E+04  0.7818608E-02  0.8419438E-01
         -2   -1    0    0    0  501 -0.00000000000E+00  0.00000000000E+00  0.50282663016E+03  0.50282663016E+03  0.00000000000E+00 0.  1.
          2   -1    0    0  501    0  0.00000000000E+00 -0.00000000000E+00 -0.29949420782E+04  0.29949420782E+04  0.00000000000E+00 0. -1.
         23    2    1    2    0    0  0.98582208266E+03  0.62993541530E+03 -0.17676937673E+04  0.21217416092E+04  0.91555421492E+02 0.  0.
         11    1    3    3    0    0  0.72912518717E+03  0.50760561061E+03 -0.13070766358E+04  0.15804228315E+04  0.00000000000E+00 0. -1.
        -11    1    3    3    0    0  0.25669689549E+03  0.12232980469E+03 -0.46061713142E+03  0.54131877765E+03  0.00000000000E+00 0.  1.
         22    1    1    2    0    0 -0.98582208266E+03 -0.62993541530E+03 -0.72442168081E+03  0.13760270992E+04  0.00000000000E+00 0.  1.
<mgrwt>
<rscale>  0 0.24543322E+04</rscale>
<asrwt>0</asrwt>
<pdfrwt beam="1">  1        2 0.46076032E+00 0.24543322E+04</pdfrwt>
<pdfrwt beam="2">  1       -2 0.77357942E-01 0.24543322E+04</pdfrwt>
<totfact> 0.23408999E+00</totfact>
</mgrwt>
</event>
<event>
 6    1  0.3017327E-006  0.1835701E+04  0.7818608E-02  0.8687541E-01
         -2   -1    0    0    0  501 -0.00000000000E+00  0.00000000000E+00  0.37760837272E+03  0.37760837272E+03  0.00000000000E+00 0.  1.
          2   -1    0    0  501    0  0.00000000000E+00 -0.00000000000E+00 -0.22310147310E+04  0.22310147310E+04  0.00000000000E+00 0. -1.
         23    2    1    2    0    0  0.76701142122E+03  0.31929184733E+03 -0.38203735926E+03  0.91889515659E+03  0.90343571271E+02 0.  0.
         13    1    3    3    0    0  0.28075645982E+03  0.90113302139E+02 -0.96775669613E+02  0.31033872975E+03  0.00000000000E+00 0.  1.
        -13    1    3    3    0    0  0.48625496140E+03  0.22917854519E+03 -0.28526168964E+03  0.60855642683E+03  0.00000000000E+00 0. -1.
         22    1    1    2    0    0 -0.76701142122E+03 -0.31929184733E+03 -0.14713689990E+04  0.16897279472E+04  0.00000000000E+00 0. -1.
<mgrwt>
<rscale>  0 0.18357013E+04</rscale>
<asrwt>0</asrwt>
<pdfrwt beam="1">  1        2 0.34323304E+00 0.18357013E+04</pdfrwt>
<pdfrwt beam="2">  1       -2 0.58093596E-01 0.18357013E+04</pdfrwt>
<totfact> 0.12949674E+01</totfact>
</mgrwt>
</event>
<event>
 6    1  0.3017327E-006  0.3725911E+04  0.7818608E-02  0.8062244E-01
          2   -1    0    0  501    0  0.00000000000E+00  0.00000000000E+00  0.34980430077E+04  0.34980430077E+04  0.00000000000E+00 0. -1.
         -2   -1    0    0    0  501 -0.00000000000E+00 -0.00000000000E+00 -0.99215561376E+03  0.99215561376E+03  0.00000000000E+00 0.  1.
         23    2    1    2    0    0  0.16174155799E+04 -0.86923801500E+03  0.88324772850E+03  0.20397767458E+04  0.94629478861E+02 0.  0.
         13    1    3    3    0    0  0.12631554172E+04 -0.66285751642E+03  0.64465364317E+03  0.15654136880E+04  0.00000000000E+00 0. -1.
        -13    1    3    3    0    0  0.35426016265E+03 -0.20638049858E+03  0.23859408533E+03  0.47436305778E+03  0.00000000000E+00 0.  1.
         22    1    1    2    0    0 -0.16174155799E+04  0.86923801500E+03  0.16226396654E+04  0.24504218756E+04  0.00000000000E+00 0. -1.
<mgrwt>
<rscale>  0 0.37259109E+04</rscale>
<asrwt>0</asrwt>
<pdfrwt beam="1">  1        2 0.53816046E+00 0.37259109E+04</pdfrwt>
<pdfrwt beam="2">  1       -2 0.15263933E+00 0.37259109E+04</pdfrwt>
<totfact> 0.18784973E-01</totfact>
</mgrwt>
</event>
<event>
 6    1  0.3017327E-006  0.1927436E+04  0.7818608E-02  0.8641319E-01
          2   -1    0    0  501    0  0.00000000000E+00  0.00000000000E+00  0.11757435874E+04  0.11757435874E+04  0.00000000000E+00 0. -1.
         -2   -1    0    0    0  501 -0.00000000000E+00 -0.00000000000E+00 -0.78992800262E+03  0.78992800262E+03  0.00000000000E+00 0.  1.
         23    2    1    2    0    0  0.65000976106E+03  0.62932426125E+03 -0.13862749595E+03  0.91991719239E+03  0.92023599951E+02 0.  0.
         13    1    3    3    0    0  0.43372930270E+02  0.78888144695E+02 -0.73377655569E+01  0.90323824415E+02  0.00000000000E+00 0.  1.
        -13    1    3    3    0    0  0.60663683079E+03  0.55043611656E+03 -0.13128973040E+03  0.82959336798E+03  0.00000000000E+00 0. -1.
         22    1    1    2    0    0 -0.65000976106E+03 -0.62932426125E+03  0.52444308076E+03  0.10457543977E+04  0.00000000000E+00 0. -1.
<mgrwt>
<rscale>  0 0.19274364E+04</rscale>
<asrwt>0</asrwt>
<pdfrwt beam="1">  1        2 0.18088363E+00 0.19274364E+04</pdfrwt>
<pdfrwt beam="2">  1       -2 0.12152739E+00 0.19274364E+04</pdfrwt>
<totfact> 0.94194364E+00</totfact>
</mgrwt>
</event>
<event>
 6    1  0.3017327E-006  0.1287916E+04  0.7818608E-02  0.9039203E-01
         -2   -1    0    0    0  501 -0.00000000000E+00  0.00000000000E+00  0.11415642021E+03  0.11415642021E+03  0.00000000000E+00 0.  1.
          2   -1    0    0  501    0  0.00000000000E+00 -0.00000000000E+00 -0.36325741980E+04  0.36325741980E+04  0.00000000000E+00 0. -1.
         23    2    1    2    0    0 -0.49233211209E+03 -0.31016486023E+03 -0.25475010172E+04  0.26147975349E+04  0.93869945323E+02 0.  0.
         13    1    3    3    0    0 -0.23590111587E+03 -0.18642661361E+03 -0.11557325549E+04  0.11942034823E+04  0.00000000000E+00 0.  1.
        -13    1    3    3    0    0 -0.25643099622E+03 -0.12373824663E+03 -0.13917684623E+04  0.14205940526E+04  0.00000000000E+00 0. -1.
         22    1    1    2    0    0  0.49233211209E+03  0.31016486023E+03 -0.97091676053E+03  0.11319330833E+04  0.00000000000E+00 0.  1.
<mgrwt>
<rscale>  0 0.12879156E+04</rscale>
<asrwt>0</asrwt>
<pdfrwt beam="1">  1        2 0.55885762E+00 0.12879156E+04</pdfrwt>
<pdfrwt beam="2">  1       -2 0.17562525E-01 0.12879156E+04</pdfrwt>
<totfact> 0.17626744E+01</totfact>
</mgrwt>
</event>
<event>
 6    1  0.3017327E-006  0.3218315E+04  0.7818608E-02  0.8183997E-01
         -2   -1    0    0    0  501 -0.00000000000E+00  0.00000000000E+00  0.18796637778E+04  0.18796637778E+04  0.00000000000E+00 0.  1.
          2   -1    0    0  501    0  0.00000000000E+00 -0.00000000000E+00 -0.13775806465E+04  0.13775806465E+04  0.00000000000E+00 0. -1.
         23    2    1    2    0    0  0.76872482101E+03 -0.11389729134E+04 -0.59373126340E+03  0.14996875019E+04  0.91370905740E+02 0.  0.
         13    1    3    3    0    0  0.49243159839E+03 -0.68591741808E+03 -0.32391495459E+03  0.90437408262E+03  0.00000000000E+00 0. -1.
        -13    1    3    3    0    0  0.27629322262E+03 -0.45305549532E+03 -0.26981630881E+03  0.59531341930E+03  0.00000000000E+00 0.  1.
         22    1    1    2    0    0 -0.76872482101E+03  0.11389729134E+04  0.10958143946E+04  0.17575569224E+04  0.00000000000E+00 0.  1.
<mgrwt>
<rscale>  0 0.32183154E+04</rscale>
<asrwt>0</asrwt>
<pdfrwt beam="1">  1        2 0.21193548E+00 0.32183154E+04</pdfrwt>
<pdfrwt beam="2">  1       -2 0.28917904E+00 0.32183154E+04</pdfrwt>
<totfact> 0.46386515E-01</totfact>
</mgrwt>
</event>
<event>
 6    1  0.3017327E-006  0.2003661E+04  0.7818608E-02  0.8604911E-01
         -2   -1    0    0    0  501 -0.00000000000E+00  0.00000000000E+00  0.46537514526E+03  0.46537514526E+03  0.00000000000E+00 0.  1.
          2   -1    0    0  501    0  0.00000000000E+00 -0.00000000000E+00 -0.21566790400E+04  0.21566790400E+04  0.00000000000E+00 0. -1.
         23    2    1    2    0    0 -0.50076706719E+03 -0.79010603578E+03 -0.13084971493E+04  0.16113236535E+04  0.95728384060E+02 0.  0.
         13    1    3    3    0    0 -0.25792842060E+03 -0.34354610843E+03 -0.65702723781E+03  0.78500687258E+03  0.00000000000E+00 0. -1.
        -13    1    3    3    0    0 -0.24283864659E+03 -0.44655992735E+03 -0.65146991144E+03  0.82631678097E+03  0.00000000000E+00 0.  1.
         22    1    1    2    0    0  0.50076706719E+03  0.79010603578E+03 -0.38280674548E+03  0.10107305317E+04  0.00000000000E+00 0.  1.
<mgrwt>
<rscale>  0 0.20036615E+04</rscale>
<asrwt>0</asrwt>
<pdfrwt beam="1">  1        2 0.33179678E+00 0.20036615E+04</pdfrwt>
<pdfrwt beam="2">  1       -2 0.71596175E-01 0.20036615E+04</pdfrwt>
<totfact> 0.89748721E+00</totfact>
</mgrwt>
</event>
<event>
 6    1  0.3017327E-006  0.3830966E+04  0.7818608E-02  0.8039542E-01
          2   -1    0    0  501    0  0.00000000000E+00  0.00000000000E+00  0.20252174534E+04  0.20252174534E+04  0.00000000000E+00 0. -1.
         -2   -1    0    0    0  501 -0.00000000000E+00 -0.00000000000E+00 -0.18116942911E+04  0.18116942911E+04  0.00000000000E+00 0.  1.
         23    2    1    2    0    0  0.16343617291E+04  0.99053309920E+03  0.21977881791E+03  0.19258038942E+04  0.90132278661E+02 0.  0.
         11    1    3    3    0    0  0.46372150287E+03  0.30508010474E+03  0.99508096324E+02  0.56392673617E+03  0.00000000000E+00 0.  1.
        -11    1    3    3    0    0  0.11706402263E+04  0.68545299445E+03  0.12027072159E+03  0.13618771580E+04  0.00000000000E+00 0. -1.
         22    1    1    2    0    0 -0.16343617291E+04 -0.99053309920E+03 -0.62556556395E+01  0.19111078503E+04  0.00000000000E+00 0. -1.
<mgrwt>
<rscale>  0 0.38309659E+04</rscale>
<asrwt>0</asrwt>
<pdfrwt beam="1">  1        2 0.31157192E+00 0.38309659E+04</pdfrwt>
<pdfrwt beam="2">  1       -2 0.27872220E+00 0.38309659E+04</pdfrwt>
<totfact> 0.22182761E-01</totfact>
</mgrwt>
</event>
<event>
 6    1  0.3017327E-006  0.2909882E+04  0.7818608E-02  0.8269943E-01
          2   -1    0    0  501    0  0.00000000000E+00  0.00000000000E+00  0.12630615139E+04  0.12630615139E+04  0.00000000000E+00 0. -1.
         -2   -1    0    0    0  501 -0.00000000000E+00 -0.00000000000E+00 -0.16759695876E+04  0.16759695876E+04  0.00000000000E+00 0.  1.
         23    2    1    2    0    0 -0.13277579623E+04 -0.38885467675E+03 -0.65678317813E+03  0.15341737306E+04  0.90419722972E+02 0.  0.
         11    1    3    3    0    0 -0.23837378594E+03 -0.10639178074E+03 -0.12777337951E+03  0.29063260200E+03  0.00000000000E+00 0. -1.
        -11    1    3    3    0    0 -0.10893841764E+04 -0.28246289602E+03 -0.52900979862E+03  0.12435411286E+04  0.00000000000E+00 0.  1.
         22    1    1    2    0    0  0.13277579623E+04  0.38885467675E+03  0.24387510449E+03  0.14048573710E+04  0.00000000000E+00 0.  1.
<mgrwt>
<rscale>  0 0.29098816E+04</rscale>
<asrwt>0</asrwt>
<pdfrwt beam="1">  1        2 0.19431715E+00 0.29098816E+04</pdfrwt>
<pdfrwt beam="2">  1       -2 0.25784148E+00 0.29098816E+04</pdfrwt>
<totfact> 0.86189295E-01</totfact>
</mgrwt>
</event>
<event>
 6    1  0.3017327E-006  0.2821487E+04  0.7818608E-02  0.8296628E-01
         -2   -1    0    0    0  501 -0.00000000000E+00  0.00000000000E+00  0.16007775299E+04  0.16007775299E+04  0.00000000000E+00 0.  1.
          2   -1    0    0  501    0  0.00000000000E+00 -0.00000000000E+00 -0.12432690862E+04  0.12432690862E+04  0.00000000000E+00 0. -1.
         23    2    1    2    0    0  0.35442534496E+03 -0.63850745508E+02  0.15523653978E+04  0.15960973449E+04  0.89410085534E+02 0.  0.
         11    1    3    3    0    0  0.31994482137E+03 -0.27920659059E+02  0.13307210415E+04  0.13689275884E+04  0.00000000000E+00 0.  1.
        -11    1    3    3    0    0  0.34480523583E+02 -0.35930086449E+02  0.22164435625E+03  0.22716975652E+03  0.00000000000E+00 0. -1.
         22    1    1    2    0    0 -0.35442534496E+03  0.63850745508E+02 -0.11948569540E+04  0.12479492712E+04  0.00000000000E+00 0. -1.
<mgrwt>
<rscale>  0 0.28214870E+04</rscale>
<asrwt>0</asrwt>
<pdfrwt beam="1">  1        2 0.19127217E+00 0.28214870E+04</pdfrwt>
<pdfrwt beam="2">  1       -2 0.24627347E+00 0.28214870E+04</pdfrwt>
<totfact> 0.10504997E+00</totfact>
</mgrwt>
</event>
<event>
 6    1  0.3017327E-006  0.7726884E+03  0.7818608E-02  0.9600413E-01
          2   -1    0    0  501    0  0.00000000000E+00  0.00000000000E+00  0.27236874679E+04  0.27236874679E+04  0.00000000000E+00 0. -1.
         -2   -1    0    0    0  501 -0.00000000000E+00 -0.00000000000E+00 -0.54801381815E+02  0.54801381815E+02  0.00000000000E+00 0.  1.
         23    2    1    2    0    0  0.43260051177E+02 -0.37745749364E+03  0.14590097790E+04  0.15103617780E+04  0.90208501440E+02 0.  0.
         11    1    3    3    0    0  0.26505112241E+01 -0.21627317248E+03  0.67049008198E+03  0.70451264033E+03  0.00000000000E+00 0. -1.
        -11    1    3    3    0    0  0.40609539953E+02 -0.16118432116E+03  0.78851969705E+03  0.80584913772E+03  0.00000000000E+00 0.  1.
         22    1    1    2    0    0 -0.43260051177E+02  0.37745749364E+03  0.12098763070E+04  0.12681270716E+04  0.00000000000E+00 0.  1.
<mgrwt>
<rscale>  0 0.77268839E+03</rscale>
<asrwt>0</asrwt>
<pdfrwt beam="1">  1        2 0.41902874E+00 0.77268839E+03</pdfrwt>
<pdfrwt beam="2">  1       -2 0.84309839E-02 0.77268839E+03</pdfrwt>
<totfact> 0.24248979E+02</totfact>
</mgrwt>
</event>
<event>
 6    1  0.3017327E-006  0.1077079E+04  0.7818608E-02  0.9227825E-01
         -2   -1    0    0    0  501 -0.00000000000E+00  0.00000000000E+00  0.27780911710E+03  0.27780911710E+03  0.00000000000E+00 0.  1.
          2   -1    0    0  501    0  0.00000000000E+00 -0.00000000000E+00 -0.10439708956E+04  0.10439708956E+04  0.00000000000E+00 0. -1.
         23    2    1    2    0    0 -0.39554790287E+03 -0.28300639646E+02  0.54293282793E+02  0.41051409252E+03  0.91186566634E+02 0.  0.
         11    1    3    3    0    0 -0.22849259646E+03  0.13947169185E+02 -0.29595634535E+01  0.22893699828E+03  0.00000000000E+00 0. -1.
        -11    1    3    3    0    0 -0.16705530641E+03 -0.42247808830E+02  0.57252846246E+02  0.18157709424E+03  0.00000000000E+00 0.  1.
         22    1    1    2    0    0  0.39554790287E+03  0.28300639646E+02 -0.82045506130E+03  0.91126592018E+03  0.00000000000E+00 0. -1.
<mgrwt>
<rscale>  0 0.10770787E+04</rscale>
<asrwt>0</asrwt>
<pdfrwt beam="1">  1        2 0.16061091E+00 0.10770787E+04</pdfrwt>
<pdfrwt beam="2">  1       -2 0.42739864E-01 0.10770787E+04</pdfrwt>
<totfact> 0.12176477E+02</totfact>
</mgrwt>
</event>
<event>
 6    1  0.3017327E-006  0.3682828E+03  0.7818608E-02  0.1055352E+00
         -2   -1    0    0    0  501 -0.00000000000E+00  0.00000000000E+00  0.28277373551E+02  0.28277373551E+02  0.00000000000E+00 0.  1.
          2   -1    0    0  501    0  0.00000000000E+00 -0.00000000000E+00 -0.11991229578E+04  0.11991229578E+04  0.00000000000E+00 0. -1.
         23    2    1    2    0    0 -0.30553197007E+02  0.14522535187E+03 -0.91621529941E+03  0.93267930626E+03  0.91740464244E+02 0.  0.
         11    1    3    3    0    0 -0.58999593169E+01  0.37478383750E+02 -0.51862433504E+03  0.52001023035E+03  0.00000000000E+00 0. -1.
        -11    1    3    3    0    0 -0.24653237690E+02  0.10774696812E+03 -0.39759096437E+03  0.41266907591E+03  0.00000000000E+00 0.  1.
         22    1    1    2    0    0  0.30553197007E+02 -0.14522535187E+03 -0.25463028481E+03  0.29472102507E+03  0.00000000000E+00 0.  1.
<mgrwt>
<rscale>  0 0.36828276E+03</rscale>
<asrwt>0</asrwt>
<pdfrwt beam="1">  1        2 0.18448044E+00 0.36828276E+03</pdfrwt>
<pdfrwt beam="2">  1       -2 0.43503656E-02 0.36828276E+03</pdfrwt>
<totfact> 0.48604146E+03</totfact>
</mgrwt>
</event>
<event>
 6    1  0.3017327E-006  0.1425308E+04  0.7818608E-02  0.8935701E-01
          2   -1    0    0  501    0  0.00000000000E+00  0.00000000000E+00  0.11598142423E+04  0.11598142423E+04  0.00000000000E+00 0. -1.
         -2   -1    0    0    0  501 -0.00000000000E+00 -0.00000000000E+00 -0.43789382877E+03  0.43789382877E+03  0.00000000000E+00 0.  1.
         23    2    1    2    0    0  0.64291176203E+03 -0.16943885593E+03  0.83807768681E+02  0.67616978801E+03  0.90204104534E+02 0.  0.
         13    1    3    3    0    0  0.11926879686E+03 -0.11021790127E+02 -0.13383433134E+02  0.12052237155E+03  0.00000000000E+00 0.  1.
        -13    1    3    3    0    0  0.52364296517E+03 -0.15841706580E+03  0.97191201816E+02  0.55564741646E+03  0.00000000000E+00 0. -1.
         22    1    1    2    0    0 -0.64291176203E+03  0.16943885593E+03  0.63811264490E+03  0.92153828310E+03  0.00000000000E+00 0. -1.
<mgrwt>
<rscale>  0 0.14253077E+04</rscale>
<asrwt>0</asrwt>
<pdfrwt beam="1">  1        2 0.17843296E+00 0.14253077E+04</pdfrwt>
<pdfrwt beam="2">  1       -2 0.67368282E-01 0.14253077E+04</pdfrwt>
<totfact> 0.39318188E+01</totfact>
</mgrwt>
</event>
<event>
 6    1  0.3483068E-006  0.3618632E+04  0.7818608E-02  0.8086237E-01
          2   -1    0    0  501    0  0.00000000000E+00  0.00000000000E+00  0.26320481127E+04  0.26320481127E+04  0.00000000000E+00 0. -1.
         -2   -1    0    0    0  501 -0.00000000000E+00 -0.00000000000E+00 -0.12437557824E+04  0.12437557824E+04  0.00000000000E+00 0.  1.
         23    2    1    2    0    0  0.44526555119E+03  0.26207542409E+03 -0.11613972528E+04  0.12742924289E+04  0.89625199476E+02 0.  0.
         13    1    3    3    0    0  0.30875327115E+03  0.22650208974E+03 -0.87003478066E+03  0.95057472019E+03  0.00000000000E+00 0.  1.
        -13    1    3    3    0    0  0.13651228004E+03  0.35573334345E+02 -0.29136247217E+03  0.32371770867E+03  0.00000000000E+00 0. -1.
         22    1    1    2    0    0 -0.44526555119E+03 -0.26207542409E+03  0.25496895831E+04  0.26015114663E+04  0.00000000000E+00 0. -1.
<mgrwt>
<rscale>  0 0.36186324E+04</rscale>
<asrwt>0</asrwt>
<pdfrwt beam="1">  1        2 0.40493048E+00 0.36186324E+04</pdfrwt>
<pdfrwt beam="2">  1       -2 0.19134704E+00 0.36186324E+04</pdfrwt>
<totfact> 0.35990750E-01</totfact>
</mgrwt>
</event>
<event>
 6    1  0.3017327E-006  0.1070531E+04  0.7818608E-02  0.9234400E-01
         -2   -1    0    0    0  501 -0.00000000000E+00  0.00000000000E+00  0.17012559300E+03  0.17012559300E+03  0.00000000000E+00 0.  1.
          2   -1    0    0  501    0  0.00000000000E+00 -0.00000000000E+00 -0.16841047264E+04  0.16841047264E+04  0.00000000000E+00 0. -1.
         23    2    1    2    0    0  0.29127954904E+03 -0.82760641488E+02 -0.15188143000E+04  0.15513830340E+04  0.91100717840E+02 0.  0.
         11    1    3    3    0    0  0.12940234786E+03 -0.31866446006E+02 -0.45483026092E+03  0.47395253376E+03  0.00000000000E+00 0. -1.
        -11    1    3    3    0    0  0.16187720118E+03 -0.50894195481E+02 -0.10639840390E+04  0.10774305002E+04  0.00000000000E+00 0.  1.
         22    1    1    2    0    0 -0.29127954904E+03  0.82760641488E+02  0.48351665669E+01  0.30284728545E+03  0.00000000000E+00 0.  1.
<mgrwt>
<rscale>  0 0.10705313E+04</rscale>
<asrwt>0</asrwt>
<pdfrwt beam="1">  1        2 0.25909304E+00 0.10705313E+04</pdfrwt>
<pdfrwt beam="2">  1       -2 0.26173168E-01 0.10705313E+04</pdfrwt>
<totfact> 0.13135457E+02</totfact>
</mgrwt>
</event>
<event>
 6    1  0.3017327E-006  0.2244881E+04  0.7818608E-02  0.8499977E-01
         -2   -1    0    0    0  501 -0.00000000000E+00  0.00000000000E+00  0.42413049033E+03  0.42413049033E+03  0.00000000000E+00 0.  1.
          2   -1    0    0  501    0  0.00000000000E+00 -0.00000000000E+00 -0.29704824257E+04  0.29704824257E+04  0.00000000000E+00 0. -1.
         23    2    1    2    0    0 -0.60089551982E+03  0.81622843396E+03 -0.55104886520E+03  0.11566364586E+04  0.82757256113E+02 0.  0.
         11    1    3    3    0    0 -0.13982933689E+03  0.23159862984E+03 -0.17803401190E+03  0.32386151082E+03  0.00000000000E+00 0. -1.
        -11    1    3    3    0    0 -0.46106618292E+03  0.58462980412E+03 -0.37301485330E+03  0.83277494779E+03  0.00000000000E+00 0.  1.
         22    1    1    2    0    0  0.60089551982E+03 -0.81622843396E+03 -0.19953030702E+04  0.22379764574E+04  0.00000000000E+00 0. -1.
<mgrwt>
<rscale>  0 0.22448805E+04</rscale>
<asrwt>0</asrwt>
<pdfrwt beam="1">  1        2 0.45699727E+00 0.22448805E+04</pdfrwt>
<pdfrwt beam="2">  1       -2 0.65250848E-01 0.22448805E+04</pdfrwt>
<totfact> 0.35856183E+00</totfact>
</mgrwt>
</event>
<event>
 6    1  0.3017327E-006  0.7915163E+03  0.7818608E-02  0.9572379E-01
          1   -1    0    0  501    0  0.00000000000E+00  0.00000000000E+00  0.21232980123E+04  0.21232980123E+04  0.00000000000E+00 0. -1.
         -1   -1    0    0    0  501 -0.00000000000E+00 -0.00000000000E+00 -0.73764739267E+02  0.73764739267E+02  0.00000000000E+00 0.  1.
         23    2    1    2    0    0 -0.31961824440E+03 -0.18068318998E+02  0.41754349123E+03  0.53397137278E+03  0.91107483631E+02 0.  0.
         11    1    3    3    0    0 -0.45094331623E+02  0.22145567442E+02  0.34275673515E+02  0.60817322341E+02  0.00000000000E+00 0.  1.
        -11    1    3    3    0    0 -0.27452391277E+03 -0.40213886441E+02  0.38326781772E+03  0.47315405043E+03  0.00000000000E+00 0. -1.
         22    1    1    2    0    0  0.31961824440E+03  0.18068318998E+02  0.16319897818E+04  0.16630913788E+04  0.00000000000E+00 0. -1.
<mgrwt>
<rscale>  0 0.79151633E+03</rscale>
<asrwt>0</asrwt>
<pdfrwt beam="1">  1        1 0.32666119E+00 0.79151633E+03</pdfrwt>
<pdfrwt beam="2">  1       -1 0.11348423E-01 0.79151633E+03</pdfrwt>
<totfact> 0.13040620E+02</totfact>
</mgrwt>
</event>
<event>
 6    1  0.3017327E-006  0.2142480E+04  0.7818608E-02  0.8542758E-01
         -2   -1    0    0    0  501 -0.00000000000E+00  0.00000000000E+00  0.10469457860E+04  0.10469457860E+04  0.00000000000E+00 0.  1.
          2   -1    0    0  501    0  0.00000000000E+00 -0.00000000000E+00 -0.10960977785E+04  0.10960977785E+04  0.00000000000E+00 0. -1.
         23    2    1    2    0    0 -0.32925070887E+03  0.39234878351E+03  0.91422168737E+03  0.10519741606E+04  0.92221167142E+02 0.  0.
         13    1    3    3    0    0 -0.22029115246E+03  0.22368674203E+03  0.47972712681E+03  0.57332544563E+03  0.00000000000E+00 0.  1.
        -13    1    3    3    0    0 -0.10895955640E+03  0.16866204147E+03  0.43449456056E+03  0.47864871495E+03  0.00000000000E+00 0. -1.
         22    1    1    2    0    0  0.32925070887E+03 -0.39234878351E+03 -0.96337367979E+03  0.10910694039E+04  0.00000000000E+00 0. -1.
<mgrwt>
<rscale>  0 0.21424798E+04</rscale>
<asrwt>0</asrwt>
<pdfrwt beam="1">  1        2 0.16863043E+00 0.21424798E+04</pdfrwt>
<pdfrwt beam="2">  1       -2 0.16106858E+00 0.21424798E+04</pdfrwt>
<totfact> 0.49763755E+00</totfact>
</mgrwt>
</event>
<event>
 6    1  0.4401784E-006  0.4441684E+04  0.7818608E-02  0.7920926E-01
          2   -1    0    0  501    0  0.00000000000E+00  0.00000000000E+00  0.21029323724E+04  0.21029323724E+04  0.00000000000E+00 0. -1.
         -2   -1    0    0    0  501 -0.00000000000E+00 -0.00000000000E+00 -0.23453628228E+04  0.23453628228E+04  0.00000000000E+00 0.  1.
         23    2    1    2    0    0 -0.72572433442E+03 -0.81311589693E+03  0.18155707085E+04  0.21195182541E+04  0.90704799298E+02 0.  0.
         13    1    3    3    0    0 -0.32800040650E+03 -0.33764015095E+03  0.70623507317E+03  0.84873618797E+03  0.00000000000E+00 0. -1.
        -13    1    3    3    0    0 -0.39772392793E+03 -0.47547574598E+03  0.11093356353E+04  0.12707820662E+04  0.00000000000E+00 0.  1.
         22    1    1    2    0    0  0.72572433442E+03  0.81311589693E+03 -0.20580011588E+04  0.23287769411E+04  0.00000000000E+00 0.  1.
<mgrwt>
<rscale>  0 0.44416841E+04</rscale>
<asrwt>0</asrwt>
<pdfrwt beam="1">  1        2 0.32352806E+00 0.44416841E+04</pdfrwt>
<pdfrwt beam="2">  1       -2 0.36082505E+00 0.44416841E+04</pdfrwt>
<totfact> 0.59203600E-02</totfact>
</mgrwt>
</event>
<event>
 6    1  0.3017327E-006  0.1755957E+04  0.7818608E-02  0.8730078E-01
         -2   -1    0    0    0  501 -0.00000000000E+00  0.00000000000E+00  0.33209327660E+03  0.33209327660E+03  0.00000000000E+00 0. -1.
          2   -1    0    0  501    0  0.00000000000E+00 -0.00000000000E+00 -0.23211747060E+04  0.23211747060E+04  0.00000000000E+00 0.  1.
         23    2    1    2    0    0  0.10050129193E+03 -0.81947774348E+03 -0.55707653339E+03  0.10003063061E+04  0.92920182082E+02 0.  0.
         11    1    3    3    0    0  0.66415574995E+02 -0.42956707180E+03 -0.23956661218E+03  0.49631749863E+03  0.00000000000E+00 0. -1.
        -11    1    3    3    0    0  0.34085716931E+02 -0.38991067167E+03 -0.31750992121E+03  0.50398880747E+03  0.00000000000E+00 0.  1.
         22    1    1    2    0    0 -0.10050129193E+03  0.81947774348E+03 -0.14320048960E+04  0.16529616765E+04  0.00000000000E+00 0.  1.
<mgrwt>
<rscale>  0 0.17559573E+04</rscale>
<asrwt>0</asrwt>
<pdfrwt beam="1">  1        2 0.35710380E+00 0.17559573E+04</pdfrwt>
<pdfrwt beam="2">  1       -2 0.51091274E-01 0.17559573E+04</pdfrwt>
<totfact> 0.15136460E+01</totfact>
</mgrwt>
</event>
<event>
 6    1  0.3017327E-006  0.2254435E+04  0.7818608E-02  0.8496106E-01
          2   -1    0    0  501    0  0.00000000000E+00  0.00000000000E+00  0.80522162943E+03  0.80522162943E+03  0.00000000000E+00 0. -1.
         -2   -1    0    0    0  501 -0.00000000000E+00 -0.00000000000E+00 -0.15779751333E+04  0.15779751333E+04  0.00000000000E+00 0.  1.
         23    2    1    2    0    0 -0.29638150553E+03  0.47831477832E+03 -0.14171030111E+04  0.15277358862E+04  0.95754738182E+02 0.  0.
         13    1    3    3    0    0 -0.13929958443E+03  0.16482227790E+03 -0.45110518893E+03  0.50006664455E+03  0.00000000000E+00 0.  1.
        -13    1    3    3    0    0 -0.15708192109E+03  0.31349250042E+03 -0.96599782217E+03  0.10276692416E+04  0.00000000000E+00 0. -1.
         22    1    1    2    0    0  0.29638150553E+03 -0.47831477832E+03  0.64434950718E+03  0.85546087659E+03  0.00000000000E+00 0. -1.
<mgrwt>
<rscale>  0 0.22544354E+04</rscale>
<asrwt>0</asrwt>
<pdfrwt beam="1">  1        2 0.12388025E+00 0.22544354E+04</pdfrwt>
<pdfrwt beam="2">  1       -2 0.24276540E+00 0.22544354E+04</pdfrwt>
<totfact> 0.22123834E+00</totfact>
</mgrwt>
</event>
<event>
 6    1  0.3017327E-006  0.4488078E+04  0.7818608E-02  0.7912727E-01
          3   -1    0    0  501    0  0.00000000000E+00  0.00000000000E+00  0.18620785664E+04  0.18620785664E+04  0.00000000000E+00 0. -1.
         -3   -1    0    0    0  501 -0.00000000000E+00 -0.00000000000E+00 -0.27043495013E+04  0.27043495013E+04  0.00000000000E+00 0.  1.
         23    2    1    2    0    0 -0.19916461641E+04  0.81177283695E+03  0.22707472818E+03  0.21645267939E+04  0.89351706937E+02 0.  0.
         11    1    3    3    0    0 -0.40539156316E+03  0.16689495185E+03  0.82581044400E+02  0.44611195157E+03  0.00000000000E+00 0. -1.
        -11    1    3    3    0    0 -0.15862546009E+04  0.64487788511E+03  0.14449368378E+03  0.17184148423E+04  0.00000000000E+00 0.  1.
         22    1    1    2    0    0  0.19916461641E+04 -0.81177283695E+03 -0.10693456632E+04  0.24019012738E+04  0.00000000000E+00 0.  1.
<mgrwt>
<rscale>  0 0.44880781E+04</rscale>
<asrwt>0</asrwt>
<pdfrwt beam="1">  1        3 0.28647363E+00 0.44880781E+04</pdfrwt>
<pdfrwt beam="2">  1       -3 0.41605377E+00 0.44880781E+04</pdfrwt>
<totfact> 0.77206068E-04</totfact>
</mgrwt>
</event>
<event>
 6    1  0.3047428E-006  0.5848261E+04  0.7818608E-02  0.7709505E-01
         -2   -1    0    0    0  501 -0.00000000000E+00  0.00000000000E+00  0.30823358735E+04  0.30823358735E+04  0.00000000000E+00 0. -1.
          2   -1    0    0  501    0  0.00000000000E+00 -0.00000000000E+00 -0.27740456783E+04  0.27740456783E+04  0.00000000000E+00 0.  1.
         23    2    1    2    0    0  0.21272737573E+04  0.11760320279E+04  0.17806247593E+04  0.30145310917E+04  0.91805231481E+02 0.  0.
         11    1    3    3    0    0  0.11314033203E+04  0.63825127980E+03  0.10065115069E+04  0.16433209008E+04  0.00000000000E+00 0.  1.
        -11    1    3    3    0    0  0.99587043701E+03  0.53778074807E+03  0.77411325236E+03  0.13712101910E+04  0.00000000000E+00 0. -1.
         22    1    1    2    0    0 -0.21272737573E+04 -0.11760320279E+04 -0.14723345641E+04  0.28418504601E+04  0.00000000000E+00 0.  1.
<mgrwt>
<rscale>  0 0.58482615E+04</rscale>
<asrwt>0</asrwt>
<pdfrwt beam="1">  1        2 0.42677626E+00 0.58482615E+04</pdfrwt>
<pdfrwt beam="2">  1       -2 0.47420552E+00 0.58482615E+04</pdfrwt>
<totfact> 0.39587988E-03</totfact>
</mgrwt>
</event>
<event>
 6    1  0.3017327E-006  0.1004871E+04  0.7818608E-02  0.9303218E-01
          2   -1    0    0  501    0  0.00000000000E+00  0.00000000000E+00  0.51066759414E+03  0.51066759414E+03  0.00000000000E+00 0. -1.
         -2   -1    0    0    0  501 -0.00000000000E+00 -0.00000000000E+00 -0.49433659664E+03  0.49433659664E+03  0.00000000000E+00 0.  1.
         23    2    1    2    0    0 -0.46915817403E+03  0.50249802403E+02  0.16613967075E+03  0.50995159410E+03  0.99064641657E+02 0.  0.
         13    1    3    3    0    0 -0.28787600473E+03 -0.16385325522E+02  0.86517037332E+02  0.30104197505E+03  0.00000000000E+00 0. -1.
        -13    1    3    3    0    0 -0.18128216930E+03  0.66635127926E+02  0.79622633422E+02  0.20890961905E+03  0.00000000000E+00 0.  1.
         22    1    1    2    0    0  0.46915817403E+03 -0.50249802403E+02 -0.14980867325E+03  0.49505259668E+03  0.00000000000E+00 0.  1.
<mgrwt>
<rscale>  0 0.10048715E+04</rscale>
<asrwt>0</asrwt>
<pdfrwt beam="1">  1        2 0.78564246E-01 0.10048715E+04</pdfrwt>
<pdfrwt beam="2">  1       -2 0.76051784E-01 0.10048715E+04</pdfrwt>
<totfact> 0.92911680E+01</totfact>
</mgrwt>
</event>
<event>
 6    1  0.3017327E-006  0.1894220E+04  0.7818608E-02  0.8657739E-01
          2   -1    0    0  501    0  0.00000000000E+00  0.00000000000E+00  0.39976762896E+04  0.39976762896E+04  0.00000000000E+00 0. -1.
         -2   -1    0    0    0  501 -0.00000000000E+00 -0.00000000000E+00 -0.22438469565E+03  0.22438469565E+03  0.00000000000E+00 0.  1.
         23    2    1    2    0    0 -0.50100553718E+03 -0.81764964066E+01  0.36766429898E+04  0.37117528861E+04  0.91282035160E+02 0.  0.
         13    1    3    3    0    0 -0.65853525662E+02  0.29908784032E+02  0.48909875264E+03  0.49441764940E+03  0.00000000000E+00 0. -1.
        -13    1    3    3    0    0 -0.43515201151E+03 -0.38085280439E+02  0.31875442371E+04  0.32173352367E+04  0.00000000000E+00 0.  1.
         22    1    1    2    0    0  0.50100553718E+03  0.81764964066E+01  0.96648604199E+02  0.51030809916E+03  0.00000000000E+00 0.  1.
<mgrwt>
<rscale>  0 0.18942200E+04</rscale>
<asrwt>0</asrwt>
<pdfrwt beam="1">  1        2 0.61502707E+00 0.18942200E+04</pdfrwt>
<pdfrwt beam="2">  1       -2 0.34520725E-01 0.18942200E+04</pdfrwt>
<totfact> 0.25643640E+00</totfact>
</mgrwt>
</event>
<event>
 6    1  0.3017327E-006  0.2444128E+04  0.7818608E-02  0.8423165E-01
         -2   -1    0    0    0  501 -0.00000000000E+00  0.00000000000E+00  0.78577440252E+03  0.78577440252E+03  0.00000000000E+00 0.  1.
          2   -1    0    0  501    0  0.00000000000E+00 -0.00000000000E+00 -0.19005965509E+04  0.19005965509E+04  0.00000000000E+00 0. -1.
         23    2    1    2    0    0  0.15363763270E+03  0.63047341800E+03 -0.16942347394E+04  0.18164168146E+04  0.88529312077E+02 0.  0.
         13    1    3    3    0    0  0.14385423749E+03  0.44293498164E+03 -0.12601347940E+04  0.13434378060E+04  0.00000000000E+00 0. -1.
        -13    1    3    3    0    0  0.97833952034E+01  0.18753843636E+03 -0.43409994540E+03  0.47297900855E+03  0.00000000000E+00 0.  1.
         22    1    1    2    0    0 -0.15363763270E+03 -0.63047341800E+03  0.57941259104E+03  0.86995413882E+03  0.00000000000E+00 0.  1.
<mgrwt>
<rscale>  0 0.24441278E+04</rscale>
<asrwt>0</asrwt>
<pdfrwt beam="1">  1        2 0.29239947E+00 0.24441278E+04</pdfrwt>
<pdfrwt beam="2">  1       -2 0.12088837E+00 0.24441278E+04</pdfrwt>
<totfact> 0.35444355E+00</totfact>
</mgrwt>
</event>
<event>
 6    1  0.3017327E-006  0.1539315E+04  0.7818608E-02  0.8858721E-01
          2   -1    0    0  501    0  0.00000000000E+00  0.00000000000E+00  0.13345342772E+04  0.13345342772E+04  0.00000000000E+00 0. -1.
         -2   -1    0    0    0  501 -0.00000000000E+00 -0.00000000000E+00 -0.44387993433E+03  0.44387993433E+03  0.00000000000E+00 0.  1.
         23    2    1    2    0    0  0.59321218306E+03 -0.23639171078E+03 -0.43456794003E+02  0.64689074686E+03  0.93794511414E+02 0.  0.
         13    1    3    3    0    0  0.33866512603E+03 -0.90046296609E+02 -0.44696715901E+02  0.35327071707E+03  0.00000000000E+00 0. -1.
        -13    1    3    3    0    0  0.25454705703E+03 -0.14634541417E+03  0.12399218978E+01  0.29362002980E+03  0.00000000000E+00 0.  1.
         22    1    1    2    0    0 -0.59321218306E+03  0.23639171078E+03  0.93411113685E+03  0.11315234646E+04  0.00000000000E+00 0. -1.
<mgrwt>
<rscale>  0 0.15393154E+04</rscale>
<asrwt>0</asrwt>
<pdfrwt beam="1">  1        2 0.20531296E+00 0.15393154E+04</pdfrwt>
<pdfrwt beam="2">  1       -2 0.68289221E-01 0.15393154E+04</pdfrwt>
<totfact> 0.29832653E+01</totfact>
</mgrwt>
</event>
<event>
 6    1  0.3017327E-006  0.4190253E+04  0.7818608E-02  0.7967229E-01
         -2   -1    0    0    0  501 -0.00000000000E+00  0.00000000000E+00  0.17536686491E+04  0.17536686491E+04  0.00000000000E+00 0.  1.
          2   -1    0    0  501    0  0.00000000000E+00 -0.00000000000E+00 -0.25030693132E+04  0.25030693132E+04  0.00000000000E+00 0. -1.
         23    2    1    2    0    0  0.17685837151E+04  0.11036147350E+04 -0.17448103987E+03  0.20942425485E+04  0.97746498041E+02 0.  0.
         11    1    3    3    0    0  0.11627846592E+04  0.67076373614E+03 -0.10685582390E+03  0.13466292439E+04  0.00000000000E+00 0. -1.
        -11    1    3    3    0    0  0.60579905595E+03  0.43285099884E+03 -0.67625215970E+02  0.74761330460E+03  0.00000000000E+00 0.  1.
         22    1    1    2    0    0 -0.17685837151E+04 -0.11036147350E+04 -0.57491962422E+03  0.21624954139E+04  0.00000000000E+00 0. -1.
<mgrwt>
<rscale>  0 0.41902526E+04</rscale>
<asrwt>0</asrwt>
<pdfrwt beam="1">  1        2 0.38508759E+00 0.41902526E+04</pdfrwt>
<pdfrwt beam="2">  1       -2 0.26979518E+00 0.41902526E+04</pdfrwt>
<totfact> 0.13091541E-01</totfact>
</mgrwt>
</event>
<event>
 6    1  0.3017327E-006  0.3927649E+04  0.7818608E-02  0.8019303E-01
          2   -1    0    0  501    0  0.00000000000E+00  0.00000000000E+00  0.36999731224E+04  0.36999731224E+04  0.00000000000E+00 0. -1.
         -2   -1    0    0    0  501 -0.00000000000E+00 -0.00000000000E+00 -0.10423335822E+04  0.10423335822E+04  0.00000000000E+00 0.  1.
         23    2    1    2    0    0 -0.15551798239E+04  0.11777384628E+04  0.15910078896E+04  0.25189409567E+04  0.90029255774E+02 0.  0.
         11    1    3    3    0    0 -0.84250396127E+03  0.58267048008E+03  0.84565696711E+03  0.13283273389E+04  0.00000000000E+00 0.  1.
        -11    1    3    3    0    0 -0.71267586262E+03  0.59506798275E+03  0.74535092248E+03  0.11906136178E+04  0.00000000000E+00 0. -1.
         22    1    1    2    0    0  0.15551798239E+04 -0.11777384628E+04  0.10666316506E+04  0.22233657480E+04  0.00000000000E+00 0.  1.
<mgrwt>
<rscale>  0 0.39276488E+04</rscale>
<asrwt>0</asrwt>
<pdfrwt beam="1">  1        2 0.56922663E+00 0.39276488E+04</pdfrwt>
<pdfrwt beam="2">  1       -2 0.16035901E+00 0.39276488E+04</pdfrwt>
<totfact> 0.11567814E-01</totfact>
</mgrwt>
</event>
<event>
 6    1  0.3017327E-006  0.3402875E+04  0.7818608E-02  0.8137201E-01
         -1   -1    0    0    0  501 -0.00000000000E+00  0.00000000000E+00  0.16379773208E+04  0.16379773208E+04  0.00000000000E+00 0.  1.
          1   -1    0    0  501    0  0.00000000000E+00 -0.00000000000E+00 -0.17673567764E+04  0.17673567764E+04  0.00000000000E+00 0. -1.
         23    2    1    2    0    0 -0.15578904530E+04 -0.16047764141E+02 -0.74602957951E+03  0.17297632782E+04  0.90778139840E+02 0.  0.
         11    1    3    3    0    0 -0.90882929115E+03  0.29282347553E+02 -0.40977595300E+03  0.99736877232E+03  0.00000000000E+00 0.  1.
        -11    1    3    3    0    0 -0.64906116188E+03 -0.45330111695E+02 -0.33625362650E+03  0.73239450587E+03  0.00000000000E+00 0. -1.
         22    1    1    2    0    0  0.15578904530E+04  0.16047764141E+02  0.61665012391E+03  0.16755708191E+04  0.00000000000E+00 0.  1.
<mgrwt>
<rscale>  0 0.34028754E+04</rscale>
<asrwt>0</asrwt>
<pdfrwt beam="1">  1        1 0.27190104E+00 0.34028754E+04</pdfrwt>
<pdfrwt beam="2">  1       -1 0.25199651E+00 0.34028754E+04</pdfrwt>
<totfact> 0.23861255E-01</totfact>
</mgrwt>
</event>
<event>
 6    1  0.3017327E-006  0.1242374E+04  0.7818608E-02  0.9076554E-01
          2   -1    0    0  501    0  0.00000000000E+00  0.00000000000E+00  0.10999399954E+04  0.10999399954E+04  0.00000000000E+00 0. -1.
         -2   -1    0    0    0  501 -0.00000000000E+00 -0.00000000000E+00 -0.35081309977E+03  0.35081309977E+03  0.00000000000E+00 0.  1.
         23    2    1    2    0    0 -0.17303865261E+03  0.52345458518E+03  0.70063788172E+03  0.89731090079E+03  0.10161856787E+03 0.  0.
         13    1    3    3    0    0 -0.41970319355E+02  0.28304177361E+03  0.37951141925E+03  0.47529261583E+03  0.00000000000E+00 0. -1.
        -13    1    3    3    0    0 -0.13106833325E+03  0.24041281157E+03  0.32112646246E+03  0.42201828496E+03  0.00000000000E+00 0.  1.
         22    1    1    2    0    0  0.17303865261E+03 -0.52345458518E+03  0.48489013909E+02  0.55344219437E+03  0.00000000000E+00 0. -1.
<mgrwt>
<rscale>  0 0.12423741E+04</rscale>
<asrwt>0</asrwt>
<pdfrwt beam="1">  1        2 0.16922154E+00 0.12423741E+04</pdfrwt>
<pdfrwt beam="2">  1       -2 0.53971247E-01 0.12423741E+04</pdfrwt>
<totfact> 0.69314949E+01</totfact>
</mgrwt>
</event>
<event>
 6    1  0.3017327E-006  0.1954642E+04  0.7818608E-02  0.8628125E-01
          2   -1    0    0  501    0  0.00000000000E+00  0.00000000000E+00  0.18164501264E+04  0.18164501264E+04  0.00000000000E+00 0. -1.
         -2   -1    0    0    0  501 -0.00000000000E+00 -0.00000000000E+00 -0.52583703773E+03  0.52583703773E+03  0.00000000000E+00 0.  1.
         23    2    1    2    0    0 -0.73328950638E+01 -0.58320670642E+03 -0.28954871125E+03  0.65791928635E+03  0.93997326599E+02 0.  0.
         13    1    3    3    0    0 -0.36081820985E+01 -0.37917519459E+03 -0.13717332984E+03  0.40324108123E+03  0.00000000000E+00 0. -1.
        -13    1    3    3    0    0 -0.37247129653E+01 -0.20403151183E+03 -0.15237538141E+03  0.25467820512E+03  0.00000000000E+00 0.  1.
         22    1    1    2    0    0  0.73328950638E+01  0.58320670642E+03  0.15801618000E+04  0.16843678778E+04  0.00000000000E+00 0. -1.
<mgrwt>
<rscale>  0 0.19546424E+04</rscale>
<asrwt>0</asrwt>
<pdfrwt beam="1">  1        2 0.27945386E+00 0.19546424E+04</pdfrwt>
<pdfrwt beam="2">  1       -2 0.80898007E-01 0.19546424E+04</pdfrwt>
<totfact> 0.10619215E+01</totfact>
</mgrwt>
</event>
<event>
 6    1  0.3017327E-006  0.8236508E+03  0.7818608E-02  0.9526401E-01
         -2   -1    0    0    0  501 -0.00000000000E+00  0.00000000000E+00  0.81364314726E+02  0.81364314726E+02  0.00000000000E+00 0.  1.
          2   -1    0    0  501    0  0.00000000000E+00 -0.00000000000E+00 -0.20844536919E+04  0.20844536919E+04  0.00000000000E+00 0. -1.
         23    2    1    2    0    0 -0.22522524667E+03  0.25432953722E+03 -0.42466905640E+03  0.55125285332E+03  0.90144193324E+02 0.  0.
         11    1    3    3    0    0 -0.53074880745E+02  0.73273455577E+02 -0.57689247108E+02  0.10730326878E+03  0.00000000000E+00 0. -1.
        -11    1    3    3    0    0 -0.17215036593E+03  0.18105608164E+03 -0.36697980930E+03  0.44394958455E+03  0.00000000000E+00 0.  1.
         22    1    1    2    0    0  0.22522524667E+03 -0.25432953722E+03 -0.15784203207E+04  0.16145651533E+04  0.00000000000E+00 0. -1.
<mgrwt>
<rscale>  0 0.82365077E+03</rscale>
<asrwt>0</asrwt>
<pdfrwt beam="1">  1        2 0.32068517E+00 0.82365077E+03</pdfrwt>
<pdfrwt beam="2">  1       -2 0.12517587E-01 0.82365077E+03</pdfrwt>
<totfact> 0.29010103E+02</totfact>
</mgrwt>
</event>
<event>
 6    1  0.3017327E-006  0.9974268E+03  0.7818608E-02  0.9311372E-01
          2   -1    0    0  501    0  0.00000000000E+00  0.00000000000E+00  0.28118513809E+04  0.28118513809E+04  0.00000000000E+00 0. -1.
         -2   -1    0    0    0  501 -0.00000000000E+00 -0.00000000000E+00 -0.88452417475E+02  0.88452417475E+02  0.00000000000E+00 0.  1.
         23    2    1    2    0    0  0.18835389877E+03  0.23705034801E+01  0.27026115409E+04  0.27107914574E+04  0.93799647097E+02 0.  0.
         13    1    3    3    0    0  0.15168530493E+03  0.27898965074E+02  0.23939427225E+04  0.23989056969E+04  0.00000000000E+00 0. -1.
        -13    1    3    3    0    0  0.36668593844E+02 -0.25528461593E+02  0.30866881844E+03  0.31188576050E+03  0.00000000000E+00 0.  1.
         22    1    1    2    0    0 -0.18835389877E+03 -0.23705034801E+01  0.20787422539E+02  0.18951234103E+03  0.00000000000E+00 0.  1.
<mgrwt>
<rscale>  0 0.99742679E+03</rscale>
<asrwt>0</asrwt>
<pdfrwt beam="1">  1        2 0.43259245E+00 0.99742679E+03</pdfrwt>
<pdfrwt beam="2">  1       -2 0.13608066E-01 0.99742679E+03</pdfrwt>
<totfact> 0.95837056E+01</totfact>
</mgrwt>
</event>
<event>
 6    1  0.3017327E-006  0.2488599E+04  0.7818608E-02  0.8407058E-01
          2   -1    0    0  501    0  0.00000000000E+00  0.00000000000E+00  0.24097733093E+04  0.24097733093E+04  0.00000000000E+00 0. -1.
         -2   -1    0    0    0  501 -0.00000000000E+00 -0.00000000000E+00 -0.64250104188E+03  0.64250104188E+03  0.00000000000E+00 0.  1.
         23    2    1    2    0    0  0.12345264193E+04  0.80045312493E+02  0.74543976951E+03  0.14477169712E+04  0.98697754863E+02 0.  0.
         11    1    3    3    0    0  0.52600575890E+03 -0.14765180725E+02  0.31539003654E+03  0.61349078568E+03  0.00000000000E+00 0.  1.
        -11    1    3    3    0    0  0.70852066036E+03  0.94810493218E+02  0.43004973297E+03  0.83422618552E+03  0.00000000000E+00 0. -1.
         22    1    1    2    0    0 -0.12345264193E+04 -0.80045312493E+02  0.10218324980E+04  0.16045573800E+04  0.00000000000E+00 0. -1.
<mgrwt>
<rscale>  0 0.24885995E+04</rscale>
<asrwt>0</asrwt>
<pdfrwt beam="1">  1        2 0.37073435E+00 0.24885995E+04</pdfrwt>
<pdfrwt beam="2">  1       -2 0.98846316E-01 0.24885995E+04</pdfrwt>
<totfact> 0.29739309E+00</totfact>
</mgrwt>
</event>
<event>
 6    1  0.3387773E-006  0.4001063E+04  0.7818608E-02  0.8004332E-01
         -1   -1    0    0    0  501 -0.00000000000E+00  0.00000000000E+00  0.15369067178E+04  0.15369067178E+04  0.00000000000E+00 0.  1.
          1   -1    0    0  501    0  0.00000000000E+00 -0.00000000000E+00 -0.26040136937E+04  0.26040136937E+04  0.00000000000E+00 0. -1.
         23    2    1    2    0    0  0.77303231955E+03 -0.64191156128E+03 -0.23229754173E+04  0.25325563476E+04  0.89428434660E+02 0.  0.
         11    1    3    3    0    0  0.53307593740E+03 -0.44282009500E+03 -0.14947494964E+04  0.16475847925E+04  0.00000000000E+00 0.  1.
        -11    1    3    3    0    0  0.23995638215E+03 -0.19909146628E+03 -0.82822592091E+03  0.88497155511E+03  0.00000000000E+00 0. -1.
         22    1    1    2    0    0 -0.77303231955E+03  0.64191156128E+03  0.12558684414E+04  0.16083640638E+04  0.00000000000E+00 0.  1.
<mgrwt>
<rscale>  0 0.40010629E+04</rscale>
<asrwt>0</asrwt>
<pdfrwt beam="1">  1        1 0.40061748E+00 0.40010629E+04</pdfrwt>
<pdfrwt beam="2">  1       -1 0.23644719E+00 0.40010629E+04</pdfrwt>
<totfact> 0.76757634E-02</totfact>
</mgrwt>
</event>
<event>
 6    1  0.3017327E-006  0.5511187E+03  0.7818608E-02  0.1001235E+00
         -2   -1    0    0    0  501 -0.00000000000E+00  0.00000000000E+00  0.58255251236E+02  0.58255251236E+02  0.00000000000E+00 0.  1.
          2   -1    0    0  501    0  0.00000000000E+00 -0.00000000000E+00 -0.13034526803E+04  0.13034526803E+04  0.00000000000E+00 0. -1.
         23    2    1    2    0    0  0.18957179276E+03  0.79233683930E+02 -0.21532238828E+03  0.31153744970E+03  0.92067423078E+02 0.  0.
         13    1    3    3    0    0  0.10881009851E+03  0.90030008793E+02 -0.11386387287E+03  0.18141119470E+03  0.00000000000E+00 0.  1.
        -13    1    3    3    0    0  0.80761694256E+02 -0.10796324863E+02 -0.10145851541E+03  0.13012625500E+03  0.00000000000E+00 0. -1.
         22    1    1    2    0    0 -0.18957179276E+03 -0.79233683930E+02 -0.10298750408E+04  0.10501704818E+04  0.00000000000E+00 0.  1.
<mgrwt>
<rscale>  0 0.55111873E+03</rscale>
<asrwt>0</asrwt>
<pdfrwt beam="1">  1        2 0.20053118E+00 0.55111873E+03</pdfrwt>
<pdfrwt beam="2">  1       -2 0.89623464E-02 0.55111873E+03</pdfrwt>
<totfact> 0.13683500E+03</totfact>
</mgrwt>
</event>
<event>
 6    1  0.3017327E-006  0.2233751E+04  0.7818608E-02  0.8504510E-01
         -2   -1    0    0    0  501 -0.00000000000E+00  0.00000000000E+00  0.33416292061E+03  0.33416292061E+03  0.00000000000E+00 0.  1.
          2   -1    0    0  501    0  0.00000000000E+00 -0.00000000000E+00 -0.37329431513E+04  0.37329431513E+04  0.00000000000E+00 0. -1.
         23    2    1    2    0    0 -0.76443293601E+03 -0.80723107259E+03 -0.15485533204E+04  0.19085604185E+04  0.92767272341E+02 0.  0.
         13    1    3    3    0    0 -0.41199659300E+03 -0.49335470444E+03 -0.93076678347E+03  0.11311352095E+04  0.00000000000E+00 0.  1.
        -13    1    3    3    0    0 -0.35243634302E+03 -0.31387636814E+03 -0.61778653691E+03  0.77742520897E+03  0.00000000000E+00 0. -1.
         22    1    1    2    0    0  0.76443293601E+03  0.80723107259E+03 -0.18502269103E+04  0.21585456534E+04  0.00000000000E+00 0. -1.
<mgrwt>
<rscale>  0 0.22337513E+04</rscale>
<asrwt>0</asrwt>
<pdfrwt beam="1">  1        2 0.57429895E+00 0.22337513E+04</pdfrwt>
<pdfrwt beam="2">  1       -2 0.51409680E-01 0.22337513E+04</pdfrwt>
<totfact> 0.18061340E+00</totfact>
</mgrwt>
</event>
<event>
 6    1  0.3017327E-006  0.4797182E+04  0.7818608E-02  0.7860579E-01
          2   -1    0    0  501    0  0.00000000000E+00  0.00000000000E+00  0.20957173968E+04  0.20957173968E+04  0.00000000000E+00 0.  1.
         -2   -1    0    0    0  501 -0.00000000000E+00 -0.00000000000E+00 -0.27452361175E+04  0.27452361175E+04  0.00000000000E+00 0. -1.
         23    2    1    2    0    0  0.19116781490E+04 -0.46764314799E+03  0.10572542145E+04  0.22359050865E+04  0.91003419643E+02 0.  0.
         13    1    3    3    0    0  0.12904873107E+03 -0.11910487263E+02  0.83412948757E+02  0.15412058499E+03  0.00000000000E+00 0. -1.
        -13    1    3    3    0    0  0.17826294179E+04 -0.45573266073E+03  0.97384126572E+03  0.20817845015E+04  0.00000000000E+00 0.  1.
         22    1    1    2    0    0 -0.19116781490E+04  0.46764314799E+03 -0.17067729352E+04  0.26050484279E+04  0.00000000000E+00 0. -1.
<mgrwt>
<rscale>  0 0.47971821E+04</rscale>
<asrwt>0</asrwt>
<pdfrwt beam="1">  1        2 0.32241806E+00 0.47971821E+04</pdfrwt>
<pdfrwt beam="2">  1       -2 0.42234402E+00 0.47971821E+04</pdfrwt>
<totfact> 0.23151180E-02</totfact>
</mgrwt>
</event>
<event>
 6    1  0.3017327E-006  0.2476964E+04  0.7818608E-02  0.8411239E-01
         -2   -1    0    0    0  501 -0.00000000000E+00  0.00000000000E+00  0.12017851324E+04  0.12017851324E+04  0.00000000000E+00 0.  1.
          2   -1    0    0  501    0  0.00000000000E+00 -0.00000000000E+00 -0.12762989246E+04  0.12762989246E+04  0.00000000000E+00 0. -1.
         23    2    1    2    0    0  0.51063381183E+03  0.49823537542E+03  0.97386736501E+03  0.12099797909E+04  0.81535701332E+02 0.  0.
         11    1    3    3    0    0  0.81969401519E+02  0.11027318281E+03  0.22904418107E+03  0.26709622707E+03  0.00000000000E+00 0.  1.
        -11    1    3    3    0    0  0.42866441031E+03  0.38796219261E+03  0.74482318394E+03  0.94288356381E+03  0.00000000000E+00 0. -1.
         22    1    1    2    0    0 -0.51063381183E+03 -0.49823537542E+03 -0.10483811572E+04  0.12681042662E+04  0.00000000000E+00 0. -1.
<mgrwt>
<rscale>  0 0.24769635E+04</rscale>
<asrwt>0</asrwt>
<pdfrwt beam="1">  1        2 0.19635368E+00 0.24769635E+04</pdfrwt>
<pdfrwt beam="2">  1       -2 0.18489002E+00 0.24769635E+04</pdfrwt>
<totfact> 0.25599548E+00</totfact>
</mgrwt>
</event>
<event>
 6    1  0.3017327E-006  0.1598479E+04  0.7818608E-02  0.8821483E-01
          2   -1    0    0  501    0  0.00000000000E+00  0.00000000000E+00  0.11352019076E+04  0.11352019076E+04  0.00000000000E+00 0.  1.
         -2   -1    0    0    0  501 -0.00000000000E+00 -0.00000000000E+00 -0.56270493738E+03  0.56270493738E+03  0.00000000000E+00 0. -1.
         23    2    1    2    0    0 -0.15132522681E+03  0.26562752847E+03  0.10686196337E+04  0.11151590391E+04  0.90412679997E+02 0.  0.
         13    1    3    3    0    0 -0.10469460899E+03  0.19878064773E+03  0.90357375107E+03  0.93108551201E+03  0.00000000000E+00 0. -1.
        -13    1    3    3    0    0 -0.46630617821E+02  0.66846880740E+02  0.16504588263E+03  0.18407352704E+03  0.00000000000E+00 0.  1.
         22    1    1    2    0    0  0.15132522681E+03 -0.26562752847E+03 -0.49612266346E+03  0.58274780595E+03  0.00000000000E+00 0. -1.
<mgrwt>
<rscale>  0 0.15984789E+04</rscale>
<asrwt>0</asrwt>
<pdfrwt beam="1">  1        2 0.17464645E+00 0.15984789E+04</pdfrwt>
<pdfrwt beam="2">  1       -2 0.86569990E-01 0.15984789E+04</pdfrwt>
<totfact> 0.22975970E+01</totfact>
</mgrwt>
</event>
<event>
 6    1  0.3017327E-006  0.1724425E+04  0.7818608E-02  0.8747555E-01
          2   -1    0    0  501    0  0.00000000000E+00  0.00000000000E+00  0.18042665195E+04  0.18042665195E+04  0.00000000000E+00 0. -1.
         -2   -1    0    0    0  501 -0.00000000000E+00 -0.00000000000E+00 -0.41202919133E+03  0.41202919133E+03  0.00000000000E+00 0.  1.
         23    2    1    2    0    0 -0.43950481057E+03  0.19932671737E+03 -0.21662895609E+03  0.53660932957E+03  0.90143492254E+02 0.  0.
         13    1    3    3    0    0 -0.12889348096E+03  0.56442745982E+02 -0.19787030087E+02  0.14209447410E+03  0.00000000000E+00 0. -1.
        -13    1    3    3    0    0 -0.31061132961E+03  0.14288397138E+03 -0.19684192600E+03  0.39451485547E+03  0.00000000000E+00 0.  1.
         22    1    1    2    0    0  0.43950481057E+03 -0.19932671737E+03  0.16088662843E+04  0.16796863813E+04  0.00000000000E+00 0. -1.
<mgrwt>
<rscale>  0 0.17244251E+04</rscale>
<asrwt>0</asrwt>
<pdfrwt beam="1">  1        2 0.27757946E+00 0.17244251E+04</pdfrwt>
<pdfrwt beam="2">  1       -2 0.63389107E-01 0.17244251E+04</pdfrwt>
<totfact> 0.18776895E+01</totfact>
</mgrwt>
</event>
<event>
 6    1  0.3017327E-006  0.1522409E+04  0.7818608E-02  0.8869687E-01
          2   -1    0    0  501    0  0.00000000000E+00  0.00000000000E+00  0.96070606359E+03  0.96070606359E+03  0.00000000000E+00 0. -1.
         -2   -1    0    0    0  501 -0.00000000000E+00 -0.00000000000E+00 -0.60313145862E+03  0.60313145862E+03  0.00000000000E+00 0.  1.
         23    2    1    2    0    0  0.37992934780E+03  0.14837322694E+03  0.83626363316E+03  0.93494634760E+03  0.91798066213E+02 0.  0.
         13    1    3    3    0    0  0.27058413426E+03  0.59772938924E+02  0.53967463387E+03  0.60666076879E+03  0.00000000000E+00 0. -1.
        -13    1    3    3    0    0  0.10934521354E+03  0.88600288014E+02  0.29658899929E+03  0.32828557881E+03  0.00000000000E+00 0.  1.
         22    1    1    2    0    0 -0.37992934780E+03 -0.14837322694E+03 -0.47868902819E+03  0.62889117461E+03  0.00000000000E+00 0.  1.
<mgrwt>
<rscale>  0 0.15224087E+04</rscale>
<asrwt>0</asrwt>
<pdfrwt beam="1">  1        2 0.14780093E+00 0.15224087E+04</pdfrwt>
<pdfrwt beam="2">  1       -2 0.92789455E-01 0.15224087E+04</pdfrwt>
<totfact> 0.25376856E+01</totfact>
</mgrwt>
</event>
<event>
 6    1  0.3017327E-006  0.4169050E+04  0.7818608E-02  0.7971286E-01
         -1   -1    0    0    0  501 -0.00000000000E+00  0.00000000000E+00  0.17552387898E+04  0.17552387898E+04  0.00000000000E+00 0.  1.
          1   -1    0    0  501    0  0.00000000000E+00 -0.00000000000E+00 -0.24755856739E+04  0.24755856739E+04  0.00000000000E+00 0. -1.
         23    2    1    2    0    0  0.16640001680E+04  0.11715607403E+04  0.93138234589E+02  0.20392019676E+04  0.90657633891E+02 0.  0.
         11    1    3    3    0    0  0.81005156695E+03  0.62422572349E+03  0.57373605653E+02  0.10242719490E+04  0.00000000000E+00 0.  1.
        -11    1    3    3    0    0  0.85394860104E+03  0.54733501681E+03  0.35764628935E+02  0.10149300185E+04  0.00000000000E+00 0. -1.
         22    1    1    2    0    0 -0.16640001680E+04 -0.11715607403E+04 -0.81348511863E+03  0.21916224961E+04  0.00000000000E+00 0. -1.
<mgrwt>
<rscale>  0 0.41690498E+04</rscale>
<asrwt>0</asrwt>
<pdfrwt beam="1">  1        1 0.38085934E+00 0.41690498E+04</pdfrwt>
<pdfrwt beam="2">  1       -1 0.27003674E+00 0.41690498E+04</pdfrwt>
<totfact> 0.56153987E-02</totfact>
</mgrwt>
</event>
<event>
 6    1  0.3017327E-006  0.1664227E+04  0.7818608E-02  0.8782034E-01
          2   -1    0    0  501    0  0.00000000000E+00  0.00000000000E+00  0.24269195544E+04  0.24269195544E+04  0.00000000000E+00 0. -1.
         -2   -1    0    0    0  501 -0.00000000000E+00 -0.00000000000E+00 -0.28530512997E+03  0.28530512997E+03  0.00000000000E+00 0.  1.
         23    2    1    2    0    0 -0.55638712896E+03 -0.59798777647E+01  0.20768581823E+04  0.21520499196E+04  0.91523497710E+02 0.  0.
         13    1    3    3    0    0 -0.19200780030E+03 -0.11396240579E+02  0.56311187213E+03  0.59505617399E+03  0.00000000000E+00 0.  1.
        -13    1    3    3    0    0 -0.36437932866E+03  0.54163628143E+01  0.15137463102E+04  0.15569937456E+04  0.00000000000E+00 0. -1.
         22    1    1    2    0    0  0.55638712896E+03  0.59798777647E+01  0.64756242102E+02  0.56017476479E+03  0.00000000000E+00 0.  1.
<mgrwt>
<rscale>  0 0.16642267E+04</rscale>
<asrwt>0</asrwt>
<pdfrwt beam="1">  1        2 0.37337223E+00 0.16642267E+04</pdfrwt>
<pdfrwt beam="2">  1       -2 0.43893098E-01 0.16642267E+04</pdfrwt>
<totfact> 0.18045157E+01</totfact>
</mgrwt>
</event>
<event>
 6    1  0.3017327E-006  0.1247313E+04  0.7818608E-02  0.9072422E-01
         -4   -1    0    0    0  501 -0.00000000000E+00  0.00000000000E+00  0.92652515744E+03  0.92652515744E+03  0.00000000000E+00 0.  1.
          4   -1    0    0  501    0  0.00000000000E+00 -0.00000000000E+00 -0.41979179306E+03  0.41979179306E+03  0.00000000000E+00 0. -1.
         23    2    1    2    0    0  0.44051654479E+03  0.34281908396E+03  0.54672402393E+03  0.78669296654E+03  0.91645592897E+02 0.  0.
         11    1    3    3    0    0  0.20039947653E+03  0.13690662073E+03  0.17857984294E+03  0.30132064865E+03  0.00000000000E+00 0.  1.
        -11    1    3    3    0    0  0.24011706826E+03  0.20591246323E+03  0.36814418099E+03  0.48537231789E+03  0.00000000000E+00 0. -1.
         22    1    1    2    0    0 -0.44051654479E+03 -0.34281908396E+03 -0.39990659546E+02  0.55962398395E+03  0.00000000000E+00 0. -1.
<mgrwt>
<rscale>  0 0.12473134E+04</rscale>
<asrwt>0</asrwt>
<pdfrwt beam="1">  1        4 0.64583353E-01 0.12473134E+04</pdfrwt>
<pdfrwt beam="2">  1       -4 0.14254233E+00 0.12473134E+04</pdfrwt>
<totfact> 0.14956531E+00</totfact>
</mgrwt>
</event>
<event>
 6    1  0.3017327E-006  0.2036131E+04  0.7818608E-02  0.8589912E-01
          1   -1    0    0  501    0  0.00000000000E+00  0.00000000000E+00  0.10946310604E+04  0.10946310604E+04  0.00000000000E+00 0. -1.
         -1   -1    0    0    0  501 -0.00000000000E+00 -0.00000000000E+00 -0.94685510055E+03  0.94685510055E+03  0.00000000000E+00 0.  1.
         23    2    1    2    0    0  0.20341109392E+03 -0.78648547907E+03 -0.53794429926E+03  0.97840208354E+03  0.89168862548E+02 0.  0.
         11    1    3    3    0    0  0.30284958985E+02 -0.18736877978E+03 -0.86852099404E+02  0.20872835349E+03  0.00000000000E+00 0. -1.
        -11    1    3    3    0    0  0.17312613493E+03 -0.59911669929E+03 -0.45109219985E+03  0.76967373005E+03  0.00000000000E+00 0.  1.
         22    1    1    2    0    0 -0.20341109392E+03  0.78648547907E+03  0.68572025913E+03  0.10630840774E+04  0.00000000000E+00 0. -1.
<mgrwt>
<rscale>  0 0.20361306E+04</rscale>
<asrwt>0</asrwt>
<pdfrwt beam="1">  1        1 0.16840478E+00 0.20361306E+04</pdfrwt>
<pdfrwt beam="2">  1       -1 0.14567001E+00 0.20361306E+04</pdfrwt>
<totfact> 0.44670952E+00</totfact>
</mgrwt>
</event>
<event>
 6    1  0.3017327E-006  0.5011115E+03  0.7818608E-02  0.1013489E+00
          2   -1    0    0  501    0  0.00000000000E+00  0.00000000000E+00  0.22991415316E+03  0.22991415316E+03  0.00000000000E+00 0. -1.
         -2   -1    0    0    0  501 -0.00000000000E+00 -0.00000000000E+00 -0.27305052444E+03  0.27305052444E+03  0.00000000000E+00 0.  1.
         23    2    1    2    0    0 -0.22361032568E+02 -0.13140639238E+03 -0.22547834704E+03  0.27709690244E+03  0.90413232563E+02 0.  0.
         11    1    3    3    0    0 -0.54231893816E+01 -0.14460433101E+02 -0.11268920221E+03  0.11374256636E+03  0.00000000000E+00 0. -1.
        -11    1    3    3    0    0 -0.16937843187E+02 -0.11694595928E+03 -0.11278914483E+03  0.16335433607E+03  0.00000000000E+00 0.  1.
         22    1    1    2    0    0  0.22361032568E+02  0.13140639238E+03  0.18234197575E+03  0.22586777516E+03  0.00000000000E+00 0. -1.
<mgrwt>
<rscale>  0 0.50111148E+03</rscale>
<asrwt>0</asrwt>
<pdfrwt beam="1">  1        2 0.35371408E-01 0.50111148E+03</pdfrwt>
<pdfrwt beam="2">  1       -2 0.42007773E-01 0.50111148E+03</pdfrwt>
<totfact> 0.79705870E+02</totfact>
</mgrwt>
</event>
<event>
 6    1  0.3017327E-006  0.4208279E+04  0.7818608E-02  0.7963799E-01
         -1   -1    0    0    0  501 -0.00000000000E+00  0.00000000000E+00  0.15871867444E+04  0.15871867444E+04  0.00000000000E+00 0.  1.
          1   -1    0    0  501    0  0.00000000000E+00 -0.00000000000E+00 -0.27894659041E+04  0.27894659041E+04  0.00000000000E+00 0. -1.
         23    2    1    2    0    0  0.53119337922E+03  0.15463081450E+04 -0.19770350310E+04  0.25673760125E+04  0.97554038398E+02 0.  0.
         11    1    3    3    0    0  0.28357907514E+03  0.85250747098E+03 -0.10111540583E+04  0.13526339526E+04  0.00000000000E+00 0.  1.
        -11    1    3    3    0    0  0.24761430408E+03  0.69380067400E+03 -0.96588097272E+03  0.12147420600E+04  0.00000000000E+00 0. -1.
         22    1    1    2    0    0 -0.53119337922E+03 -0.15463081450E+04  0.77475587125E+03  0.18092766360E+04  0.00000000000E+00 0.  1.
<mgrwt>
<rscale>  0 0.42082791E+04</rscale>
<asrwt>0</asrwt>
<pdfrwt beam="1">  1        1 0.42914859E+00 0.42082791E+04</pdfrwt>
<pdfrwt beam="2">  1       -1 0.24418258E+00 0.42082791E+04</pdfrwt>
<totfact> 0.49650057E-02</totfact>
</mgrwt>
</event>
<event>
 6    1  0.3017327E-006  0.1708669E+04  0.7818608E-02  0.8756435E-01
          2   -1    0    0  501    0  0.00000000000E+00  0.00000000000E+00  0.40916836797E+04  0.40916836797E+04  0.00000000000E+00 0. -1.
         -2   -1    0    0    0  501 -0.00000000000E+00 -0.00000000000E+00 -0.17838321192E+03  0.17838321192E+03  0.00000000000E+00 0.  1.
         23    2    1    2    0    0  0.75320969927E+03  0.14159181415E+03  0.28955364180E+04  0.29960116519E+04  0.67687349561E+02 0.  0.
         11    1    3    3    0    0  0.19573611877E+03  0.43906641004E+02  0.87550246020E+03  0.89818983469E+03  0.00000000000E+00 0. -1.
        -11    1    3    3    0    0  0.55747358050E+03  0.97685173141E+02  0.20200339578E+04  0.20978218172E+04  0.00000000000E+00 0.  1.
         22    1    1    2    0    0 -0.75320969927E+03 -0.14159181415E+03  0.10177640497E+04  0.12740552397E+04  0.00000000000E+00 0.  1.
<mgrwt>
<rscale>  0 0.17086693E+04</rscale>
<asrwt>0</asrwt>
<pdfrwt beam="1">  1        2 0.62948973E+00 0.17086693E+04</pdfrwt>
<pdfrwt beam="2">  1       -2 0.27443574E-01 0.17086693E+04</pdfrwt>
<totfact> 0.33698761E+00</totfact>
</mgrwt>
</event>
<event>
 6    1  0.3017327E-006  0.1868478E+04  0.7818608E-02  0.8670708E-01
          2   -1    0    0  501    0  0.00000000000E+00  0.00000000000E+00  0.20667632131E+04  0.20667632131E+04  0.00000000000E+00 0. -1.
         -2   -1    0    0    0  501 -0.00000000000E+00 -0.00000000000E+00 -0.42230390719E+03  0.42230390719E+03  0.00000000000E+00 0.  1.
         23    2    1    2    0    0 -0.69183812077E+03 -0.12952912545E+03  0.16380507239E+04  0.17851787416E+04  0.90747924531E+02 0.  0.
         11    1    3    3    0    0 -0.23351156856E+03 -0.17740267746E+02  0.46007528684E+03  0.51624765308E+03  0.00000000000E+00 0.  1.
        -11    1    3    3    0    0 -0.45832655221E+03 -0.11178885770E+03  0.11779754371E+04  0.12689310885E+04  0.00000000000E+00 0. -1.
         22    1    1    2    0    0  0.69183812077E+03  0.12952912545E+03  0.64085820048E+01  0.70388837866E+03  0.00000000000E+00 0.  1.
<mgrwt>
<rscale>  0 0.18684776E+04</rscale>
<asrwt>0</asrwt>
<pdfrwt beam="1">  1        2 0.31796357E+00 0.18684776E+04</pdfrwt>
<pdfrwt beam="2">  1       -2 0.64969833E-01 0.18684776E+04</pdfrwt>
<totfact> 0.12583206E+01</totfact>
</mgrwt>
</event>
<event>
 6    1  0.3017327E-006  0.3555981E+04  0.7818608E-02  0.8100650E-01
         -2   -1    0    0    0  501 -0.00000000000E+00  0.00000000000E+00  0.23362827704E+04  0.23362827704E+04  0.00000000000E+00 0.  1.
          2   -1    0    0  501    0  0.00000000000E+00 -0.00000000000E+00 -0.13531109623E+04  0.13531109623E+04  0.00000000000E+00 0. -1.
         23    2    1    2    0    0  0.96419628923E+03 -0.12279948392E+04  0.13719850961E+04  0.20804121970E+04  0.90144308375E+02 0.  0.
         13    1    3    3    0    0  0.54001709450E+03 -0.62384245320E+03  0.69535517193E+03  0.10790350707E+04  0.00000000000E+00 0.  1.
        -13    1    3    3    0    0  0.42417919473E+03 -0.60415238603E+03  0.67662992412E+03  0.10013771263E+04  0.00000000000E+00 0. -1.
         22    1    1    2    0    0 -0.96419628923E+03  0.12279948392E+04 -0.38881328791E+03  0.16089815357E+04  0.00000000000E+00 0. -1.
<mgrwt>
<rscale>  0 0.35559808E+04</rscale>
<asrwt>0</asrwt>
<pdfrwt beam="1">  1        2 0.20817092E+00 0.35559808E+04</pdfrwt>
<pdfrwt beam="2">  1       -2 0.35942812E+00 0.35559808E+04</pdfrwt>
<totfact> 0.17071122E-01</totfact>
</mgrwt>
</event>
<event>
 6    1  0.3017327E-006  0.3347978E+04  0.7818608E-02  0.8150794E-01
         -2   -1    0    0    0  501 -0.00000000000E+00  0.00000000000E+00  0.78473254212E+03  0.78473254212E+03  0.00000000000E+00 0.  1.
          2   -1    0    0  501    0  0.00000000000E+00 -0.00000000000E+00 -0.35709477384E+04  0.35709477384E+04  0.00000000000E+00 0. -1.
         23    2    1    2    0    0  0.17607112735E+03  0.80218246802E+03 -0.32899958756E+04  0.33922007910E+04  0.91954286373E+02 0.  0.
         11    1    3    3    0    0  0.10737807769E+03  0.64273595094E+03 -0.25221823606E+04  0.26050035344E+04  0.00000000000E+00 0. -1.
        -11    1    3    3    0    0  0.68693049654E+02  0.15944651708E+03 -0.76781351500E+03  0.78719725653E+03  0.00000000000E+00 0.  1.
         22    1    1    2    0    0 -0.17607112735E+03 -0.80218246802E+03  0.50378067935E+03  0.96347948954E+03  0.00000000000E+00 0.  1.
<mgrwt>
<rscale>  0 0.33479778E+04</rscale>
<asrwt>0</asrwt>
<pdfrwt beam="1">  1        2 0.54937659E+00 0.33479778E+04</pdfrwt>
<pdfrwt beam="2">  1       -2 0.12072808E+00 0.33479778E+04</pdfrwt>
<totfact> 0.31468870E-01</totfact>
</mgrwt>
</event>
<event>
 6    1  0.3017327E-006  0.8154411E+04  0.7818608E-02  0.7468839E-01
         -2   -1    0    0    0  501 -0.00000000000E+00  0.00000000000E+00  0.43775469341E+04  0.43775469341E+04  0.00000000000E+00 0.  1.
          2   -1    0    0  501    0  0.00000000000E+00 -0.00000000000E+00 -0.37974704882E+04  0.37974704882E+04  0.00000000000E+00 0. -1.
         23    2    1    2    0    0  0.54364008269E+02 -0.16484021645E+04  0.40276653064E+04  0.43532306554E+04  0.91346469596E+02 0.  0.
         11    1    3    3    0    0  0.14436361653E+01 -0.62298912891E+02  0.11158079503E+03  0.12780263085E+03  0.00000000000E+00 0.  1.
        -11    1    3    3    0    0  0.52920372103E+02 -0.15861032516E+04  0.39160845114E+04  0.42254280245E+04  0.00000000000E+00 0. -1.
         22    1    1    2    0    0 -0.54364008269E+02  0.16484021645E+04 -0.34475888605E+04  0.38217867670E+04  0.00000000000E+00 0. -1.
<mgrwt>
<rscale>  0 0.81544111E+04</rscale>
<asrwt>0</asrwt>
<pdfrwt beam="1">  1        2 0.58422623E+00 0.81544111E+04</pdfrwt>
<pdfrwt beam="2">  1       -2 0.67346876E+00 0.81544111E+04</pdfrwt>
<totfact> 0.81796883E-05</totfact>
</mgrwt>
</event>
<event>
 6    1  0.3017327E-006  0.3166466E+04  0.7818608E-02  0.8197730E-01
         -2   -1    0    0    0  501 -0.00000000000E+00  0.00000000000E+00  0.72870492354E+03  0.72870492354E+03  0.00000000000E+00 0. -1.
          2   -1    0    0  501    0  0.00000000000E+00 -0.00000000000E+00 -0.34398367330E+04  0.34398367330E+04  0.00000000000E+00 0.  1.
         23    2    1    2    0    0 -0.35954994652E+03  0.63980739242E+03  0.48822804759E+03  0.88608325493E+03  0.90262089407E+02 0.  0.
         13    1    3    3    0    0 -0.26260761944E+03  0.37803178107E+03  0.30360910129E+03  0.55140663369E+03  0.00000000000E+00 0.  1.
        -13    1    3    3    0    0 -0.96942327081E+02  0.26177561135E+03  0.18461894630E+03  0.33467662125E+03  0.00000000000E+00 0. -1.
         22    1    1    2    0    0  0.35954994652E+03 -0.63980739242E+03 -0.31993598571E+04  0.32824584016E+04  0.00000000000E+00 0.  1.
<mgrwt>
<rscale>  0 0.31664655E+04</rscale>
<asrwt>0</asrwt>
<pdfrwt beam="1">  1        2 0.52920565E+00 0.31664655E+04</pdfrwt>
<pdfrwt beam="2">  1       -2 0.11210845E+00 0.31664655E+04</pdfrwt>
<totfact> 0.47370849E-01</totfact>
</mgrwt>
</event>
<event>
 6    1  0.3017327E-006  0.2328532E+04  0.7818608E-02  0.8466756E-01
          2   -1    0    0  501    0  0.00000000000E+00  0.00000000000E+00  0.21682261581E+04  0.21682261581E+04  0.00000000000E+00 0. -1.
         -2   -1    0    0    0  501 -0.00000000000E+00 -0.00000000000E+00 -0.62517236044E+03  0.62517236044E+03  0.00000000000E+00 0.  1.
         23    2    1    2    0    0  0.98667915234E+02  0.11052003388E+04  0.11885110413E+04  0.16285364183E+04  0.91483464775E+02 0.  0.
         13    1    3    3    0    0  0.23585402775E+02  0.62234840305E+03  0.71307093054E+03  0.94675443384E+03  0.00000000000E+00 0. -1.
        -13    1    3    3    0    0  0.75082512459E+02  0.48285193573E+03  0.47544011071E+03  0.68178198450E+03  0.00000000000E+00 0.  1.
         22    1    1    2    0    0 -0.98667915234E+02 -0.11052003388E+04  0.35454275640E+03  0.11648621002E+04  0.00000000000E+00 0.  1.
<mgrwt>
<rscale>  0 0.23285318E+04</rscale>
<asrwt>0</asrwt>
<pdfrwt beam="1">  1        2 0.33357325E+00 0.23285318E+04</pdfrwt>
<pdfrwt beam="2">  1       -2 0.96180364E-01 0.23285318E+04</pdfrwt>
<totfact> 0.44060746E+00</totfact>
</mgrwt>
</event>
<event>
 6    1  0.3017327E-006  0.2654848E+04  0.7818608E-02  0.8349806E-01
         -1   -1    0    0    0  501 -0.00000000000E+00  0.00000000000E+00  0.10082395189E+04  0.10082395189E+04  0.00000000000E+00 0.  1.
          1   -1    0    0  501    0  0.00000000000E+00 -0.00000000000E+00 -0.17476549530E+04  0.17476549530E+04  0.00000000000E+00 0. -1.
         23    2    1    2    0    0  0.16062307690E+03 -0.56715919495E+03 -0.16030160003E+04  0.17102964309E+04  0.89354682629E+02 0.  0.
         11    1    3    3    0    0  0.16885642686E+03 -0.48643027487E+03 -0.13714705354E+04  0.14649431166E+04  0.00000000000E+00 0. -1.
        -11    1    3    3    0    0 -0.82333499553E+01 -0.80728920082E+02 -0.23154546483E+03  0.24535331437E+03  0.00000000000E+00 0.  1.
         22    1    1    2    0    0 -0.16062307690E+03  0.56715919495E+03  0.86360056619E+03  0.10455980409E+04  0.00000000000E+00 0.  1.
<mgrwt>
<rscale>  0 0.26548482E+04</rscale>
<asrwt>0</asrwt>
<pdfrwt beam="1">  1        1 0.26886999E+00 0.26548482E+04</pdfrwt>
<pdfrwt beam="2">  1       -1 0.15511377E+00 0.26548482E+04</pdfrwt>
<totfact> 0.12345819E+00</totfact>
</mgrwt>
</event>
<event>
 6    1  0.3017327E-006  0.1344294E+04  0.7818608E-02  0.8995159E-01
         -2   -1    0    0    0  501 -0.00000000000E+00  0.00000000000E+00  0.33784322606E+03  0.33784322606E+03  0.00000000000E+00 0.  1.
          2   -1    0    0  501    0  0.00000000000E+00 -0.00000000000E+00 -0.13372523859E+04  0.13372523859E+04  0.00000000000E+00 0. -1.
         23    2    1    2    0    0 -0.12247304262E+03 -0.64027254375E+03 -0.69133847966E+03  0.95408512632E+03  0.85912504111E+02 0.  0.
         11    1    3    3    0    0 -0.47955171736E+02 -0.12767260376E+03 -0.18398023826E+03  0.22901685596E+03  0.00000000000E+00 0.  1.
        -11    1    3    3    0    0 -0.74517870885E+02 -0.51259993999E+03 -0.50735824140E+03  0.72506827036E+03  0.00000000000E+00 0. -1.
         22    1    1    2    0    0  0.12247304262E+03  0.64027254375E+03 -0.30807068023E+03  0.72101048568E+03  0.00000000000E+00 0.  1.
<mgrwt>
<rscale>  0 0.13442941E+04</rscale>
<asrwt>0</asrwt>
<pdfrwt beam="1">  1        2 0.20573114E+00 0.13442941E+04</pdfrwt>
<pdfrwt beam="2">  1       -2 0.51975881E-01 0.13442941E+04</pdfrwt>
<totfact> 0.53700280E+01</totfact>
</mgrwt>
</event>
<event>
 6    1  0.3017327E-006  0.2694003E+04  0.7818608E-02  0.8336953E-01
          2   -1    0    0  501    0  0.00000000000E+00  0.00000000000E+00  0.13223069414E+04  0.13223069414E+04  0.00000000000E+00 0. -1.
         -2   -1    0    0    0  501 -0.00000000000E+00 -0.00000000000E+00 -0.13721577023E+04  0.13721577023E+04  0.00000000000E+00 0.  1.
         23    2    1    2    0    0 -0.12493931550E+04  0.22692418720E+03 -0.47011025822E+03  0.13568937530E+04  0.87630814350E+02 0.  0.
         11    1    3    3    0    0 -0.33376348707E+03  0.94929547268E+02 -0.10750446138E+03  0.36327247826E+03  0.00000000000E+00 0. -1.
        -11    1    3    3    0    0 -0.91562966793E+03  0.13199463993E+03 -0.36260579685E+03  0.99362127477E+03  0.00000000000E+00 0.  1.
         22    1    1    2    0    0  0.12493931550E+04 -0.22692418720E+03  0.42025949727E+03  0.13375708907E+04  0.00000000000E+00 0.  1.
<mgrwt>
<rscale>  0 0.26940035E+04</rscale>
<asrwt>0</asrwt>
<pdfrwt beam="1">  1        2 0.20343184E+00 0.26940035E+04</pdfrwt>
<pdfrwt beam="2">  1       -2 0.21110119E+00 0.26940035E+04</pdfrwt>
<totfact> 0.15865072E+00</totfact>
</mgrwt>
</event>
<event>
 6    1  0.3017327E-006  0.2632300E+04  0.7818608E-02  0.8357312E-01
         -2   -1    0    0    0  501 -0.00000000000E+00  0.00000000000E+00  0.11942809059E+04  0.11942809059E+04  0.00000000000E+00 0. -1.
          2   -1    0    0  501    0  0.00000000000E+00 -0.00000000000E+00 -0.14504550605E+04  0.14504550605E+04  0.00000000000E+00 0.  1.
         23    2    1    2    0    0 -0.15223166190E+03  0.37667947549E+03  0.11278724545E+04  0.12022911938E+04  0.91356088146E+02 0.  0.
         11    1    3    3    0    0 -0.10706585909E+03  0.28973091414E+03  0.95343376778E+03  0.10022190630E+04  0.00000000000E+00 0. -1.
        -11    1    3    3    0    0 -0.45165802817E+02  0.86948561356E+02  0.17443868672E+03  0.20007213072E+03  0.00000000000E+00 0.  1.
         22    1    1    2    0    0  0.15223166190E+03 -0.37667947549E+03 -0.13840466091E+04  0.14424447727E+04  0.00000000000E+00 0.  1.
<mgrwt>
<rscale>  0 0.26323000E+04</rscale>
<asrwt>0</asrwt>
<pdfrwt beam="1">  1        2 0.22314693E+00 0.26323000E+04</pdfrwt>
<pdfrwt beam="2">  1       -2 0.18373553E+00 0.26323000E+04</pdfrwt>
<totfact> 0.20421431E+00</totfact>
</mgrwt>
</event>
<event>
 6    1  0.3017327E-006  0.1604647E+04  0.7818608E-02  0.8817698E-01
          1   -1    0    0  501    0  0.00000000000E+00  0.00000000000E+00  0.98028175728E+03  0.98028175728E+03  0.00000000000E+00 0. -1.
         -1   -1    0    0    0  501 -0.00000000000E+00 -0.00000000000E+00 -0.65667156541E+03  0.65667156541E+03  0.00000000000E+00 0.  1.
         23    2    1    2    0    0 -0.20474857073E+03 -0.17406899307E+03  0.93070884091E+03  0.97303257348E+03  0.91386273279E+02 0.  0.
         11    1    3    3    0    0 -0.13177376569E+03 -0.71917934270E+02  0.38887842519E+03  0.41684882652E+03  0.00000000000E+00 0.  1.
        -11    1    3    3    0    0 -0.72974805047E+02 -0.10215105880E+03  0.54183041572E+03  0.55618374697E+03  0.00000000000E+00 0. -1.
         22    1    1    2    0    0  0.20474857073E+03  0.17406899307E+03 -0.60709864904E+03  0.66392074921E+03  0.00000000000E+00 0.  1.
<mgrwt>
<rscale>  0 0.16046472E+04</rscale>
<asrwt>0</asrwt>
<pdfrwt beam="1">  1        1 0.15081258E+00 0.16046472E+04</pdfrwt>
<pdfrwt beam="2">  1       -1 0.10102640E+00 0.16046472E+04</pdfrwt>
<totfact> 0.14006327E+01</totfact>
</mgrwt>
</event>
<event>
 6    1  0.3017327E-006  0.3470429E+04  0.7818608E-02  0.8120834E-01
         -2   -1    0    0    0  501 -0.00000000000E+00  0.00000000000E+00  0.61199204746E+03  0.61199204746E+03  0.00000000000E+00 0.  1.
          2   -1    0    0  501    0  0.00000000000E+00 -0.00000000000E+00 -0.49199478852E+04  0.49199478852E+04  0.00000000000E+00 0. -1.
         23    2    1    2    0    0  0.28156922394E+03 -0.15363833217E+04 -0.33557344363E+04  0.37026011077E+04  0.92446830140E+02 0.  0.
         13    1    3    3    0    0  0.89016100276E+02 -0.29855580922E+03 -0.63357917496E+03  0.70603258301E+03  0.00000000000E+00 0. -1.
        -13    1    3    3    0    0  0.19255312367E+03 -0.12378275125E+04 -0.27221552613E+04  0.29965685247E+04  0.00000000000E+00 0.  1.
         22    1    1    2    0    0 -0.28156922394E+03  0.15363833217E+04 -0.95222140143E+03  0.18293388250E+04  0.00000000000E+00 0.  1.
<mgrwt>
<rscale>  0 0.34704288E+04</rscale>
<asrwt>0</asrwt>
<pdfrwt beam="1">  1        2 0.75691507E+00 0.34704288E+04</pdfrwt>
<pdfrwt beam="2">  1       -2 0.94152621E-01 0.34704288E+04</pdfrwt>
<totfact> 0.33572815E-02</totfact>
</mgrwt>
</event>
<event>
 6    1  0.3017327E-006  0.2819731E+04  0.7818608E-02  0.8297169E-01
         -2   -1    0    0    0  501 -0.00000000000E+00  0.00000000000E+00  0.66972903282E+03  0.66972903282E+03  0.00000000000E+00 0.  1.
          2   -1    0    0  501    0  0.00000000000E+00 -0.00000000000E+00 -0.29679477524E+04  0.29679477524E+04  0.00000000000E+00 0. -1.
         23    2    1    2    0    0  0.11119321094E+04  0.30765824442E+03 -0.21924967326E+04  0.24791329795E+04  0.89508639478E+02 0.  0.
         11    1    3    3    0    0  0.13535655108E+03  0.28243265712E+02 -0.32673677781E+03  0.35479007871E+03  0.00000000000E+00 0. -1.
        -11    1    3    3    0    0  0.97657555828E+03  0.27941497871E+03 -0.18657599548E+04  0.21243429008E+04  0.00000000000E+00 0.  1.
         22    1    1    2    0    0 -0.11119321094E+04 -0.30765824442E+03 -0.10572198698E+03  0.11585438057E+04  0.00000000000E+00 0.  1.
<mgrwt>
<rscale>  0 0.28197310E+04</rscale>
<asrwt>0</asrwt>
<pdfrwt beam="1">  1        2 0.45660735E+00 0.28197310E+04</pdfrwt>
<pdfrwt beam="2">  1       -2 0.10303523E+00 0.28197310E+04</pdfrwt>
<totfact> 0.12178725E+00</totfact>
</mgrwt>
</event>
<event>
 6    1  0.3017327E-006  0.1590617E+04  0.7818608E-02  0.8826333E-01
          1   -1    0    0  501    0  0.00000000000E+00  0.00000000000E+00  0.45862074303E+03  0.45862074303E+03  0.00000000000E+00 0. -1.
         -1   -1    0    0    0  501 -0.00000000000E+00 -0.00000000000E+00 -0.13791690073E+04  0.13791690073E+04  0.00000000000E+00 0.  1.
         23    2    1    2    0    0 -0.64324082569E+03 -0.42842539441E+03 -0.66361270928E+03  0.10233433385E+04  0.97686652304E+02 0.  0.
         11    1    3    3    0    0 -0.57189555851E+03 -0.38714770535E+03 -0.54937769789E+03  0.88247590933E+03  0.00000000000E+00 0.  1.
        -11    1    3    3    0    0 -0.71345267187E+02 -0.41277689059E+02 -0.11423501139E+03  0.14086742914E+03  0.00000000000E+00 0. -1.
         22    1    1    2    0    0  0.64324082569E+03  0.42842539441E+03 -0.25693555500E+03  0.81444641189E+03  0.00000000000E+00 0. -1.
<mgrwt>
<rscale>  0 0.15906169E+04</rscale>
<asrwt>0</asrwt>
<pdfrwt beam="1">  1        1 0.70557039E-01 0.15906169E+04</pdfrwt>
<pdfrwt beam="2">  1       -1 0.21217984E+00 0.15906169E+04</pdfrwt>
<totfact> 0.59530928E+00</totfact>
</mgrwt>
</event>
<event>
 6    1  0.3017327E-006  0.4509174E+04  0.7818608E-02  0.7909033E-01
         -2   -1    0    0    0  501 -0.00000000000E+00  0.00000000000E+00  0.28126669431E+04  0.28126669431E+04  0.00000000000E+00 0.  1.
          2   -1    0    0  501    0  0.00000000000E+00 -0.00000000000E+00 -0.18072394555E+04  0.18072394555E+04  0.00000000000E+00 0. -1.
         23    2    1    2    0    0  0.24526166764E+03  0.14677088558E+04 -0.12311800980E+04  0.19335080545E+04  0.91249067808E+02 0.  0.
         11    1    3    3    0    0  0.10779625319E+03  0.47859770769E+03 -0.44880135344E+03  0.66490484497E+03  0.00000000000E+00 0.  1.
        -11    1    3    3    0    0  0.13746541445E+03  0.98911114807E+03 -0.78237874451E+03  0.12686032095E+04  0.00000000000E+00 0. -1.
         22    1    1    2    0    0 -0.24526166764E+03 -0.14677088558E+04  0.22366075856E+04  0.26863983440E+04  0.00000000000E+00 0.  1.
<mgrwt>
<rscale>  0 0.45091741E+04</rscale>
<asrwt>0</asrwt>
<pdfrwt beam="1">  1        2 0.27803684E+00 0.45091741E+04</pdfrwt>
<pdfrwt beam="2">  1       -2 0.43271799E+00 0.45091741E+04</pdfrwt>
<totfact> 0.29263032E-02</totfact>
</mgrwt>
</event>
<event>
 6    1  0.3017327E-006  0.5414961E+03  0.7818608E-02  0.1003482E+00
          2   -1    0    0  501    0  0.00000000000E+00  0.00000000000E+00  0.58679532492E+02  0.58679532492E+02  0.00000000000E+00 0.  1.
         -2   -1    0    0    0  501 -0.00000000000E+00 -0.00000000000E+00 -0.12492347785E+04  0.12492347785E+04  0.00000000000E+00 0. -1.
         23    2    1    2    0    0  0.15326267817E+03  0.17484861189E+03 -0.91212158545E+03  0.94516537724E+03  0.85500398163E+02 0.  0.
         13    1    3    3    0    0  0.40052413985E+02  0.11027346992E+03 -0.42019302914E+03  0.43626438746E+03  0.00000000000E+00 0.  1.
        -13    1    3    3    0    0  0.11321026418E+03  0.64575141976E+02 -0.49192855631E+03  0.50890098977E+03  0.00000000000E+00 0. -1.
         22    1    1    2    0    0 -0.15326267817E+03 -0.17484861189E+03 -0.27843366051E+03  0.36274893371E+03  0.00000000000E+00 0.  1.
<mgrwt>
<rscale>  0 0.54149612E+03</rscale>
<asrwt>0</asrwt>
<pdfrwt beam="1">  1        2 0.90276212E-02 0.54149612E+03</pdfrwt>
<pdfrwt beam="2">  1       -2 0.19218995E+00 0.54149612E+03</pdfrwt>
<totfact> 0.11648832E+02</totfact>
</mgrwt>
</event>
<event>
 6    1  0.3017327E-006  0.1593354E+04  0.7818608E-02  0.8824641E-01
          2   -1    0    0  501    0  0.00000000000E+00  0.00000000000E+00  0.49687827828E+04  0.49687827828E+04  0.00000000000E+00 0. -1.
         -2   -1    0    0    0  501 -0.00000000000E+00 -0.00000000000E+00 -0.12773633342E+03  0.12773633342E+03  0.00000000000E+00 0.  1.
         23    2    1    2    0    0  0.11597471164E+03  0.73793754183E+03  0.32888047366E+04  0.33738884872E+04  0.94260165189E+02 0.  0.
         11    1    3    3    0    0  0.12877001519E+02  0.23452167113E+03  0.87359501809E+03  0.90461842067E+03  0.00000000000E+00 0.  1.
        -11    1    3    3    0    0  0.10309771012E+03  0.50341587070E+03  0.24152097185E+04  0.24692700665E+04  0.00000000000E+00 0. -1.
         22    1    1    2    0    0 -0.11597471164E+03 -0.73793754183E+03  0.15522417128E+04  0.17226306291E+04  0.00000000000E+00 0.  1.
<mgrwt>
<rscale>  0 0.15933538E+04</rscale>
<asrwt>0</asrwt>
<pdfrwt beam="1">  1        2 0.76442797E+00 0.15933538E+04</pdfrwt>
<pdfrwt beam="2">  1       -2 0.19651747E-01 0.15933538E+04</pdfrwt>
<totfact> 0.83059993E-01</totfact>
</mgrwt>
</event>
<event>
 6    1  0.3017327E-006  0.1846227E+04  0.7818608E-02  0.8682095E-01
         -2   -1    0    0    0  501 -0.00000000000E+00  0.00000000000E+00  0.37074276645E+03  0.37074276645E+03  0.00000000000E+00 0.  1.
          2   -1    0    0  501    0  0.00000000000E+00 -0.00000000000E+00 -0.22984640272E+04  0.22984640272E+04  0.00000000000E+00 0. -1.
         23    2    1    2    0    0  0.38751433364E+03 -0.61043684392E+03 -0.14164966198E+03  0.74233049894E+03  0.90495545331E+02 0.  0.
         13    1    3    3    0    0  0.19599695592E+03 -0.23014759416E+03 -0.73707646514E+02  0.31115195481E+03  0.00000000000E+00 0. -1.
        -13    1    3    3    0    0  0.19151737773E+03 -0.38028924977E+03 -0.67942015465E+02  0.43117854414E+03  0.00000000000E+00 0.  1.
         22    1    1    2    0    0 -0.38751433364E+03  0.61043684392E+03 -0.17860715987E+04  0.19268762947E+04  0.00000000000E+00 0. -1.
<mgrwt>
<rscale>  0 0.18462274E+04</rscale>
<asrwt>0</asrwt>
<pdfrwt beam="1">  1        2 0.35360985E+00 0.18462274E+04</pdfrwt>
<pdfrwt beam="2">  1       -2 0.57037349E-01 0.18462274E+04</pdfrwt>
<totfact> 0.12317048E+01</totfact>
</mgrwt>
</event>
<event>
 6    1  0.3017327E-006  0.9024737E+03  0.7818608E-02  0.9422495E-01
          2   -1    0    0  501    0  0.00000000000E+00  0.00000000000E+00  0.44717374030E+03  0.44717374030E+03  0.00000000000E+00 0. -1.
         -2   -1    0    0    0  501 -0.00000000000E+00 -0.00000000000E+00 -0.45533682808E+03  0.45533682808E+03  0.00000000000E+00 0.  1.
         23    2    1    2    0    0 -0.42989049833E+03 -0.10824163812E+03 -0.31491557134E+01  0.45917409087E+03  0.11961954594E+03 0.  0.
         11    1    3    3    0    0 -0.35076963177E+03 -0.10827587949E+03 -0.44690023756E+02  0.36981103131E+03  0.00000000000E+00 0.  1.
        -11    1    3    3    0    0 -0.79120866556E+02  0.34241372378E-01  0.41540868042E+02  0.89363059565E+02  0.00000000000E+00 0. -1.
         22    1    1    2    0    0  0.42989049833E+03  0.10824163812E+03 -0.50139320646E+01  0.44333647751E+03  0.00000000000E+00 0.  1.
<mgrwt>
<rscale>  0 0.90247365E+03</rscale>
<asrwt>0</asrwt>
<pdfrwt beam="1">  1        2 0.68795960E-01 0.90247365E+03</pdfrwt>
<pdfrwt beam="2">  1       -2 0.70051820E-01 0.90247365E+03</pdfrwt>
<totfact> 0.13052188E+02</totfact>
</mgrwt>
</event>
<event>
 6    1  0.3017327E-006  0.3451898E+04  0.7818608E-02  0.8125285E-01
         -2   -1    0    0    0  501 -0.00000000000E+00  0.00000000000E+00  0.88500132482E+03  0.88500132482E+03  0.00000000000E+00 0.  1.
          2   -1    0    0  501    0  0.00000000000E+00 -0.00000000000E+00 -0.33659844131E+04  0.33659844131E+04  0.00000000000E+00 0. -1.
         23    2    1    2    0    0 -0.42788824024E+03  0.14197091001E+04 -0.23262320036E+04  0.27601436359E+04  0.91516562204E+02 0.  0.
         11    1    3    3    0    0 -0.30606983159E+02  0.15062164568E+03 -0.19887085254E+03  0.25134296003E+03  0.00000000000E+00 0.  1.
        -11    1    3    3    0    0 -0.39728125708E+03  0.12690874544E+04 -0.21273611510E+04  0.25088006758E+04  0.00000000000E+00 0. -1.
         22    1    1    2    0    0  0.42788824024E+03 -0.14197091001E+04 -0.15475108466E+03  0.14908421020E+04  0.00000000000E+00 0. -1.
<mgrwt>
<rscale>  0 0.34518984E+04</rscale>
<asrwt>0</asrwt>
<pdfrwt beam="1">  1        2 0.51784375E+00 0.34518984E+04</pdfrwt>
<pdfrwt beam="2">  1       -2 0.13615405E+00 0.34518984E+04</pdfrwt>
<totfact> 0.31979993E-01</totfact>
</mgrwt>
</event>
<event>
 6    1  0.3017327E-006  0.1446337E+04  0.7818608E-02  0.8920944E-01
         -2   -1    0    0    0  501 -0.00000000000E+00  0.00000000000E+00  0.27745316640E+03  0.27745316640E+03  0.00000000000E+00 0.  1.
          2   -1    0    0  501    0  0.00000000000E+00 -0.00000000000E+00 -0.18849055556E+04  0.18849055556E+04  0.00000000000E+00 0. -1.
         23    2    1    2    0    0  0.64332669325E+03 -0.29280018801E+03 -0.10138849582E+04  0.12393617125E+04  0.91943252464E+02 0.  0.
         13    1    3    3    0    0  0.41166371577E+03 -0.18994339354E+03 -0.57131407151E+03  0.72934578626E+03  0.00000000000E+00 0. -1.
        -13    1    3    3    0    0  0.23166297748E+03 -0.10285679446E+03 -0.44257088667E+03  0.51001592625E+03  0.00000000000E+00 0.  1.
         22    1    1    2    0    0 -0.64332669325E+03  0.29280018801E+03 -0.59356743102E+03  0.92299700948E+03  0.00000000000E+00 0.  1.
<mgrwt>
<rscale>  0 0.14463375E+04</rscale>
<asrwt>0</asrwt>
<pdfrwt beam="1">  1        2 0.28998546E+00 0.14463375E+04</pdfrwt>
<pdfrwt beam="2">  1       -2 0.42685104E-01 0.14463375E+04</pdfrwt>
<totfact> 0.39078942E+01</totfact>
</mgrwt>
</event>
<event>
 6    1  0.3017327E-006  0.2857768E+04  0.7818608E-02  0.8285555E-01
          2   -1    0    0  501    0  0.00000000000E+00  0.00000000000E+00  0.24864611637E+04  0.24864611637E+04  0.00000000000E+00 0. -1.
         -2   -1    0    0    0  501 -0.00000000000E+00 -0.00000000000E+00 -0.82113050138E+03  0.82113050138E+03  0.00000000000E+00 0.  1.
         23    2    1    2    0    0 -0.28069915638E+03 -0.24791686373E+02  0.24531038646E+04  0.24709356651E+04  0.91639764775E+02 0.  0.
         13    1    3    3    0    0 -0.16876222844E+03 -0.58081598225E+02  0.15830680287E+04  0.15930971550E+04  0.00000000000E+00 0.  1.
        -13    1    3    3    0    0 -0.11193692794E+03  0.33289911852E+02  0.87003583591E+03  0.87783851011E+03  0.00000000000E+00 0. -1.
         22    1    1    2    0    0  0.28069915638E+03  0.24791686373E+02 -0.78777320227E+03  0.83665599999E+03  0.00000000000E+00 0.  1.
<mgrwt>
<rscale>  0 0.28577677E+04</rscale>
<asrwt>0</asrwt>
<pdfrwt beam="1">  1        2 0.38253248E+00 0.28577677E+04</pdfrwt>
<pdfrwt beam="2">  1       -2 0.12632777E+00 0.28577677E+04</pdfrwt>
<totfact> 0.14330012E+00</totfact>
</mgrwt>
</event>
<event>
 6    1  0.3017327E-006  0.9217274E+03  0.7818608E-02  0.9398821E-01
         -2   -1    0    0    0  501 -0.00000000000E+00  0.00000000000E+00  0.28552036044E+03  0.28552036044E+03  0.00000000000E+00 0.  1.
          2   -1    0    0  501    0  0.00000000000E+00 -0.00000000000E+00 -0.74388861425E+03  0.74388861425E+03  0.00000000000E+00 0. -1.
         23    2    1    2    0    0 -0.16059412502E+03  0.32151259286E+03 -0.54534791043E+03  0.65964380458E+03  0.92546124479E+02 0.  0.
         11    1    3    3    0    0 -0.54505267217E+02  0.36889381073E+02 -0.12166572379E+03  0.13832642168E+03  0.00000000000E+00 0.  1.
        -11    1    3    3    0    0 -0.10608885780E+03  0.28462321179E+03 -0.42368218664E+03  0.52131738290E+03  0.00000000000E+00 0. -1.
         22    1    1    2    0    0  0.16059412502E+03 -0.32151259286E+03  0.86979656618E+02  0.36976517011E+03  0.00000000000E+00 0.  1.
<mgrwt>
<rscale>  0 0.92172739E+03</rscale>
<asrwt>0</asrwt>
<pdfrwt beam="1">  1        2 0.11444440E+00 0.92172739E+03</pdfrwt>
<pdfrwt beam="2">  1       -2 0.43926210E-01 0.92172739E+03</pdfrwt>
<totfact> 0.18659923E+02</totfact>
</mgrwt>
</event>
<event>
 6    1  0.3017327E-006  0.5957503E+03  0.7818608E-02  0.9914262E-01
          2   -1    0    0  501    0  0.00000000000E+00  0.00000000000E+00  0.25613822612E+03  0.25613822612E+03  0.00000000000E+00 0. -1.
         -2   -1    0    0    0  501 -0.00000000000E+00 -0.00000000000E+00 -0.34641292146E+03  0.34641292146E+03  0.00000000000E+00 0.  1.
         23    2    1    2    0    0 -0.40310199559E+02 -0.15984356725E+03 -0.28890968565E+03  0.34442184364E+03  0.89346078470E+02 0.  0.
         11    1    3    3    0    0 -0.57006446528E+02 -0.13870025043E+03 -0.19078082534E+03  0.24266194126E+03  0.00000000000E+00 0. -1.
        -11    1    3    3    0    0  0.16696246969E+02 -0.21143316815E+02 -0.98128860307E+02  0.10175990239E+03  0.00000000000E+00 0.  1.
         22    1    1    2    0    0  0.40310199559E+02  0.15984356725E+03  0.19863499031E+03  0.25812930394E+03  0.00000000000E+00 0. -1.
<mgrwt>
<rscale>  0 0.59575025E+03</rscale>
<asrwt>0</asrwt>
<pdfrwt beam="1">  1        2 0.39405881E-01 0.59575025E+03</pdfrwt>
<pdfrwt beam="2">  1       -2 0.53294296E-01 0.59575025E+03</pdfrwt>
<totfact> 0.43865521E+02</totfact>
</mgrwt>
</event>
<event>
 6    1  0.3017327E-006  0.1783673E+04  0.7818608E-02  0.8715030E-01
         -2   -1    0    0    0  501 -0.00000000000E+00  0.00000000000E+00  0.46169205274E+03  0.46169205274E+03  0.00000000000E+00 0. -1.
          2   -1    0    0  501    0  0.00000000000E+00 -0.00000000000E+00 -0.17227340981E+04  0.17227340981E+04  0.00000000000E+00 0.  1.
         23    2    1    2    0    0  0.11658415680E+03 -0.32480095016E+03 -0.16362177208E+04  0.16746768887E+04  0.90811501869E+02 0.  0.
         13    1    3    3    0    0  0.40571546448E+02 -0.17323791289E+03 -0.64634324319E+03  0.67038571946E+03  0.00000000000E+00 0. -1.
        -13    1    3    3    0    0  0.76012610350E+02 -0.15156303727E+03 -0.98987447762E+03  0.10042911693E+04  0.00000000000E+00 0.  1.
         22    1    1    2    0    0 -0.11658415680E+03  0.32480095016E+03  0.37517567542E+03  0.50974926216E+03  0.00000000000E+00 0. -1.
<mgrwt>
<rscale>  0 0.17836733E+04</rscale>
<asrwt>0</asrwt>
<pdfrwt beam="1">  1        2 0.26503601E+00 0.17836733E+04</pdfrwt>
<pdfrwt beam="2">  1       -2 0.71029548E-01 0.17836733E+04</pdfrwt>
<totfact> 0.16209787E+01</totfact>
</mgrwt>
</event>
<event>
 6    1  0.3017327E-006  0.4070716E+04  0.7818608E-02  0.7990431E-01
          2   -1    0    0  501    0  0.00000000000E+00  0.00000000000E+00  0.26802922995E+04  0.26802922995E+04  0.00000000000E+00 0. -1.
         -2   -1    0    0    0  501 -0.00000000000E+00 -0.00000000000E+00 -0.15456084008E+04  0.15456084008E+04  0.00000000000E+00 0.  1.
         23    2    1    2    0    0  0.83101501947E+03  0.24175387808E+03  0.24789021846E+04  0.26271656690E+04  0.89512633451E+02 0.  0.
         13    1    3    3    0    0  0.42998884929E+03  0.94739906993E+02  0.13607128608E+04  0.14301767548E+04  0.00000000000E+00 0. -1.
        -13    1    3    3    0    0  0.40102617018E+03  0.14701397109E+03  0.11181893237E+04  0.11969889141E+04  0.00000000000E+00 0.  1.
         22    1    1    2    0    0 -0.83101501947E+03 -0.24175387808E+03 -0.13442182859E+04  0.15987350313E+04  0.00000000000E+00 0.  1.
<mgrwt>
<rscale>  0 0.40707161E+04</rscale>
<asrwt>0</asrwt>
<pdfrwt beam="1">  1        2 0.41235266E+00 0.40707161E+04</pdfrwt>
<pdfrwt beam="2">  1       -2 0.23778591E+00 0.40707161E+04</pdfrwt>
<totfact> 0.16359394E-01</totfact>
</mgrwt>
</event>
<event>
 6    1  0.3017327E-006  0.3471733E+04  0.7818608E-02  0.8120522E-01
          2   -1    0    0  501    0  0.00000000000E+00  0.00000000000E+00  0.28429819866E+04  0.28429819866E+04  0.00000000000E+00 0. -1.
         -2   -1    0    0    0  501 -0.00000000000E+00 -0.00000000000E+00 -0.10598847798E+04  0.10598847798E+04  0.00000000000E+00 0.  1.
         23    2    1    2    0    0 -0.88933212179E+03 -0.14769851346E+04  0.67733523129E+03  0.18546709122E+04  0.92868004758E+02 0.  0.
         11    1    3    3    0    0 -0.33407418552E+03 -0.47069129096E+03  0.23282690064E+03  0.62238590800E+03  0.00000000000E+00 0.  1.
        -11    1    3    3    0    0 -0.55525793628E+03 -0.10062938436E+04  0.44450833065E+03  0.12322850042E+04  0.00000000000E+00 0. -1.
         22    1    1    2    0    0  0.88933212179E+03  0.14769851346E+04  0.11057619755E+04  0.20481958542E+04  0.00000000000E+00 0.  1.
<mgrwt>
<rscale>  0 0.34717335E+04</rscale>
<asrwt>0</asrwt>
<pdfrwt beam="1">  1        2 0.43738184E+00 0.34717335E+04</pdfrwt>
<pdfrwt beam="2">  1       -2 0.16305920E+00 0.34717335E+04</pdfrwt>
<totfact> 0.42871378E-01</totfact>
</mgrwt>
</event>
<event>
 6    1  0.3329605E-006  0.2829234E+04  0.7818608E-02  0.8294249E-01
          2   -1    0    0  501    0  0.00000000000E+00  0.00000000000E+00  0.27112620612E+04  0.27112620612E+04  0.00000000000E+00 0. -1.
         -2   -1    0    0    0  501 -0.00000000000E+00 -0.00000000000E+00 -0.73808494472E+03  0.73808494472E+03  0.00000000000E+00 0.  1.
         23    2    1    2    0    0  0.34457544232E+03  0.10730030645E+04  0.20271577031E+04  0.23210820921E+04  0.89363935791E+02 0.  0.
         11    1    3    3    0    0  0.15953894817E+03  0.50116772011E+03  0.85498155195E+03  0.10038003855E+04  0.00000000000E+00 0.  1.
        -11    1    3    3    0    0  0.18503649415E+03  0.57183534440E+03  0.11721761512E+04  0.13172817067E+04  0.00000000000E+00 0. -1.
         22    1    1    2    0    0 -0.34457544232E+03 -0.10730030645E+04 -0.53980586689E+02  0.11282649138E+04  0.00000000000E+00 0.  1.
<mgrwt>
<rscale>  0 0.28292343E+04</rscale>
<asrwt>0</asrwt>
<pdfrwt beam="1">  1        2 0.41711723E+00 0.28292343E+04</pdfrwt>
<pdfrwt beam="2">  1       -2 0.11355153E+00 0.28292343E+04</pdfrwt>
<totfact> 0.13799548E+00</totfact>
</mgrwt>
</event>
<event>
 6    1  0.3017327E-006  0.4093551E+04  0.7818608E-02  0.7985936E-01
         -2   -1    0    0    0  501 -0.00000000000E+00  0.00000000000E+00  0.11545243319E+04  0.11545243319E+04  0.00000000000E+00 0.  1.
          2   -1    0    0  501    0  0.00000000000E+00 -0.00000000000E+00 -0.36285860491E+04  0.36285860491E+04  0.00000000000E+00 0. -1.
         23    2    1    2    0    0  0.13566402478E+04  0.93635785437E+03 -0.26533097397E+04  0.31249883569E+04  0.90889286909E+02 0.  0.
         13    1    3    3    0    0  0.41907313245E+03  0.26833515704E+03 -0.87405609395E+03  0.10057833277E+04  0.00000000000E+00 0.  1.
        -13    1    3    3    0    0  0.93756711533E+03  0.66802269733E+03 -0.17792536458E+04  0.21192050292E+04  0.00000000000E+00 0. -1.
         22    1    1    2    0    0 -0.13566402478E+04 -0.93635785437E+03  0.17924802254E+03  0.16581220241E+04  0.00000000000E+00 0.  1.
<mgrwt>
<rscale>  0 0.40935515E+04</rscale>
<asrwt>0</asrwt>
<pdfrwt beam="1">  1        2 0.55824399E+00 0.40935515E+04</pdfrwt>
<pdfrwt beam="2">  1       -2 0.17761914E+00 0.40935515E+04</pdfrwt>
<totfact> 0.96873344E-02</totfact>
</mgrwt>
</event>
<event>
 6    1  0.3017327E-006  0.1423948E+04  0.7818608E-02  0.8936664E-01
         -1   -1    0    0    0  501 -0.00000000000E+00  0.00000000000E+00  0.10564226784E+04  0.10564226784E+04  0.00000000000E+00 0.  1.
          1   -1    0    0  501    0  0.00000000000E+00 -0.00000000000E+00 -0.47983335070E+03  0.47983335070E+03  0.00000000000E+00 0. -1.
         23    2    1    2    0    0 -0.40776262147E+03 -0.23198639825E+03 -0.28461830685E+03  0.55555901461E+03  0.86891850480E+02 0.  0.
         13    1    3    3    0    0 -0.33420986312E+03 -0.15677012329E+03 -0.24543785912E+03  0.44329769552E+03  0.00000000000E+00 0.  1.
        -13    1    3    3    0    0 -0.73552758349E+02 -0.75216274957E+02 -0.39180447723E+02  0.11226131909E+03  0.00000000000E+00 0. -1.
         22    1    1    2    0    0  0.40776262147E+03  0.23198639825E+03  0.86120763456E+03  0.98069701450E+03  0.00000000000E+00 0.  1.
<mgrwt>
<rscale>  0 0.14239478E+04</rscale>
<asrwt>0</asrwt>
<pdfrwt beam="1">  1        1 0.73820516E-01 0.14239478E+04</pdfrwt>
<pdfrwt beam="2">  1       -1 0.16252657E+00 0.14239478E+04</pdfrwt>
<totfact> 0.12767794E+01</totfact>
</mgrwt>
</event>
<event>
 6    1  0.3017327E-006  0.1400627E+04  0.7818608E-02  0.8953364E-01
          2   -1    0    0  501    0  0.00000000000E+00  0.00000000000E+00  0.60291158469E+03  0.60291158469E+03  0.00000000000E+00 0. -1.
         -2   -1    0    0    0  501 -0.00000000000E+00 -0.00000000000E+00 -0.81345152133E+03  0.81345152133E+03  0.00000000000E+00 0.  1.
         23    2    1    2    0    0 -0.47918012420E+02  0.67460232836E+03 -0.27643445757E+03  0.73685848850E+03  0.95707812664E+02 0.  0.
         11    1    3    3    0    0 -0.47358190047E+02  0.32885567655E+03 -0.18019479671E+03  0.37796695480E+03  0.00000000000E+00 0.  1.
        -11    1    3    3    0    0 -0.55982237282E+00  0.34574665180E+03 -0.96239660869E+02  0.35889153370E+03  0.00000000000E+00 0. -1.
         22    1    1    2    0    0  0.47918012420E+02 -0.67460232836E+03  0.65894520941E+02  0.67950461752E+03  0.00000000000E+00 0. -1.
<mgrwt>
<rscale>  0 0.14006275E+04</rscale>
<asrwt>0</asrwt>
<pdfrwt beam="1">  1        2 0.92755628E-01 0.14006275E+04</pdfrwt>
<pdfrwt beam="2">  1       -2 0.12514639E+00 0.14006275E+04</pdfrwt>
<totfact> 0.22934498E+01</totfact>
</mgrwt>
</event>
<event>
 6    1  0.3017327E-006  0.9399475E+03  0.7818608E-02  0.9376978E-01
         -1   -1    0    0    0  501 -0.00000000000E+00  0.00000000000E+00  0.46249483419E+03  0.46249483419E+03  0.00000000000E+00 0.  1.
          1   -1    0    0  501    0  0.00000000000E+00 -0.00000000000E+00 -0.47757363622E+03  0.47757363622E+03  0.00000000000E+00 0. -1.
         23    2    1    2    0    0  0.98667829878E+02  0.78160413428E+02 -0.45588017377E+03  0.48164700473E+03  0.91174083239E+02 0.  0.
         11    1    3    3    0    0  0.83432398182E+02  0.18106200149E+02 -0.18466687639E+03  0.20344693358E+03  0.00000000000E+00 0.  1.
        -11    1    3    3    0    0  0.15235431696E+02  0.60054213279E+02 -0.27121329738E+03  0.27820007115E+03  0.00000000000E+00 0. -1.
         22    1    1    2    0    0 -0.98667829878E+02 -0.78160413428E+02  0.44080137173E+03  0.45842146568E+03  0.00000000000E+00 0.  1.
<mgrwt>
<rscale>  0 0.93994753E+03</rscale>
<asrwt>0</asrwt>
<pdfrwt beam="1">  1        1 0.73472867E-01 0.93994753E+03</pdfrwt>
<pdfrwt beam="2">  1       -1 0.71153051E-01 0.93994753E+03</pdfrwt>
<totfact> 0.94791880E+01</totfact>
</mgrwt>
</event>
<event>
 6    1  0.3017327E-006  0.2137800E+04  0.7818608E-02  0.8544773E-01
          1   -1    0    0  501    0  0.00000000000E+00  0.00000000000E+00  0.22182246339E+04  0.22182246339E+04  0.00000000000E+00 0. -1.
         -1   -1    0    0    0  501 -0.00000000000E+00 -0.00000000000E+00 -0.51507260564E+03  0.51507260564E+03  0.00000000000E+00 0.  1.
         23    2    1    2    0    0 -0.88845602864E+03  0.86915649152E+01  0.97640251070E+02  0.89833191975E+03  0.89649100861E+02 0.  0.
         13    1    3    3    0    0 -0.76896372285E+03 -0.22611500681E+02  0.90504086720E+02  0.77460149543E+03  0.00000000000E+00 0. -1.
        -13    1    3    3    0    0 -0.11949230579E+03  0.31303065596E+02  0.71361643496E+01  0.12373042431E+03  0.00000000000E+00 0.  1.
         22    1    1    2    0    0  0.88845602864E+03 -0.86915649152E+01  0.16055117771E+04  0.18349653197E+04  0.00000000000E+00 0. -1.
<mgrwt>
<rscale>  0 0.21377996E+04</rscale>
<asrwt>0</asrwt>
<pdfrwt beam="1">  1        1 0.34126532E+00 0.21377996E+04</pdfrwt>
<pdfrwt beam="2">  1       -1 0.79241941E-01 0.21377996E+04</pdfrwt>
<totfact> 0.30889079E+00</totfact>
</mgrwt>
</event>
<event>
 6    1  0.3017327E-006  0.3826524E+04  0.7818608E-02  0.8040487E-01
         -2   -1    0    0    0  501 -0.00000000000E+00  0.00000000000E+00  0.15210193660E+04  0.15210193660E+04  0.00000000000E+00 0.  1.
          2   -1    0    0  501    0  0.00000000000E+00 -0.00000000000E+00 -0.24066566257E+04  0.24066566257E+04  0.00000000000E+00 0. -1.
         23    2    1    2    0    0 -0.47637773253E+03 -0.12466195843E+04  0.96239329699E+03  0.16481556320E+04  0.96020815944E+02 0.  0.
         11    1    3    3    0    0 -0.60019051054E+02 -0.20891916869E+03  0.19514496702E+03  0.29211481251E+03  0.00000000000E+00 0. -1.
        -11    1    3    3    0    0 -0.41635868147E+03 -0.10377004156E+04  0.76724832997E+03  0.13560408195E+04  0.00000000000E+00 0.  1.
         22    1    1    2    0    0  0.47637773253E+03  0.12466195843E+04 -0.18480305567E+04  0.22795203597E+04  0.00000000000E+00 0. -1.
<mgrwt>
<rscale>  0 0.38265239E+04</rscale>
<asrwt>0</asrwt>
<pdfrwt beam="1">  1        2 0.37025486E+00 0.38265239E+04</pdfrwt>
<pdfrwt beam="2">  1       -2 0.23400298E+00 0.38265239E+04</pdfrwt>
<totfact> 0.25448187E-01</totfact>
</mgrwt>
</event>
<event>
 6    1  0.3017327E-006  0.1214616E+04  0.7818608E-02  0.9100159E-01
          2   -1    0    0  501    0  0.00000000000E+00  0.00000000000E+00  0.10934402357E+04  0.10934402357E+04  0.00000000000E+00 0. -1.
         -2   -1    0    0    0  501 -0.00000000000E+00 -0.00000000000E+00 -0.33730505688E+03  0.33730505688E+03  0.00000000000E+00 0.  1.
         23    2    1    2    0    0 -0.59943047650E+03  0.64507267940E+02  0.34028132120E+03  0.69834341201E+03  0.91728184103E+02 0.  0.
         13    1    3    3    0    0 -0.47698698957E+03  0.63207160529E+02  0.30943361299E+03  0.57206721126E+03  0.00000000000E+00 0. -1.
        -13    1    3    3    0    0 -0.12244348693E+03  0.13001074112E+01  0.30847708218E+02  0.12627620074E+03  0.00000000000E+00 0.  1.
         22    1    1    2    0    0  0.59943047650E+03 -0.64507267940E+02  0.41585385760E+03  0.73240188057E+03  0.00000000000E+00 0.  1.
<mgrwt>
<rscale>  0 0.12146159E+04</rscale>
<asrwt>0</asrwt>
<pdfrwt beam="1">  1        2 0.16822157E+00 0.12146159E+04</pdfrwt>
<pdfrwt beam="2">  1       -2 0.51893086E-01 0.12146159E+04</pdfrwt>
<totfact> 0.76005528E+01</totfact>
</mgrwt>
</event>
<event>
 6    1  0.3017327E-006  0.2028474E+04  0.7818608E-02  0.8593423E-01
         -1   -1    0    0    0  501 -0.00000000000E+00  0.00000000000E+00  0.55498445677E+03  0.55498445677E+03  0.00000000000E+00 0.  1.
          1   -1    0    0  501    0  0.00000000000E+00 -0.00000000000E+00 -0.18535227133E+04  0.18535227133E+04  0.00000000000E+00 0. -1.
         23    2    1    2    0    0  0.18549439414E+03 -0.95202417423E+03 -0.30714891843E+03  0.10215641221E+04  0.92166148289E+02 0.  0.
         11    1    3    3    0    0  0.13895621207E+03 -0.47463400010E+03 -0.16271824301E+03  0.52063757983E+03  0.00000000000E+00 0. -1.
        -11    1    3    3    0    0  0.46538182069E+02 -0.47739017413E+03 -0.14443067543E+03  0.50092654227E+03  0.00000000000E+00 0.  1.
         22    1    1    2    0    0 -0.18549439414E+03  0.95202417423E+03 -0.99138933807E+03  0.13869430479E+04  0.00000000000E+00 0. -1.
<mgrwt>
<rscale>  0 0.20284736E+04</rscale>
<asrwt>0</asrwt>
<pdfrwt beam="1">  1        1 0.28515734E+00 0.20284736E+04</pdfrwt>
<pdfrwt beam="2">  1       -1 0.85382224E-01 0.20284736E+04</pdfrwt>
<totfact> 0.47001882E+00</totfact>
</mgrwt>
</event>
<event>
 6    1  0.3017327E-006  0.3928503E+04  0.7818608E-02  0.8019127E-01
         -2   -1    0    0    0  501 -0.00000000000E+00  0.00000000000E+00  0.26323853487E+04  0.26323853487E+04  0.00000000000E+00 0.  1.
          2   -1    0    0  501    0  0.00000000000E+00 -0.00000000000E+00 -0.14656991297E+04  0.14656991297E+04  0.00000000000E+00 0. -1.
         23    2    1    2    0    0 -0.69963413732E+03 -0.11207402468E+04  0.20983723202E+04  0.24814256962E+04  0.93597354944E+02 0.  0.
         11    1    3    3    0    0 -0.53699966274E+03 -0.90123962899E+03  0.16045717372E+04  0.19170946681E+04  0.00000000000E+00 0. -1.
        -11    1    3    3    0    0 -0.16263447458E+03 -0.21950061778E+03  0.49380058299E+03  0.56433102811E+03  0.00000000000E+00 0.  1.
         22    1    1    2    0    0  0.69963413732E+03  0.11207402468E+04 -0.93168610120E+03  0.16166587822E+04  0.00000000000E+00 0. -1.
<mgrwt>
<rscale>  0 0.39285035E+04</rscale>
<asrwt>0</asrwt>
<pdfrwt beam="1">  1        2 0.22549217E+00 0.39285035E+04</pdfrwt>
<pdfrwt beam="2">  1       -2 0.40498236E+00 0.39285035E+04</pdfrwt>
<totfact> 0.72476207E-02</totfact>
</mgrwt>
</event>
<event>
 6    1  0.3017327E-006  0.4275391E+04  0.7818608E-02  0.7951184E-01
          1   -1    0    0  501    0  0.00000000000E+00  0.00000000000E+00  0.44841160374E+04  0.44841160374E+04  0.00000000000E+00 0. -1.
         -1   -1    0    0    0  501 -0.00000000000E+00 -0.00000000000E+00 -0.10190953472E+04  0.10190953472E+04  0.00000000000E+00 0.  1.
         23    2    1    2    0    0  0.10738298198E+04  0.34280744070E+03 -0.60315531683E+03  0.12817562506E+04  0.92061535991E+02 0.  0.
         11    1    3    3    0    0  0.48047465187E+03  0.12805066698E+03 -0.22200045625E+03  0.54455217104E+03  0.00000000000E+00 0. -1.
        -11    1    3    3    0    0  0.59335516797E+03  0.21475677372E+03 -0.38115486058E+03  0.73720407959E+03  0.00000000000E+00 0.  1.
         22    1    1    2    0    0 -0.10738298198E+04 -0.34280744070E+03  0.40681760070E+04  0.42214551339E+04  0.00000000000E+00 0. -1.
<mgrwt>
<rscale>  0 0.42753909E+04</rscale>
<asrwt>0</asrwt>
<pdfrwt beam="1">  1        1 0.68986399E+00 0.42753909E+04</pdfrwt>
<pdfrwt beam="2">  1       -1 0.15678390E+00 0.42753909E+04</pdfrwt>
<totfact> 0.78630652E-03</totfact>
</mgrwt>
</event>
<event>
 6    1  0.3017327E-006  0.3363027E+04  0.7818608E-02  0.8147041E-01
         -2   -1    0    0    0  501 -0.00000000000E+00  0.00000000000E+00  0.13234151056E+04  0.13234151056E+04  0.00000000000E+00 0.  1.
          2   -1    0    0  501    0  0.00000000000E+00 -0.00000000000E+00 -0.21365090783E+04  0.21365090783E+04  0.00000000000E+00 0. -1.
         23    2    1    2    0    0  0.88196424390E+03  0.12960856928E+04  0.21521142642E+03  0.15850612437E+04  0.91674082614E+02 0.  0.
         13    1    3    3    0    0  0.33790740377E+03  0.47740995201E+03  0.36961197236E+02  0.58606126463E+03  0.00000000000E+00 0. -1.
        -13    1    3    3    0    0  0.54405684013E+03  0.81867574083E+03  0.17825022918E+03  0.99899997904E+03  0.00000000000E+00 0.  1.
         22    1    1    2    0    0 -0.88196424390E+03 -0.12960856928E+04 -0.10283053991E+04  0.18748629402E+04  0.00000000000E+00 0. -1.
<mgrwt>
<rscale>  0 0.33630274E+04</rscale>
<asrwt>0</asrwt>
<pdfrwt beam="1">  1        2 0.32869370E+00 0.33630274E+04</pdfrwt>
<pdfrwt beam="2">  1       -2 0.20360233E+00 0.33630274E+04</pdfrwt>
<totfact> 0.58679949E-01</totfact>
</mgrwt>
</event>
<event>
 6    1  0.3017327E-006  0.1204788E+04  0.7818608E-02  0.9108676E-01
         -2   -1    0    0    0  501 -0.00000000000E+00  0.00000000000E+00  0.45259152348E+03  0.45259152348E+03  0.00000000000E+00 0.  1.
          2   -1    0    0  501    0  0.00000000000E+00 -0.00000000000E+00 -0.80177887359E+03  0.80177887359E+03  0.00000000000E+00 0. -1.
         23    2    1    2    0    0 -0.52875278937E+02 -0.31259753931E+03 -0.70458295013E+03  0.77811516169E+03  0.92266215589E+02 0.  0.
         13    1    3    3    0    0  0.11551793562E+02 -0.41133036408E+02 -0.16778571750E+03  0.17313987876E+03  0.00000000000E+00 0. -1.
        -13    1    3    3    0    0 -0.64427072500E+02 -0.27146450290E+03 -0.53679723263E+03  0.60497528294E+03  0.00000000000E+00 0.  1.
         22    1    1    2    0    0  0.52875278937E+02  0.31259753931E+03  0.35539560002E+03  0.47625523537E+03  0.00000000000E+00 0.  1.
<mgrwt>
<rscale>  0 0.12047877E+04</rscale>
<asrwt>0</asrwt>
<pdfrwt beam="1">  1        2 0.12335060E+00 0.12047877E+04</pdfrwt>
<pdfrwt beam="2">  1       -2 0.69629465E-01 0.12047877E+04</pdfrwt>
<totfact> 0.63739904E+01</totfact>
</mgrwt>
</event>
<event>
 6    1  0.3017327E-006  0.1348863E+04  0.7818608E-02  0.8991689E-01
         -2   -1    0    0    0  501 -0.00000000000E+00  0.00000000000E+00  0.36797813693E+03  0.36797813693E+03  0.00000000000E+00 0.  1.
          2   -1    0    0  501    0  0.00000000000E+00 -0.00000000000E+00 -0.12361004859E+04  0.12361004859E+04  0.00000000000E+00 0. -1.
         23    2    1    2    0    0 -0.15083322137E+02 -0.62717480876E+03 -0.15299999181E+03  0.65277649781E+03  0.95563650312E+02 0.  0.
         11    1    3    3    0    0 -0.49636805546E+02 -0.43936046922E+03 -0.12710733536E+03  0.46006272298E+03  0.00000000000E+00 0. -1.
        -11    1    3    3    0    0  0.34553483408E+02 -0.18781433954E+03 -0.25892656445E+02  0.19271377483E+03  0.00000000000E+00 0.  1.
         22    1    1    2    0    0  0.15083322137E+02  0.62717480876E+03 -0.71512235717E+03  0.95130212502E+03  0.00000000000E+00 0. -1.
<mgrwt>
<rscale>  0 0.13488632E+04</rscale>
<asrwt>0</asrwt>
<pdfrwt beam="1">  1        2 0.19016931E+00 0.13488632E+04</pdfrwt>
<pdfrwt beam="2">  1       -2 0.56612021E-01 0.13488632E+04</pdfrwt>
<totfact> 0.51536175E+01</totfact>
</mgrwt>
</event>
<event>
 6    1  0.3017327E-006  0.1413964E+04  0.7818608E-02  0.8943773E-01
          2   -1    0    0  501    0  0.00000000000E+00  0.00000000000E+00  0.36656281584E+04  0.36656281584E+04  0.00000000000E+00 0. -1.
         -2   -1    0    0    0  501 -0.00000000000E+00 -0.00000000000E+00 -0.13635404735E+03  0.13635404735E+03  0.00000000000E+00 0.  1.
         23    2    1    2    0    0  0.28877470043E+03 -0.46257106996E+03  0.29696152160E+04  0.30205854428E+04  0.89213583954E+02 0.  0.
         11    1    3    3    0    0  0.63365253254E+02 -0.17795747803E+03  0.95082840604E+03  0.96941151068E+03  0.00000000000E+00 0. -1.
        -11    1    3    3    0    0  0.22540944718E+03 -0.28461359193E+03  0.20187868100E+04  0.20511739321E+04  0.00000000000E+00 0.  1.
         22    1    1    2    0    0 -0.28877470043E+03  0.46257106996E+03  0.55965889503E+03  0.78139676296E+03  0.00000000000E+00 0.  1.
<mgrwt>
<rscale>  0 0.14139636E+04</rscale>
<asrwt>0</asrwt>
<pdfrwt beam="1">  1        2 0.56394272E+00 0.14139636E+04</pdfrwt>
<pdfrwt beam="2">  1       -2 0.20977549E-01 0.14139636E+04</pdfrwt>
<totfact> 0.12058896E+01</totfact>
</mgrwt>
</event>
<event>
 6    1  0.3017327E-006  0.2424932E+04  0.7818608E-02  0.8430228E-01
          2   -1    0    0  501    0  0.00000000000E+00  0.00000000000E+00  0.15555103301E+04  0.15555103301E+04  0.00000000000E+00 0. -1.
         -2   -1    0    0    0  501 -0.00000000000E+00 -0.00000000000E+00 -0.94507529298E+03  0.94507529298E+03  0.00000000000E+00 0.  1.
         23    2    1    2    0    0 -0.65915235262E+03  0.10110938400E+04  0.20770014870E+03  0.12281910429E+04  0.92310935887E+02 0.  0.
         11    1    3    3    0    0 -0.46729962900E+03  0.75152930916E+03  0.11523955433E+03  0.89243789738E+03  0.00000000000E+00 0.  1.
        -11    1    3    3    0    0 -0.19185272362E+03  0.25956453084E+03  0.92460594366E+02  0.33575314554E+03  0.00000000000E+00 0. -1.
         22    1    1    2    0    0  0.65915235262E+03 -0.10110938400E+04  0.40273488841E+03  0.12723945801E+04  0.00000000000E+00 0. -1.
<mgrwt>
<rscale>  0 0.24249325E+04</rscale>
<asrwt>0</asrwt>
<pdfrwt beam="1">  1        2 0.23930928E+00 0.24249325E+04</pdfrwt>
<pdfrwt beam="2">  1       -2 0.14539620E+00 0.24249325E+04</pdfrwt>
<totfact> 0.34490235E+00</totfact>
</mgrwt>
</event>
<event>
 6    1  0.3017327E-006  0.3298709E+04  0.7818608E-02  0.8163224E-01
         -2   -1    0    0    0  501 -0.00000000000E+00  0.00000000000E+00  0.22559412400E+04  0.22559412400E+04  0.00000000000E+00 0.  1.
          2   -1    0    0  501    0  0.00000000000E+00 -0.00000000000E+00 -0.12058692764E+04  0.12058692764E+04  0.00000000000E+00 0. -1.
         23    2    1    2    0    0  0.21807065615E+03  0.39329348349E+02  0.22393136010E+04  0.22521009311E+04  0.91277552223E+02 0.  0.
         13    1    3    3    0    0  0.21611410645E+03  0.27255829961E+02  0.18796555827E+04  0.18922350004E+04  0.00000000000E+00 0. -1.
        -13    1    3    3    0    0  0.19565497011E+01  0.12073518388E+02  0.35965801831E+03  0.35986593068E+03  0.00000000000E+00 0.  1.
         22    1    1    2    0    0 -0.21807065615E+03 -0.39329348349E+02 -0.11892416374E+04  0.12097095853E+04  0.00000000000E+00 0. -1.
<mgrwt>
<rscale>  0 0.32987090E+04</rscale>
<asrwt>0</asrwt>
<pdfrwt beam="1">  1        2 0.18551835E+00 0.32987090E+04</pdfrwt>
<pdfrwt beam="2">  1       -2 0.34706788E+00 0.32987090E+04</pdfrwt>
<totfact> 0.25467619E-01</totfact>
</mgrwt>
</event>
<event>
 6    1  0.3017327E-006  0.1147973E+04  0.7818608E-02  0.9159655E-01
         -2   -1    0    0    0  501 -0.00000000000E+00  0.00000000000E+00  0.37475048507E+03  0.37475048507E+03  0.00000000000E+00 0.  1.
          2   -1    0    0  501    0  0.00000000000E+00 -0.00000000000E+00 -0.87914648344E+03  0.87914648344E+03  0.00000000000E+00 0. -1.
         23    2    1    2    0    0 -0.96475065576E+02 -0.28340974522E+03 -0.78399074164E+03  0.84426085873E+03  0.92230107081E+02 0.  0.
         13    1    3    3    0    0 -0.38402070132E+02 -0.16026840613E+03 -0.30975465657E+03  0.35086839165E+03  0.00000000000E+00 0.  1.
        -13    1    3    3    0    0 -0.58072995444E+02 -0.12314133910E+03 -0.47423608507E+03  0.49339246709E+03  0.00000000000E+00 0. -1.
         22    1    1    2    0    0  0.96475065576E+02  0.28340974522E+03  0.27959474327E+03  0.40963610977E+03  0.00000000000E+00 0.  1.
<mgrwt>
<rscale>  0 0.11479731E+04</rscale>
<asrwt>0</asrwt>
<pdfrwt beam="1">  1        2 0.13525330E+00 0.11479731E+04</pdfrwt>
<pdfrwt beam="2">  1       -2 0.57653921E-01 0.11479731E+04</pdfrwt>
<totfact> 0.84515632E+01</totfact>
</mgrwt>
</event>
<event>
 6    1  0.3017327E-006  0.2729996E+04  0.7818608E-02  0.8325337E-01
         -2   -1    0    0    0  501 -0.00000000000E+00  0.00000000000E+00  0.29403823559E+04  0.29403823559E+04  0.00000000000E+00 0.  1.
          2   -1    0    0  501    0  0.00000000000E+00 -0.00000000000E+00 -0.63366570709E+03  0.63366570709E+03  0.00000000000E+00 0. -1.
         23    2    1    2    0    0  0.71005612978E+03 -0.36734972045E+03 -0.29283010311E+03  0.85434792511E+03  0.70960434809E+02 0.  0.
         11    1    3    3    0    0  0.46659709864E+03 -0.24214766012E+03 -0.22804471330E+03  0.57302070908E+03  0.00000000000E+00 0.  1.
        -11    1    3    3    0    0  0.24345903113E+03 -0.12520206032E+03 -0.64785389814E+02  0.28132721604E+03  0.00000000000E+00 0. -1.
         22    1    1    2    0    0 -0.71005612978E+03  0.36734972045E+03  0.25995467519E+04  0.27197001379E+04  0.00000000000E+00 0.  1.
<mgrwt>
<rscale>  0 0.27299959E+04</rscale>
<asrwt>0</asrwt>
<pdfrwt beam="1">  1        2 0.97487033E-01 0.27299959E+04</pdfrwt>
<pdfrwt beam="2">  1       -2 0.45236651E+00 0.27299959E+04</pdfrwt>
<totfact> 0.13575569E-01</totfact>
</mgrwt>
</event>
<event>
 6    1  0.3017327E-006  0.2907303E+04  0.7818608E-02  0.8270708E-01
         -2   -1    0    0    0  501 -0.00000000000E+00  0.00000000000E+00  0.70103781472E+03  0.70103781472E+03  0.00000000000E+00 0.  1.
          2   -1    0    0  501    0  0.00000000000E+00 -0.00000000000E+00 -0.30142492652E+04  0.30142492652E+04  0.00000000000E+00 0. -1.
         23    2    1    2    0    0 -0.11417132626E+04  0.42476175199E+03 -0.14737374291E+03  0.12303756740E+04  0.90407737056E+02 0.  0.
         11    1    3    3    0    0 -0.18606105459E+03  0.10103635306E+03 -0.87644846292E+01  0.21190534884E+03  0.00000000000E+00 0. -1.
        -11    1    3    3    0    0 -0.95565220805E+03  0.32372539892E+03 -0.13860925828E+03  0.10184703251E+04  0.00000000000E+00 0.  1.
         22    1    1    2    0    0  0.11417132626E+04 -0.42476175199E+03 -0.21658377076E+04  0.24849114060E+04  0.00000000000E+00 0. -1.
<mgrwt>
<rscale>  0 0.29073030E+04</rscale>
<asrwt>0</asrwt>
<pdfrwt beam="1">  1        2 0.46373065E+00 0.29073030E+04</pdfrwt>
<pdfrwt beam="2">  1       -2 0.10785197E+00 0.29073030E+04</pdfrwt>
<totfact> 0.10132932E+00</totfact>
</mgrwt>
</event>
<event>
 6    1  0.3017327E-006  0.5660751E+03  0.7818608E-02  0.9978402E-01
          2   -1    0    0  501    0  0.00000000000E+00  0.00000000000E+00  0.14903734131E+04  0.14903734131E+04  0.00000000000E+00 0. -1.
         -2   -1    0    0    0  501 -0.00000000000E+00 -0.00000000000E+00 -0.53751792082E+02  0.53751792082E+02  0.00000000000E+00 0.  1.
         23    2    1    2    0    0 -0.57064864642E+02  0.15789189713E+03  0.13332573747E+04  0.13469693851E+04  0.92547541605E+02 0.  0.
         13    1    3    3    0    0  0.63139585633E+01  0.11480527935E+03  0.77969176612E+03  0.78812395497E+03  0.00000000000E+00 0. -1.
        -13    1    3    3    0    0 -0.63378823205E+02  0.43086617771E+02  0.55356560853E+03  0.55884543016E+03  0.00000000000E+00 0.  1.
         22    1    1    2    0    0  0.57064864642E+02 -0.15789189713E+03  0.10336424637E+03  0.19715582006E+03  0.00000000000E+00 0.  1.
<mgrwt>
<rscale>  0 0.56607505E+03</rscale>
<asrwt>0</asrwt>
<pdfrwt beam="1">  1        2 0.22928819E+00 0.56607505E+03</pdfrwt>
<pdfrwt beam="2">  1       -2 0.82695076E-02 0.56607505E+03</pdfrwt>
<totfact> 0.12223128E+03</totfact>
</mgrwt>
</event>
<event>
 6    1  0.3017327E-006  0.2247815E+04  0.7818608E-02  0.8498786E-01
         -2   -1    0    0    0  501 -0.00000000000E+00  0.00000000000E+00  0.64050937611E+03  0.64050937611E+03  0.00000000000E+00 0.  1.
          2   -1    0    0  501    0  0.00000000000E+00 -0.00000000000E+00 -0.19721313118E+04  0.19721313118E+04  0.00000000000E+00 0. -1.
         23    2    1    2    0    0  0.22769180667E+03  0.60529504360E+03  0.39876176555E+03  0.76535798021E+03  0.92391793885E+02 0.  0.
         13    1    3    3    0    0  0.15149691468E+03  0.44203077481E+03  0.33204373600E+03  0.57323255635E+03  0.00000000000E+00 0. -1.
        -13    1    3    3    0    0  0.76194891987E+02  0.16326426879E+03  0.66718029549E+02  0.19212542386E+03  0.00000000000E+00 0.  1.
         22    1    1    2    0    0 -0.22769180667E+03 -0.60529504360E+03 -0.17303837012E+04  0.18472827077E+04  0.00000000000E+00 0. -1.
<mgrwt>
<rscale>  0 0.22478155E+04</rscale>
<asrwt>0</asrwt>
<pdfrwt beam="1">  1        2 0.30340482E+00 0.22478155E+04</pdfrwt>
<pdfrwt beam="2">  1       -2 0.98539905E-01 0.22478155E+04</pdfrwt>
<totfact> 0.53912925E+00</totfact>
</mgrwt>
</event>
<event>
 6    1  0.3017327E-006  0.3016726E+04  0.7818608E-02  0.8238971E-01
          2   -1    0    0  501    0  0.00000000000E+00  0.00000000000E+00  0.36463707019E+04  0.36463707019E+04  0.00000000000E+00 0. -1.
         -2   -1    0    0    0  501 -0.00000000000E+00 -0.00000000000E+00 -0.62395156419E+03  0.62395156419E+03  0.00000000000E+00 0.  1.
         23    2    1    2    0    0  0.12111866589E+04  0.52109337169E+03  0.47971251506E+03  0.14060826823E+04  0.91831299086E+02 0.  0.
         11    1    3    3    0    0  0.10603875449E+04  0.43014311592E+03  0.43666624587E+03  0.12247947811E+04  0.00000000000E+00 0. -1.
        -11    1    3    3    0    0  0.15079911406E+03  0.90950255772E+02  0.43046269188E+02  0.18128790119E+03  0.00000000000E+00 0.  1.
         22    1    1    2    0    0 -0.12111866589E+04 -0.52109337169E+03  0.25427066227E+04  0.28642395838E+04  0.00000000000E+00 0. -1.
<mgrwt>
<rscale>  0 0.30167258E+04</rscale>
<asrwt>0</asrwt>
<pdfrwt beam="1">  1        2 0.56098010E+00 0.30167258E+04</pdfrwt>
<pdfrwt beam="2">  1       -2 0.95992550E-01 0.30167258E+04</pdfrwt>
<totfact> 0.49648879E-01</totfact>
</mgrwt>
</event>
<event>
 6    1  0.3017327E-006  0.9173850E+03  0.7818608E-02  0.9404106E-01
         -2   -1    0    0    0  501 -0.00000000000E+00  0.00000000000E+00  0.30356863602E+03  0.30356863602E+03  0.00000000000E+00 0. -1.
          2   -1    0    0  501    0  0.00000000000E+00 -0.00000000000E+00 -0.69308486130E+03  0.69308486130E+03  0.00000000000E+00 0.  1.
         23    2    1    2    0    0 -0.44871571104E+03  0.44910878180E+02 -0.13847225263E+03  0.48052768658E+03  0.91485061629E+02 0.  0.
         13    1    3    3    0    0 -0.10209358215E+03  0.49051238153E+02 -0.27574560320E+02  0.11657392443E+03  0.00000000000E+00 0. -1.
        -13    1    3    3    0    0 -0.34662212889E+03 -0.41403599729E+01 -0.11089769231E+03  0.36395376214E+03  0.00000000000E+00 0.  1.
         22    1    1    2    0    0  0.44871571104E+03 -0.44910878180E+02 -0.25104397264E+03  0.51612581075E+03  0.00000000000E+00 0. -1.
<mgrwt>
<rscale>  0 0.91738504E+03</rscale>
<asrwt>0</asrwt>
<pdfrwt beam="1">  1        2 0.10662844E+00 0.91738504E+03</pdfrwt>
<pdfrwt beam="2">  1       -2 0.46702868E-01 0.91738504E+03</pdfrwt>
<totfact> 0.18073976E+02</totfact>
</mgrwt>
</event>
<event>
 6    1  0.3017327E-006  0.2821063E+04  0.7818608E-02  0.8296759E-01
         -2   -1    0    0    0  501 -0.00000000000E+00  0.00000000000E+00  0.11925817307E+04  0.11925817307E+04  0.00000000000E+00 0.  1.
          2   -1    0    0  501    0  0.00000000000E+00 -0.00000000000E+00 -0.16683125464E+04  0.16683125464E+04  0.00000000000E+00 0. -1.
         23    2    1    2    0    0 -0.39308614735E+03  0.10186008326E+04  0.66526367965E+03  0.12816752252E+04  0.89728723883E+02 0.  0.
         13    1    3    3    0    0 -0.20303783431E+03  0.63619938333E+03  0.38398025176E+03  0.77033424645E+03  0.00000000000E+00 0. -1.
        -13    1    3    3    0    0 -0.19004831304E+03  0.38240144927E+03  0.28128342790E+03  0.51134097870E+03  0.00000000000E+00 0.  1.
         22    1    1    2    0    0  0.39308614735E+03 -0.10186008326E+04 -0.11409944953E+04  0.15792190519E+04  0.00000000000E+00 0. -1.
<mgrwt>
<rscale>  0 0.28210630E+04</rscale>
<asrwt>0</asrwt>
<pdfrwt beam="1">  1        2 0.25666347E+00 0.28210630E+04</pdfrwt>
<pdfrwt beam="2">  1       -2 0.18347411E+00 0.28210630E+04</pdfrwt>
<totfact> 0.15228747E+00</totfact>
</mgrwt>
</event>
<event>
 6    1  0.3017327E-006  0.2942938E+04  0.7818608E-02  0.8260216E-01
         -2   -1    0    0    0  501 -0.00000000000E+00  0.00000000000E+00  0.22236581301E+04  0.22236581301E+04  0.00000000000E+00 0.  1.
          2   -1    0    0  501    0  0.00000000000E+00 -0.00000000000E+00 -0.97372040476E+03  0.97372040476E+03  0.00000000000E+00 0. -1.
         23    2    1    2    0    0 -0.11213394930E+04  0.57051588889E+03 -0.20055463833E+03  0.12772694923E+04  0.91129331030E+02 0.  0.
         11    1    3    3    0    0 -0.30637757062E+03  0.11653233521E+03 -0.71593839438E+02  0.33551852225E+03  0.00000000000E+00 0. -1.
        -11    1    3    3    0    0 -0.81496192241E+03  0.45398355369E+03 -0.12896079889E+03  0.94175097008E+03  0.00000000000E+00 0.  1.
         22    1    1    2    0    0  0.11213394930E+04 -0.57051588889E+03  0.14504923636E+04  0.19201090425E+04  0.00000000000E+00 0.  1.
<mgrwt>
<rscale>  0 0.29429382E+04</rscale>
<asrwt>0</asrwt>
<pdfrwt beam="1">  1        2 0.14980314E+00 0.29429382E+04</pdfrwt>
<pdfrwt beam="2">  1       -2 0.34210125E+00 0.29429382E+04</pdfrwt>
<totfact> 0.39291768E-01</totfact>
</mgrwt>
</event>
<event>
 6    1  0.3017327E-006  0.5852356E+04  0.7818608E-02  0.7708982E-01
         -2   -1    0    0    0  501 -0.00000000000E+00  0.00000000000E+00  0.39023603061E+04  0.39023603061E+04  0.00000000000E+00 0.  1.
          2   -1    0    0  501    0  0.00000000000E+00 -0.00000000000E+00 -0.21941896124E+04  0.21941896124E+04  0.00000000000E+00 0. -1.
         23    2    1    2    0    0 -0.99518911359E+03  0.23128124068E+04  0.24061045127E+04  0.34837708968E+04  0.88420215491E+02 0.  0.
         11    1    3    3    0    0 -0.66762829009E+03  0.14701125974E+04  0.15804167664E+04  0.22593529468E+04  0.00000000000E+00 0.  1.
        -11    1    3    3    0    0 -0.32756082351E+03  0.84269980942E+03  0.82568774627E+03  0.12244179500E+04  0.00000000000E+00 0. -1.
         22    1    1    2    0    0  0.99518911359E+03 -0.23128124068E+04 -0.69793381895E+03  0.26127790217E+04  0.00000000000E+00 0.  1.
<mgrwt>
<rscale>  0 0.58523563E+04</rscale>
<asrwt>0</asrwt>
<pdfrwt beam="1">  1        2 0.33756763E+00 0.58523563E+04</pdfrwt>
<pdfrwt beam="2">  1       -2 0.60036312E+00 0.58523563E+04</pdfrwt>
<totfact> 0.18276989E-03</totfact>
</mgrwt>
</event>
<event>
 6    1  0.3017327E-006  0.2010941E+04  0.7818608E-02  0.8601522E-01
         -1   -1    0    0    0  501 -0.00000000000E+00  0.00000000000E+00  0.17836964321E+04  0.17836964321E+04  0.00000000000E+00 0.  1.
          1   -1    0    0  501    0  0.00000000000E+00 -0.00000000000E+00 -0.56678411364E+03  0.56678411364E+03  0.00000000000E+00 0. -1.
         23    2    1    2    0    0 -0.12856810608E+03  0.64431639592E+02  0.17704698446E+04  0.17785477448E+04  0.89372344353E+02 0.  0.
         13    1    3    3    0    0 -0.38373371237E+02  0.68852417328E+02  0.78311253918E+03  0.78706951409E+03  0.00000000000E+00 0.  1.
        -13    1    3    3    0    0 -0.90194734847E+02 -0.44207777365E+01  0.98735730539E+03  0.99147823072E+03  0.00000000000E+00 0. -1.
         22    1    1    2    0    0  0.12856810608E+03 -0.64431639592E+02 -0.55355752611E+03  0.57193280094E+03  0.00000000000E+00 0. -1.
<mgrwt>
<rscale>  0 0.20109409E+04</rscale>
<asrwt>0</asrwt>
<pdfrwt beam="1">  1        1 0.87197557E-01 0.20109409E+04</pdfrwt>
<pdfrwt beam="2">  1       -1 0.27441483E+00 0.20109409E+04</pdfrwt>
<totfact> 0.16667741E+00</totfact>
</mgrwt>
</event>
<event>
 6    1  0.3017327E-006  0.1758641E+04  0.7818608E-02  0.8728608E-01
         -2   -1    0    0    0  501 -0.00000000000E+00  0.00000000000E+00  0.64812882902E+03  0.64812882902E+03  0.00000000000E+00 0. -1.
          2   -1    0    0  501    0  0.00000000000E+00 -0.00000000000E+00 -0.11929794328E+04  0.11929794328E+04  0.00000000000E+00 0.  1.
         23    2    1    2    0    0  0.76477288212E+03  0.12411882208E+03 -0.70352486570E+03  0.10502476138E+04  0.88259676208E+02 0.  0.
         11    1    3    3    0    0  0.58411412674E+03  0.13243450665E+03 -0.53966633708E+03  0.80620590855E+03  0.00000000000E+00 0.  1.
        -11    1    3    3    0    0  0.18065875538E+03 -0.83156845708E+01 -0.16385852862E+03  0.24404170526E+03  0.00000000000E+00 0. -1.
         22    1    1    2    0    0 -0.76477288212E+03 -0.12411882208E+03  0.15867426190E+03  0.79086064803E+03  0.00000000000E+00 0. -1.
<mgrwt>
<rscale>  0 0.17586408E+04</rscale>
<asrwt>0</asrwt>
<pdfrwt beam="1">  1        2 0.18353530E+00 0.17586408E+04</pdfrwt>
<pdfrwt beam="2">  1       -2 0.99712128E-01 0.17586408E+04</pdfrwt>
<totfact> 0.15068303E+01</totfact>
</mgrwt>
</event>
<event>
 6    1  0.3017327E-006  0.3284348E+04  0.7818608E-02  0.8166889E-01
          2   -1    0    0  501    0  0.00000000000E+00  0.00000000000E+00  0.11359631977E+04  0.11359631977E+04  0.00000000000E+00 0. -1.
         -2   -1    0    0    0  501 -0.00000000000E+00 -0.00000000000E+00 -0.23739643588E+04  0.23739643588E+04  0.00000000000E+00 0.  1.
         23    2    1    2    0    0  0.12395784325E+04 -0.64486460234E+02 -0.17664342952E+04  0.21608705632E+04  0.91423617520E+02 0.  0.
         11    1    3    3    0    0  0.31191395479E+03 -0.20128644125E+02 -0.51576282486E+03  0.60308106338E+03  0.00000000000E+00 0.  1.
        -11    1    3    3    0    0  0.92766447773E+03 -0.44357816109E+02 -0.12506714703E+04  0.15577894998E+04  0.00000000000E+00 0. -1.
         22    1    1    2    0    0 -0.12395784325E+04  0.64486460234E+02  0.52843313414E+03  0.13490569933E+04  0.00000000000E+00 0. -1.
<mgrwt>
<rscale>  0 0.32843484E+04</rscale>
<asrwt>0</asrwt>
<pdfrwt beam="1">  1        2 0.17476357E+00 0.32843484E+04</pdfrwt>
<pdfrwt beam="2">  1       -2 0.36522529E+00 0.32843484E+04</pdfrwt>
<totfact> 0.21555474E-01</totfact>
</mgrwt>
</event>
<event>
 6    1  0.3017327E-006  0.2453651E+04  0.7818608E-02  0.8419686E-01
         -2   -1    0    0    0  501 -0.00000000000E+00  0.00000000000E+00  0.15272511395E+04  0.15272511395E+04  0.00000000000E+00 0. -1.
          2   -1    0    0  501    0  0.00000000000E+00 -0.00000000000E+00 -0.98549699119E+03  0.98549699119E+03  0.00000000000E+00 0.  1.
         23    2    1    2    0    0 -0.10309217423E+04  0.65877721051E+03  0.20674722798E+03  0.12442779149E+04  0.93252675105E+02 0.  0.
         13    1    3    3    0    0 -0.23698140511E+03  0.19342599263E+03  0.32021428971E+02  0.30756978542E+03  0.00000000000E+00 0.  1.
        -13    1    3    3    0    0 -0.79394033715E+03  0.46535121788E+03  0.17472579901E+03  0.93670812945E+03  0.00000000000E+00 0. -1.
         22    1    1    2    0    0  0.10309217423E+04 -0.65877721051E+03  0.33500692035E+03  0.12684702158E+04  0.00000000000E+00 0. -1.
<mgrwt>
<rscale>  0 0.24536515E+04</rscale>
<asrwt>0</asrwt>
<pdfrwt beam="1">  1        2 0.15161492E+00 0.24536515E+04</pdfrwt>
<pdfrwt beam="2">  1       -2 0.23496172E+00 0.24536515E+04</pdfrwt>
<totfact> 0.18341098E+00</totfact>
</mgrwt>
</event>
<event>
 6    1  0.3017327E-006  0.2272568E+04  0.7818608E-02  0.8488816E-01
          2   -1    0    0  501    0  0.00000000000E+00  0.00000000000E+00  0.73614765637E+03  0.73614765637E+03  0.00000000000E+00 0. -1.
         -2   -1    0    0    0  501 -0.00000000000E+00 -0.00000000000E+00 -0.17539165384E+04  0.17539165384E+04  0.00000000000E+00 0.  1.
         23    2    1    2    0    0  0.90197654246E+03  0.61345853046E+03 -0.85088386347E+03  0.13865499623E+04  0.92867632612E+02 0.  0.
         11    1    3    3    0    0  0.71800112637E+03  0.52179009882E+03 -0.71980118669E+03  0.11427616869E+04  0.00000000000E+00 0. -1.
        -11    1    3    3    0    0  0.18397541609E+03  0.91668431642E+02 -0.13108267678E+03  0.24378827543E+03  0.00000000000E+00 0.  1.
         22    1    1    2    0    0 -0.90197654246E+03 -0.61345853046E+03 -0.16688501854E+03  0.11035142324E+04  0.00000000000E+00 0. -1.
<mgrwt>
<rscale>  0 0.22725682E+04</rscale>
<asrwt>0</asrwt>
<pdfrwt beam="1">  1        2 0.11325349E+00 0.22725682E+04</pdfrwt>
<pdfrwt beam="2">  1       -2 0.26983331E+00 0.22725682E+04</pdfrwt>
<totfact> 0.16958164E+00</totfact>
</mgrwt>
</event>
<event>
 6    1  0.3017327E-006  0.1817934E+04  0.7818608E-02  0.8696820E-01
          1   -1    0    0  501    0  0.00000000000E+00  0.00000000000E+00  0.10386298122E+04  0.10386298122E+04  0.00000000000E+00 0. -1.
         -1   -1    0    0    0  501 -0.00000000000E+00 -0.00000000000E+00 -0.79549127868E+03  0.79549127868E+03  0.00000000000E+00 0.  1.
         23    2    1    2    0    0 -0.35031032526E+02 -0.89066854602E+03  0.28934847806E+03  0.94156689583E+03  0.91148480361E+02 0.  0.
         13    1    3    3    0    0 -0.31928779006E+02 -0.76158687777E+03  0.28019945250E+03  0.81212422234E+03  0.00000000000E+00 0. -1.
        -13    1    3    3    0    0 -0.31022535206E+01 -0.12908166824E+03  0.91490255590E+01  0.12944267350E+03  0.00000000000E+00 0.  1.
         22    1    1    2    0    0  0.35031032526E+02  0.89066854602E+03 -0.46209944557E+02  0.89255419504E+03  0.00000000000E+00 0.  1.
<mgrwt>
<rscale>  0 0.18179339E+04</rscale>
<asrwt>0</asrwt>
<pdfrwt beam="1">  1        1 0.15978920E+00 0.18179339E+04</pdfrwt>
<pdfrwt beam="2">  1       -1 0.12238327E+00 0.18179339E+04</pdfrwt>
<totfact> 0.78480792E+00</totfact>
</mgrwt>
</event>
<event>
 6    1  0.3017327E-006  0.1537511E+04  0.7818608E-02  0.8859885E-01
         -2   -1    0    0    0  501 -0.00000000000E+00  0.00000000000E+00  0.26934810584E+03  0.26934810584E+03  0.00000000000E+00 0.  1.
          2   -1    0    0  501    0  0.00000000000E+00 -0.00000000000E+00 -0.21941298201E+04  0.21941298201E+04  0.00000000000E+00 0. -1.
         23    2    1    2    0    0  0.60491334436E+03  0.47024453496E+03 -0.10036600789E+04  0.12653480732E+04  0.81988508889E+02 0.  0.
         13    1    3    3    0    0  0.42464584629E+03  0.28251474040E+03 -0.64885063982E+03  0.82531559183E+03  0.00000000000E+00 0.  1.
        -13    1    3    3    0    0  0.18026749807E+03  0.18772979456E+03 -0.35480943905E+03  0.44003248137E+03  0.00000000000E+00 0. -1.
         22    1    1    2    0    0 -0.60491334436E+03 -0.47024453496E+03 -0.92112163538E+03  0.11981298527E+04  0.00000000000E+00 0. -1.
<mgrwt>
<rscale>  0 0.15375106E+04</rscale>
<asrwt>0</asrwt>
<pdfrwt beam="1">  1        2 0.33755843E+00 0.15375106E+04</pdfrwt>
<pdfrwt beam="2">  1       -2 0.41438170E-01 0.15375106E+04</pdfrwt>
<totfact> 0.27685181E+01</totfact>
</mgrwt>
</event>
<event>
 6    1  0.3017327E-006  0.5639955E+04  0.7818608E-02  0.7736720E-01
         -2   -1    0    0    0  501 -0.00000000000E+00  0.00000000000E+00  0.33845566673E+04  0.33845566673E+04  0.00000000000E+00 0.  1.
          2   -1    0    0  501    0  0.00000000000E+00 -0.00000000000E+00 -0.23495758372E+04  0.23495758372E+04  0.00000000000E+00 0. -1.
         23    2    1    2    0    0 -0.31198619609E+00  0.27055262613E+04 -0.28814089286E+03  0.27224015169E+04  0.92587240911E+02 0.  0.
         13    1    3    3    0    0  0.74845056857E+00  0.16322170704E+04 -0.12825535195E+03  0.16372484724E+04  0.00000000000E+00 0. -1.
        -13    1    3    3    0    0 -0.10604367647E+01  0.10733091909E+04 -0.15988554090E+03  0.10851530445E+04  0.00000000000E+00 0.  1.
         22    1    1    2    0    0  0.31198619609E+00 -0.27055262613E+04  0.13231217229E+04  0.30117309876E+04  0.00000000000E+00 0.  1.
<mgrwt>
<rscale>  0 0.56399548E+04</rscale>
<asrwt>0</asrwt>
<pdfrwt beam="1">  1        2 0.36147320E+00 0.56399548E+04</pdfrwt>
<pdfrwt beam="2">  1       -2 0.52070103E+00 0.56399548E+04</pdfrwt>
<totfact> 0.36851702E-03</totfact>
</mgrwt>
</event>
<event>
 6    1  0.3017327E-006  0.2778310E+04  0.7818608E-02  0.8310034E-01
         -2   -1    0    0    0  501 -0.00000000000E+00  0.00000000000E+00  0.30548591346E+04  0.30548591346E+04  0.00000000000E+00 0.  1.
          2   -1    0    0  501    0  0.00000000000E+00 -0.00000000000E+00 -0.63169904177E+03  0.63169904177E+03  0.00000000000E+00 0. -1.
         23    2    1    2    0    0  0.11540303000E+04 -0.74004968786E+03  0.14974379296E+04  0.20323450712E+04  0.92987426598E+02 0.  0.
         11    1    3    3    0    0  0.71806793583E+03 -0.51328486284E+03  0.96649727915E+03  0.13088926241E+04  0.00000000000E+00 0. -1.
        -11    1    3    3    0    0  0.43596236419E+03 -0.22676482502E+03  0.53094065041E+03  0.72345244703E+03  0.00000000000E+00 0.  1.
         22    1    1    2    0    0 -0.11540303000E+04  0.74004968786E+03  0.92572216323E+03  0.16542131052E+04  0.00000000000E+00 0.  1.
<mgrwt>
<rscale>  0 0.27783100E+04</rscale>
<asrwt>0</asrwt>
<pdfrwt beam="1">  1        2 0.97184470E-01 0.27783100E+04</pdfrwt>
<pdfrwt beam="2">  1       -2 0.46997832E+00 0.27783100E+04</pdfrwt>
<totfact> 0.10391528E-01</totfact>
</mgrwt>
</event>
<event>
 6    1  0.3017327E-006  0.3368915E+04  0.7818608E-02  0.8145578E-01
          2   -1    0    0  501    0  0.00000000000E+00  0.00000000000E+00  0.49414169080E+04  0.49414169080E+04  0.00000000000E+00 0. -1.
         -2   -1    0    0    0  501 -0.00000000000E+00 -0.00000000000E+00 -0.57420723702E+03  0.57420723702E+03  0.00000000000E+00 0.  1.
         23    2    1    2    0    0  0.62937367558E+02  0.15715381409E+04  0.31667632050E+04  0.35370476470E+04  0.92863450832E+02 0.  0.
         11    1    3    3    0    0  0.35570775333E+01  0.94933588640E+03  0.18425234135E+04  0.20727141162E+04  0.00000000000E+00 0.  1.
        -11    1    3    3    0    0  0.59380290024E+02  0.62220225449E+03  0.13242397915E+04  0.14643335309E+04  0.00000000000E+00 0. -1.
         22    1    1    2    0    0 -0.62937367558E+02 -0.15715381409E+04  0.12004464660E+04  0.19785764979E+04  0.00000000000E+00 0.  1.
<mgrwt>
<rscale>  0 0.33689152E+04</rscale>
<asrwt>0</asrwt>
<pdfrwt beam="1">  1        2 0.76021796E+00 0.33689152E+04</pdfrwt>
<pdfrwt beam="2">  1       -2 0.88339578E-01 0.33689152E+04</pdfrwt>
<totfact> 0.36987808E-02</totfact>
</mgrwt>
</event>
<event>
 6    1  0.3017327E-006  0.3718926E+04  0.7818608E-02  0.8063780E-01
         -1   -1    0    0    0  501 -0.00000000000E+00  0.00000000000E+00  0.13593457565E+04  0.13593457565E+04  0.00000000000E+00 0.  1.
          1   -1    0    0  501    0  0.00000000000E+00 -0.00000000000E+00 -0.25435791783E+04  0.25435791783E+04  0.00000000000E+00 0. -1.
         23    2    1    2    0    0 -0.84489273599E+03 -0.95668483717E+03  0.82505262622E+03  0.15225216001E+04  0.90942694260E+02 0.  0.
         13    1    3    3    0    0 -0.56213052025E+03 -0.69935650533E+03  0.57923036270E+03  0.10679878541E+04  0.00000000000E+00 0.  1.
        -13    1    3    3    0    0 -0.28276221575E+03 -0.25732833184E+03  0.24582226352E+03  0.45453374601E+03  0.00000000000E+00 0. -1.
         22    1    1    2    0    0  0.84489273599E+03  0.95668483717E+03 -0.20092860481E+04  0.23804033347E+04  0.00000000000E+00 0. -1.
<mgrwt>
<rscale>  0 0.37189265E+04</rscale>
<asrwt>0</asrwt>
<pdfrwt beam="1">  1        1 0.39131987E+00 0.37189265E+04</pdfrwt>
<pdfrwt beam="2">  1       -1 0.20913012E+00 0.37189265E+04</pdfrwt>
<totfact> 0.13188174E-01</totfact>
</mgrwt>
</event>
<event>
 6    1  0.3017327E-006  0.2887396E+04  0.7818608E-02  0.8276637E-01
          2   -1    0    0  501    0  0.00000000000E+00  0.00000000000E+00  0.16155114930E+04  0.16155114930E+04  0.00000000000E+00 0. -1.
         -2   -1    0    0    0  501 -0.00000000000E+00 -0.00000000000E+00 -0.12901576784E+04  0.12901576784E+04  0.00000000000E+00 0.  1.
         23    2    1    2    0    0  0.44686393669E+03  0.60404391365E+03 -0.10760192925E+04  0.13155738872E+04  0.91436903980E+02 0.  0.
         11    1    3    3    0    0  0.96786305626E+02  0.10055891704E+03 -0.25657744221E+03  0.29208161292E+03  0.00000000000E+00 0.  1.
        -11    1    3    3    0    0  0.35007763107E+03  0.50348499660E+03 -0.81944185030E+03  0.10234922743E+04  0.00000000000E+00 0. -1.
         22    1    1    2    0    0 -0.44686393669E+03 -0.60404391365E+03  0.14013731071E+04  0.15900952842E+04  0.00000000000E+00 0. -1.
<mgrwt>
<rscale>  0 0.28873964E+04</rscale>
<asrwt>0</asrwt>
<pdfrwt beam="1">  1        2 0.24854023E+00 0.28873964E+04</pdfrwt>
<pdfrwt beam="2">  1       -2 0.19848580E+00 0.28873964E+04</pdfrwt>
<totfact> 0.12853795E+00</totfact>
</mgrwt>
</event>
<event>
 6    1  0.3017327E-006  0.1845705E+04  0.7818608E-02  0.8682365E-01
          2   -1    0    0  501    0  0.00000000000E+00  0.00000000000E+00  0.14562987528E+04  0.14562987528E+04  0.00000000000E+00 0. -1.
         -2   -1    0    0    0  501 -0.00000000000E+00 -0.00000000000E+00 -0.58480912301E+03  0.58480912301E+03  0.00000000000E+00 0.  1.
         23    2    1    2    0    0 -0.13830587660E+03 -0.79417284407E+03 -0.54673346885E+02  0.81325736330E+03  0.92516713791E+02 0.  0.
         13    1    3    3    0    0 -0.11947981110E+03 -0.61525101165E+03 -0.79024568617E+02  0.63170730171E+03  0.00000000000E+00 0.  1.
        -13    1    3    3    0    0 -0.18826065504E+02 -0.17892183243E+03  0.24351221732E+02  0.18155006158E+03  0.00000000000E+00 0. -1.
         22    1    1    2    0    0  0.13830587660E+03  0.79417284407E+03  0.92616297671E+03  0.12278505126E+04  0.00000000000E+00 0. -1.
<mgrwt>
<rscale>  0 0.18457051E+04</rscale>
<asrwt>0</asrwt>
<pdfrwt beam="1">  1        2 0.22404596E+00 0.18457051E+04</pdfrwt>
<pdfrwt beam="2">  1       -2 0.89970635E-01 0.18457051E+04</pdfrwt>
<totfact> 0.13369995E+01</totfact>
</mgrwt>
</event>
<event>
 6    1  0.3017327E-006  0.4295177E+04  0.7818608E-02  0.7947510E-01
          2   -1    0    0  501    0  0.00000000000E+00  0.00000000000E+00  0.19385288856E+04  0.19385288856E+04  0.00000000000E+00 0. -1.
         -2   -1    0    0    0  501 -0.00000000000E+00 -0.00000000000E+00 -0.23791945619E+04  0.23791945619E+04  0.00000000000E+00 0.  1.
         23    2    1    2    0    0  0.19669246692E+04  0.85075178185E+03 -0.34722032418E+03  0.21726585808E+04  0.85510855819E+02 0.  0.
         11    1    3    3    0    0  0.64206926343E+03  0.32080127327E+03 -0.10810965946E+03  0.72584715639E+03  0.00000000000E+00 0. -1.
        -11    1    3    3    0    0  0.13248554058E+04  0.52995050857E+03 -0.23911066473E+03  0.14468114244E+04  0.00000000000E+00 0.  1.
         22    1    1    2    0    0 -0.19669246692E+04 -0.85075178185E+03 -0.93445352192E+02  0.21450648667E+04  0.00000000000E+00 0.  1.
<mgrwt>
<rscale>  0 0.42951775E+04</rscale>
<asrwt>0</asrwt>
<pdfrwt beam="1">  1        2 0.29823521E+00 0.42951775E+04</pdfrwt>
<pdfrwt beam="2">  1       -2 0.36602993E+00 0.42951775E+04</pdfrwt>
<totfact> 0.68527863E-02</totfact>
</mgrwt>
</event>
<event>
 6    1  0.3017327E-006  0.1964599E+04  0.7818608E-02  0.8623353E-01
         -2   -1    0    0    0  501 -0.00000000000E+00  0.00000000000E+00  0.48337390764E+03  0.48337390764E+03  0.00000000000E+00 0.  1.
          2   -1    0    0  501    0  0.00000000000E+00 -0.00000000000E+00 -0.19962032096E+04  0.19962032096E+04  0.00000000000E+00 0. -1.
         23    2    1    2    0    0 -0.88292106461E+03 -0.14808533533E+03 -0.25423447963E+03  0.93505783938E+03  0.90659359647E+02 0.  0.
         13    1    3    3    0    0 -0.78683143032E+03 -0.13185325930E+03 -0.25512623277E+03  0.83760275571E+03  0.00000000000E+00 0.  1.
        -13    1    3    3    0    0 -0.96089634293E+02 -0.16232076027E+02  0.89175314135E+00  0.97455083676E+02  0.00000000000E+00 0. -1.
         22    1    1    2    0    0  0.88292106461E+03  0.14808533533E+03 -0.12585948223E+04  0.15445192778E+04  0.00000000000E+00 0. -1.
<mgrwt>
<rscale>  0 0.19645992E+04</rscale>
<asrwt>0</asrwt>
<pdfrwt beam="1">  1        2 0.30710819E+00 0.19645992E+04</pdfrwt>
<pdfrwt beam="2">  1       -2 0.74365216E-01 0.19645992E+04</pdfrwt>
<totfact> 0.10177894E+01</totfact>
</mgrwt>
</event>
<event>
 6    1  0.3017327E-006  0.9482345E+03  0.7818608E-02  0.9367217E-01
         -2   -1    0    0    0  501 -0.00000000000E+00  0.00000000000E+00  0.19138173575E+03  0.19138173575E+03  0.00000000000E+00 0.  1.
          2   -1    0    0  501    0  0.00000000000E+00 -0.00000000000E+00 -0.11745485803E+04  0.11745485803E+04  0.00000000000E+00 0. -1.
         23    2    1    2    0    0  0.50054801700E+02 -0.24547126329E+03  0.76555681144E+02  0.27699806115E+03  0.90030713058E+02 0.  0.
         11    1    3    3    0    0  0.43287179562E+02 -0.77562415990E+02 -0.74301907047E+01  0.89134258411E+02  0.00000000000E+00 0. -1.
        -11    1    3    3    0    0  0.67676221375E+01 -0.16790884730E+03  0.83985871849E+02  0.18786380274E+03  0.00000000000E+00 0.  1.
         22    1    1    2    0    0 -0.50054801700E+02  0.24547126329E+03 -0.10597225257E+04  0.10889322548E+04  0.00000000000E+00 0. -1.
<mgrwt>
<rscale>  0 0.94823446E+03</rscale>
<asrwt>0</asrwt>
<pdfrwt beam="1">  1        2 0.18069978E+00 0.94823446E+03</pdfrwt>
<pdfrwt beam="2">  1       -2 0.29443344E-01 0.94823446E+03</pdfrwt>
<totfact> 0.20817665E+02</totfact>
</mgrwt>
</event>
<event>
 6    1  0.3017327E-006  0.4581078E+04  0.7818608E-02  0.7896594E-01
          2   -1    0    0  501    0  0.00000000000E+00  0.00000000000E+00  0.24363528217E+04  0.24363528217E+04  0.00000000000E+00 0. -1.
         -2   -1    0    0    0  501 -0.00000000000E+00 -0.00000000000E+00 -0.21534518846E+04  0.21534518846E+04  0.00000000000E+00 0.  1.
         23    2    1    2    0    0  0.10828663653E+04 -0.63024277534E+03  0.20615525953E+04  0.24141652045E+04  0.91591541161E+02 0.  0.
         13    1    3    3    0    0  0.12140253372E+03 -0.64558181763E+02  0.17606526780E+03  0.22339496984E+03  0.00000000000E+00 0. -1.
        -13    1    3    3    0    0  0.96146383160E+03 -0.56568459358E+03  0.18854873275E+04  0.21907702346E+04  0.00000000000E+00 0.  1.
         22    1    1    2    0    0 -0.10828663653E+04  0.63024277534E+03 -0.17786516581E+04  0.21756395018E+04  0.00000000000E+00 0.  1.
<mgrwt>
<rscale>  0 0.45810779E+04</rscale>
<asrwt>0</asrwt>
<pdfrwt beam="1">  1        2 0.37482351E+00 0.45810779E+04</pdfrwt>
<pdfrwt beam="2">  1       -2 0.33130029E+00 0.45810779E+04</pdfrwt>
<totfact> 0.58113354E-02</totfact>
</mgrwt>
</event>
<event>
 6    1  0.3017327E-006  0.3860279E+04  0.7818608E-02  0.8033341E-01
          2   -1    0    0  501    0  0.00000000000E+00  0.00000000000E+00  0.24108446786E+04  0.24108446786E+04  0.00000000000E+00 0. -1.
         -2   -1    0    0    0  501 -0.00000000000E+00 -0.00000000000E+00 -0.15452836893E+04  0.15452836893E+04  0.00000000000E+00 0.  1.
         23    2    1    2    0    0 -0.16720822829E+04 -0.80975589805E+03  0.96535482611E+03  0.20956116158E+04  0.90079568339E+02 0.  0.
         11    1    3    3    0    0 -0.22884029573E+03 -0.98697271513E+02  0.97836458272E+02  0.26773308522E+03  0.00000000000E+00 0.  1.
        -11    1    3    3    0    0 -0.14432419872E+04 -0.71105862654E+03  0.86751836784E+03  0.18278785305E+04  0.00000000000E+00 0. -1.
         22    1    1    2    0    0  0.16720822829E+04  0.80975589805E+03 -0.99793836774E+02  0.18605167521E+04  0.00000000000E+00 0.  1.
<mgrwt>
<rscale>  0 0.38602792E+04</rscale>
<asrwt>0</asrwt>
<pdfrwt beam="1">  1        2 0.37089918E+00 0.38602792E+04</pdfrwt>
<pdfrwt beam="2">  1       -2 0.23773595E+00 0.38602792E+04</pdfrwt>
<totfact> 0.23923644E-01</totfact>
</mgrwt>
</event>
<event>
 6    1  0.3017327E-006  0.1745957E+04  0.7818608E-02  0.8735579E-01
         -2   -1    0    0    0  501 -0.00000000000E+00  0.00000000000E+00  0.97710469868E+03  0.97710469868E+03  0.00000000000E+00 0.  1.
          2   -1    0    0  501    0  0.00000000000E+00 -0.00000000000E+00 -0.77994888828E+03  0.77994888828E+03  0.00000000000E+00 0. -1.
         23    2    1    2    0    0  0.72535146624E+03 -0.21144477790E+03  0.53419168097E+03  0.92974661749E+03  0.90688351264E+02 0.  0.
         11    1    3    3    0    0  0.18662040728E+03 -0.13847998595E+02  0.13299285699E+03  0.22957796821E+03  0.00000000000E+00 0. -1.
        -11    1    3    3    0    0  0.53873105896E+03 -0.19759677930E+03  0.40119882398E+03  0.70016864928E+03  0.00000000000E+00 0.  1.
         22    1    1    2    0    0 -0.72535146624E+03  0.21144477790E+03 -0.33703587057E+03  0.82730696946E+03  0.00000000000E+00 0. -1.
<mgrwt>
<rscale>  0 0.17459573E+04</rscale>
<asrwt>0</asrwt>
<pdfrwt beam="1">  1        2 0.11999214E+00 0.17459573E+04</pdfrwt>
<pdfrwt beam="2">  1       -2 0.15032380E+00 0.17459573E+04</pdfrwt>
<totfact> 0.10058296E+01</totfact>
</mgrwt>
</event>
<event>
 6    1  0.3017327E-006  0.2355114E+04  0.7818608E-02  0.8456502E-01
          2   -1    0    0  501    0  0.00000000000E+00  0.00000000000E+00  0.14951596308E+04  0.14951596308E+04  0.00000000000E+00 0. -1.
         -2   -1    0    0    0  501 -0.00000000000E+00 -0.00000000000E+00 -0.92741962329E+03  0.92741962329E+03  0.00000000000E+00 0.  1.
         23    2    1    2    0    0  0.90889978140E+03 -0.44895821041E+03 -0.32694574137E+03  0.10704975714E+04  0.10681406865E+03 0.  0.
         13    1    3    3    0    0  0.35340115565E+03 -0.22719385117E+03 -0.15931759487E+03  0.44932340119E+03  0.00000000000E+00 0.  1.
        -13    1    3    3    0    0  0.55549862575E+03 -0.22176435924E+03 -0.16762814650E+03  0.62117417021E+03  0.00000000000E+00 0. -1.
         22    1    1    2    0    0 -0.90889978140E+03  0.44895821041E+03  0.89468574885E+03  0.13520816826E+04  0.00000000000E+00 0. -1.
<mgrwt>
<rscale>  0 0.23551139E+04</rscale>
<asrwt>0</asrwt>
<pdfrwt beam="1">  1        2 0.23002456E+00 0.23551139E+04</pdfrwt>
<pdfrwt beam="2">  1       -2 0.14267994E+00 0.23551139E+04</pdfrwt>
<totfact> 0.39416836E+00</totfact>
</mgrwt>
</event>
<event>
 6    1  0.3017327E-006  0.4088329E+04  0.7818608E-02  0.7986961E-01
         -2   -1    0    0    0  501 -0.00000000000E+00  0.00000000000E+00  0.10316818427E+04  0.10316818427E+04  0.00000000000E+00 0.  1.
          2   -1    0    0  501    0  0.00000000000E+00 -0.00000000000E+00 -0.40502871333E+04  0.40502871333E+04  0.00000000000E+00 0. -1.
         23    2    1    2    0    0 -0.16445167683E+04 -0.20859871627E+02 -0.30169492596E+04  0.34373190809E+04  0.91154226507E+02 0.  0.
         11    1    3    3    0    0 -0.27201921362E+03 -0.36913725594E+02 -0.49114545084E+03  0.56265524933E+03  0.00000000000E+00 0.  1.
        -11    1    3    3    0    0 -0.13724975547E+04  0.16053853967E+02 -0.25258038088E+04  0.28746638315E+04  0.00000000000E+00 0. -1.
         22    1    1    2    0    0  0.16445167683E+04  0.20859871627E+02 -0.16560309517E+01  0.16446498952E+04  0.00000000000E+00 0.  1.
<mgrwt>
<rscale>  0 0.40883286E+04</rscale>
<asrwt>0</asrwt>
<pdfrwt beam="1">  1        2 0.62312109E+00 0.40883286E+04</pdfrwt>
<pdfrwt beam="2">  1       -2 0.15872028E+00 0.40883286E+04</pdfrwt>
<totfact> 0.62511408E-02</totfact>
</mgrwt>
</event>
<event>
 6    1  0.3017327E-006  0.1319946E+04  0.7818608E-02  0.9013896E-01
         -2   -1    0    0    0  501 -0.00000000000E+00  0.00000000000E+00  0.17728336965E+03  0.17728336965E+03  0.00000000000E+00 0.  1.
          2   -1    0    0  501    0  0.00000000000E+00 -0.00000000000E+00 -0.24568809932E+04  0.24568809932E+04  0.00000000000E+00 0. -1.
         23    2    1    2    0    0 -0.53994349080E+03 -0.28728480963E+03 -0.66407498796E+03  0.90674289685E+03  0.84353756540E+02 0.  0.
         11    1    3    3    0    0 -0.21519585558E+03 -0.75797091650E+02 -0.27911440769E+03  0.36049869340E+03  0.00000000000E+00 0.  1.
        -11    1    3    3    0    0 -0.32474763522E+03 -0.21148771798E+03 -0.38496058027E+03  0.54624420345E+03  0.00000000000E+00 0. -1.
         22    1    1    2    0    0  0.53994349080E+03  0.28728480963E+03 -0.16155226356E+04  0.17274214660E+04  0.00000000000E+00 0.  1.
<mgrwt>
<rscale>  0 0.13199457E+04</rscale>
<asrwt>0</asrwt>
<pdfrwt beam="1">  1        2 0.37798168E+00 0.13199457E+04</pdfrwt>
<pdfrwt beam="2">  1       -2 0.27274365E-01 0.13199457E+04</pdfrwt>
<totfact> 0.44338494E+01</totfact>
</mgrwt>
</event>
<event>
 6    1  0.3017327E-006  0.1740884E+04  0.7818608E-02  0.8738384E-01
          2   -1    0    0  501    0  0.00000000000E+00  0.00000000000E+00  0.24317941002E+04  0.24317941002E+04  0.00000000000E+00 0. -1.
         -2   -1    0    0    0  501 -0.00000000000E+00 -0.00000000000E+00 -0.31156787441E+03  0.31156787441E+03  0.00000000000E+00 0.  1.
         23    2    1    2    0    0  0.63160461092E+03 -0.52725535517E+03  0.14992888922E+04  0.17125924726E+04  0.90461045236E+02 0.  0.
         11    1    3    3    0    0  0.25973675590E+03 -0.17874165661E+03  0.64212838690E+03  0.71536048775E+03  0.00000000000E+00 0. -1.
        -11    1    3    3    0    0  0.37186785502E+03 -0.34851369856E+03  0.85716050533E+03  0.99723198483E+03  0.00000000000E+00 0.  1.
         22    1    1    2    0    0 -0.63160461092E+03  0.52725535517E+03  0.62093733356E+03  0.10307695020E+04  0.00000000000E+00 0. -1.
<mgrwt>
<rscale>  0 0.17408836E+04</rscale>
<asrwt>0</asrwt>
<pdfrwt beam="1">  1        2 0.37412216E+00 0.17408836E+04</pdfrwt>
<pdfrwt beam="2">  1       -2 0.47933521E-01 0.17408836E+04</pdfrwt>
<totfact> 0.14926214E+01</totfact>
</mgrwt>
</event>
<event>
 6    1  0.3017327E-006  0.4219439E+04  0.7818608E-02  0.7961685E-01
          2   -1    0    0  501    0  0.00000000000E+00  0.00000000000E+00  0.17526660114E+04  0.17526660114E+04  0.00000000000E+00 0. -1.
         -2   -1    0    0    0  501 -0.00000000000E+00 -0.00000000000E+00 -0.25395122144E+04  0.25395122144E+04  0.00000000000E+00 0.  1.
         23    2    1    2    0    0 -0.92780427658E+03 -0.81792962770E+03  0.13437116207E+04  0.18286226060E+04  0.92032951071E+02 0.  0.
         11    1    3    3    0    0 -0.13212923441E+03 -0.14423843246E+03  0.17498276261E+03  0.26245347625E+03  0.00000000000E+00 0.  1.
        -11    1    3    3    0    0 -0.79567504217E+03 -0.67369119525E+03  0.11687288581E+04  0.15661691298E+04  0.00000000000E+00 0. -1.
         22    1    1    2    0    0  0.92780427658E+03  0.81792962770E+03 -0.21305578237E+04  0.24635556197E+04  0.00000000000E+00 0.  1.
<mgrwt>
<rscale>  0 0.42194392E+04</rscale>
<asrwt>0</asrwt>
<pdfrwt beam="1">  1        2 0.26964093E+00 0.42194392E+04</pdfrwt>
<pdfrwt beam="2">  1       -2 0.39069419E+00 0.42194392E+04</pdfrwt>
<totfact> 0.60632840E-02</totfact>
</mgrwt>
</event>
<event>
 6    1  0.3017327E-006  0.1064503E+04  0.7818608E-02  0.9240497E-01
          2   -1    0    0  501    0  0.00000000000E+00  0.00000000000E+00  0.76398798571E+03  0.76398798571E+03  0.00000000000E+00 0. -1.
         -2   -1    0    0    0  501 -0.00000000000E+00 -0.00000000000E+00 -0.37080644354E+03  0.37080644354E+03  0.00000000000E+00 0.  1.
         23    2    1    2    0    0  0.87052957427E+02  0.60172367889E+02  0.74972554555E+03  0.76287702228E+03  0.93241762167E+02 0.  0.
         13    1    3    3    0    0  0.17372394918E+02 -0.22434942860E+02  0.24963807813E+03  0.25124549114E+03  0.00000000000E+00 0.  1.
        -13    1    3    3    0    0  0.69680562509E+02  0.82607310749E+02  0.50008746743E+03  0.51163153114E+03  0.00000000000E+00 0. -1.
         22    1    1    2    0    0 -0.87052957427E+02 -0.60172367889E+02 -0.35654400339E+03  0.37191740697E+03  0.00000000000E+00 0.  1.
<mgrwt>
<rscale>  0 0.10645030E+04</rscale>
<asrwt>0</asrwt>
<pdfrwt beam="1">  1        2 0.11753661E+00 0.10645030E+04</pdfrwt>
<pdfrwt beam="2">  1       -2 0.57047145E-01 0.10645030E+04</pdfrwt>
<totfact> 0.10494035E+02</totfact>
</mgrwt>
</event>
<event>
 6    1  0.3017327E-006  0.3029890E+04  0.7818608E-02  0.8235247E-01
          2   -1    0    0  501    0  0.00000000000E+00  0.00000000000E+00  0.11679530137E+04  0.11679530137E+04  0.00000000000E+00 0. -1.
         -2   -1    0    0    0  501 -0.00000000000E+00 -0.00000000000E+00 -0.19650259104E+04  0.19650259104E+04  0.00000000000E+00 0.  1.
         23    2    1    2    0    0  0.83065687967E+03 -0.23368577918E+03 -0.16848491991E+04  0.18949374636E+04  0.86436520998E+02 0.  0.
         11    1    3    3    0    0  0.29579491843E+03 -0.41328702860E+02 -0.56358324619E+03  0.63783130281E+03  0.00000000000E+00 0. -1.
        -11    1    3    3    0    0  0.53486196124E+03 -0.19235707632E+03 -0.11212659529E+04  0.12571061608E+04  0.00000000000E+00 0.  1.
         22    1    1    2    0    0 -0.83065687967E+03  0.23368577918E+03  0.88777630231E+03  0.12380414606E+04  0.00000000000E+00 0. -1.
<mgrwt>
<rscale>  0 0.30298897E+04</rscale>
<asrwt>0</asrwt>
<pdfrwt beam="1">  1        2 0.17968508E+00 0.30298897E+04</pdfrwt>
<pdfrwt beam="2">  1       -2 0.30231168E+00 0.30298897E+04</pdfrwt>
<totfact> 0.52010997E-01</totfact>
</mgrwt>
</event>
<event>
 6    1  0.3017327E-006  0.1067815E+04  0.7818608E-02  0.9237142E-01
         -2   -1    0    0    0  501 -0.00000000000E+00  0.00000000000E+00  0.61082673954E+03  0.61082673954E+03  0.00000000000E+00 0.  1.
          2   -1    0    0  501    0  0.00000000000E+00 -0.00000000000E+00 -0.46667411836E+03  0.46667411836E+03  0.00000000000E+00 0. -1.
         23    2    1    2    0    0 -0.29774037428E+03 -0.39367240474E+03 -0.12179566299E+03  0.51682645811E+03  0.92995223283E+02 0.  0.
         11    1    3    3    0    0 -0.10034157078E+03 -0.16253526087E+03 -0.90171454610E+02  0.21122744395E+03  0.00000000000E+00 0.  1.
        -11    1    3    3    0    0 -0.19739880350E+03 -0.23113714387E+03 -0.31624208377E+02  0.30559901416E+03  0.00000000000E+00 0. -1.
         22    1    1    2    0    0  0.29774037428E+03  0.39367240474E+03  0.26594828417E+03  0.56067439979E+03  0.00000000000E+00 0.  1.
<mgrwt>
<rscale>  0 0.10678146E+04</rscale>
<asrwt>0</asrwt>
<pdfrwt beam="1">  1        2 0.71796018E-01 0.10678146E+04</pdfrwt>
<pdfrwt beam="2">  1       -2 0.93973345E-01 0.10678146E+04</pdfrwt>
<totfact> 0.63453924E+01</totfact>
</mgrwt>
</event>
<event>
 6    1  0.3017327E-006  0.3458271E+04  0.7818608E-02  0.8123751E-01
         -2   -1    0    0    0  501 -0.00000000000E+00  0.00000000000E+00  0.12607319336E+04  0.12607319336E+04  0.00000000000E+00 0.  1.
          2   -1    0    0  501    0  0.00000000000E+00 -0.00000000000E+00 -0.23715667074E+04  0.23715667074E+04  0.00000000000E+00 0. -1.
         23    2    1    2    0    0 -0.59226166577E+03  0.89291409096E+03  0.86796384010E+03  0.13820290107E+04  0.92593218051E+02 0.  0.
         11    1    3    3    0    0 -0.40710186497E+03  0.53911574052E+03  0.52318043200E+03  0.85445624497E+03  0.00000000000E+00 0. -1.
        -11    1    3    3    0    0 -0.18515980081E+03  0.35379835044E+03  0.34478340810E+03  0.52757276570E+03  0.00000000000E+00 0.  1.
         22    1    1    2    0    0  0.59226166577E+03 -0.89291409096E+03 -0.19787986139E+04  0.22502696303E+04  0.00000000000E+00 0. -1.
<mgrwt>
<rscale>  0 0.34582712E+04</rscale>
<asrwt>0</asrwt>
<pdfrwt beam="1">  1        2 0.36485641E+00 0.34582712E+04</pdfrwt>
<pdfrwt beam="2">  1       -2 0.19395876E+00 0.34582712E+04</pdfrwt>
<totfact> 0.49623972E-01</totfact>
</mgrwt>
</event>
<event>
 6    1  0.3017327E-006  0.3419858E+04  0.7818608E-02  0.8133050E-01
         -2   -1    0    0    0  501 -0.00000000000E+00  0.00000000000E+00  0.17530185363E+04  0.17530185363E+04  0.00000000000E+00 0.  1.
          2   -1    0    0  501    0  0.00000000000E+00 -0.00000000000E+00 -0.16678983530E+04  0.16678983530E+04  0.00000000000E+00 0. -1.
         23    2    1    2    0    0  0.12651666499E+04 -0.38405798672E+03 -0.10401380658E+04  0.16847275803E+04  0.90954024407E+02 0.  0.
         11    1    3    3    0    0  0.64358161182E+03 -0.20539167981E+03 -0.47485221698E+03  0.82575278455E+03  0.00000000000E+00 0.  1.
        -11    1    3    3    0    0  0.62158503811E+03 -0.17866630692E+03 -0.56528584885E+03  0.85897479576E+03  0.00000000000E+00 0. -1.
         22    1    1    2    0    0 -0.12651666499E+04  0.38405798672E+03  0.11252582492E+04  0.17361893090E+04  0.00000000000E+00 0.  1.
<mgrwt>
<rscale>  0 0.34198577E+04</rscale>
<asrwt>0</asrwt>
<pdfrwt beam="1">  1        2 0.25659975E+00 0.34198577E+04</pdfrwt>
<pdfrwt beam="2">  1       -2 0.26969516E+00 0.34198577E+04</pdfrwt>
<totfact> 0.41141813E-01</totfact>
</mgrwt>
</event>
<event>
 6    1  0.3017327E-006  0.1793734E+04  0.7818608E-02  0.8709639E-01
         -2   -1    0    0    0  501 -0.00000000000E+00  0.00000000000E+00  0.12811764697E+04  0.12811764697E+04  0.00000000000E+00 0.  1.
          2   -1    0    0  501    0  0.00000000000E+00 -0.00000000000E+00 -0.62783712154E+03  0.62783712154E+03  0.00000000000E+00 0. -1.
         23    2    1    2    0    0  0.14958669239E+03 -0.51632739805E+03 -0.43339740856E+03  0.69659166019E+03  0.91850241034E+02 0.  0.
         13    1    3    3    0    0  0.95175482949E+02 -0.17047974493E+03 -0.15471298322E+03  0.24911407661E+03  0.00000000000E+00 0.  1.
        -13    1    3    3    0    0  0.54411209444E+02 -0.34584765312E+03 -0.27868442533E+03  0.44747758358E+03  0.00000000000E+00 0. -1.
         22    1    1    2    0    0 -0.14958669239E+03  0.51632739805E+03  0.10867367568E+04  0.12124219311E+04  0.00000000000E+00 0.  1.
<mgrwt>
<rscale>  0 0.17937337E+04</rscale>
<asrwt>0</asrwt>
<pdfrwt beam="1">  1        2 0.96590327E-01 0.17937337E+04</pdfrwt>
<pdfrwt beam="2">  1       -2 0.19710407E+00 0.17937337E+04</pdfrwt>
<totfact> 0.61551877E+00</totfact>
</mgrwt>
</event>
<event>
 6    1  0.3017327E-006  0.1427781E+04  0.7818608E-02  0.8933951E-01
          2   -1    0    0  501    0  0.00000000000E+00  0.00000000000E+00  0.14278026050E+04  0.14278026050E+04  0.00000000000E+00 0. -1.
         -2   -1    0    0    0  501 -0.00000000000E+00 -0.00000000000E+00 -0.35693984154E+03  0.35693984154E+03  0.00000000000E+00 0.  1.
         23    2    1    2    0    0 -0.51806022348E+03 -0.48640810727E+03  0.54731524817E+03  0.90208665704E+03  0.96057867756E+02 0.  0.
         13    1    3    3    0    0 -0.78968142862E+02 -0.35312343124E+02  0.82770122830E+02  0.11972394246E+03  0.00000000000E+00 0. -1.
        -13    1    3    3    0    0 -0.43909208062E+03 -0.45109576414E+03  0.46454512534E+03  0.78236271458E+03  0.00000000000E+00 0.  1.
         22    1    1    2    0    0  0.51806022348E+03  0.48640810727E+03  0.52354751528E+03  0.88265578949E+03  0.00000000000E+00 0. -1.
<mgrwt>
<rscale>  0 0.14277810E+04</rscale>
<asrwt>0</asrwt>
<pdfrwt beam="1">  1        2 0.21966194E+00 0.14277810E+04</pdfrwt>
<pdfrwt beam="2">  1       -2 0.54913822E-01 0.14277810E+04</pdfrwt>
<totfact> 0.42259844E+01</totfact>
</mgrwt>
</event>
<event>
 6    1  0.3017327E-006  0.4169318E+04  0.7818608E-02  0.7971234E-01
          1   -1    0    0  501    0  0.00000000000E+00  0.00000000000E+00  0.45277126998E+04  0.45277126998E+04  0.00000000000E+00 0. -1.
         -1   -1    0    0    0  501 -0.00000000000E+00 -0.00000000000E+00 -0.95982323620E+03  0.95982323620E+03  0.00000000000E+00 0.  1.
         23    2    1    2    0    0 -0.10512217108E+03 -0.14833917348E+04 -0.13616354045E+03  0.14961063216E+04  0.91059903395E+02 0.  0.
         13    1    3    3    0    0  0.91462273816E+00 -0.70239558340E+02  0.11977882299E+02  0.71259397660E+02  0.00000000000E+00 0.  1.
        -13    1    3    3    0    0 -0.10603679382E+03 -0.14131521765E+04 -0.14814142275E+03  0.14248469240E+04  0.00000000000E+00 0. -1.
         22    1    1    2    0    0  0.10512217108E+03  0.14833917348E+04  0.37040530041E+04  0.39914296144E+04  0.00000000000E+00 0. -1.
<mgrwt>
<rscale>  0 0.41693183E+04</rscale>
<asrwt>0</asrwt>
<pdfrwt beam="1">  1        1 0.69657118E+00 0.41693183E+04</pdfrwt>
<pdfrwt beam="2">  1       -1 0.14766512E+00 0.41693183E+04</pdfrwt>
<totfact> 0.84172132E-03</totfact>
</mgrwt>
</event>
<event>
 6    1  0.3017327E-006  0.2144244E+04  0.7818608E-02  0.8542000E-01
         -2   -1    0    0    0  501 -0.00000000000E+00  0.00000000000E+00  0.37127503641E+03  0.37127503641E+03  0.00000000000E+00 0. -1.
          2   -1    0    0  501    0  0.00000000000E+00 -0.00000000000E+00 -0.30959403700E+04  0.30959403700E+04  0.00000000000E+00 0.  1.
         23    2    1    2    0    0  0.58234585217E+03  0.70872525063E+03 -0.47286189239E+03  0.10357473498E+04  0.88068331075E+02 0.  0.
         11    1    3    3    0    0  0.68031746687E+02  0.13084637362E+03 -0.87423492127E+02  0.17144083242E+03  0.00000000000E+00 0. -1.
        -11    1    3    3    0    0  0.51431410548E+03  0.57787887701E+03 -0.38543840026E+03  0.86430651738E+03  0.00000000000E+00 0.  1.
         22    1    1    2    0    0 -0.58234585217E+03 -0.70872525063E+03 -0.22518034412E+04  0.24314680566E+04  0.00000000000E+00 0.  1.
<mgrwt>
<rscale>  0 0.21442438E+04</rscale>
<asrwt>0</asrwt>
<pdfrwt beam="1">  1        2 0.47629853E+00 0.21442438E+04</pdfrwt>
<pdfrwt beam="2">  1       -2 0.57119235E-01 0.21442438E+04</pdfrwt>
<totfact> 0.40011286E+00</totfact>
</mgrwt>
</event>
<event>
 6    1  0.3017327E-006  0.3000581E+04  0.7818608E-02  0.8243565E-01
          2   -1    0    0  501    0  0.00000000000E+00  0.00000000000E+00  0.34544615777E+04  0.34544615777E+04  0.00000000000E+00 0. -1.
         -2   -1    0    0    0  501 -0.00000000000E+00 -0.00000000000E+00 -0.65158374865E+03  0.65158374865E+03  0.00000000000E+00 0.  1.
         23    2    1    2    0    0 -0.69280824564E+03 -0.80805384368E+03  0.28468981759E+04  0.30407415808E+04  0.91355665924E+02 0.  0.
         13    1    3    3    0    0 -0.49473090077E+03 -0.51162701781E+03  0.19151362656E+04  0.20431024902E+04  0.00000000000E+00 0. -1.
        -13    1    3    3    0    0 -0.19807734488E+03 -0.29642682587E+03  0.93176191026E+03  0.99763909058E+03  0.00000000000E+00 0.  1.
         22    1    1    2    0    0  0.69280824564E+03  0.80805384368E+03 -0.44020346774E+02  0.10653037456E+04  0.00000000000E+00 0.  1.
<mgrwt>
<rscale>  0 0.30005806E+04</rscale>
<asrwt>0</asrwt>
<pdfrwt beam="1">  1        2 0.53145562E+00 0.30005806E+04</pdfrwt>
<pdfrwt beam="2">  1       -2 0.10024366E+00 0.30005806E+04</pdfrwt>
<totfact> 0.61432299E-01</totfact>
</mgrwt>
</event>
<event>
 6    1  0.3017327E-006  0.4267429E+04  0.7818608E-02  0.7952668E-01
          2   -1    0    0  501    0  0.00000000000E+00  0.00000000000E+00  0.34126363963E+04  0.34126363963E+04  0.00000000000E+00 0. -1.
         -2   -1    0    0    0  501 -0.00000000000E+00 -0.00000000000E+00 -0.13340820910E+04  0.13340820910E+04  0.00000000000E+00 0.  1.
         23    2    1    2    0    0  0.18523245204E+04 -0.98891996062E+03  0.14549913537E+04  0.25563076647E+04  0.92952780942E+02 0.  0.
         13    1    3    3    0    0  0.10440983061E+04 -0.55290535472E+03  0.87435221016E+03  0.14698086241E+04  0.00000000000E+00 0. -1.
        -13    1    3    3    0    0  0.80822621434E+03 -0.43601460590E+03  0.58063914358E+03  0.10864990406E+04  0.00000000000E+00 0.  1.
         22    1    1    2    0    0 -0.18523245204E+04  0.98891996062E+03  0.62356295153E+03  0.21904108226E+04  0.00000000000E+00 0.  1.
<mgrwt>
<rscale>  0 0.42674288E+04</rscale>
<asrwt>0</asrwt>
<pdfrwt beam="1">  1        2 0.52502098E+00 0.42674288E+04</pdfrwt>
<pdfrwt beam="2">  1       -2 0.20524340E+00 0.42674288E+04</pdfrwt>
<totfact> 0.88548336E-02</totfact>
</mgrwt>
</event>
<event>
 6    1  0.3017327E-006  0.3228954E+04  0.7818608E-02  0.8181212E-01
         -1   -1    0    0    0  501 -0.00000000000E+00  0.00000000000E+00  0.13244376295E+04  0.13244376295E+04  0.00000000000E+00 0.  1.
          1   -1    0    0  501    0  0.00000000000E+00 -0.00000000000E+00 -0.19680326681E+04  0.19680326681E+04  0.00000000000E+00 0. -1.
         23    2    1    2    0    0 -0.99918122233E+03  0.86835172503E+03 -0.12615547479E+04  0.18315555035E+04  0.10333124929E+03 0.  0.
         13    1    3    3    0    0 -0.47405373951E+03  0.44235137718E+03 -0.55374811433E+03  0.85266562202E+03  0.00000000000E+00 0.  1.
        -13    1    3    3    0    0 -0.52512748282E+03  0.42600034784E+03 -0.70780663353E+03  0.97888988147E+03  0.00000000000E+00 0. -1.
         22    1    1    2    0    0  0.99918122233E+03 -0.86835172503E+03  0.61795970919E+03  0.14609147941E+04  0.00000000000E+00 0.  1.
<mgrwt>
<rscale>  0 0.32289543E+04</rscale>
<asrwt>0</asrwt>
<pdfrwt beam="1">  1        1 0.30277426E+00 0.32289543E+04</pdfrwt>
<pdfrwt beam="2">  1       -1 0.20375964E+00 0.32289543E+04</pdfrwt>
<totfact> 0.37075579E-01</totfact>
</mgrwt>
</event>
<event>
 6    1  0.3017327E-006  0.4195151E+04  0.7818608E-02  0.7966295E-01
          2   -1    0    0  501    0  0.00000000000E+00  0.00000000000E+00  0.26044405565E+04  0.26044405565E+04  0.00000000000E+00 0. -1.
         -2   -1    0    0    0  501 -0.00000000000E+00 -0.00000000000E+00 -0.16893546149E+04  0.16893546149E+04  0.00000000000E+00 0.  1.
         23    2    1    2    0    0  0.95739287531E+03 -0.16454393792E+04  0.13567866347E+04  0.23395251361E+04  0.91847820131E+02 0.  0.
         11    1    3    3    0    0  0.65991808801E+03 -0.10476207884E+04  0.88752028010E+03  0.15233822392E+04  0.00000000000E+00 0. -1.
        -11    1    3    3    0    0  0.29747478729E+03 -0.59781859081E+03  0.46926635464E+03  0.81614289692E+03  0.00000000000E+00 0.  1.
         22    1    1    2    0    0 -0.95739287531E+03  0.16454393792E+04 -0.44170069317E+03  0.19542700352E+04  0.00000000000E+00 0.  1.
<mgrwt>
<rscale>  0 0.41951513E+04</rscale>
<asrwt>0</asrwt>
<pdfrwt beam="1">  1        2 0.40068316E+00 0.41951513E+04</pdfrwt>
<pdfrwt beam="2">  1       -2 0.25990071E+00 0.41951513E+04</pdfrwt>
<totfact> 0.13124084E-01</totfact>
</mgrwt>
</event>
<event>
 6    1  0.3017327E-006  0.1386267E+04  0.7818608E-02  0.8963819E-01
          2   -1    0    0  501    0  0.00000000000E+00  0.00000000000E+00  0.36809601004E+03  0.36809601004E+03  0.00000000000E+00 0. -1.
         -2   -1    0    0    0  501 -0.00000000000E+00 -0.00000000000E+00 -0.13051870449E+04  0.13051870449E+04  0.00000000000E+00 0.  1.
         23    2    1    2    0    0 -0.65145577013E+03 -0.22734889559E+03 -0.45787637527E+03  0.83320637347E+03  0.92195146322E+02 0.  0.
         11    1    3    3    0    0 -0.34326673037E+03 -0.13075490689E+03 -0.29705587213E+03  0.47240986974E+03  0.00000000000E+00 0. -1.
        -11    1    3    3    0    0 -0.30818903976E+03 -0.96593988692E+02 -0.16082050314E+03  0.36079650374E+03  0.00000000000E+00 0.  1.
         22    1    1    2    0    0  0.65145577013E+03  0.22734889559E+03 -0.47921465956E+03  0.84007668144E+03  0.00000000000E+00 0. -1.
<mgrwt>
<rscale>  0 0.13862671E+04</rscale>
<asrwt>0</asrwt>
<pdfrwt beam="1">  1        2 0.56630154E-01 0.13862671E+04</pdfrwt>
<pdfrwt beam="2">  1       -2 0.20079801E+00 0.13862671E+04</pdfrwt>
<totfact> 0.11169174E+01</totfact>
</mgrwt>
</event>
<event>
 6    1  0.3017327E-006  0.1940877E+04  0.7818608E-02  0.8634773E-01
         -4   -1    0    0    0  501 -0.00000000000E+00  0.00000000000E+00  0.94907731444E+03  0.94907731444E+03  0.00000000000E+00 0.  1.
          4   -1    0    0  501    0  0.00000000000E+00 -0.00000000000E+00 -0.99228027623E+03  0.99228027623E+03  0.00000000000E+00 0. -1.
         23    2    1    2    0    0  0.81551720265E+03 -0.50051206085E+03  0.12675637880E+03  0.96952076880E+03  0.91228891748E+02 0.  0.
         13    1    3    3    0    0  0.62032428864E+03 -0.38340761346E+03  0.57126122036E+02  0.73148275096E+03  0.00000000000E+00 0. -1.
        -13    1    3    3    0    0  0.19519291401E+03 -0.11710444739E+03  0.69630256765E+02  0.23803801784E+03  0.00000000000E+00 0.  1.
         22    1    1    2    0    0 -0.81551720265E+03  0.50051206085E+03 -0.16995934059E+03  0.97183682187E+03  0.00000000000E+00 0. -1.
<mgrwt>
<rscale>  0 0.19408768E+04</rscale>
<asrwt>0</asrwt>
<pdfrwt beam="1">  1        4 0.15265850E+00 0.19408768E+04</pdfrwt>
<pdfrwt beam="2">  1       -4 0.14601189E+00 0.19408768E+04</pdfrwt>
<totfact> 0.16984021E-01</totfact>
</mgrwt>
</event>
<event>
 6    1  0.3017327E-006  0.2524106E+04  0.7818608E-02  0.8394448E-01
          2   -1    0    0  501    0  0.00000000000E+00  0.00000000000E+00  0.22468916952E+04  0.22468916952E+04  0.00000000000E+00 0. -1.
         -2   -1    0    0    0  501 -0.00000000000E+00 -0.00000000000E+00 -0.70888058200E+03  0.70888058200E+03  0.00000000000E+00 0.  1.
         23    2    1    2    0    0  0.11236446682E+04 -0.50011544724E+03  0.10927233328E+04  0.16477302257E+04  0.90982490752E+02 0.  0.
         11    1    3    3    0    0  0.81660109533E+03 -0.31832448212E+03  0.77678647059E+03  0.11711383546E+04  0.00000000000E+00 0.  1.
        -11    1    3    3    0    0  0.30704357291E+03 -0.18179096512E+03  0.31593686222E+03  0.47659187107E+03  0.00000000000E+00 0. -1.
         22    1    1    2    0    0 -0.11236446682E+04  0.50011544724E+03  0.44528778036E+03  0.13080420514E+04  0.00000000000E+00 0.  1.
<mgrwt>
<rscale>  0 0.25241061E+04</rscale>
<asrwt>0</asrwt>
<pdfrwt beam="1">  1        2 0.34567564E+00 0.25241061E+04</pdfrwt>
<pdfrwt beam="2">  1       -2 0.10905855E+00 0.25241061E+04</pdfrwt>
<totfact> 0.29008634E+00</totfact>
</mgrwt>
</event>
<event>
 6    1  0.3017327E-006  0.3170865E+04  0.7818608E-02  0.8196554E-01
          2   -1    0    0  501    0  0.00000000000E+00  0.00000000000E+00  0.21119762691E+04  0.21119762691E+04  0.00000000000E+00 0. -1.
         -2   -1    0    0    0  501 -0.00000000000E+00 -0.00000000000E+00 -0.11901633299E+04  0.11901633299E+04  0.00000000000E+00 0.  1.
         23    2    1    2    0    0  0.12540026157E+04 -0.96141668613E+03  0.34236324810E+03  0.16191046768E+04  0.86271410826E+02 0.  0.
         11    1    3    3    0    0  0.73924166311E+03 -0.57234348482E+03  0.15931721514E+03  0.94838667016E+03  0.00000000000E+00 0. -1.
        -11    1    3    3    0    0  0.51476095261E+03 -0.38907320131E+03  0.18304603296E+03  0.67071800669E+03  0.00000000000E+00 0.  1.
         22    1    1    2    0    0 -0.12540026157E+04  0.96141668613E+03  0.57944969117E+03  0.16830349222E+04  0.00000000000E+00 0. -1.
<mgrwt>
<rscale>  0 0.31708653E+04</rscale>
<asrwt>0</asrwt>
<pdfrwt beam="1">  1        2 0.32491943E+00 0.31708653E+04</pdfrwt>
<pdfrwt beam="2">  1       -2 0.18310205E+00 0.31708653E+04</pdfrwt>
<totfact> 0.84312001E-01</totfact>
</mgrwt>
</event>
<event>
 6    1  0.3017327E-006  0.9266771E+03  0.7818608E-02  0.9392835E-01
         -2   -1    0    0    0  501 -0.00000000000E+00  0.00000000000E+00  0.11403468965E+03  0.11403468965E+03  0.00000000000E+00 0.  1.
          2   -1    0    0  501    0  0.00000000000E+00 -0.00000000000E+00 -0.18826081268E+04  0.18826081268E+04  0.00000000000E+00 0. -1.
         23    2    1    2    0    0 -0.37439629962E+03  0.37566390661E+02 -0.14587316504E+04  0.15092151237E+04  0.90820915666E+02 0.  0.
         11    1    3    3    0    0 -0.10459436189E+03  0.14725490889E+02 -0.58606536102E+03  0.59550770608E+03  0.00000000000E+00 0. -1.
        -11    1    3    3    0    0 -0.26980193773E+03  0.22840899772E+02 -0.87266628943E+03  0.91370741762E+03  0.00000000000E+00 0.  1.
         22    1    1    2    0    0  0.37439629962E+03 -0.37566390661E+02 -0.30984178674E+03  0.48742769278E+03  0.00000000000E+00 0.  1.
<mgrwt>
<rscale>  0 0.92667715E+03</rscale>
<asrwt>0</asrwt>
<pdfrwt beam="1">  1        2 0.28963201E+00 0.92667715E+03</pdfrwt>
<pdfrwt beam="2">  1       -2 0.17543799E-01 0.92667715E+03</pdfrwt>
<totfact> 0.20971169E+02</totfact>
</mgrwt>
</event>
<event>
 6    1  0.3017327E-006  0.9995435E+03  0.7818608E-02  0.9309046E-01
          2   -1    0    0  501    0  0.00000000000E+00  0.00000000000E+00  0.10720862927E+03  0.10720862927E+03  0.00000000000E+00 0. -1.
         -2   -1    0    0    0  501 -0.00000000000E+00 -0.00000000000E+00 -0.23297734599E+04  0.23297734599E+04  0.00000000000E+00 0.  1.
         23    2    1    2    0    0  0.41251938297E+03 -0.25815068121E+03 -0.89189156465E+03  0.10201174674E+04  0.91406065205E+02 0.  0.
         11    1    3    3    0    0  0.10297007686E+03 -0.22067467357E+02 -0.17102331788E+03  0.20084517694E+03  0.00000000000E+00 0. -1.
        -11    1    3    3    0    0  0.30954930611E+03 -0.23608321385E+03 -0.72086824677E+03  0.81927229050E+03  0.00000000000E+00 0.  1.
         22    1    1    2    0    0 -0.41251938297E+03  0.25815068121E+03 -0.13306732660E+04  0.14168646218E+04  0.00000000000E+00 0.  1.
<mgrwt>
<rscale>  0 0.99954353E+03</rscale>
<asrwt>0</asrwt>
<pdfrwt beam="1">  1        2 0.16493635E-01 0.99954353E+03</pdfrwt>
<pdfrwt beam="2">  1       -2 0.35842669E+00 0.99954353E+03</pdfrwt>
<totfact> 0.50446102E+00</totfact>
</mgrwt>
</event>
<event>
 6    1  0.3017327E-006  0.2431614E+04  0.7818608E-02  0.8427762E-01
          2   -1    0    0  501    0  0.00000000000E+00  0.00000000000E+00  0.28908494743E+04  0.28908494743E+04  0.00000000000E+00 0. -1.
         -2   -1    0    0    0  501 -0.00000000000E+00 -0.00000000000E+00 -0.51133317132E+03  0.51133317132E+03  0.00000000000E+00 0.  1.
         23    2    1    2    0    0 -0.11438383829E+04  0.31167547799E+03  0.15574232713E+04  0.19594959844E+04  0.92463058573E+02 0.  0.
         11    1    3    3    0    0 -0.95379224706E+03  0.29497071597E+03  0.13079420254E+04  0.16454299486E+04  0.00000000000E+00 0.  1.
        -11    1    3    3    0    0 -0.19004613582E+03  0.16704762018E+02  0.24948124593E+03  0.31406603587E+03  0.00000000000E+00 0. -1.
         22    1    1    2    0    0  0.11438383829E+04 -0.31167547799E+03  0.82209303170E+03  0.14426866612E+04  0.00000000000E+00 0.  1.
<mgrwt>
<rscale>  0 0.24316145E+04</rscale>
<asrwt>0</asrwt>
<pdfrwt beam="1">  1        2 0.44474606E+00 0.24316145E+04</pdfrwt>
<pdfrwt beam="2">  1       -2 0.78666644E-01 0.24316145E+04</pdfrwt>
<totfact> 0.26209415E+00</totfact>
</mgrwt>
</event>
<event>
 6    1  0.3017327E-006  0.1283193E+04  0.7818608E-02  0.9043001E-01
         -1   -1    0    0    0  501 -0.00000000000E+00  0.00000000000E+00  0.19960545214E+03  0.19960545214E+03  0.00000000000E+00 0.  1.
          1   -1    0    0  501    0  0.00000000000E+00 -0.00000000000E+00 -0.20622977780E+04  0.20622977780E+04  0.00000000000E+00 0. -1.
         23    2    1    2    0    0  0.29190095236E+03  0.52080744587E+03 -0.53790354488E+03  0.80879900956E+03  0.91482526307E+02 0.  0.
         13    1    3    3    0    0  0.12302386599E+03  0.17373168975E+03 -0.24296469624E+03  0.32303160100E+03  0.00000000000E+00 0. -1.
        -13    1    3    3    0    0  0.16887708637E+03  0.34707575612E+03 -0.29493884863E+03  0.48576740856E+03  0.00000000000E+00 0.  1.
         22    1    1    2    0    0 -0.29190095236E+03 -0.52080744587E+03 -0.13247887809E+04  0.14531042205E+04  0.00000000000E+00 0. -1.
<mgrwt>
<rscale>  0 0.12831927E+04</rscale>
<asrwt>0</asrwt>
<pdfrwt beam="1">  1        1 0.31727656E+00 0.12831927E+04</pdfrwt>
<pdfrwt beam="2">  1       -1 0.30708533E-01 0.12831927E+04</pdfrwt>
<totfact> 0.26088107E+01</totfact>
</mgrwt>
</event>
<event>
 6    1  0.3017327E-006  0.1607586E+04  0.7818608E-02  0.8815901E-01
         -2   -1    0    0    0  501 -0.00000000000E+00  0.00000000000E+00  0.46989346432E+03  0.46989346432E+03  0.00000000000E+00 0.  1.
          2   -1    0    0  501    0  0.00000000000E+00 -0.00000000000E+00 -0.13749563808E+04  0.13749563808E+04  0.00000000000E+00 0. -1.
         23    2    1    2    0    0 -0.15770773973E+03  0.64612277368E+03  0.58668169404E+02  0.67389981385E+03  0.91392752300E+02 0.  0.
         13    1    3    3    0    0 -0.26161738784E+02  0.14668783404E+03 -0.23791672559E+02  0.15089002921E+03  0.00000000000E+00 0. -1.
        -13    1    3    3    0    0 -0.13154600095E+03  0.49943493964E+03  0.82459841963E+02  0.52300978464E+03  0.00000000000E+00 0.  1.
         22    1    1    2    0    0  0.15770773973E+03 -0.64612277368E+03 -0.96373108590E+03  0.11709500313E+04  0.00000000000E+00 0. -1.
<mgrwt>
<rscale>  0 0.16075858E+04</rscale>
<asrwt>0</asrwt>
<pdfrwt beam="1">  1        2 0.21153175E+00 0.16075858E+04</pdfrwt>
<pdfrwt beam="2">  1       -2 0.72291303E-01 0.16075858E+04</pdfrwt>
<totfact> 0.24829742E+01</totfact>
</mgrwt>
</event>
<event>
 6    1  0.3017327E-006  0.1653014E+04  0.7818608E-02  0.8788626E-01
          2   -1    0    0  501    0  0.00000000000E+00  0.00000000000E+00  0.15770162709E+04  0.15770162709E+04  0.00000000000E+00 0.  1.
         -2   -1    0    0    0  501 -0.00000000000E+00 -0.00000000000E+00 -0.43316834353E+03  0.43316834353E+03  0.00000000000E+00 0. -1.
         23    2    1    2    0    0 -0.13318671577E+03  0.13900107243E+03  0.15479262778E+04  0.15625918165E+04  0.92506346536E+02 0.  0.
         11    1    3    3    0    0 -0.77117438625E+02  0.35015402740E+02  0.90058578366E+03  0.90455952347E+03  0.00000000000E+00 0. -1.
        -11    1    3    3    0    0 -0.56069277140E+02  0.10398566969E+03  0.64734049414E+03  0.65803229305E+03  0.00000000000E+00 0.  1.
         22    1    1    2    0    0  0.13318671577E+03 -0.13900107243E+03 -0.40407835047E+03  0.44759279788E+03  0.00000000000E+00 0. -1.
<mgrwt>
<rscale>  0 0.16530136E+04</rscale>
<asrwt>0</asrwt>
<pdfrwt beam="1">  1        2 0.24261789E+00 0.16530136E+04</pdfrwt>
<pdfrwt beam="2">  1       -2 0.66641284E-01 0.16530136E+04</pdfrwt>
<totfact> 0.22694270E+01</totfact>
</mgrwt>
</event>
<event>
 6    1  0.3017327E-006  0.2202860E+04  0.7818608E-02  0.8517239E-01
         -1   -1    0    0    0  501 -0.00000000000E+00  0.00000000000E+00  0.11576821219E+04  0.11576821219E+04  0.00000000000E+00 0.  1.
          1   -1    0    0  501    0  0.00000000000E+00 -0.00000000000E+00 -0.10479112143E+04  0.10479112143E+04  0.00000000000E+00 0. -1.
         23    2    1    2    0    0 -0.92276946648E+03  0.53204418609E+03 -0.21801245356E+03  0.10911354249E+04  0.92046625839E+02 0.  0.
         11    1    3    3    0    0 -0.29875476266E+03  0.17935123987E+03 -0.11523415308E+03  0.36701523877E+03  0.00000000000E+00 0. -1.
        -11    1    3    3    0    0 -0.62401470382E+03  0.35269294622E+03 -0.10277830048E+03  0.72412018612E+03  0.00000000000E+00 0.  1.
         22    1    1    2    0    0  0.92276946648E+03 -0.53204418609E+03  0.32778336124E+03  0.11144579113E+04  0.00000000000E+00 0.  1.
<mgrwt>
<rscale>  0 0.22028600E+04</rscale>
<asrwt>0</asrwt>
<pdfrwt beam="1">  1        1 0.16121711E+00 0.22028600E+04</pdfrwt>
<pdfrwt beam="2">  1       -1 0.17810494E+00 0.22028600E+04</pdfrwt>
<totfact> 0.27191554E+00</totfact>
</mgrwt>
</event>
<event>
 6    1  0.3017327E-006  0.2266357E+04  0.7818608E-02  0.8491306E-01
         -2   -1    0    0    0  501 -0.00000000000E+00  0.00000000000E+00  0.11074019944E+04  0.11074019944E+04  0.00000000000E+00 0.  1.
          2   -1    0    0  501    0  0.00000000000E+00 -0.00000000000E+00 -0.11595546194E+04  0.11595546194E+04  0.00000000000E+00 0. -1.
         23    2    1    2    0    0  0.14626971799E+03  0.11163071538E+04  0.81837321526E+02  0.11331621890E+04  0.99109572616E+02 0.  0.
         11    1    3    3    0    0 -0.10517265275E+02  0.20471928164E+03  0.58360094556E+01  0.20507231932E+03  0.00000000000E+00 0. -1.
        -11    1    3    3    0    0  0.15678698327E+03  0.91158787214E+03  0.76001312070E+02  0.92808986967E+03  0.00000000000E+00 0.  1.
         22    1    1    2    0    0 -0.14626971799E+03 -0.11163071538E+04 -0.13398994648E+03  0.11337944248E+04  0.00000000000E+00 0. -1.
<mgrwt>
<rscale>  0 0.22663566E+04</rscale>
<asrwt>0</asrwt>
<pdfrwt beam="1">  1        2 0.17839302E+00 0.22663566E+04</pdfrwt>
<pdfrwt beam="2">  1       -2 0.17036954E+00 0.22663566E+04</pdfrwt>
<totfact> 0.38581821E+00</totfact>
</mgrwt>
</event>
<event>
 6    1  0.3017327E-006  0.8407542E+03  0.7818608E-02  0.9502831E-01
          2   -1    0    0  501    0  0.00000000000E+00  0.00000000000E+00  0.24148417113E+04  0.24148417113E+04  0.00000000000E+00 0. -1.
         -2   -1    0    0    0  501 -0.00000000000E+00 -0.00000000000E+00 -0.73179491451E+02  0.73179491451E+02  0.00000000000E+00 0.  1.
         23    2    1    2    0    0 -0.12304690944E+03  0.16638336889E+03  0.22483257252E+04  0.22610065147E+04  0.11982456145E+03 0.  0.
         13    1    3    3    0    0 -0.12273673933E+03  0.82232765273E+02  0.16801460057E+04  0.16866289264E+04  0.00000000000E+00 0.  1.
        -13    1    3    3    0    0 -0.31017011325E+00  0.84150603619E+02  0.56817971946E+03  0.57437758827E+03  0.00000000000E+00 0. -1.
         22    1    1    2    0    0  0.12304690944E+03 -0.16638336889E+03  0.93336494672E+02  0.22701468808E+03  0.00000000000E+00 0.  1.
<mgrwt>
<rscale>  0 0.84075416E+03</rscale>
<asrwt>0</asrwt>
<pdfrwt beam="1">  1        2 0.37151405E+00 0.84075416E+03</pdfrwt>
<pdfrwt beam="2">  1       -2 0.11258385E-01 0.84075416E+03</pdfrwt>
<totfact> 0.22628203E+02</totfact>
</mgrwt>
</event>
<event>
 6    1  0.3017327E-006  0.3949535E+04  0.7818608E-02  0.8014805E-01
          1   -1    0    0  501    0  0.00000000000E+00  0.00000000000E+00  0.14050738460E+04  0.14050738460E+04  0.00000000000E+00 0. -1.
         -1   -1    0    0    0  501 -0.00000000000E+00 -0.00000000000E+00 -0.27754462922E+04  0.27754462922E+04  0.00000000000E+00 0.  1.
         23    2    1    2    0    0 -0.76204826451E+03  0.14188695292E+04  0.52207135844E+03  0.16955147353E+04  0.91123081220E+02 0.  0.
         11    1    3    3    0    0 -0.65929475157E+02  0.15136270114E+03  0.79370063311E+02  0.18318561609E+03  0.00000000000E+00 0. -1.
        -11    1    3    3    0    0 -0.69611878935E+03  0.12675068281E+04  0.44270129513E+03  0.15123291192E+04  0.00000000000E+00 0.  1.
         22    1    1    2    0    0  0.76204826451E+03 -0.14188695292E+04 -0.18924438046E+04  0.24850054028E+04  0.00000000000E+00 0.  1.
<mgrwt>
<rscale>  0 0.39495352E+04</rscale>
<asrwt>0</asrwt>
<pdfrwt beam="1">  1        1 0.21616521E+00 0.39495352E+04</pdfrwt>
<pdfrwt beam="2">  1       -1 0.42699174E+00 0.39495352E+04</pdfrwt>
<totfact> 0.27923504E-02</totfact>
</mgrwt>
</event>
<event>
 6    1  0.3017327E-006  0.3055905E+04  0.7818608E-02  0.8227945E-01
         -1   -1    0    0    0  501 -0.00000000000E+00  0.00000000000E+00  0.14181000654E+04  0.14181000654E+04  0.00000000000E+00 0.  1.
          1   -1    0    0  501    0  0.00000000000E+00 -0.00000000000E+00 -0.16463140900E+04  0.16463140900E+04  0.00000000000E+00 0. -1.
         23    2    1    2    0    0 -0.30793130324E+03  0.69397512586E+03 -0.14422916005E+04  0.16324897429E+04  0.91621705789E+02 0.  0.
         11    1    3    3    0    0 -0.86906681522E+02  0.13746189068E+03 -0.24934285171E+03  0.29769178756E+03  0.00000000000E+00 0.  1.
        -11    1    3    3    0    0 -0.22102462172E+03  0.55651323519E+03 -0.11929487488E+04  0.13347979553E+04  0.00000000000E+00 0. -1.
         22    1    1    2    0    0  0.30793130324E+03 -0.69397512586E+03  0.12140775759E+04  0.14319244125E+04  0.00000000000E+00 0.  1.
<mgrwt>
<rscale>  0 0.30559045E+04</rscale>
<asrwt>0</asrwt>
<pdfrwt beam="1">  1        1 0.25327909E+00 0.30559045E+04</pdfrwt>
<pdfrwt beam="2">  1       -1 0.21816924E+00 0.30559045E+04</pdfrwt>
<totfact> 0.49734592E-01</totfact>
</mgrwt>
</event>
<event>
 6    1  0.3017327E-006  0.5257330E+04  0.7818608E-02  0.7789993E-01
          1   -1    0    0  501    0  0.00000000000E+00  0.00000000000E+00  0.23230497553E+04  0.23230497553E+04  0.00000000000E+00 0. -1.
         -1   -1    0    0    0  501 -0.00000000000E+00 -0.00000000000E+00 -0.29744868203E+04  0.29744868203E+04  0.00000000000E+00 0.  1.
         23    2    1    2    0    0 -0.13961964790E+04  0.16728644256E+04 -0.18058234507E+04  0.28316801479E+04  0.97847485394E+02 0.  0.
         13    1    3    3    0    0 -0.24679658700E+03  0.35249524746E+03 -0.37436808469E+03  0.57036209348E+03  0.00000000000E+00 0. -1.
        -13    1    3    3    0    0 -0.11493998920E+04  0.13203691781E+04 -0.14314553661E+04  0.22613180544E+04  0.00000000000E+00 0.  1.
         22    1    1    2    0    0  0.13961964790E+04 -0.16728644256E+04  0.11543863857E+04  0.24658564277E+04  0.00000000000E+00 0. -1.
<mgrwt>
<rscale>  0 0.52573305E+04</rscale>
<asrwt>0</asrwt>
<pdfrwt beam="1">  1        1 0.35739227E+00 0.52573305E+04</pdfrwt>
<pdfrwt beam="2">  1       -1 0.45761335E+00 0.52573305E+04</pdfrwt>
<totfact> 0.36536395E-03</totfact>
</mgrwt>
</event>
<event>
 6    1  0.3017327E-006  0.2317363E+04  0.7818608E-02  0.8471106E-01
         -2   -1    0    0    0  501 -0.00000000000E+00  0.00000000000E+00  0.32697420762E+03  0.32697420762E+03  0.00000000000E+00 0.  1.
          2   -1    0    0  501    0  0.00000000000E+00 -0.00000000000E+00 -0.41059601611E+04  0.41059601611E+04  0.00000000000E+00 0. -1.
         23    2    1    2    0    0  0.11083604330E+03 -0.74221423839E+03 -0.35766512595E+04  0.36556918502E+04  0.92098140498E+02 0.  0.
         11    1    3    3    0    0  0.20089758439E+02 -0.10613150321E+03 -0.68946552361E+03  0.69787549221E+03  0.00000000000E+00 0. -1.
        -11    1    3    3    0    0  0.90746284859E+02 -0.63608273518E+03 -0.28871857359E+04  0.29578163580E+04  0.00000000000E+00 0.  1.
         22    1    1    2    0    0 -0.11083604330E+03  0.74221423839E+03 -0.20233469397E+03  0.77724251849E+03  0.00000000000E+00 0.  1.
<mgrwt>
<rscale>  0 0.23173632E+04</rscale>
<asrwt>0</asrwt>
<pdfrwt beam="1">  1        2 0.63168618E+00 0.23173632E+04</pdfrwt>
<pdfrwt beam="2">  1       -2 0.50303725E-01 0.23173632E+04</pdfrwt>
<totfact> 0.95266715E-01</totfact>
</mgrwt>
</event>
<event>
 6    1  0.3017327E-006  0.8282955E+03  0.7818608E-02  0.9519940E-01
          2   -1    0    0  501    0  0.00000000000E+00  0.00000000000E+00  0.24111575186E+03  0.24111575186E+03  0.00000000000E+00 0. -1.
         -2   -1    0    0    0  501 -0.00000000000E+00 -0.00000000000E+00 -0.71135281229E+03  0.71135281229E+03  0.00000000000E+00 0.  1.
         23    2    1    2    0    0 -0.48565712887E+02 -0.30390937503E+03 -0.54811546038E+03  0.63500268901E+03  0.89879477302E+02 0.  0.
         11    1    3    3    0    0 -0.35104884617E+02 -0.15320754265E+03 -0.19235894115E+03  0.24840866790E+03  0.00000000000E+00 0. -1.
        -11    1    3    3    0    0 -0.13460828270E+02 -0.15070183239E+03 -0.35575651923E+03  0.38659402111E+03  0.00000000000E+00 0.  1.
         22    1    1    2    0    0  0.48565712887E+02  0.30390937503E+03  0.77878399950E+02  0.31746587514E+03  0.00000000000E+00 0.  1.
<mgrwt>
<rscale>  0 0.82829552E+03</rscale>
<asrwt>0</asrwt>
<pdfrwt beam="1">  1        2 0.37094732E-01 0.82829552E+03</pdfrwt>
<pdfrwt beam="2">  1       -2 0.10943889E+00 0.82829552E+03</pdfrwt>
<totfact> 0.93790270E+01</totfact>
</mgrwt>
</event>
<event>
 6    1  0.3017327E-006  0.3963316E+04  0.7818608E-02  0.8011988E-01
          2   -1    0    0  501    0  0.00000000000E+00  0.00000000000E+00  0.12101095680E+04  0.12101095680E+04  0.00000000000E+00 0. -1.
         -2   -1    0    0    0  501 -0.00000000000E+00 -0.00000000000E+00 -0.32451351835E+04  0.32451351835E+04  0.00000000000E+00 0.  1.
         23    2    1    2    0    0 -0.17629985333E+04  0.42988734271E+03 -0.12644782477E+03  0.18216851568E+04  0.97881571890E+02 0.  0.
         11    1    3    3    0    0 -0.12552710862E+04  0.30806032481E+03 -0.13437791804E+03  0.12994860863E+04  0.00000000000E+00 0. -1.
        -11    1    3    3    0    0 -0.50772744716E+03  0.12182701790E+03  0.79300932697E+01  0.52219907054E+03  0.00000000000E+00 0.  1.
         22    1    1    2    0    0  0.17629985333E+04 -0.42988734271E+03 -0.19085777907E+04  0.26335595947E+04  0.00000000000E+00 0.  1.
<mgrwt>
<rscale>  0 0.39633164E+04</rscale>
<asrwt>0</asrwt>
<pdfrwt beam="1">  1        2 0.18617070E+00 0.39633164E+04</pdfrwt>
<pdfrwt beam="2">  1       -2 0.49925157E+00 0.39633164E+04</pdfrwt>
<totfact> 0.24665617E-02</totfact>
</mgrwt>
</event>
<event>
 6    1  0.3017327E-006  0.4038288E+04  0.7818608E-02  0.7996867E-01
          2   -1    0    0  501    0  0.00000000000E+00  0.00000000000E+00  0.28643434409E+04  0.28643434409E+04  0.00000000000E+00 0. -1.
         -2   -1    0    0    0  501 -0.00000000000E+00 -0.00000000000E+00 -0.14233429856E+04  0.14233429856E+04  0.00000000000E+00 0.  1.
         23    2    1    2    0    0  0.14600835499E+04 -0.12811041659E+04  0.13960536314E+03  0.19495886864E+04  0.91293658779E+02 0.  0.
         11    1    3    3    0    0  0.43340578765E+03 -0.34352193850E+03  0.91310864597E+01  0.55311054568E+03  0.00000000000E+00 0.  1.
        -11    1    3    3    0    0  0.10266777623E+04 -0.93758222737E+03  0.13047427668E+03  0.13964781407E+04  0.00000000000E+00 0. -1.
         22    1    1    2    0    0 -0.14600835499E+04  0.12811041659E+04  0.13013950921E+04  0.23380977401E+04  0.00000000000E+00 0. -1.
<mgrwt>
<rscale>  0 0.40382883E+04</rscale>
<asrwt>0</asrwt>
<pdfrwt beam="1">  1        2 0.44066822E+00 0.40382883E+04</pdfrwt>
<pdfrwt beam="2">  1       -2 0.21897584E+00 0.40382883E+04</pdfrwt>
<totfact> 0.16665270E-01</totfact>
</mgrwt>
</event>
<event>
 6    1  0.3017327E-006  0.2845400E+04  0.7818608E-02  0.8289311E-01
         -4   -1    0    0    0  501 -0.00000000000E+00  0.00000000000E+00  0.82029544720E+03  0.82029544720E+03  0.00000000000E+00 0.  1.
          4   -1    0    0  501    0  0.00000000000E+00 -0.00000000000E+00 -0.24674951787E+04  0.24674951787E+04  0.00000000000E+00 0. -1.
         23    2    1    2    0    0  0.41575782447E+03  0.13005775700E+04 -0.36878363244E+03  0.14173082532E+04  0.91677331282E+02 0.  0.
         11    1    3    3    0    0  0.31917477341E+03  0.89409735694E+03 -0.28475528614E+03  0.99114488983E+03  0.00000000000E+00 0. -1.
        -11    1    3    3    0    0  0.96583051069E+02  0.40648021302E+03 -0.84028346302E+02  0.42616336341E+03  0.00000000000E+00 0.  1.
         22    1    1    2    0    0 -0.41575782447E+03 -0.13005775700E+04 -0.12784160991E+04  0.18704823727E+04  0.00000000000E+00 0.  1.
<mgrwt>
<rscale>  0 0.28453998E+04</rscale>
<asrwt>0</asrwt>
<pdfrwt beam="1">  1        4 0.37961464E+00 0.28453998E+04</pdfrwt>
<pdfrwt beam="2">  1       -4 0.12619930E+00 0.28453998E+04</pdfrwt>
<totfact> 0.75683324E-03</totfact>
</mgrwt>
</event>
<event>
 6    1  0.3017327E-006  0.5965240E+03  0.7818608E-02  0.9912644E-01
         -2   -1    0    0    0  501 -0.00000000000E+00  0.00000000000E+00  0.36869581666E+03  0.36869581666E+03  0.00000000000E+00 0.  1.
          2   -1    0    0  501    0  0.00000000000E+00 -0.00000000000E+00 -0.24128349870E+03  0.24128349870E+03  0.00000000000E+00 0. -1.
         23    2    1    2    0    0  0.47996671217E+02  0.18055862166E+03  0.29283991666E+03  0.36043696080E+03  0.96200257872E+02 0.  0.
         11    1    3    3    0    0  0.37046699707E+02  0.10910620313E+02  0.38648909498E+02  0.54637329731E+02  0.00000000000E+00 0. -1.
        -11    1    3    3    0    0  0.10949971510E+02  0.16964800135E+03  0.25419100717E+03  0.30579963107E+03  0.00000000000E+00 0.  1.
         22    1    1    2    0    0 -0.47996671217E+02 -0.18055862166E+03 -0.16542759870E+03  0.24954235455E+03  0.00000000000E+00 0. -1.
<mgrwt>
<rscale>  0 0.59652399E+03</rscale>
<asrwt>0</asrwt>
<pdfrwt beam="1">  1        2 0.37120538E-01 0.59652399E+03</pdfrwt>
<pdfrwt beam="2">  1       -2 0.56722433E-01 0.59652399E+03</pdfrwt>
<totfact> 0.41204776E+02</totfact>
</mgrwt>
</event>
<event>
 6    1  0.3017327E-006  0.1932555E+04  0.7818608E-02  0.8638819E-01
         -2   -1    0    0    0  501 -0.00000000000E+00  0.00000000000E+00  0.18735048946E+04  0.18735048946E+04  0.00000000000E+00 0.  1.
          2   -1    0    0  501    0  0.00000000000E+00 -0.00000000000E+00 -0.49836643603E+03  0.49836643603E+03  0.00000000000E+00 0. -1.
         23    2    1    2    0    0 -0.91917007156E+02  0.88296781118E+03  0.22761948270E+03  0.92105063470E+03  0.91884443744E+02 0.  0.
         11    1    3    3    0    0 -0.88162613310E+02  0.40935430182E+03  0.11412107314E+03  0.43401291472E+03  0.00000000000E+00 0. -1.
        -11    1    3    3    0    0 -0.37543938459E+01  0.47361350936E+03  0.11349840955E+03  0.48703771999E+03  0.00000000000E+00 0.  1.
         22    1    1    2    0    0  0.91917007156E+02 -0.88296781118E+03  0.11475189759E+04  0.14508206960E+04  0.00000000000E+00 0.  1.
<mgrwt>
<rscale>  0 0.19325547E+04</rscale>
<asrwt>0</asrwt>
<pdfrwt beam="1">  1        2 0.76671760E-01 0.19325547E+04</pdfrwt>
<pdfrwt beam="2">  1       -2 0.28823152E+00 0.19325547E+04</pdfrwt>
<totfact> 0.21678694E+00</totfact>
</mgrwt>
</event>
<event>
 6    1  0.3017327E-006  0.3544650E+04  0.7818608E-02  0.8103289E-01
         -2   -1    0    0    0  501 -0.00000000000E+00  0.00000000000E+00  0.16787558515E+04  0.16787558515E+04  0.00000000000E+00 0. -1.
          2   -1    0    0  501    0  0.00000000000E+00 -0.00000000000E+00 -0.18711093461E+04  0.18711093461E+04  0.00000000000E+00 0.  1.
         23    2    1    2    0    0  0.11274018928E+04 -0.12708293939E+04 -0.59804628753E+03  0.18032601997E+04  0.89697322689E+02 0.  0.
         13    1    3    3    0    0  0.56272074342E+03 -0.64010413871E+03 -0.34739016343E+03  0.92036290077E+03  0.00000000000E+00 0.  1.
        -13    1    3    3    0    0  0.56468114942E+03 -0.63072525515E+03 -0.25065612409E+03  0.88289729898E+03  0.00000000000E+00 0. -1.
         22    1    1    2    0    0 -0.11274018928E+04  0.12708293939E+04  0.40569279289E+03  0.17466049978E+04  0.00000000000E+00 0.  1.
<mgrwt>
<rscale>  0 0.35446499E+04</rscale>
<asrwt>0</asrwt>
<pdfrwt beam="1">  1        2 0.28786298E+00 0.35446499E+04</pdfrwt>
<pdfrwt beam="2">  1       -2 0.25827013E+00 0.35446499E+04</pdfrwt>
<totfact> 0.36881508E-01</totfact>
</mgrwt>
</event>
<event>
 6    1  0.3017327E-006  0.1598650E+04  0.7818608E-02  0.8821378E-01
          2   -1    0    0  501    0  0.00000000000E+00  0.00000000000E+00  0.12533969556E+04  0.12533969556E+04  0.00000000000E+00 0. -1.
         -2   -1    0    0    0  501 -0.00000000000E+00 -0.00000000000E+00 -0.50975109948E+03  0.50975109948E+03  0.00000000000E+00 0.  1.
         23    2    1    2    0    0  0.58443854057E+03  0.13003369715E+03  0.95280613548E+03  0.11289357937E+04  0.90439616695E+02 0.  0.
         11    1    3    3    0    0  0.16878002264E+03 -0.28264053136E+01  0.28302758805E+03  0.32954407930E+03  0.00000000000E+00 0.  1.
        -11    1    3    3    0    0  0.41565851794E+03  0.13286010247E+03  0.66977854744E+03  0.79939171435E+03  0.00000000000E+00 0. -1.
         22    1    1    2    0    0 -0.58443854057E+03 -0.13003369715E+03 -0.20916027935E+03  0.63421226144E+03  0.00000000000E+00 0.  1.
<mgrwt>
<rscale>  0 0.15986500E+04</rscale>
<asrwt>0</asrwt>
<pdfrwt beam="1">  1        2 0.19283030E+00 0.15986500E+04</pdfrwt>
<pdfrwt beam="2">  1       -2 0.78423246E-01 0.15986500E+04</pdfrwt>
<totfact> 0.24409576E+01</totfact>
</mgrwt>
</event>
<event>
 6    1  0.3017327E-006  0.4647262E+04  0.7818608E-02  0.7885351E-01
         -1   -1    0    0    0  501 -0.00000000000E+00  0.00000000000E+00  0.22751979170E+04  0.22751979170E+04  0.00000000000E+00 0.  1.
          1   -1    0    0  501    0  0.00000000000E+00 -0.00000000000E+00 -0.23730953769E+04  0.23730953769E+04  0.00000000000E+00 0. -1.
         23    2    1    2    0    0 -0.15884239963E+04 -0.16859968546E+04  0.12242304990E+03  0.23214462184E+04  0.91918204951E+02 0.  0.
         11    1    3    3    0    0 -0.13721910968E+04 -0.14901614038E+04  0.87052784494E+02  0.20275767810E+04  0.00000000000E+00 0.  1.
        -11    1    3    3    0    0 -0.21623289944E+03 -0.19583545073E+03  0.35370265402E+02  0.29386943740E+03  0.00000000000E+00 0. -1.
         22    1    1    2    0    0  0.15884239963E+04  0.16859968546E+04 -0.22032050976E+03  0.23268470754E+04  0.00000000000E+00 0. -1.
<mgrwt>
<rscale>  0 0.46472623E+04</rscale>
<asrwt>0</asrwt>
<pdfrwt beam="1">  1        1 0.36509160E+00 0.46472623E+04</pdfrwt>
<pdfrwt beam="2">  1       -1 0.35003045E+00 0.46472623E+04</pdfrwt>
<totfact> 0.19119245E-02</totfact>
</mgrwt>
</event>
<event>
 6    1  0.3017327E-006  0.9816140E+03  0.7818608E-02  0.9328943E-01
          2   -1    0    0  501    0  0.00000000000E+00  0.00000000000E+00  0.51397557454E+03  0.51397557454E+03  0.00000000000E+00 0. -1.
         -2   -1    0    0    0  501 -0.00000000000E+00 -0.00000000000E+00 -0.46868280099E+03  0.46868280099E+03  0.00000000000E+00 0.  1.
         23    2    1    2    0    0 -0.70146861184E+02  0.48102639415E+03  0.23892597341E+01  0.49465459942E+03  0.91490382870E+02 0.  0.
         11    1    3    3    0    0 -0.88028441107E+02  0.30447205295E+03  0.90634283032E+01  0.31707157426E+03  0.00000000000E+00 0. -1.
        -11    1    3    3    0    0  0.17881579923E+02  0.17655434120E+03 -0.66741685691E+01  0.17758302515E+03  0.00000000000E+00 0.  1.
         22    1    1    2    0    0  0.70146861184E+02 -0.48102639415E+03  0.42903513816E+02  0.48800377611E+03  0.00000000000E+00 0.  1.
<mgrwt>
<rscale>  0 0.98161400E+03</rscale>
<asrwt>0</asrwt>
<pdfrwt beam="1">  1        2 0.79073165E-01 0.98161400E+03</pdfrwt>
<pdfrwt beam="2">  1       -2 0.72105047E-01 0.98161400E+03</pdfrwt>
<totfact> 0.10388424E+02</totfact>
</mgrwt>
</event>
<event>
 6    1  0.3017327E-006  0.2630207E+04  0.7818608E-02  0.8358012E-01
         -2   -1    0    0    0  501 -0.00000000000E+00  0.00000000000E+00  0.81556387677E+03  0.81556387677E+03  0.00000000000E+00 0. -1.
          2   -1    0    0  501    0  0.00000000000E+00 -0.00000000000E+00 -0.21206149508E+04  0.21206149508E+04  0.00000000000E+00 0.  1.
         23    2    1    2    0    0  0.41841132743E+03  0.10166765452E+04 -0.14558123612E+04  0.18264814805E+04  0.89138829812E+02 0.  0.
         13    1    3    3    0    0  0.25679501887E+03  0.58901201892E+03 -0.78053916770E+03  0.10109996204E+04  0.00000000000E+00 0. -1.
        -13    1    3    3    0    0  0.16161630857E+03  0.42766452633E+03 -0.67527319346E+03  0.81548186005E+03  0.00000000000E+00 0.  1.
         22    1    1    2    0    0 -0.41841132743E+03 -0.10166765452E+04  0.15076128710E+03  0.11096973471E+04  0.00000000000E+00 0. -1.
<mgrwt>
<rscale>  0 0.26302068E+04</rscale>
<asrwt>0</asrwt>
<pdfrwt beam="1">  1        2 0.32624845E+00 0.26302068E+04</pdfrwt>
<pdfrwt beam="2">  1       -2 0.12547137E+00 0.26302068E+04</pdfrwt>
<totfact> 0.23978803E+00</totfact>
</mgrwt>
</event>
<event>
 6    1  0.3017327E-006  0.5748357E+03  0.7818608E-02  0.9959035E-01
          2   -1    0    0  501    0  0.00000000000E+00  0.00000000000E+00  0.52086518279E+03  0.52086518279E+03  0.00000000000E+00 0. -1.
         -2   -1    0    0    0  501 -0.00000000000E+00 -0.00000000000E+00 -0.15859964316E+03  0.15859964316E+03  0.00000000000E+00 0.  1.
         23    2    1    2    0    0  0.81992436276E+02  0.14042428590E+03  0.45543185587E+03  0.49205697616E+03  0.90885382613E+02 0.  0.
         13    1    3    3    0    0  0.67993007816E+02  0.11411465956E+03  0.43762273805E+03  0.45733889568E+03  0.00000000000E+00 0.  1.
        -13    1    3    3    0    0  0.13999428460E+02  0.26309626339E+02  0.17809117821E+02  0.34718080490E+02  0.00000000000E+00 0. -1.
         22    1    1    2    0    0 -0.81992436276E+02 -0.14042428590E+03 -0.93166316249E+02  0.18740784978E+03  0.00000000000E+00 0.  1.
<mgrwt>
<rscale>  0 0.57483574E+03</rscale>
<asrwt>0</asrwt>
<pdfrwt beam="1">  1        2 0.80133104E-01 0.57483574E+03</pdfrwt>
<pdfrwt beam="2">  1       -2 0.24399945E-01 0.57483574E+03</pdfrwt>
<totfact> 0.88275230E+02</totfact>
</mgrwt>
</event>
<event>
 6    1  0.3017327E-006  0.7036867E+03  0.7818608E-02  0.9710948E-01
          2   -1    0    0  501    0  0.00000000000E+00  0.00000000000E+00  0.13927454510E+04  0.13927454510E+04  0.00000000000E+00 0. -1.
         -2   -1    0    0    0  501 -0.00000000000E+00 -0.00000000000E+00 -0.88884688901E+02  0.88884688901E+02  0.00000000000E+00 0.  1.
         23    2    1    2    0    0 -0.73839448927E+02  0.11302390018E+03  0.13335770351E+04  0.13433922178E+04  0.89712183900E+02 0.  0.
         13    1    3    3    0    0 -0.49290877745E+02  0.45988180845E+02  0.99959612932E+03  0.10018667203E+04  0.00000000000E+00 0. -1.
        -13    1    3    3    0    0 -0.24548571182E+02  0.67035719332E+02  0.33398090578E+03  0.34152549750E+03  0.00000000000E+00 0.  1.
         22    1    1    2    0    0  0.73839448927E+02 -0.11302390018E+03 -0.29716273031E+02  0.13823792212E+03  0.00000000000E+00 0.  1.
<mgrwt>
<rscale>  0 0.70368671E+03</rscale>
<asrwt>0</asrwt>
<pdfrwt beam="1">  1        2 0.21426852E+00 0.70368671E+03</pdfrwt>
<pdfrwt beam="2">  1       -2 0.13674569E-01 0.70368671E+03</pdfrwt>
<totfact> 0.60574938E+02</totfact>
</mgrwt>
</event>
<event>
 6    1  0.3017327E-006  0.5028074E+04  0.7818608E-02  0.7824191E-01
          2   -1    0    0  501    0  0.00000000000E+00  0.00000000000E+00  0.31834236338E+04  0.31834236338E+04  0.00000000000E+00 0. -1.
         -2   -1    0    0    0  501 -0.00000000000E+00 -0.00000000000E+00 -0.19854036355E+04  0.19854036355E+04  0.00000000000E+00 0.  1.
         23    2    1    2    0    0 -0.63881312154E+03 -0.17215899485E+04  0.23631088423E+04  0.29941120765E+04  0.92030273688E+02 0.  0.
         13    1    3    3    0    0 -0.11670659375E+03 -0.30120800357E+03  0.47418975642E+03  0.57376181080E+03  0.00000000000E+00 0.  1.
        -13    1    3    3    0    0 -0.52210652779E+03 -0.14203819449E+04  0.18889190859E+04  0.24203502657E+04  0.00000000000E+00 0. -1.
         22    1    1    2    0    0  0.63881312154E+03  0.17215899485E+04 -0.11650888440E+04  0.21747151927E+04  0.00000000000E+00 0.  1.
<mgrwt>
<rscale>  0 0.50280735E+04</rscale>
<asrwt>0</asrwt>
<pdfrwt beam="1">  1        2 0.48975748E+00 0.50280735E+04</pdfrwt>
<pdfrwt beam="2">  1       -2 0.30544671E+00 0.50280735E+04</pdfrwt>
<totfact> 0.28396249E-02</totfact>
</mgrwt>
</event>
<event>
 6    1  0.3017327E-006  0.1412628E+04  0.7818608E-02  0.8944728E-01
         -2   -1    0    0    0  501 -0.00000000000E+00  0.00000000000E+00  0.48157218768E+03  0.48157218768E+03  0.00000000000E+00 0.  1.
          2   -1    0    0  501    0  0.00000000000E+00 -0.00000000000E+00 -0.10359388532E+04  0.10359388532E+04  0.00000000000E+00 0. -1.
         23    2    1    2    0    0  0.34616397890E+03 -0.18450180258E+03 -0.90568670466E+03  0.99092184104E+03  0.88245524567E+02 0.  0.
         11    1    3    3    0    0  0.27537717971E+03 -0.15898228373E+03 -0.63781432220E+03  0.71268160300E+03  0.00000000000E+00 0. -1.
        -11    1    3    3    0    0  0.70786799190E+02 -0.25519518857E+02 -0.26787238245E+03  0.27824023804E+03  0.00000000000E+00 0.  1.
         22    1    1    2    0    0 -0.34616397890E+03  0.18450180258E+03  0.35132003917E+03  0.52658919982E+03  0.00000000000E+00 0.  1.
<mgrwt>
<rscale>  0 0.14126278E+04</rscale>
<asrwt>0</asrwt>
<pdfrwt beam="1">  1        2 0.15937521E+00 0.14126278E+04</pdfrwt>
<pdfrwt beam="2">  1       -2 0.74088029E-01 0.14126278E+04</pdfrwt>
<totfact> 0.38127259E+01</totfact>
</mgrwt>
</event>
<event>
 6    1  0.3017327E-006  0.1906604E+04  0.7818608E-02  0.8651576E-01
          2   -1    0    0  501    0  0.00000000000E+00  0.00000000000E+00  0.14733381309E+04  0.14733381309E+04  0.00000000000E+00 0. -1.
         -2   -1    0    0    0  501 -0.00000000000E+00 -0.00000000000E+00 -0.61682031777E+03  0.61682031777E+03  0.00000000000E+00 0.  1.
         23    2    1    2    0    0  0.11566579334E+03 -0.87234625982E+03  0.82519841029E+03  0.12096202736E+04  0.88669144492E+02 0.  0.
         11    1    3    3    0    0  0.41706420503E+02 -0.11468469728E+03  0.93547797235E+02  0.15376344061E+03  0.00000000000E+00 0.  1.
        -11    1    3    3    0    0  0.73959372842E+02 -0.75766156254E+03  0.73165061306E+03  0.10558568330E+04  0.00000000000E+00 0. -1.
         22    1    1    2    0    0 -0.11566579334E+03  0.87234625982E+03  0.31319402837E+02  0.88053817507E+03  0.00000000000E+00 0. -1.
<mgrwt>
<rscale>  0 0.19066042E+04</rscale>
<asrwt>0</asrwt>
<pdfrwt beam="1">  1        2 0.22666740E+00 0.19066042E+04</pdfrwt>
<pdfrwt beam="2">  1       -2 0.94895434E-01 0.19066042E+04</pdfrwt>
<totfact> 0.11496674E+01</totfact>
</mgrwt>
</event>
<event>
 6    1  0.3017327E-006  0.4473232E+04  0.7818608E-02  0.7915340E-01
          2   -1    0    0  501    0  0.00000000000E+00  0.00000000000E+00  0.26180178415E+04  0.26180178415E+04  0.00000000000E+00 0. -1.
         -2   -1    0    0    0  501 -0.00000000000E+00 -0.00000000000E+00 -0.19107780781E+04  0.19107780781E+04  0.00000000000E+00 0.  1.
         23    2    1    2    0    0  0.31044465232E+02 -0.43159265114E+03  0.25744397585E+04  0.26121134219E+04  0.90335394057E+02 0.  0.
         13    1    3    3    0    0  0.10635671446E+02 -0.16274540777E+03  0.72458628742E+03  0.74271426078E+03  0.00000000000E+00 0. -1.
        -13    1    3    3    0    0  0.20408793786E+02 -0.26884724336E+03  0.18498534711E+04  0.18693991611E+04  0.00000000000E+00 0.  1.
         22    1    1    2    0    0 -0.31044465232E+02  0.43159265114E+03 -0.18671999951E+04  0.19166824977E+04  0.00000000000E+00 0.  1.
<mgrwt>
<rscale>  0 0.44732320E+04</rscale>
<asrwt>0</asrwt>
<pdfrwt beam="1">  1        2 0.40277198E+00 0.44732320E+04</pdfrwt>
<pdfrwt beam="2">  1       -2 0.29396586E+00 0.44732320E+04</pdfrwt>
<totfact> 0.78031908E-02</totfact>
</mgrwt>
</event>
<event>
 6    1  0.3017327E-006  0.4998711E+04  0.7818608E-02  0.7828706E-01
          2   -1    0    0  501    0  0.00000000000E+00  0.00000000000E+00  0.21511091495E+04  0.21511091495E+04  0.00000000000E+00 0. -1.
         -2   -1    0    0    0  501 -0.00000000000E+00 -0.00000000000E+00 -0.29039794772E+04  0.29039794772E+04  0.00000000000E+00 0.  1.
         23    2    1    2    0    0 -0.13017651264E+04 -0.10001730428E+04  0.15281856550E+04  0.22447229999E+04  0.92148740806E+02 0.  0.
         13    1    3    3    0    0 -0.16775223921E+03 -0.15034449716E+03  0.17428860892E+03  0.28481713570E+03  0.00000000000E+00 0. -1.
        -13    1    3    3    0    0 -0.11340128872E+04 -0.84982854569E+03  0.13538970461E+04  0.19599058642E+04  0.00000000000E+00 0.  1.
         22    1    1    2    0    0  0.13017651264E+04  0.10001730428E+04 -0.22810559827E+04  0.28103656267E+04  0.00000000000E+00 0.  1.
<mgrwt>
<rscale>  0 0.49987106E+04</rscale>
<asrwt>0</asrwt>
<pdfrwt beam="1">  1        2 0.33093987E+00 0.49987106E+04</pdfrwt>
<pdfrwt beam="2">  1       -2 0.44676607E+00 0.49987106E+04</pdfrwt>
<totfact> 0.14641116E-02</totfact>
</mgrwt>
</event>
<event>
 6    1  0.3017327E-006  0.5493797E+04  0.7818608E-02  0.7756543E-01
          2   -1    0    0  501    0  0.00000000000E+00  0.00000000000E+00  0.32295825556E+04  0.32295825556E+04  0.00000000000E+00 0. -1.
         -2   -1    0    0    0  501 -0.00000000000E+00 -0.00000000000E+00 -0.23363548716E+04  0.23363548716E+04  0.00000000000E+00 0.  1.
         23    2    1    2    0    0 -0.87883344823E+03 -0.18187522174E+04  0.23315555359E+04  0.30862207362E+04  0.91648008940E+02 0.  0.
         13    1    3    3    0    0 -0.66245232405E+03 -0.13989689561E+04  0.17291150779E+04  0.23207318187E+04  0.00000000000E+00 0.  1.
        -13    1    3    3    0    0 -0.21638112418E+03 -0.41978326136E+03  0.60244045790E+03  0.76548891745E+03  0.00000000000E+00 0. -1.
         22    1    1    2    0    0  0.87883344823E+03  0.18187522174E+04 -0.14383278518E+04  0.24797166910E+04  0.00000000000E+00 0.  1.
<mgrwt>
<rscale>  0 0.54937968E+04</rscale>
<asrwt>0</asrwt>
<pdfrwt beam="1">  1        2 0.49685885E+00 0.54937968E+04</pdfrwt>
<pdfrwt beam="2">  1       -2 0.35943921E+00 0.54937968E+04</pdfrwt>
<totfact> 0.11762927E-02</totfact>
</mgrwt>
</event>
<event>
 6    1  0.3017327E-006  0.1046199E+04  0.7818608E-02  0.9259277E-01
          2   -1    0    0  501    0  0.00000000000E+00  0.00000000000E+00  0.43066493644E+03  0.43066493644E+03  0.00000000000E+00 0. -1.
         -2   -1    0    0    0  501 -0.00000000000E+00 -0.00000000000E+00 -0.63537351886E+03  0.63537351886E+03  0.00000000000E+00 0.  1.
         23    2    1    2    0    0 -0.21397817433E+03 -0.47066710986E+03 -0.55345181854E+02  0.52787155478E+03  0.90945598007E+02 0.  0.
         11    1    3    3    0    0 -0.12225905057E+03 -0.26722522520E+03 -0.76645979231E+02  0.30369590475E+03  0.00000000000E+00 0.  1.
        -11    1    3    3    0    0 -0.91719123753E+02 -0.20344188466E+03  0.21300797376E+02  0.22417565002E+03  0.00000000000E+00 0. -1.
         22    1    1    2    0    0  0.21397817433E+03  0.47066710986E+03 -0.14936340057E+03  0.53816690052E+03  0.00000000000E+00 0.  1.
<mgrwt>
<rscale>  0 0.10461990E+04</rscale>
<asrwt>0</asrwt>
<pdfrwt beam="1">  1        2 0.66256144E-01 0.10461990E+04</pdfrwt>
<pdfrwt beam="2">  1       -2 0.97749772E-01 0.10461990E+04</pdfrwt>
<totfact> 0.63499937E+01</totfact>
</mgrwt>
</event>
<event>
 6    1  0.3017327E-006  0.5149795E+04  0.7818608E-02  0.7805806E-01
         -1   -1    0    0    0  501 -0.00000000000E+00  0.00000000000E+00  0.24515631603E+04  0.24515631603E+04  0.00000000000E+00 0.  1.
          1   -1    0    0  501    0  0.00000000000E+00 -0.00000000000E+00 -0.27044370615E+04  0.27044370615E+04  0.00000000000E+00 0. -1.
         23    2    1    2    0    0 -0.10847544442E+04 -0.19033167273E+04  0.12266229883E+04  0.25124764722E+04  0.92883256136E+02 0.  0.
         11    1    3    3    0    0 -0.52129076903E+03 -0.88263918652E+03  0.62386168785E+03  0.11999997521E+04  0.00000000000E+00 0. -1.
        -11    1    3    3    0    0 -0.56346367516E+03 -0.10206775408E+04  0.60276130047E+03  0.13124767201E+04  0.00000000000E+00 0.  1.
         22    1    1    2    0    0  0.10847544442E+04  0.19033167273E+04 -0.14794968895E+04  0.26435237496E+04  0.00000000000E+00 0. -1.
<mgrwt>
<rscale>  0 0.51497954E+04</rscale>
<asrwt>0</asrwt>
<pdfrwt beam="1">  1        1 0.41606724E+00 0.51497954E+04</pdfrwt>
<pdfrwt beam="2">  1       -1 0.37716356E+00 0.51497954E+04</pdfrwt>
<totfact> 0.71103753E-03</totfact>
</mgrwt>
</event>
<event>
 6    1  0.3017327E-006  0.3763224E+04  0.7818608E-02  0.8054093E-01
          2   -1    0    0  501    0  0.00000000000E+00  0.00000000000E+00  0.87259015133E+03  0.87259015133E+03  0.00000000000E+00 0. -1.
         -2   -1    0    0    0  501 -0.00000000000E+00 -0.00000000000E+00 -0.40574196330E+04  0.40574196330E+04  0.00000000000E+00 0.  1.
         23    2    1    2    0    0 -0.18404080186E+04 -0.38188608477E+03 -0.16705303916E+04  0.25162905813E+04  0.90043566632E+02 0.  0.
         11    1    3    3    0    0 -0.98099335696E+03 -0.16920730301E+03 -0.84426276338E+03  0.13052810776E+04  0.00000000000E+00 0.  1.
        -11    1    3    3    0    0 -0.85941466163E+03 -0.21267878176E+03 -0.82626762820E+03  0.12110095038E+04  0.00000000000E+00 0. -1.
         22    1    1    2    0    0  0.18404080186E+04  0.38188608477E+03 -0.15142990901E+04  0.24137192030E+04  0.00000000000E+00 0. -1.
<mgrwt>
<rscale>  0 0.37632244E+04</rscale>
<asrwt>0</asrwt>
<pdfrwt beam="1">  1        2 0.13424464E+00 0.37632244E+04</pdfrwt>
<pdfrwt beam="2">  1       -2 0.62421839E+00 0.37632244E+04</pdfrwt>
<totfact> 0.10102184E-02</totfact>
</mgrwt>
</event>
<event>
 6    1  0.3017327E-006  0.4804868E+04  0.7818608E-02  0.7859334E-01
         -2   -1    0    0    0  501 -0.00000000000E+00  0.00000000000E+00  0.16975810545E+04  0.16975810545E+04  0.00000000000E+00 0.  1.
          2   -1    0    0  501    0  0.00000000000E+00 -0.00000000000E+00 -0.33999496988E+04  0.33999496988E+04  0.00000000000E+00 0. -1.
         23    2    1    2    0    0  0.17164936262E+04 -0.80427976618E+03  0.71289859501E+03  0.20272323723E+04  0.90721406886E+02 0.  0.
         11    1    3    3    0    0  0.75281927512E+03 -0.40216578478E+03  0.31442964303E+03  0.90958242059E+03  0.00000000000E+00 0. -1.
        -11    1    3    3    0    0  0.96367435106E+03 -0.40211398140E+03  0.39846895198E+03  0.11176499517E+04  0.00000000000E+00 0.  1.
         22    1    1    2    0    0 -0.17164936262E+04  0.80427976618E+03 -0.24152672393E+04  0.30702983810E+04  0.00000000000E+00 0. -1.
<mgrwt>
<rscale>  0 0.48048684E+04</rscale>
<asrwt>0</asrwt>
<pdfrwt beam="1">  1        2 0.52306918E+00 0.48048684E+04</pdfrwt>
<pdfrwt beam="2">  1       -2 0.26116632E+00 0.48048684E+04</pdfrwt>
<totfact> 0.38630401E-02</totfact>
</mgrwt>
</event>
<event>
 6    1  0.3017327E-006  0.1685820E+04  0.7818608E-02  0.8769494E-01
         -2   -1    0    0    0  501 -0.00000000000E+00  0.00000000000E+00  0.29807144154E+03  0.29807144154E+03  0.00000000000E+00 0. -1.
          2   -1    0    0  501    0  0.00000000000E+00 -0.00000000000E+00 -0.23836462855E+04  0.23836462855E+04  0.00000000000E+00 0.  1.
         23    2    1    2    0    0 -0.45253628828E+02 -0.51224796999E+03  0.11786691335E+02  0.52223369529E+03  0.90239862158E+02 0.  0.
         11    1    3    3    0    0  0.63044318287E+01 -0.33380926102E+03 -0.16886286815E+02  0.33429555080E+03  0.00000000000E+00 0. -1.
        -11    1    3    3    0    0 -0.51558060657E+02 -0.17843870897E+03  0.28672978151E+02  0.18793814449E+03  0.00000000000E+00 0.  1.
         22    1    1    2    0    0  0.45253628828E+02  0.51224796999E+03 -0.20973615353E+04  0.21594840317E+04  0.00000000000E+00 0.  1.
<mgrwt>
<rscale>  0 0.16858195E+04</rscale>
<asrwt>0</asrwt>
<pdfrwt beam="1">  1        2 0.36671482E+00 0.16858195E+04</pdfrwt>
<pdfrwt beam="2">  1       -2 0.45857144E-01 0.16858195E+04</pdfrwt>
<totfact> 0.17469758E+01</totfact>
</mgrwt>
</event>
<event>
 6    1  0.3017327E-006  0.1519288E+04  0.7818608E-02  0.8871727E-01
          2   -1    0    0  501    0  0.00000000000E+00  0.00000000000E+00  0.75524580462E+03  0.75524580462E+03  0.00000000000E+00 0.  1.
         -2   -1    0    0    0  501 -0.00000000000E+00 -0.00000000000E+00 -0.76406742678E+03  0.76406742678E+03  0.00000000000E+00 0. -1.
         23    2    1    2    0    0 -0.28573549499E+03  0.34092216232E+03  0.60810788418E+03  0.75873798222E+03  0.89528950635E+02 0.  0.
         11    1    3    3    0    0 -0.15646403605E+03  0.21048700809E+03  0.42497130790E+03  0.49938601071E+03  0.00000000000E+00 0. -1.
        -11    1    3    3    0    0 -0.12927145895E+03  0.13043515423E+03  0.18313657628E+03  0.25935197151E+03  0.00000000000E+00 0.  1.
         22    1    1    2    0    0  0.28573549499E+03 -0.34092216232E+03 -0.61692950635E+03  0.76057524918E+03  0.00000000000E+00 0. -1.
<mgrwt>
<rscale>  0 0.15192876E+04</rscale>
<asrwt>0</asrwt>
<pdfrwt beam="1">  1        2 0.11619166E+00 0.15192876E+04</pdfrwt>
<pdfrwt beam="2">  1       -2 0.11754883E+00 0.15192876E+04</pdfrwt>
<totfact> 0.20034654E+01</totfact>
</mgrwt>
</event>
<event>
 6    1  0.3017327E-006  0.2101126E+04  0.7818608E-02  0.8560747E-01
         -2   -1    0    0    0  501 -0.00000000000E+00  0.00000000000E+00  0.53315415606E+03  0.53315415606E+03  0.00000000000E+00 0.  1.
          2   -1    0    0  501    0  0.00000000000E+00 -0.00000000000E+00 -0.20701008470E+04  0.20701008470E+04  0.00000000000E+00 0. -1.
         23    2    1    2    0    0 -0.36510955364E+03  0.72376009100E+03  0.53789158805E+02  0.81787711612E+03  0.94318863382E+02 0.  0.
         13    1    3    3    0    0 -0.25929704808E+03  0.51472227797E+03 -0.48177153641E+01  0.57636550293E+03  0.00000000000E+00 0. -1.
        -13    1    3    3    0    0 -0.10581250556E+03  0.20903781303E+03  0.58606874170E+02  0.24151161319E+03  0.00000000000E+00 0.  1.
         22    1    1    2    0    0  0.36510955364E+03 -0.72376009100E+03 -0.15907358498E+04  0.17853778869E+04  0.00000000000E+00 0. -1.
<mgrwt>
<rscale>  0 0.21011262E+04</rscale>
<asrwt>0</asrwt>
<pdfrwt beam="1">  1        2 0.31847706E+00 0.21011262E+04</pdfrwt>
<pdfrwt beam="2">  1       -2 0.82023715E-01 0.21011262E+04</pdfrwt>
<totfact> 0.73506732E+00</totfact>
</mgrwt>
</event>
<event>
 6    1  0.3616458E-006  0.4278838E+04  0.7818608E-02  0.7950543E-01
          2   -1    0    0  501    0  0.00000000000E+00  0.00000000000E+00  0.36988186252E+04  0.36988186252E+04  0.00000000000E+00 0. -1.
         -2   -1    0    0    0  501 -0.00000000000E+00 -0.00000000000E+00 -0.12374527984E+04  0.12374527984E+04  0.00000000000E+00 0.  1.
         23    2    1    2    0    0 -0.75091617567E+02 -0.15991767200E+04  0.28667564979E+04  0.32848034315E+04  0.92929177574E+02 0.  0.
         13    1    3    3    0    0 -0.60778525494E+02 -0.58622596948E+03  0.99335054688E+03  0.11550325647E+04  0.00000000000E+00 0. -1.
        -13    1    3    3    0    0 -0.14313092074E+02 -0.10129507505E+04  0.18734059510E+04  0.21297708668E+04  0.00000000000E+00 0.  1.
         22    1    1    2    0    0  0.75091617567E+02  0.15991767200E+04 -0.40539067118E+03  0.16514679922E+04  0.00000000000E+00 0.  1.
<mgrwt>
<rscale>  0 0.42788379E+04</rscale>
<asrwt>0</asrwt>
<pdfrwt beam="1">  1        2 0.56904901E+00 0.42788379E+04</pdfrwt>
<pdfrwt beam="2">  1       -2 0.19037736E+00 0.42788379E+04</pdfrwt>
<totfact> 0.69340201E-02</totfact>
</mgrwt>
</event>
<event>
 6    1  0.3017327E-006  0.1544926E+04  0.7818608E-02  0.8855115E-01
          2   -1    0    0  501    0  0.00000000000E+00  0.00000000000E+00  0.14781706863E+04  0.14781706863E+04  0.00000000000E+00 0. -1.
         -2   -1    0    0    0  501 -0.00000000000E+00 -0.00000000000E+00 -0.40367394336E+03  0.40367394336E+03  0.00000000000E+00 0.  1.
         23    2    1    2    0    0 -0.59738269707E+03  0.45348117508E+03  0.32763023483E+03  0.82339253162E+03  0.90124510793E+02 0.  0.
         13    1    3    3    0    0 -0.10210593765E+03  0.10308330182E+03  0.32341353513E+02  0.14865312901E+03  0.00000000000E+00 0.  1.
        -13    1    3    3    0    0 -0.49527675943E+03  0.35039787325E+03  0.29528888132E+03  0.67473940261E+03  0.00000000000E+00 0. -1.
         22    1    1    2    0    0  0.59738269707E+03 -0.45348117508E+03  0.74686650810E+03  0.10584520980E+04  0.00000000000E+00 0. -1.
<mgrwt>
<rscale>  0 0.15449259E+04</rscale>
<asrwt>0</asrwt>
<pdfrwt beam="1">  1        2 0.22741087E+00 0.15449259E+04</pdfrwt>
<pdfrwt beam="2">  1       -2 0.62103684E-01 0.15449259E+04</pdfrwt>
<totfact> 0.30268520E+01</totfact>
</mgrwt>
</event>
<event>
 6    1  0.3017327E-006  0.2114447E+04  0.7818608E-02  0.8554906E-01
         -2   -1    0    0    0  501 -0.00000000000E+00  0.00000000000E+00  0.11899427569E+04  0.11899427569E+04  0.00000000000E+00 0.  1.
          2   -1    0    0  501    0  0.00000000000E+00 -0.00000000000E+00 -0.93930739883E+03  0.93930739883E+03  0.00000000000E+00 0. -1.
         23    2    1    2    0    0  0.64660847758E+03 -0.65589075387E+03  0.64456643166E+03  0.11275132167E+04  0.86746554633E+02 0.  0.
         11    1    3    3    0    0  0.15796611303E+03 -0.11057073143E+03  0.12886997217E+03  0.23191948870E+03  0.00000000000E+00 0.  1.
        -11    1    3    3    0    0  0.48864236455E+03 -0.54532002245E+03  0.51569645949E+03  0.89559372800E+03  0.00000000000E+00 0. -1.
         22    1    1    2    0    0 -0.64660847758E+03  0.65589075387E+03 -0.39393107357E+03  0.10017369390E+04  0.00000000000E+00 0. -1.
<mgrwt>
<rscale>  0 0.21144475E+04</rscale>
<asrwt>0</asrwt>
<pdfrwt beam="1">  1        2 0.14450883E+00 0.21144475E+04</pdfrwt>
<pdfrwt beam="2">  1       -2 0.18306812E+00 0.21144475E+04</pdfrwt>
<totfact> 0.43859450E+00</totfact>
</mgrwt>
</event>
<event>
 6    1  0.3017327E-006  0.1491731E+04  0.7818608E-02  0.8889970E-01
         -1   -1    0    0    0  501 -0.00000000000E+00  0.00000000000E+00  0.14887309485E+04  0.14887309485E+04  0.00000000000E+00 0.  1.
          1   -1    0    0  501    0  0.00000000000E+00 -0.00000000000E+00 -0.37368423532E+03  0.37368423532E+03  0.00000000000E+00 0. -1.
         23    2    1    2    0    0 -0.61643500989E+03  0.25565521334E+03  0.96735790645E+03  0.11789214434E+04  0.93395615907E+02 0.  0.
         13    1    3    3    0    0 -0.29874229149E+03  0.13724928137E+03  0.39757842629E+03  0.51590011341E+03  0.00000000000E+00 0. -1.
        -13    1    3    3    0    0 -0.31769271840E+03  0.11840593197E+03  0.56977948016E+03  0.66302133002E+03  0.00000000000E+00 0.  1.
         22    1    1    2    0    0  0.61643500989E+03 -0.25565521334E+03  0.14768880672E+03  0.68349374039E+03  0.00000000000E+00 0. -1.
<mgrwt>
<rscale>  0 0.14917309E+04</rscale>
<asrwt>0</asrwt>
<pdfrwt beam="1">  1        1 0.57489883E-01 0.14917309E+04</pdfrwt>
<pdfrwt beam="2">  1       -1 0.22903553E+00 0.14917309E+04</pdfrwt>
<totfact> 0.60914799E+00</totfact>
</mgrwt>
</event>
<event>
 6    1  0.3017327E-006  0.1729503E+04  0.7818608E-02  0.8744714E-01
          2   -1    0    0  501    0  0.00000000000E+00  0.00000000000E+00  0.25866657360E+04  0.25866657360E+04  0.00000000000E+00 0. -1.
         -2   -1    0    0    0  501 -0.00000000000E+00 -0.00000000000E+00 -0.28909624276E+03  0.28909624276E+03  0.00000000000E+00 0.  1.
         23    2    1    2    0    0  0.10112429893E+03 -0.40671014477E+03 -0.10140190037E+03  0.44045850423E+03  0.89900405205E+02 0.  0.
         11    1    3    3    0    0  0.65221241509E+02 -0.34426886708E+03 -0.54753407418E+02  0.35464460916E+03  0.00000000000E+00 0. -1.
        -11    1    3    3    0    0  0.35903057425E+02 -0.62441277696E+02 -0.46648492953E+02  0.85813895072E+02  0.00000000000E+00 0.  1.
         22    1    1    2    0    0 -0.10112429893E+03  0.40671014477E+03  0.23989713937E+04  0.24353034746E+04  0.00000000000E+00 0. -1.
<mgrwt>
<rscale>  0 0.17295032E+04</rscale>
<asrwt>0</asrwt>
<pdfrwt beam="1">  1        2 0.39794856E+00 0.17295032E+04</pdfrwt>
<pdfrwt beam="2">  1       -2 0.44476347E-01 0.17295032E+04</pdfrwt>
<totfact> 0.14129597E+01</totfact>
</mgrwt>
</event>
<event>
 6    1  0.3017327E-006  0.4586295E+04  0.7818608E-02  0.7895701E-01
          2   -1    0    0  501    0  0.00000000000E+00  0.00000000000E+00  0.22400685542E+04  0.22400685542E+04  0.00000000000E+00 0. -1.
         -2   -1    0    0    0  501 -0.00000000000E+00 -0.00000000000E+00 -0.23474843910E+04  0.23474843910E+04  0.00000000000E+00 0.  1.
         23    2    1    2    0    0 -0.60913293119E+03  0.16656973188E+04 -0.15063404332E+04  0.23286637243E+04  0.89569829983E+02 0.  0.
         13    1    3    3    0    0 -0.40779715767E+03  0.11454102462E+04 -0.10847038780E+04  0.16293697115E+04  0.00000000000E+00 0. -1.
        -13    1    3    3    0    0 -0.20133577352E+03  0.52028707259E+03 -0.42163655524E+03  0.69929401279E+03  0.00000000000E+00 0.  1.
         22    1    1    2    0    0  0.60913293119E+03 -0.16656973188E+04  0.13989245964E+04  0.22588892208E+04  0.00000000000E+00 0. -1.
<mgrwt>
<rscale>  0 0.45862952E+04</rscale>
<asrwt>0</asrwt>
<pdfrwt beam="1">  1        2 0.34462593E+00 0.45862952E+04</pdfrwt>
<pdfrwt beam="2">  1       -2 0.36115144E+00 0.45862952E+04</pdfrwt>
<totfact> 0.48773572E-02</totfact>
</mgrwt>
</event>
<event>
 6    1  0.3017327E-006  0.2311405E+04  0.7818608E-02  0.8473438E-01
          2   -1    0    0  501    0  0.00000000000E+00  0.00000000000E+00  0.76463178251E+03  0.76463178251E+03  0.00000000000E+00 0. -1.
         -2   -1    0    0    0  501 -0.00000000000E+00 -0.00000000000E+00 -0.17467855749E+04  0.17467855749E+04  0.00000000000E+00 0.  1.
         23    2    1    2    0    0  0.41009061150E+03  0.11282387659E+03  0.67368540556E+03  0.80182471990E+03  0.90373220604E+02 0.  0.
         11    1    3    3    0    0  0.27806316924E+03  0.11905852453E+03  0.47898595321E+03  0.56649942782E+03  0.00000000000E+00 0. -1.
        -11    1    3    3    0    0  0.13202744226E+03 -0.62346479319E+01  0.19469945235E+03  0.23532529208E+03  0.00000000000E+00 0.  1.
         22    1    1    2    0    0 -0.41009061150E+03 -0.11282387659E+03 -0.16558391980E+04  0.17095926376E+04  0.00000000000E+00 0.  1.
<mgrwt>
<rscale>  0 0.23114046E+04</rscale>
<asrwt>0</asrwt>
<pdfrwt beam="1">  1        2 0.11763566E+00 0.23114046E+04</pdfrwt>
<pdfrwt beam="2">  1       -2 0.26873624E+00 0.23114046E+04</pdfrwt>
<totfact> 0.16340465E+00</totfact>
</mgrwt>
</event>
<event>
 6    1  0.3017327E-006  0.5051735E+03  0.7818608E-02  0.1012437E+00
         -1   -1    0    0    0  501 -0.00000000000E+00  0.00000000000E+00  0.89052001255E+02  0.89052001255E+02  0.00000000000E+00 0. -1.
          1   -1    0    0  501    0  0.00000000000E+00 -0.00000000000E+00 -0.71643604154E+03  0.71643604154E+03  0.00000000000E+00 0.  1.
         23    2    1    2    0    0 -0.20603574002E+02  0.17964234337E+03 -0.58677760995E+03  0.62016464714E+03  0.87179970317E+02 0.  0.
         13    1    3    3    0    0  0.14631684575E+02  0.81081583671E+02 -0.15123833983E+03  0.17222469289E+03  0.00000000000E+00 0. -1.
        -13    1    3    3    0    0 -0.35235258576E+02  0.98560759702E+02 -0.43553927012E+03  0.44793995425E+03  0.00000000000E+00 0.  1.
         22    1    1    2    0    0  0.20603574002E+02 -0.17964234337E+03 -0.40606430336E+02  0.18532339566E+03  0.00000000000E+00 0. -1.
<mgrwt>
<rscale>  0 0.50517349E+03</rscale>
<asrwt>0</asrwt>
<pdfrwt beam="1">  1        1 0.11022093E+00 0.50517349E+03</pdfrwt>
<pdfrwt beam="2">  1       -1 0.13700308E-01 0.50517349E+03</pdfrwt>
<totfact> 0.10098111E+03</totfact>
</mgrwt>
</event>
<event>
 6    1  0.3017327E-006  0.1810812E+04  0.7818608E-02  0.8700571E-01
          2   -1    0    0  501    0  0.00000000000E+00  0.00000000000E+00  0.31747351728E+04  0.31747351728E+04  0.00000000000E+00 0. -1.
         -2   -1    0    0    0  501 -0.00000000000E+00 -0.00000000000E+00 -0.25821367920E+03  0.25821367920E+03  0.00000000000E+00 0.  1.
         23    2    1    2    0    0 -0.52741485626E+03 -0.48248262105E+03  0.25084550724E+04  0.26098606949E+04  0.89833659613E+02 0.  0.
         11    1    3    3    0    0 -0.27887764270E+03 -0.20275658468E+03  0.12858802649E+04  0.13313042582E+04  0.00000000000E+00 0. -1.
        -11    1    3    3    0    0 -0.24853721356E+03 -0.27972603637E+03  0.12225748075E+04  0.12785564367E+04  0.00000000000E+00 0.  1.
         22    1    1    2    0    0  0.52741485626E+03  0.48248262105E+03  0.40806642118E+03  0.82308815707E+03  0.00000000000E+00 0. -1.
<mgrwt>
<rscale>  0 0.18108120E+04</rscale>
<asrwt>0</asrwt>
<pdfrwt beam="1">  1        2 0.48842077E+00 0.18108120E+04</pdfrwt>
<pdfrwt beam="2">  1       -2 0.39725184E-01 0.18108120E+04</pdfrwt>
<totfact> 0.76544641E+00</totfact>
</mgrwt>
</event>
<event>
 6    1  0.3017327E-006  0.2107669E+04  0.7818608E-02  0.8557873E-01
          1   -1    0    0  501    0  0.00000000000E+00  0.00000000000E+00  0.73393137369E+03  0.73393137369E+03  0.00000000000E+00 0. -1.
         -1   -1    0    0    0  501 -0.00000000000E+00 -0.00000000000E+00 -0.15131751909E+04  0.15131751909E+04  0.00000000000E+00 0.  1.
         23    2    1    2    0    0 -0.98882597379E+03  0.14111673888E+03 -0.74179461262E+03  0.12475600757E+04  0.91957353267E+02 0.  0.
         13    1    3    3    0    0 -0.42278030202E+03  0.18980976946E+02 -0.28885532157E+03  0.51238741013E+03  0.00000000000E+00 0. -1.
        -13    1    3    3    0    0 -0.56604567177E+03  0.12213576193E+03 -0.45293929105E+03  0.73517266560E+03  0.00000000000E+00 0.  1.
         22    1    1    2    0    0  0.98882597379E+03 -0.14111673888E+03 -0.37449204576E+02  0.99954648884E+03  0.00000000000E+00 0. -1.
<mgrwt>
<rscale>  0 0.21076686E+04</rscale>
<asrwt>0</asrwt>
<pdfrwt beam="1">  1        1 0.11291252E+00 0.21076686E+04</pdfrwt>
<pdfrwt beam="2">  1       -1 0.23279618E+00 0.21076686E+04</pdfrwt>
<totfact> 0.21056512E+00</totfact>
</mgrwt>
</event>
<event>
 6    1  0.3017327E-006  0.7961095E+03  0.7818608E-02  0.9565666E-01
          2   -1    0    0  501    0  0.00000000000E+00  0.00000000000E+00  0.55286102541E+03  0.55286102541E+03  0.00000000000E+00 0. -1.
         -2   -1    0    0    0  501 -0.00000000000E+00 -0.00000000000E+00 -0.28659571747E+03  0.28659571747E+03  0.00000000000E+00 0.  1.
         23    2    1    2    0    0  0.22216666105E+03 -0.29461607422E+03  0.27674288901E+03  0.47031390308E+03  0.91934130425E+02 0.  0.
         11    1    3    3    0    0  0.48051198570E+02 -0.12720108678E+03  0.12737964940E+03  0.18631856924E+03  0.00000000000E+00 0. -1.
        -11    1    3    3    0    0  0.17411546248E+03 -0.16741498744E+03  0.14936323962E+03  0.28399533384E+03  0.00000000000E+00 0.  1.
         22    1    1    2    0    0 -0.22216666105E+03  0.29461607422E+03 -0.10477581065E+02  0.36914283980E+03  0.00000000000E+00 0.  1.
<mgrwt>
<rscale>  0 0.79610955E+03</rscale>
<asrwt>0</asrwt>
<pdfrwt beam="1">  1        2 0.85055542E-01 0.79610955E+03</pdfrwt>
<pdfrwt beam="2">  1       -2 0.44091649E-01 0.79610955E+03</pdfrwt>
<totfact> 0.26865195E+02</totfact>
</mgrwt>
</event>
<event>
 6    1  0.3017327E-006  0.2299877E+04  0.7818608E-02  0.8477969E-01
         -2   -1    0    0    0  501 -0.00000000000E+00  0.00000000000E+00  0.71911236287E+03  0.71911236287E+03  0.00000000000E+00 0. -1.
          2   -1    0    0  501    0  0.00000000000E+00 -0.00000000000E+00 -0.18388766552E+04  0.18388766552E+04  0.00000000000E+00 0.  1.
         23    2    1    2    0    0 -0.84272193544E+03 -0.31526664244E+03 -0.13540081750E+04  0.16282344736E+04  0.90752668141E+02 0.  0.
         11    1    3    3    0    0 -0.45821790600E+03 -0.12990645864E+03 -0.75583073755E+03  0.89337530814E+03  0.00000000000E+00 0.  1.
        -11    1    3    3    0    0 -0.38450402944E+03 -0.18536018380E+03 -0.59817743746E+03  0.73485916547E+03  0.00000000000E+00 0. -1.
         22    1    1    2    0    0  0.84272193544E+03  0.31526664244E+03  0.23424388270E+03  0.92975454443E+03  0.00000000000E+00 0. -1.
<mgrwt>
<rscale>  0 0.22998773E+04</rscale>
<asrwt>0</asrwt>
<pdfrwt beam="1">  1        2 0.28290410E+00 0.22998773E+04</pdfrwt>
<pdfrwt beam="2">  1       -2 0.11063267E+00 0.22998773E+04</pdfrwt>
<totfact> 0.48233122E+00</totfact>
</mgrwt>
</event>
<event>
 6    1  0.3017327E-006  0.3112448E+04  0.7818608E-02  0.8212330E-01
          2   -1    0    0  501    0  0.00000000000E+00  0.00000000000E+00  0.25821249923E+04  0.25821249923E+04  0.00000000000E+00 0. -1.
         -2   -1    0    0    0  501 -0.00000000000E+00 -0.00000000000E+00 -0.93792243877E+03  0.93792243877E+03  0.00000000000E+00 0.  1.
         23    2    1    2    0    0 -0.36812148437E+03  0.13872465157E+04  0.14993399838E+04  0.20774970899E+04  0.89484350563E+02 0.  0.
         13    1    3    3    0    0 -0.18085582393E+03  0.51458682946E+03  0.55841877215E+03  0.78060230540E+03  0.00000000000E+00 0. -1.
        -13    1    3    3    0    0 -0.18726566045E+03  0.87265968625E+03  0.94092121167E+03  0.12968947845E+04  0.00000000000E+00 0.  1.
         22    1    1    2    0    0  0.36812148437E+03 -0.13872465157E+04  0.14486256971E+03  0.14425503411E+04  0.00000000000E+00 0.  1.
<mgrwt>
<rscale>  0 0.31124479E+04</rscale>
<asrwt>0</asrwt>
<pdfrwt beam="1">  1        2 0.39725000E+00 0.31124479E+04</pdfrwt>
<pdfrwt beam="2">  1       -2 0.14429576E+00 0.31124479E+04</pdfrwt>
<totfact> 0.87736324E-01</totfact>
</mgrwt>
</event>
<event>
 6    1  0.3017327E-006  0.2737091E+04  0.7818608E-02  0.8323070E-01
         -2   -1    0    0    0  501 -0.00000000000E+00  0.00000000000E+00  0.86475397686E+03  0.86475397686E+03  0.00000000000E+00 0.  1.
          2   -1    0    0  501    0  0.00000000000E+00 -0.00000000000E+00 -0.21658369841E+04  0.21658369841E+04  0.00000000000E+00 0. -1.
         23    2    1    2    0    0 -0.19160518235E+03 -0.10474850992E+04  0.29803387099E+03  0.11093641734E+04  0.89034273609E+02 0.  0.
         13    1    3    3    0    0  0.75268443607E+01 -0.10063353406E+03  0.23702049302E+02  0.10366073849E+03  0.00000000000E+00 0.  1.
        -13    1    3    3    0    0 -0.19913202672E+03 -0.94685156519E+03  0.27433182168E+03  0.10057034349E+04  0.00000000000E+00 0. -1.
         22    1    1    2    0    0  0.19160518235E+03  0.10474850992E+04 -0.15991168782E+04  0.19212267875E+04  0.00000000000E+00 0. -1.
<mgrwt>
<rscale>  0 0.27370905E+04</rscale>
<asrwt>0</asrwt>
<pdfrwt beam="1">  1        2 0.33320569E+00 0.27370905E+04</pdfrwt>
<pdfrwt beam="2">  1       -2 0.13303907E+00 0.27370905E+04</pdfrwt>
<totfact> 0.19332066E+00</totfact>
</mgrwt>
</event>
<event>
 6    1  0.3017327E-006  0.1853434E+04  0.7818608E-02  0.8678389E-01
          2   -1    0    0  501    0  0.00000000000E+00  0.00000000000E+00  0.16596589953E+04  0.16596589953E+04  0.00000000000E+00 0. -1.
         -2   -1    0    0    0  501 -0.00000000000E+00 -0.00000000000E+00 -0.51745842772E+03  0.51745842772E+03  0.00000000000E+00 0.  1.
         23    2    1    2    0    0 -0.48426834764E+03 -0.44229979706E+03 -0.19261845951E+03  0.68987609153E+03  0.93178364996E+02 0.  0.
         13    1    3    3    0    0 -0.21707753121E+03 -0.21530769756E+03 -0.43249376728E+02  0.30878887248E+03  0.00000000000E+00 0.  1.
        -13    1    3    3    0    0 -0.26719081644E+03 -0.22699209951E+03 -0.14936908278E+03  0.38108721904E+03  0.00000000000E+00 0. -1.
         22    1    1    2    0    0  0.48426834764E+03  0.44229979706E+03  0.13348190271E+04  0.14872413315E+04  0.00000000000E+00 0. -1.
<mgrwt>
<rscale>  0 0.18534341E+04</rscale>
<asrwt>0</asrwt>
<pdfrwt beam="1">  1        2 0.25533215E+00 0.18534341E+04</pdfrwt>
<pdfrwt beam="2">  1       -2 0.79608990E-01 0.18534341E+04</pdfrwt>
<totfact> 0.13568259E+01</totfact>
</mgrwt>
</event>
<event>
 6    1  0.3017327E-006  0.8747152E+03  0.7818608E-02  0.9457753E-01
         -2   -1    0    0    0  501 -0.00000000000E+00  0.00000000000E+00  0.45249355227E+03  0.45249355227E+03  0.00000000000E+00 0.  1.
          2   -1    0    0  501    0  0.00000000000E+00 -0.00000000000E+00 -0.42272792272E+03  0.42272792272E+03  0.00000000000E+00 0. -1.
         23    2    1    2    0    0  0.16025311306E+03  0.18389678356E+03  0.37262762833E+03  0.45444429231E+03  0.90383506027E+02 0.  0.
         13    1    3    3    0    0  0.79160923871E+02  0.10534760130E+03  0.12207144295E+03  0.17962740925E+03  0.00000000000E+00 0. -1.
        -13    1    3    3    0    0  0.81092189187E+02  0.78549182258E+02  0.25055618538E+03  0.27481688306E+03  0.00000000000E+00 0.  1.
         22    1    1    2    0    0 -0.16025311306E+03 -0.18389678356E+03 -0.34286199879E+03  0.42077718268E+03  0.00000000000E+00 0. -1.
<mgrwt>
<rscale>  0 0.87471518E+03</rscale>
<asrwt>0</asrwt>
<pdfrwt beam="1">  1        2 0.65035065E-01 0.87471518E+03</pdfrwt>
<pdfrwt beam="2">  1       -2 0.69614393E-01 0.87471518E+03</pdfrwt>
<totfact> 0.14124959E+02</totfact>
</mgrwt>
</event>
<event>
 6    1  0.3122982E-006  0.3176879E+04  0.7818608E-02  0.8194950E-01
         -2   -1    0    0    0  501 -0.00000000000E+00  0.00000000000E+00  0.10781060488E+04  0.10781060488E+04  0.00000000000E+00 0.  1.
          2   -1    0    0  501    0  0.00000000000E+00 -0.00000000000E+00 -0.23403451479E+04  0.23403451479E+04  0.00000000000E+00 0. -1.
         23    2    1    2    0    0 -0.34120815251E+02 -0.81922022281E+03 -0.20938213093E+04  0.22506263059E+04  0.94578485178E+02 0.  0.
         13    1    3    3    0    0  0.26074732662E+02 -0.36849394186E+03 -0.87792977353E+03  0.95248536163E+03  0.00000000000E+00 0.  1.
        -13    1    3    3    0    0 -0.60195547913E+02 -0.45072628094E+03 -0.12158915358E+04  0.12981409442E+04  0.00000000000E+00 0. -1.
         22    1    1    2    0    0  0.34120815251E+02  0.81922022281E+03  0.83158221019E+03  0.11678248909E+04  0.00000000000E+00 0.  1.
<mgrwt>
<rscale>  0 0.31768791E+04</rscale>
<asrwt>0</asrwt>
<pdfrwt beam="1">  1        2 0.36005310E+00 0.31768791E+04</pdfrwt>
<pdfrwt beam="2">  1       -2 0.16586247E+00 0.31768791E+04</pdfrwt>
<totfact> 0.82788082E-01</totfact>
</mgrwt>
</event>
<event>
 6    1  0.3564227E-006  0.2424811E+04  0.7818608E-02  0.8430273E-01
          1   -1    0    0  501    0  0.00000000000E+00  0.00000000000E+00  0.11160313777E+04  0.11160313777E+04  0.00000000000E+00 0. -1.
         -1   -1    0    0    0  501 -0.00000000000E+00 -0.00000000000E+00 -0.13171019470E+04  0.13171019470E+04  0.00000000000E+00 0.  1.
         23    2    1    2    0    0  0.63742368444E+02  0.12013455953E+04  0.43740977322E+02  0.12054415792E+04  0.62304084051E+02 0.  0.
         13    1    3    3    0    0  0.27164814262E+02  0.50585909720E+03 -0.12353091440E+02  0.50673854425E+03  0.00000000000E+00 0.  1.
        -13    1    3    3    0    0  0.36577554182E+02  0.69548649805E+03  0.56094068762E+02  0.69870303491E+03  0.00000000000E+00 0. -1.
         22    1    1    2    0    0 -0.63742368444E+02 -0.12013455953E+04 -0.24481154665E+03  0.12276917456E+04  0.00000000000E+00 0.  1.
<mgrwt>
<rscale>  0 0.24248110E+04</rscale>
<asrwt>0</asrwt>
<pdfrwt beam="1">  1        1 0.17169713E+00 0.24248110E+04</pdfrwt>
<pdfrwt beam="2">  1       -1 0.20263107E+00 0.24248110E+04</pdfrwt>
<totfact> 0.15917661E+00</totfact>
</mgrwt>
</event>
<event>
 6    1  0.3017327E-006  0.7125377E+03  0.7818608E-02  0.9696028E-01
          2   -1    0    0  501    0  0.00000000000E+00  0.00000000000E+00  0.22310114731E+03  0.22310114731E+03  0.00000000000E+00 0. -1.
         -2   -1    0    0    0  501 -0.00000000000E+00 -0.00000000000E+00 -0.56892353693E+03  0.56892353693E+03  0.00000000000E+00 0.  1.
         23    2    1    2    0    0 -0.98830633273E+02  0.31029666349E+03 -0.32993209385E+02  0.34045673868E+03  0.93652152144E+02 0.  0.
         13    1    3    3    0    0 -0.87028391719E+01  0.17352946391E+03 -0.20129429085E+01  0.17375921902E+03  0.00000000000E+00 0. -1.
        -13    1    3    3    0    0 -0.90127794102E+02  0.13676719958E+03 -0.30980266477E+02  0.16669751966E+03  0.00000000000E+00 0.  1.
         22    1    1    2    0    0  0.98830633273E+02 -0.31029666349E+03 -0.31282918024E+03  0.45156794556E+03  0.00000000000E+00 0.  1.
<mgrwt>
<rscale>  0 0.71253770E+03</rscale>
<asrwt>0</asrwt>
<pdfrwt beam="1">  1        2 0.34323253E-01 0.71253770E+03</pdfrwt>
<pdfrwt beam="2">  1       -2 0.87526699E-01 0.71253770E+03</pdfrwt>
<totfact> 0.17397614E+02</totfact>
</mgrwt>
</event>
<event>
 6    1  0.3017327E-006  0.2127310E+04  0.7818608E-02  0.8549307E-01
         -2   -1    0    0    0  501 -0.00000000000E+00  0.00000000000E+00  0.43107196901E+03  0.43107196901E+03  0.00000000000E+00 0.  1.
          2   -1    0    0  501    0  0.00000000000E+00 -0.00000000000E+00 -0.26245322704E+04  0.26245322704E+04  0.00000000000E+00 0. -1.
         23    2    1    2    0    0  0.48725243891E+03  0.43962009115E+03 -0.22976162756E+04  0.23911275801E+04  0.88146416128E+02 0.  0.
         13    1    3    3    0    0  0.77044761695E+02  0.38183446021E+02 -0.23898840758E+03  0.25398686937E+03  0.00000000000E+00 0. -1.
        -13    1    3    3    0    0  0.41020767721E+03  0.40143664512E+03 -0.20586278680E+04  0.21371407107E+04  0.00000000000E+00 0.  1.
         22    1    1    2    0    0 -0.48725243891E+03 -0.43962009115E+03  0.10415597423E+03  0.66447665928E+03  0.00000000000E+00 0.  1.
<mgrwt>
<rscale>  0 0.21273103E+04</rscale>
<asrwt>0</asrwt>
<pdfrwt beam="1">  1        2 0.40377419E+00 0.21273103E+04</pdfrwt>
<pdfrwt beam="2">  1       -2 0.66318766E-01 0.21273103E+04</pdfrwt>
<totfact> 0.56613893E+00</totfact>
</mgrwt>
</event>
<event>
 6    1  0.3017327E-006  0.1403232E+04  0.7818608E-02  0.8951482E-01
          2   -1    0    0  501    0  0.00000000000E+00  0.00000000000E+00  0.22939726440E+03  0.22939726440E+03  0.00000000000E+00 0. -1.
         -2   -1    0    0    0  501 -0.00000000000E+00 -0.00000000000E+00 -0.21459061280E+04  0.21459061280E+04  0.00000000000E+00 0.  1.
         23    2    1    2    0    0 -0.24122132928E+03 -0.55195217989E+03 -0.15614099806E+04  0.16760651245E+04  0.91401506283E+02 0.  0.
         11    1    3    3    0    0 -0.11934591237E+03 -0.19373867977E+03 -0.50371834482E+03  0.55272985603E+03  0.00000000000E+00 0. -1.
        -11    1    3    3    0    0 -0.12187541692E+03 -0.35821350013E+03 -0.10576916358E+04  0.11233352685E+04  0.00000000000E+00 0.  1.
         22    1    1    2    0    0  0.24122132928E+03  0.55195217989E+03 -0.35509888295E+03  0.69923826788E+03  0.00000000000E+00 0.  1.
<mgrwt>
<rscale>  0 0.14032320E+04</rscale>
<asrwt>0</asrwt>
<pdfrwt beam="1">  1        2 0.35291888E-01 0.14032320E+04</pdfrwt>
<pdfrwt beam="2">  1       -2 0.33013939E+00 0.14032320E+04</pdfrwt>
<totfact> 0.30103445E+00</totfact>
</mgrwt>
</event>
<event>
 6    1  0.3017327E-006  0.6791374E+03  0.7818608E-02  0.9753591E-01
          1   -1    0    0  501    0  0.00000000000E+00  0.00000000000E+00  0.48651305299E+03  0.48651305299E+03  0.00000000000E+00 0. -1.
         -1   -1    0    0    0  501 -0.00000000000E+00 -0.00000000000E+00 -0.23700678106E+03  0.23700678106E+03  0.00000000000E+00 0.  1.
         23    2    1    2    0    0  0.26190387368E+02  0.17624013882E+03  0.42721695129E+03  0.47187006059E+03  0.91654283550E+02 0.  0.
         11    1    3    3    0    0 -0.34060208974E+01  0.65337095237E+02  0.26623752463E+03  0.27415863385E+03  0.00000000000E+00 0. -1.
        -11    1    3    3    0    0  0.29596408266E+02  0.11090304358E+03  0.16097942666E+03  0.19771142675E+03  0.00000000000E+00 0.  1.
         22    1    1    2    0    0 -0.26190387368E+02 -0.17624013882E+03 -0.17771067936E+03  0.25164977345E+03  0.00000000000E+00 0.  1.
<mgrwt>
<rscale>  0 0.67913737E+03</rscale>
<asrwt>0</asrwt>
<pdfrwt beam="1">  1        1 0.74848162E-01 0.67913737E+03</pdfrwt>
<pdfrwt beam="2">  1       -1 0.36462582E-01 0.67913737E+03</pdfrwt>
<totfact> 0.33585913E+02</totfact>
</mgrwt>
</event>
<event>
 6    1  0.3017327E-006  0.1728068E+04  0.7818608E-02  0.8745516E-01
         -2   -1    0    0    0  501 -0.00000000000E+00  0.00000000000E+00  0.55455557119E+03  0.55455557119E+03  0.00000000000E+00 0.  1.
          2   -1    0    0  501    0  0.00000000000E+00 -0.00000000000E+00 -0.13462214790E+04  0.13462214790E+04  0.00000000000E+00 0. -1.
         23    2    1    2    0    0 -0.60950996928E+03 -0.11816496830E+03 -0.10541258840E+04  0.12267217101E+04  0.90550605864E+02 0.  0.
         13    1    3    3    0    0 -0.14728083383E+03 -0.68669408963E+02 -0.26610959776E+03  0.31180354354E+03  0.00000000000E+00 0. -1.
        -13    1    3    3    0    0 -0.46222913545E+03 -0.49495559335E+02 -0.78801628627E+03  0.91491816655E+03  0.00000000000E+00 0.  1.
         22    1    1    2    0    0  0.60950996928E+03  0.11816496830E+03  0.26245997624E+03  0.67405534009E+03  0.00000000000E+00 0. -1.
<mgrwt>
<rscale>  0 0.17280678E+04</rscale>
<asrwt>0</asrwt>
<pdfrwt beam="1">  1        2 0.20711099E+00 0.17280678E+04</pdfrwt>
<pdfrwt beam="2">  1       -2 0.85316243E-01 0.17280678E+04</pdfrwt>
<totfact> 0.17629361E+01</totfact>
</mgrwt>
</event>
<event>
 6    1  0.3017327E-006  0.5890501E+04  0.7818608E-02  0.7704128E-01
          2   -1    0    0  501    0  0.00000000000E+00  0.00000000000E+00  0.17643641893E+04  0.17643641893E+04  0.00000000000E+00 0.  1.
         -2   -1    0    0    0  501 -0.00000000000E+00 -0.00000000000E+00 -0.49165025470E+04  0.49165025470E+04  0.00000000000E+00 0. -1.
         23    2    1    2    0    0  0.13543359408E+04  0.17237584433E+04  0.65323872178E+03  0.22892310811E+04  0.91044514997E+02 0.  0.
         13    1    3    3    0    0  0.96720308974E+03  0.11710690097E+04  0.47293101278E+03  0.15907696832E+04  0.00000000000E+00 0. -1.
        -13    1    3    3    0    0  0.38713285102E+03  0.55268943362E+03  0.18030770899E+03  0.69846139785E+03  0.00000000000E+00 0.  1.
         22    1    1    2    0    0 -0.13543359408E+04 -0.17237584433E+04 -0.38053770795E+04  0.43916356552E+04  0.00000000000E+00 0. -1.
<mgrwt>
<rscale>  0 0.58905012E+04</rscale>
<asrwt>0</asrwt>
<pdfrwt beam="1">  1        2 0.27144065E+00 0.58905012E+04</pdfrwt>
<pdfrwt beam="2">  1       -2 0.75638499E+00 0.58905012E+04</pdfrwt>
<totfact> 0.83046976E-04</totfact>
</mgrwt>
</event>
<event>
 6    1  0.3017327E-006  0.1645698E+04  0.7818608E-02  0.8792955E-01
         -1   -1    0    0    0  501 -0.00000000000E+00  0.00000000000E+00  0.32518541259E+03  0.32518541259E+03  0.00000000000E+00 0.  1.
          1   -1    0    0  501    0  0.00000000000E+00 -0.00000000000E+00 -0.20821378822E+04  0.20821378822E+04  0.00000000000E+00 0. -1.
         23    2    1    2    0    0 -0.45442062396E+02 -0.51926156059E+03  0.45741801122E+02  0.53078281213E+03  0.89109662447E+02 0.  0.
         13    1    3    3    0    0 -0.25899063272E+02 -0.13865514534E+03 -0.24756746261E+02  0.14320931287E+03  0.00000000000E+00 0.  1.
        -13    1    3    3    0    0 -0.19542999124E+02 -0.38060641526E+03  0.70498547384E+02  0.38757349926E+03  0.00000000000E+00 0. -1.
         22    1    1    2    0    0  0.45442062396E+02  0.51926156059E+03 -0.18026942707E+04  0.18765404826E+04  0.00000000000E+00 0. -1.
<mgrwt>
<rscale>  0 0.16456985E+04</rscale>
<asrwt>0</asrwt>
<pdfrwt beam="1">  1        1 0.32032890E+00 0.16456985E+04</pdfrwt>
<pdfrwt beam="2">  1       -1 0.50028526E-01 0.16456985E+04</pdfrwt>
<totfact> 0.10049878E+01</totfact>
</mgrwt>
</event>
<event>
 6    1  0.3017327E-006  0.1634888E+04  0.7818608E-02  0.8799397E-01
          1   -1    0    0  501    0  0.00000000000E+00  0.00000000000E+00  0.15453435860E+04  0.15453435860E+04  0.00000000000E+00 0. -1.
         -1   -1    0    0    0  501 -0.00000000000E+00 -0.00000000000E+00 -0.43240512785E+03  0.43240512785E+03  0.00000000000E+00 0.  1.
         23    2    1    2    0    0  0.34418411391E+03  0.56542708518E+03 -0.16900756943E+02  0.66828044585E+03  0.90236499288E+02 0.  0.
         11    1    3    3    0    0  0.43401126100E+02  0.97852800206E+02 -0.33203897826E+02  0.11207732637E+03  0.00000000000E+00 0. -1.
        -11    1    3    3    0    0  0.30078298781E+03  0.46757428497E+03  0.16303140883E+02  0.55620311949E+03  0.00000000000E+00 0.  1.
         22    1    1    2    0    0 -0.34418411391E+03 -0.56542708518E+03  0.11298392151E+04  0.13094682680E+04  0.00000000000E+00 0. -1.
<mgrwt>
<rscale>  0 0.16348878E+04</rscale>
<asrwt>0</asrwt>
<pdfrwt beam="1">  1        1 0.23774516E+00 0.16348878E+04</pdfrwt>
<pdfrwt beam="2">  1       -1 0.66523867E-01 0.16348878E+04</pdfrwt>
<totfact> 0.13330907E+01</totfact>
</mgrwt>
</event>
<event>
 6    1  0.3017327E-006  0.1351207E+04  0.7818608E-02  0.8989915E-01
          2   -1    0    0  501    0  0.00000000000E+00  0.00000000000E+00  0.90925378104E+03  0.90925378104E+03  0.00000000000E+00 0. -1.
         -2   -1    0    0    0  501 -0.00000000000E+00 -0.00000000000E+00 -0.50199385437E+03  0.50199385437E+03  0.00000000000E+00 0.  1.
         23    2    1    2    0    0  0.14397524442E+02  0.60970669449E+03  0.49989858579E+03  0.79437531217E+03  0.95833180515E+02 0.  0.
         13    1    3    3    0    0 -0.38827505663E+02  0.30282362931E+03  0.23005345818E+03  0.38227518791E+03  0.00000000000E+00 0.  1.
        -13    1    3    3    0    0  0.53225030105E+02  0.30688306518E+03  0.26984512761E+03  0.41210012426E+03  0.00000000000E+00 0. -1.
         22    1    1    2    0    0 -0.14397524442E+02 -0.60970669449E+03 -0.92638659115E+02  0.61687232324E+03  0.00000000000E+00 0.  1.
<mgrwt>
<rscale>  0 0.13512066E+04</rscale>
<asrwt>0</asrwt>
<pdfrwt beam="1">  1        2 0.13988520E+00 0.13512066E+04</pdfrwt>
<pdfrwt beam="2">  1       -2 0.77229824E-01 0.13512066E+04</pdfrwt>
<totfact> 0.42243158E+01</totfact>
</mgrwt>
</event>
<event>
 6    1  0.6686037E-006  0.2783090E+04  0.7818608E-02  0.8308538E-01
          2   -1    0    0  501    0  0.00000000000E+00  0.00000000000E+00  0.16707222413E+04  0.16707222413E+04  0.00000000000E+00 0.  1.
         -2   -1    0    0    0  501 -0.00000000000E+00 -0.00000000000E+00 -0.11590181265E+04  0.11590181265E+04  0.00000000000E+00 0. -1.
         23    2    1    2    0    0 -0.26254293172E+03  0.85464435941E+03  0.13386140266E+04  0.16119038540E+04  0.83670486909E+02 0.  0.
         13    1    3    3    0    0 -0.18943930045E+03  0.48148912734E+03  0.79222492516E+03  0.94622373694E+03  0.00000000000E+00 0. -1.
        -13    1    3    3    0    0 -0.73103631265E+02  0.37315523207E+03  0.54638910145E+03  0.66568011711E+03  0.00000000000E+00 0.  1.
         22    1    1    2    0    0  0.26254293172E+03 -0.85464435941E+03 -0.82690991176E+03  0.12178365138E+04  0.00000000000E+00 0. -1.
<mgrwt>
<rscale>  0 0.27830899E+04</rscale>
<asrwt>0</asrwt>
<pdfrwt beam="1">  1        2 0.25703419E+00 0.27830899E+04</pdfrwt>
<pdfrwt beam="2">  1       -2 0.17831048E+00 0.27830899E+04</pdfrwt>
<totfact> 0.16530466E+00</totfact>
</mgrwt>
</event>
<event>
 6    1  0.3017327E-006  0.2664324E+04  0.7818608E-02  0.8346674E-01
         -2   -1    0    0    0  501 -0.00000000000E+00  0.00000000000E+00  0.19815279643E+04  0.19815279643E+04  0.00000000000E+00 0.  1.
          2   -1    0    0  501    0  0.00000000000E+00 -0.00000000000E+00 -0.89559978798E+03  0.89559978798E+03  0.00000000000E+00 0. -1.
         23    2    1    2    0    0 -0.76093472886E+03 -0.76291052744E+03  0.13862623825E+04  0.17585327541E+04  0.98284890137E+02 0.  0.
         11    1    3    3    0    0 -0.37895893857E+03 -0.41321446558E+03  0.79054026070E+03  0.96918005317E+03  0.00000000000E+00 0.  1.
        -11    1    3    3    0    0 -0.38197579030E+03 -0.34969606186E+03  0.59572212182E+03  0.78935270094E+03  0.00000000000E+00 0. -1.
         22    1    1    2    0    0  0.76093472886E+03  0.76291052744E+03 -0.30033420622E+03  0.11185949982E+04  0.00000000000E+00 0. -1.
<mgrwt>
<rscale>  0 0.26643243E+04</rscale>
<asrwt>0</asrwt>
<pdfrwt beam="1">  1        2 0.13778458E+00 0.26643243E+04</pdfrwt>
<pdfrwt beam="2">  1       -2 0.30485046E+00 0.26643243E+04</pdfrwt>
<totfact> 0.77106494E-01</totfact>
</mgrwt>
</event>
<event>
 6    1  0.3017327E-006  0.1580123E+04  0.7818608E-02  0.8832853E-01
         -2   -1    0    0    0  501 -0.00000000000E+00  0.00000000000E+00  0.71487447405E+03  0.71487447405E+03  0.00000000000E+00 0.  1.
          2   -1    0    0  501    0  0.00000000000E+00 -0.00000000000E+00 -0.87315686603E+03  0.87315686603E+03  0.00000000000E+00 0. -1.
         23    2    1    2    0    0 -0.18545288379E+03  0.75852137758E+03 -0.18113645362E+03  0.80683369513E+03  0.91775510927E+02 0.  0.
         11    1    3    3    0    0 -0.99109050624E+02  0.46970478839E+03 -0.15410987668E+03  0.50417759395E+03  0.00000000000E+00 0. -1.
        -11    1    3    3    0    0 -0.86343833164E+02  0.28881658919E+03 -0.27026576949E+02  0.30265610118E+03  0.00000000000E+00 0.  1.
         22    1    1    2    0    0  0.18545288379E+03 -0.75852137758E+03  0.22854061648E+02  0.78119764496E+03  0.00000000000E+00 0. -1.
<mgrwt>
<rscale>  0 0.15801235E+04</rscale>
<asrwt>0</asrwt>
<pdfrwt beam="1">  1        2 0.13433182E+00 0.15801235E+04</pdfrwt>
<pdfrwt beam="2">  1       -2 0.10998069E+00 0.15801235E+04</pdfrwt>
<totfact> 0.19309842E+01</totfact>
</mgrwt>
</event>
<event>
 6    1  0.3017327E-006  0.3254020E+04  0.7818608E-02  0.8174695E-01
         -2   -1    0    0    0  501 -0.00000000000E+00  0.00000000000E+00  0.10082427193E+04  0.10082427193E+04  0.00000000000E+00 0.  1.
          2   -1    0    0  501    0  0.00000000000E+00 -0.00000000000E+00 -0.26255197317E+04  0.26255197317E+04  0.00000000000E+00 0. -1.
         23    2    1    2    0    0 -0.12110817025E+04 -0.53820032960E+03 -0.18607146806E+04  0.22863054450E+04  0.92493136643E+02 0.  0.
         13    1    3    3    0    0 -0.10091219609E+04 -0.44855959581E+03 -0.16069235464E+04  0.19498041253E+04  0.00000000000E+00 0. -1.
        -13    1    3    3    0    0 -0.20195974154E+03 -0.89640733794E+02 -0.25379113420E+03  0.33650131970E+03  0.00000000000E+00 0.  1.
         22    1    1    2    0    0  0.12110817025E+04  0.53820032960E+03  0.24343766813E+03  0.13474570060E+04  0.00000000000E+00 0.  1.
<mgrwt>
<rscale>  0 0.32540198E+04</rscale>
<asrwt>0</asrwt>
<pdfrwt beam="1">  1        2 0.40392611E+00 0.32540198E+04</pdfrwt>
<pdfrwt beam="2">  1       -2 0.15511427E+00 0.32540198E+04</pdfrwt>
<totfact> 0.67503139E-01</totfact>
</mgrwt>
</event>
<event>
 6    1  0.3017327E-006  0.9434504E+03  0.7818608E-02  0.9372839E-01
          2   -1    0    0  501    0  0.00000000000E+00  0.00000000000E+00  0.22679454729E+04  0.22679454729E+04  0.00000000000E+00 0.  1.
         -2   -1    0    0    0  501 -0.00000000000E+00 -0.00000000000E+00 -0.98117293045E+02  0.98117293045E+02  0.00000000000E+00 0. -1.
         23    2    1    2    0    0 -0.38587477040E+03  0.97952862787E+02  0.48579173968E+03  0.63560824947E+03  0.97519898957E+02 0.  0.
         13    1    3    3    0    0 -0.31908874881E+03  0.40510116429E+02  0.38813137679E+03  0.50408795344E+03  0.00000000000E+00 0.  1.
        -13    1    3    3    0    0 -0.66786021591E+02  0.57442746357E+02  0.97660362884E+02  0.13152029603E+03  0.00000000000E+00 0. -1.
         22    1    1    2    0    0  0.38587477040E+03 -0.97952862787E+02  0.16840364401E+04  0.17304545164E+04  0.00000000000E+00 0.  1.
<mgrwt>
<rscale>  0 0.94345041E+03</rscale>
<asrwt>0</asrwt>
<pdfrwt beam="1">  1        2 0.34891465E+00 0.94345041E+03</pdfrwt>
<pdfrwt beam="2">  1       -2 0.15094970E-01 0.94345041E+03</pdfrwt>
<totfact> 0.16606598E+02</totfact>
</mgrwt>
</event>
<event>
 6    1  0.3017327E-006  0.2251694E+04  0.7818608E-02  0.8497215E-01
         -2   -1    0    0    0  501 -0.00000000000E+00  0.00000000000E+00  0.66530212286E+03  0.66530212286E+03  0.00000000000E+00 0.  1.
          2   -1    0    0  501    0  0.00000000000E+00 -0.00000000000E+00 -0.19051966956E+04  0.19051966956E+04  0.00000000000E+00 0. -1.
         23    2    1    2    0    0  0.88989292796E+03 -0.66120458944E+03 -0.40895859483E+03  0.11850185654E+04  0.88999638592E+02 0.  0.
         13    1    3    3    0    0  0.45250297894E+03 -0.38596327928E+03 -0.23946407208E+03  0.64114712876E+03  0.00000000000E+00 0.  1.
        -13    1    3    3    0    0  0.43738994902E+03 -0.27524131016E+03 -0.16949452275E+03  0.54387143661E+03  0.00000000000E+00 0. -1.
         22    1    1    2    0    0 -0.88989292796E+03  0.66120458944E+03 -0.83093597791E+03  0.13854802531E+04  0.00000000000E+00 0.  1.
<mgrwt>
<rscale>  0 0.22516939E+04</rscale>
<asrwt>0</asrwt>
<pdfrwt beam="1">  1        2 0.29310718E+00 0.22516939E+04</pdfrwt>
<pdfrwt beam="2">  1       -2 0.10235417E+00 0.22516939E+04</pdfrwt>
<totfact> 0.53650335E+00</totfact>
</mgrwt>
</event>
<event>
 6    1  0.3017327E-006  0.2490582E+04  0.7818608E-02  0.8406348E-01
          1   -1    0    0  501    0  0.00000000000E+00  0.00000000000E+00  0.24153961017E+04  0.24153961017E+04  0.00000000000E+00 0. -1.
         -1   -1    0    0    0  501 -0.00000000000E+00 -0.00000000000E+00 -0.64202707630E+03  0.64202707630E+03  0.00000000000E+00 0.  1.
         23    2    1    2    0    0 -0.47800321044E+03  0.11445670551E+04  0.77747547914E+03  0.14667237192E+04  0.91046883262E+02 0.  0.
         13    1    3    3    0    0 -0.19495607582E+03  0.57374488149E+03  0.40177501258E+03  0.72705860924E+03  0.00000000000E+00 0.  1.
        -13    1    3    3    0    0 -0.28304713462E+03  0.57082217361E+03  0.37570046655E+03  0.73966510994E+03  0.00000000000E+00 0. -1.
         22    1    1    2    0    0  0.47800321044E+03 -0.11445670551E+04  0.99589354623E+03  0.15906994588E+04  0.00000000000E+00 0.  1.
<mgrwt>
<rscale>  0 0.24905820E+04</rscale>
<asrwt>0</asrwt>
<pdfrwt beam="1">  1        1 0.37159940E+00 0.24905820E+04</pdfrwt>
<pdfrwt beam="2">  1       -1 0.98773397E-01 0.24905820E+04</pdfrwt>
<totfact> 0.13509635E+00</totfact>
</mgrwt>
</event>
<event>
 6    1  0.3017327E-006  0.3760942E+04  0.7818608E-02  0.8054589E-01
         -2   -1    0    0    0  501 -0.00000000000E+00  0.00000000000E+00  0.15003986270E+04  0.15003986270E+04  0.00000000000E+00 0.  1.
          2   -1    0    0  501    0  0.00000000000E+00 -0.00000000000E+00 -0.23568209492E+04  0.23568209492E+04  0.00000000000E+00 0. -1.
         23    2    1    2    0    0 -0.94312695564E+03 -0.89357682744E+03  0.96427912206E+03  0.16204983710E+04  0.90624191608E+02 0.  0.
         13    1    3    3    0    0 -0.38901502023E+03 -0.31426428504E+03  0.39507405499E+03  0.63732114020E+03  0.00000000000E+00 0. -1.
        -13    1    3    3    0    0 -0.55411193541E+03 -0.57931254240E+03  0.56920506708E+03  0.98317723078E+03  0.00000000000E+00 0.  1.
         22    1    1    2    0    0  0.94312695564E+03  0.89357682744E+03 -0.18207014442E+04  0.22367212053E+04  0.00000000000E+00 0. -1.
<mgrwt>
<rscale>  0 0.37609419E+04</rscale>
<asrwt>0</asrwt>
<pdfrwt beam="1">  1        2 0.36258784E+00 0.37609419E+04</pdfrwt>
<pdfrwt beam="2">  1       -2 0.23083056E+00 0.37609419E+04</pdfrwt>
<totfact> 0.28597624E-01</totfact>
</mgrwt>
</event>
<event>
 6    1  0.3017327E-006  0.1017297E+04  0.7818608E-02  0.9289775E-01
          2   -1    0    0  501    0  0.00000000000E+00  0.00000000000E+00  0.14466889295E+04  0.14466889295E+04  0.00000000000E+00 0. -1.
         -2   -1    0    0    0  501 -0.00000000000E+00 -0.00000000000E+00 -0.17883815650E+03  0.17883815650E+03  0.00000000000E+00 0.  1.
         23    2    1    2    0    0  0.11291461784E+03 -0.53272004552E+02  0.14201753922E+04  0.14285742820E+04  0.91316576932E+02 0.  0.
         13    1    3    3    0    0  0.73392735849E+02  0.12527765783E+02  0.54931532869E+03  0.55433813591E+03  0.00000000000E+00 0.  1.
        -13    1    3    3    0    0  0.39521881990E+02 -0.65799770335E+02  0.87086006354E+03  0.87423614614E+03  0.00000000000E+00 0. -1.
         22    1    1    2    0    0 -0.11291461784E+03  0.53272004552E+02 -0.15232461919E+03  0.19695280400E+03  0.00000000000E+00 0.  1.
<mgrwt>
<rscale>  0 0.10172968E+04</rscale>
<asrwt>0</asrwt>
<pdfrwt beam="1">  1        2 0.22256752E+00 0.10172968E+04</pdfrwt>
<pdfrwt beam="2">  1       -2 0.27513563E-01 0.10172968E+04</pdfrwt>
<totfact> 0.16327318E+02</totfact>
</mgrwt>
</event>
<event>
 6    1  0.3017327E-006  0.4385253E+03  0.7818608E-02  0.1031200E+00
         -1   -1    0    0    0  501 -0.00000000000E+00  0.00000000000E+00  0.76263451079E+02  0.76263451079E+02  0.00000000000E+00 0.  1.
          1   -1    0    0  501    0  0.00000000000E+00 -0.00000000000E+00 -0.63039515150E+03  0.63039515150E+03  0.00000000000E+00 0. -1.
         23    2    1    2    0    0  0.12353020987E+03  0.72063476371E+02 -0.41103144813E+02  0.17406949619E+03  0.90320892447E+02 0.  0.
         11    1    3    3    0    0  0.12172071655E+03  0.42213028141E+02 -0.56214712762E+02  0.14056303395E+03  0.00000000000E+00 0. -1.
        -11    1    3    3    0    0  0.18094933164E+01  0.29850448231E+02  0.15111567949E+02  0.33506462235E+02  0.00000000000E+00 0.  1.
         22    1    1    2    0    0 -0.12353020987E+03 -0.72063476371E+02 -0.51302855561E+03  0.53258910639E+03  0.00000000000E+00 0. -1.
<mgrwt>
<rscale>  0 0.43852530E+03</rscale>
<asrwt>0</asrwt>
<pdfrwt beam="1">  1        1 0.96983869E-01 0.43852530E+03</pdfrwt>
<pdfrwt beam="2">  1       -1 0.11732839E-01 0.43852530E+03</pdfrwt>
<totfact> 0.15609131E+03</totfact>
</mgrwt>
</event>
<event>
 6    1  0.3017327E-006  0.2405440E+04  0.7818608E-02  0.8437470E-01
         -2   -1    0    0    0  501 -0.00000000000E+00  0.00000000000E+00  0.10215362688E+04  0.10215362688E+04  0.00000000000E+00 0.  1.
          2   -1    0    0  501    0  0.00000000000E+00 -0.00000000000E+00 -0.14160394988E+04  0.14160394988E+04  0.00000000000E+00 0. -1.
         23    2    1    2    0    0  0.10411806893E+04  0.23718576093E+03  0.35937238322E+03  0.11304251438E+04  0.91641600137E+02 0.  0.
         11    1    3    3    0    0  0.80224511382E+03  0.16654788003E+03  0.23762592148E+03  0.85311282815E+03  0.00000000000E+00 0.  1.
        -11    1    3    3    0    0  0.23893557552E+03  0.70637880900E+02  0.12174646174E+03  0.27731231565E+03  0.00000000000E+00 0. -1.
         22    1    1    2    0    0 -0.10411806893E+04 -0.23718576093E+03 -0.75387561319E+03  0.13071506238E+04  0.00000000000E+00 0. -1.
<mgrwt>
<rscale>  0 0.24054403E+04</rscale>
<asrwt>0</asrwt>
<pdfrwt beam="1">  1        2 0.21785223E+00 0.24054403E+04</pdfrwt>
<pdfrwt beam="2">  1       -2 0.15715943E+00 0.24054403E+04</pdfrwt>
<totfact> 0.33682326E+00</totfact>
</mgrwt>
</event>
<event>
 6    1  0.3017327E-006  0.1852926E+04  0.7818608E-02  0.8678649E-01
          2   -1    0    0  501    0  0.00000000000E+00  0.00000000000E+00  0.13087074085E+04  0.13087074085E+04  0.00000000000E+00 0. -1.
         -2   -1    0    0    0  501 -0.00000000000E+00 -0.00000000000E+00 -0.65586381920E+03  0.65586381920E+03  0.00000000000E+00 0.  1.
         23    2    1    2    0    0 -0.62273836085E+03 -0.12238679750E+03  0.10397230338E+04  0.12212965147E+04  0.88088566274E+02 0.  0.
         11    1    3    3    0    0 -0.47254041945E+03 -0.53850233219E+02  0.77774312795E+03  0.91163516206E+03  0.00000000000E+00 0. -1.
        -11    1    3    3    0    0 -0.15019794140E+03 -0.68536564284E+02  0.26197990586E+03  0.30966135264E+03  0.00000000000E+00 0.  1.
         22    1    1    2    0    0  0.62273836085E+03  0.12238679750E+03 -0.38687944456E+03  0.74327471295E+03  0.00000000000E+00 0.  1.
<mgrwt>
<rscale>  0 0.18529262E+04</rscale>
<asrwt>0</asrwt>
<pdfrwt beam="1">  1        2 0.20133960E+00 0.18529262E+04</pdfrwt>
<pdfrwt beam="2">  1       -2 0.10090213E+00 0.18529262E+04</pdfrwt>
<totfact> 0.12421503E+01</totfact>
</mgrwt>
</event>
<event>
 6    1  0.3017327E-006  0.1850396E+04  0.7818608E-02  0.8679949E-01
         -2   -1    0    0    0  501 -0.00000000000E+00  0.00000000000E+00  0.10131508218E+04  0.10131508218E+04  0.00000000000E+00 0.  1.
          2   -1    0    0  501    0  0.00000000000E+00 -0.00000000000E+00 -0.84488031907E+03  0.84488031907E+03  0.00000000000E+00 0. -1.
         23    2    1    2    0    0  0.12319332438E+03 -0.89985812048E+03 -0.80892088963E+02  0.91622265222E+03  0.89438169824E+02 0.  0.
         13    1    3    3    0    0  0.10532890492E+03 -0.46548906621E+03 -0.25041490218E+02  0.47791351227E+03  0.00000000000E+00 0.  1.
        -13    1    3    3    0    0  0.17864419461E+02 -0.43436905426E+03 -0.55850598745E+02  0.43830913995E+03  0.00000000000E+00 0. -1.
         22    1    1    2    0    0 -0.12319332438E+03  0.89985812048E+03  0.24916259167E+03  0.94180848862E+03  0.00000000000E+00 0. -1.
<mgrwt>
<rscale>  0 0.18503958E+04</rscale>
<asrwt>0</asrwt>
<pdfrwt beam="1">  1        2 0.12998159E+00 0.18503958E+04</pdfrwt>
<pdfrwt beam="2">  1       -2 0.15586936E+00 0.18503958E+04</pdfrwt>
<totfact> 0.81340659E+00</totfact>
</mgrwt>
</event>
<event>
 6    1  0.3017327E-006  0.2341367E+04  0.7818608E-02  0.8461787E-01
          2   -1    0    0  501    0  0.00000000000E+00  0.00000000000E+00  0.27294452931E+04  0.27294452931E+04  0.00000000000E+00 0. -1.
         -2   -1    0    0    0  501 -0.00000000000E+00 -0.00000000000E+00 -0.50211672503E+03  0.50211672503E+03  0.00000000000E+00 0.  1.
         23    2    1    2    0    0 -0.10558095507E+04  0.40229147671E+03  0.70183130544E+03  0.13332169131E+04  0.91257419027E+02 0.  0.
         11    1    3    3    0    0 -0.80327871713E+03  0.30506223234E+03  0.48670839851E+03  0.98752454560E+03  0.00000000000E+00 0. -1.
        -11    1    3    3    0    0 -0.25253083354E+03  0.97229244376E+02  0.21512290693E+03  0.34569236748E+03  0.00000000000E+00 0.  1.
         22    1    1    2    0    0  0.10558095507E+04 -0.40229147671E+03  0.15254972627E+04  0.18983451051E+04  0.00000000000E+00 0. -1.
<mgrwt>
<rscale>  0 0.23413672E+04</rscale>
<asrwt>0</asrwt>
<pdfrwt beam="1">  1        2 0.41991465E+00 0.23413672E+04</pdfrwt>
<pdfrwt beam="2">  1       -2 0.77248729E-01 0.23413672E+04</pdfrwt>
<totfact> 0.34455912E+00</totfact>
</mgrwt>
</event>
<event>
 6    1  0.3017327E-006  0.1741884E+04  0.7818608E-02  0.8737830E-01
          2   -1    0    0  501    0  0.00000000000E+00  0.00000000000E+00  0.17880080777E+04  0.17880080777E+04  0.00000000000E+00 0. -1.
         -2   -1    0    0    0  501 -0.00000000000E+00 -0.00000000000E+00 -0.42423758691E+03  0.42423758691E+03  0.00000000000E+00 0.  1.
         23    2    1    2    0    0 -0.13921290093E+03 -0.80948077414E+03  0.32547614294E+03  0.88835197242E+03  0.92710041447E+02 0.  0.
         13    1    3    3    0    0 -0.45068018135E+02 -0.44294524798E+03  0.21299094436E+03  0.49355522624E+03  0.00000000000E+00 0. -1.
        -13    1    3    3    0    0 -0.94144882797E+02 -0.36653552616E+03  0.11248519858E+03  0.39479674618E+03  0.00000000000E+00 0.  1.
         22    1    1    2    0    0  0.13921290093E+03  0.80948077414E+03  0.10382943478E+04  0.13238936922E+04  0.00000000000E+00 0.  1.
<mgrwt>
<rscale>  0 0.17418843E+04</rscale>
<asrwt>0</asrwt>
<pdfrwt beam="1">  1        2 0.27507816E+00 0.17418843E+04</pdfrwt>
<pdfrwt beam="2">  1       -2 0.65267322E-01 0.17418843E+04</pdfrwt>
<totfact> 0.17981025E+01</totfact>
</mgrwt>
</event>
<event>
 6    1  0.3017327E-006  0.1710785E+04  0.7818608E-02  0.8755237E-01
          2   -1    0    0  501    0  0.00000000000E+00  0.00000000000E+00  0.21359906197E+04  0.21359906197E+04  0.00000000000E+00 0. -1.
         -2   -1    0    0    0  501 -0.00000000000E+00 -0.00000000000E+00 -0.34255579490E+03  0.34255579490E+03  0.00000000000E+00 0.  1.
         23    2    1    2    0    0  0.24121471038E+03  0.72838600132E+03  0.14392309431E+04  0.16334481403E+04  0.89646059698E+02 0.  0.
         13    1    3    3    0    0  0.12711454476E+03  0.43585603075E+03  0.93584255100E+03  0.10401585780E+04  0.00000000000E+00 0.  1.
        -13    1    3    3    0    0  0.11410016563E+03  0.29252997058E+03  0.50338839214E+03  0.59328956238E+03  0.00000000000E+00 0. -1.
         22    1    1    2    0    0 -0.24121471038E+03 -0.72838600132E+03  0.35420388170E+03  0.84509827431E+03  0.00000000000E+00 0.  1.
<mgrwt>
<rscale>  0 0.17107846E+04</rscale>
<asrwt>0</asrwt>
<pdfrwt beam="1">  1        2 0.32861393E+00 0.17107846E+04</pdfrwt>
<pdfrwt beam="2">  1       -2 0.52700893E-01 0.17107846E+04</pdfrwt>
<totfact> 0.18121475E+01</totfact>
</mgrwt>
</event>
<event>
 6    1  0.3017327E-006  0.3753649E+04  0.7818608E-02  0.8056176E-01
         -2   -1    0    0    0  501 -0.00000000000E+00  0.00000000000E+00  0.11689359305E+04  0.11689359305E+04  0.00000000000E+00 0.  1.
          2   -1    0    0  501    0  0.00000000000E+00 -0.00000000000E+00 -0.30133983031E+04  0.30133983031E+04  0.00000000000E+00 0. -1.
         23    2    1    2    0    0  0.12787487135E+04  0.10133157202E+04  0.10804623967E+03  0.16378702621E+04  0.94540913735E+02 0.  0.
         13    1    3    3    0    0  0.69878241156E+03  0.60441853046E+03  0.36189786322E+02  0.92462333915E+03  0.00000000000E+00 0.  1.
        -13    1    3    3    0    0  0.57996630191E+03  0.40889718978E+03  0.71856453344E+02  0.71324692291E+03  0.00000000000E+00 0. -1.
         22    1    1    2    0    0 -0.12787487135E+04 -0.10133157202E+04 -0.19525086123E+04  0.25444639715E+04  0.00000000000E+00 0. -1.
<mgrwt>
<rscale>  0 0.37536487E+04</rscale>
<asrwt>0</asrwt>
<pdfrwt beam="1">  1        2 0.46359975E+00 0.37536487E+04</pdfrwt>
<pdfrwt beam="2">  1       -2 0.17983629E+00 0.37536487E+04</pdfrwt>
<totfact> 0.24971336E-01</totfact>
</mgrwt>
</event>
<event>
 6    1  0.3017327E-006  0.9055081E+03  0.7818608E-02  0.9418722E-01
         -2   -1    0    0    0  501 -0.00000000000E+00  0.00000000000E+00  0.13626197523E+03  0.13626197523E+03  0.00000000000E+00 0. -1.
          2   -1    0    0  501    0  0.00000000000E+00 -0.00000000000E+00 -0.15043537601E+04  0.15043537601E+04  0.00000000000E+00 0.  1.
         23    2    1    2    0    0 -0.13581450284E+03 -0.33506814044E+02 -0.14624647568E+04  0.14718717173E+04  0.89637611850E+02 0.  0.
         11    1    3    3    0    0 -0.24888173594E+01  0.21338597992E+02 -0.23108536395E+03  0.23208182912E+03  0.00000000000E+00 0. -1.
        -11    1    3    3    0    0 -0.13332568548E+03 -0.54845412036E+02 -0.12313793929E+04  0.12397898882E+04  0.00000000000E+00 0.  1.
         22    1    1    2    0    0  0.13581450284E+03  0.33506814044E+02  0.94372971987E+02  0.16874401800E+03  0.00000000000E+00 0. -1.
<mgrwt>
<rscale>  0 0.90550807E+03</rscale>
<asrwt>0</asrwt>
<pdfrwt beam="1">  1        2 0.23143902E+00 0.90550807E+03</pdfrwt>
<pdfrwt beam="2">  1       -2 0.20963382E-01 0.90550807E+03</pdfrwt>
<totfact> 0.24889331E+02</totfact>
</mgrwt>
</event>
<event>
 6    1  0.3017327E-006  0.2493413E+04  0.7818608E-02  0.8405336E-01
          2   -1    0    0  501    0  0.00000000000E+00  0.00000000000E+00  0.23457342224E+04  0.23457342224E+04  0.00000000000E+00 0. -1.
         -2   -1    0    0    0  501 -0.00000000000E+00 -0.00000000000E+00 -0.66259704255E+03  0.66259704255E+03  0.00000000000E+00 0.  1.
         23    2    1    2    0    0 -0.73023461553E+02 -0.38879266075E+03  0.22670672716E+04  0.23030182060E+04  0.88355440884E+02 0.  0.
         13    1    3    3    0    0 -0.44069287739E+02 -0.56212294210E+02  0.38330666918E+03  0.38990502277E+03  0.00000000000E+00 0.  1.
        -13    1    3    3    0    0 -0.28954173814E+02 -0.33258036654E+03  0.18837606024E+04  0.19131131832E+04  0.00000000000E+00 0. -1.
         22    1    1    2    0    0  0.73023461553E+02  0.38879266075E+03 -0.58393009181E+03  0.70531305894E+03  0.00000000000E+00 0.  1.
<mgrwt>
<rscale>  0 0.24934126E+04</rscale>
<asrwt>0</asrwt>
<pdfrwt beam="1">  1        2 0.36088218E+00 0.24934126E+04</pdfrwt>
<pdfrwt beam="2">  1       -2 0.10193801E+00 0.24934126E+04</pdfrwt>
<totfact> 0.30061977E+00</totfact>
</mgrwt>
</event>
<event>
 6    1  0.3017327E-006  0.4335054E+04  0.7818608E-02  0.7940168E-01
          2   -1    0    0  501    0  0.00000000000E+00  0.00000000000E+00  0.38474096588E+04  0.38474096588E+04  0.00000000000E+00 0. -1.
         -2   -1    0    0    0  501 -0.00000000000E+00 -0.00000000000E+00 -0.12211263948E+04  0.12211263948E+04  0.00000000000E+00 0.  1.
         23    2    1    2    0    0 -0.18848902698E+04  0.24682300729E+03  0.25289035059E+04  0.31650614035E+04  0.92346192532E+02 0.  0.
         11    1    3    3    0    0 -0.95841575289E+03  0.12426674214E+03  0.12088676022E+04  0.15476963069E+04  0.00000000000E+00 0. -1.
        -11    1    3    3    0    0 -0.92647451695E+03  0.12255626515E+03  0.13200359037E+04  0.16173650966E+04  0.00000000000E+00 0.  1.
         22    1    1    2    0    0  0.18848902698E+04 -0.24682300729E+03  0.97379758022E+02  0.19034746501E+04  0.00000000000E+00 0.  1.
<mgrwt>
<rscale>  0 0.43350541E+04</rscale>
<asrwt>0</asrwt>
<pdfrwt beam="1">  1        2 0.59190917E+00 0.43350541E+04</pdfrwt>
<pdfrwt beam="2">  1       -2 0.18786560E+00 0.43350541E+04</pdfrwt>
<totfact> 0.55388500E-02</totfact>
</mgrwt>
</event>
<event>
 6    1  0.3017327E-006  0.3389492E+04  0.7818608E-02  0.8140490E-01
         -1   -1    0    0    0  501 -0.00000000000E+00  0.00000000000E+00  0.14780871514E+04  0.14780871514E+04  0.00000000000E+00 0.  1.
          1   -1    0    0  501    0  0.00000000000E+00 -0.00000000000E+00 -0.19431625931E+04  0.19431625931E+04  0.00000000000E+00 0. -1.
         23    2    1    2    0    0  0.16153101587E+04 -0.37876355932E+03 -0.57552129250E+03  0.17584547997E+04  0.90828310344E+02 0.  0.
         13    1    3    3    0    0  0.11538405157E+04 -0.28744621094E+03 -0.37238598705E+03  0.12460515974E+04  0.00000000000E+00 0.  1.
        -13    1    3    3    0    0  0.46146964293E+03 -0.91317348378E+02 -0.20313530544E+03  0.51240320235E+03  0.00000000000E+00 0. -1.
         22    1    1    2    0    0 -0.16153101587E+04  0.37876355932E+03  0.11044585076E+03  0.16627949448E+04  0.00000000000E+00 0.  1.
<mgrwt>
<rscale>  0 0.33894918E+04</rscale>
<asrwt>0</asrwt>
<pdfrwt beam="1">  1        1 0.29894809E+00 0.33894918E+04</pdfrwt>
<pdfrwt beam="2">  1       -1 0.22739802E+00 0.33894918E+04</pdfrwt>
<totfact> 0.26343118E-01</totfact>
</mgrwt>
</event>
<event>
 6    1  0.3017327E-006  0.8628672E+03  0.7818608E-02  0.9473228E-01
         -1   -1    0    0    0  501 -0.00000000000E+00  0.00000000000E+00  0.80161962961E+03  0.80161962961E+03  0.00000000000E+00 0.  1.
          1   -1    0    0  501    0  0.00000000000E+00 -0.00000000000E+00 -0.23219857792E+03  0.23219857792E+03  0.00000000000E+00 0. -1.
         23    2    1    2    0    0  0.40916186134E+03 -0.10736959597E+03  0.22038195914E+03  0.48539323815E+03  0.89981824857E+02 0.  0.
         13    1    3    3    0    0  0.33637131561E+02 -0.35705161371E+02  0.36646174863E+02  0.61231179152E+02  0.00000000000E+00 0.  1.
        -13    1    3    3    0    0  0.37552472978E+03 -0.71664434599E+02  0.18373578428E+03  0.42416205899E+03  0.00000000000E+00 0. -1.
         22    1    1    2    0    0 -0.40916186134E+03  0.10736959597E+03  0.34903909254E+03  0.54842496938E+03  0.00000000000E+00 0.  1.
<mgrwt>
<rscale>  0 0.86286717E+03</rscale>
<asrwt>0</asrwt>
<pdfrwt beam="1">  1        1 0.35722859E-01 0.86286717E+03</pdfrwt>
<pdfrwt beam="2">  1       -1 0.12332610E+00 0.86286717E+03</pdfrwt>
<totfact> 0.71590100E+01</totfact>
</mgrwt>
</event>
<event>
 6    1  0.3017327E-006  0.2209804E+04  0.7818608E-02  0.8514358E-01
          2   -1    0    0  501    0  0.00000000000E+00  0.00000000000E+00  0.39602862785E+04  0.39602862785E+04  0.00000000000E+00 0. -1.
         -2   -1    0    0    0  501 -0.00000000000E+00 -0.00000000000E+00 -0.30826272726E+03  0.30826272726E+03  0.00000000000E+00 0.  1.
         23    2    1    2    0    0  0.15469782987E+03  0.17524272143E+02  0.39384717590E+04  0.39425258557E+04  0.87816895429E+02 0.  0.
         11    1    3    3    0    0  0.71430900600E+02  0.48449137877E+02  0.23362947078E+04  0.23378885033E+04  0.00000000000E+00 0. -1.
        -11    1    3    3    0    0  0.83266929274E+02 -0.30924865734E+02  0.16021770513E+04  0.16046373523E+04  0.00000000000E+00 0.  1.
         22    1    1    2    0    0 -0.15469782987E+03 -0.17524272143E+02 -0.28644820778E+03  0.32602315013E+03  0.00000000000E+00 0.  1.
<mgrwt>
<rscale>  0 0.22098042E+04</rscale>
<asrwt>0</asrwt>
<pdfrwt beam="1">  1        2 0.60927478E+00 0.22098042E+04</pdfrwt>
<pdfrwt beam="2">  1       -2 0.47425038E-01 0.22098042E+04</pdfrwt>
<totfact> 0.14267089E+00</totfact>
</mgrwt>
</event>
<event>
 6    1  0.3017327E-006  0.5138043E+03  0.7818608E-02  0.1010237E+00
          2   -1    0    0  501    0  0.00000000000E+00  0.00000000000E+00  0.58981467034E+03  0.58981467034E+03  0.00000000000E+00 0. -1.
         -2   -1    0    0    0  501 -0.00000000000E+00 -0.00000000000E+00 -0.11189736404E+03  0.11189736404E+03  0.00000000000E+00 0.  1.
         23    2    1    2    0    0 -0.85284897402E+02 -0.21455395586E+03  0.37325116017E+03  0.44821269346E+03  0.90946557477E+02 0.  0.
         13    1    3    3    0    0 -0.34138814079E+02 -0.14156309256E+03  0.29756226404E+03  0.33128366814E+03  0.00000000000E+00 0. -1.
        -13    1    3    3    0    0 -0.51146083324E+02 -0.72990863297E+02  0.75688896131E+02  0.11692902532E+03  0.00000000000E+00 0.  1.
         22    1    1    2    0    0  0.85284897402E+02  0.21455395586E+03  0.10466614614E+03  0.25349934092E+03  0.00000000000E+00 0.  1.
<mgrwt>
<rscale>  0 0.51380427E+03</rscale>
<asrwt>0</asrwt>
<pdfrwt beam="1">  1        2 0.90740717E-01 0.51380427E+03</pdfrwt>
<pdfrwt beam="2">  1       -2 0.17214979E-01 0.51380427E+03</pdfrwt>
<totfact> 0.14031805E+03</totfact>
</mgrwt>
</event>
<event>
 6    1  0.3017327E-006  0.3160900E+04  0.7818608E-02  0.8199220E-01
          2   -1    0    0  501    0  0.00000000000E+00  0.00000000000E+00  0.21909973207E+04  0.21909973207E+04  0.00000000000E+00 0. -1.
         -2   -1    0    0    0  501 -0.00000000000E+00 -0.00000000000E+00 -0.11400386588E+04  0.11400386588E+04  0.00000000000E+00 0.  1.
         23    2    1    2    0    0  0.93321697308E+03  0.52907829831E+03 -0.69563053912E+03  0.12813063385E+04  0.83823155737E+02 0.  0.
         13    1    3    3    0    0  0.65290281000E+03  0.32933883183E+03 -0.45339574369E+03  0.86041492656E+03  0.00000000000E+00 0. -1.
        -13    1    3    3    0    0  0.28031416308E+03  0.19973946648E+03 -0.24223479542E+03  0.42089141189E+03  0.00000000000E+00 0.  1.
         22    1    1    2    0    0 -0.93321697308E+03 -0.52907829831E+03  0.17465892010E+04  0.20497296411E+04  0.00000000000E+00 0. -1.
<mgrwt>
<rscale>  0 0.31608996E+04</rscale>
<asrwt>0</asrwt>
<pdfrwt beam="1">  1        2 0.33707651E+00 0.31608996E+04</pdfrwt>
<pdfrwt beam="2">  1       -2 0.17539056E+00 0.31608996E+04</pdfrwt>
<totfact> 0.86169571E-01</totfact>
</mgrwt>
</event>
<event>
 6    1  0.3017327E-006  0.8967448E+03  0.7818608E-02  0.9429660E-01
          1   -1    0    0  501    0  0.00000000000E+00  0.00000000000E+00  0.23565031425E+04  0.23565031425E+04  0.00000000000E+00 0. -1.
         -1   -1    0    0    0  501 -0.00000000000E+00 -0.00000000000E+00 -0.85311917254E+02  0.85311917254E+02  0.00000000000E+00 0.  1.
         23    2    1    2    0    0  0.28813887002E+03  0.11210485811E+03  0.20142248996E+04  0.20397911797E+04  0.89747439914E+02 0.  0.
         11    1    3    3    0    0  0.13473091357E+03  0.99606404439E+02  0.11048863704E+04  0.11175185665E+04  0.00000000000E+00 0. -1.
        -11    1    3    3    0    0  0.15340795646E+03  0.12498453669E+02  0.90933852915E+03  0.92227261319E+03  0.00000000000E+00 0.  1.
         22    1    1    2    0    0 -0.28813887002E+03 -0.11210485811E+03  0.25696632568E+03  0.40202388009E+03  0.00000000000E+00 0.  1.
<mgrwt>
<rscale>  0 0.89674478E+03</rscale>
<asrwt>0</asrwt>
<pdfrwt beam="1">  1        1 0.36253889E+00 0.89674478E+03</pdfrwt>
<pdfrwt beam="2">  1       -1 0.13124912E-01 0.89674478E+03</pdfrwt>
<totfact> 0.71167422E+01</totfact>
</mgrwt>
</event>
<event>
 6    1  0.3017327E-006  0.2043278E+04  0.7818608E-02  0.8586650E-01
          1   -1    0    0  501    0  0.00000000000E+00  0.00000000000E+00  0.13410183069E+04  0.13410183069E+04  0.00000000000E+00 0. -1.
         -1   -1    0    0    0  501 -0.00000000000E+00 -0.00000000000E+00 -0.77832341475E+03  0.77832341475E+03  0.00000000000E+00 0.  1.
         23    2    1    2    0    0 -0.74748369524E+03  0.63235698237E+03  0.57645655449E+03  0.11401601189E+04  0.95161492303E+02 0.  0.
         11    1    3    3    0    0 -0.10985735489E+03  0.80649996733E+02  0.45236054824E+02  0.14359443252E+03  0.00000000000E+00 0.  1.
        -11    1    3    3    0    0 -0.63762634035E+03  0.55170698564E+03  0.53122049967E+03  0.99656568634E+03  0.00000000000E+00 0. -1.
         22    1    1    2    0    0  0.74748369524E+03 -0.63235698237E+03 -0.13761662386E+02  0.97918160274E+03  0.00000000000E+00 0.  1.
<mgrwt>
<rscale>  0 0.20432777E+04</rscale>
<asrwt>0</asrwt>
<pdfrwt beam="1">  1        1 0.20631051E+00 0.20432777E+04</pdfrwt>
<pdfrwt beam="2">  1       -1 0.11974206E+00 0.20432777E+04</pdfrwt>
<totfact> 0.48643566E+00</totfact>
</mgrwt>
</event>
<event>
 6    1  0.3017327E-006  0.3253414E+04  0.7818608E-02  0.8174851E-01
          2   -1    0    0  501    0  0.00000000000E+00  0.00000000000E+00  0.34372386470E+04  0.34372386470E+04  0.00000000000E+00 0. -1.
         -2   -1    0    0    0  501 -0.00000000000E+00 -0.00000000000E+00 -0.76985518482E+03  0.76985518482E+03  0.00000000000E+00 0.  1.
         23    2    1    2    0    0 -0.10827192811E+04 -0.46408350058E+03 -0.11355537328E+03  0.11869489108E+04  0.91095317306E+02 0.  0.
         11    1    3    3    0    0 -0.38756504279E+03 -0.21292901314E+03 -0.32880539276E+02  0.44342593169E+03  0.00000000000E+00 0.  1.
        -11    1    3    3    0    0 -0.69515423835E+03 -0.25115448743E+03 -0.80674834008E+02  0.74352297913E+03  0.00000000000E+00 0. -1.
         22    1    1    2    0    0  0.10827192811E+04  0.46408350058E+03  0.27809388354E+04  0.30201449210E+04  0.00000000000E+00 0. -1.
<mgrwt>
<rscale>  0 0.32534142E+04</rscale>
<asrwt>0</asrwt>
<pdfrwt beam="1">  1        2 0.52880594E+00 0.32534142E+04</pdfrwt>
<pdfrwt beam="2">  1       -2 0.11843926E+00 0.32534142E+04</pdfrwt>
<totfact> 0.41286679E-01</totfact>
</mgrwt>
</event>
<event>
 6    1  0.3017327E-006  0.8654165E+03  0.7818608E-02  0.9469876E-01
         -1   -1    0    0    0  501 -0.00000000000E+00  0.00000000000E+00  0.19704901663E+03  0.19704901663E+03  0.00000000000E+00 0.  1.
          1   -1    0    0  501    0  0.00000000000E+00 -0.00000000000E+00 -0.95020241001E+03  0.95020241001E+03  0.00000000000E+00 0. -1.
         23    2    1    2    0    0  0.32780604737E+03 -0.13071963124E+03 -0.69950567500E+03  0.79028853729E+03  0.10345702553E+03 0.  0.
         13    1    3    3    0    0  0.19064414744E+03 -0.12630579724E+03 -0.39806488323E+03  0.45907951014E+03  0.00000000000E+00 0.  1.
        -13    1    3    3    0    0  0.13716189993E+03 -0.44138340033E+01 -0.30144079178E+03  0.33120902716E+03  0.00000000000E+00 0. -1.
         22    1    1    2    0    0 -0.32780604737E+03  0.13071963124E+03 -0.53647718377E+02  0.35696288935E+03  0.00000000000E+00 0.  1.
<mgrwt>
<rscale>  0 0.86541655E+03</rscale>
<asrwt>0</asrwt>
<pdfrwt beam="1">  1        1 0.14618499E+00 0.86541655E+03</pdfrwt>
<pdfrwt beam="2">  1       -1 0.30315233E-01 0.86541655E+03</pdfrwt>
<totfact> 0.16724035E+02</totfact>
</mgrwt>
</event>
<event>
 6    1  0.3017327E-006  0.2159500E+04  0.7818608E-02  0.8535477E-01
         -2   -1    0    0    0  501 -0.00000000000E+00  0.00000000000E+00  0.68286508991E+03  0.68286508991E+03  0.00000000000E+00 0.  1.
          2   -1    0    0  501    0  0.00000000000E+00 -0.00000000000E+00 -0.17073059012E+04  0.17073059012E+04  0.00000000000E+00 0. -1.
         23    2    1    2    0    0 -0.17189971851E+02 -0.82863447468E+03 -0.12755445175E+04  0.15241550219E+04  0.95415548418E+02 0.  0.
         11    1    3    3    0    0 -0.28836728141E+02 -0.55218344463E+03 -0.92362100110E+03  0.10764821722E+04  0.00000000000E+00 0.  1.
        -11    1    3    3    0    0  0.11646756290E+02 -0.27645103005E+03 -0.35192351637E+03  0.44767284966E+03  0.00000000000E+00 0. -1.
         22    1    1    2    0    0  0.17189971851E+02  0.82863447468E+03  0.25110370616E+03  0.86601596925E+03  0.00000000000E+00 0.  1.
<mgrwt>
<rscale>  0 0.21594996E+04</rscale>
<asrwt>0</asrwt>
<pdfrwt beam="1">  1        2 0.26266245E+00 0.21594996E+04</pdfrwt>
<pdfrwt beam="2">  1       -2 0.10505617E+00 0.21594996E+04</pdfrwt>
<totfact> 0.65415014E+00</totfact>
</mgrwt>
</event>
<event>
 6    1  0.3017327E-006  0.3592740E+04  0.7818608E-02  0.8092157E-01
         -2   -1    0    0    0  501 -0.00000000000E+00  0.00000000000E+00  0.20962673446E+04  0.20962673446E+04  0.00000000000E+00 0. -1.
          2   -1    0    0  501    0  0.00000000000E+00 -0.00000000000E+00 -0.15393769612E+04  0.15393769612E+04  0.00000000000E+00 0.  1.
         23    2    1    2    0    0  0.13547852793E+04  0.54918321427E+03  0.13330535802E+04  0.19805084613E+04  0.91304774545E+02 0.  0.
         11    1    3    3    0    0  0.11784786026E+04  0.44569228832E+03  0.11320800113E+04  0.16938295618E+04  0.00000000000E+00 0.  1.
        -11    1    3    3    0    0  0.17630667675E+03  0.10349092596E+03  0.20097356889E+03  0.28667889950E+03  0.00000000000E+00 0. -1.
         22    1    1    2    0    0 -0.13547852793E+04 -0.54918321427E+03 -0.77616319672E+03  0.16551358445E+04  0.00000000000E+00 0.  1.
<mgrwt>
<rscale>  0 0.35927403E+04</rscale>
<asrwt>0</asrwt>
<pdfrwt beam="1">  1        2 0.23682722E+00 0.35927403E+04</pdfrwt>
<pdfrwt beam="2">  1       -2 0.32250267E+00 0.35927403E+04</pdfrwt>
<totfact> 0.22721747E-01</totfact>
</mgrwt>
</event>
<event>
 6    1  0.3017327E-006  0.2331849E+04  0.7818608E-02  0.8465468E-01
          2   -1    0    0  501    0  0.00000000000E+00  0.00000000000E+00  0.27137799767E+04  0.27137799767E+04  0.00000000000E+00 0.  1.
         -2   -1    0    0    0  501 -0.00000000000E+00 -0.00000000000E+00 -0.50091761065E+03  0.50091761065E+03  0.00000000000E+00 0. -1.
         23    2    1    2    0    0 -0.70407434182E+03  0.59626540110E+03  0.20867900605E+04  0.22834901273E+04  0.91549426408E+02 0.  0.
         13    1    3    3    0    0 -0.41108623066E+03  0.40513330417E+03  0.12776475610E+04  0.14019658246E+04  0.00000000000E+00 0.  1.
        -13    1    3    3    0    0 -0.29298811116E+03  0.19113209693E+03  0.80914249951E+03  0.88152430271E+03  0.00000000000E+00 0. -1.
         22    1    1    2    0    0  0.70407434182E+03 -0.59626540110E+03  0.12607230549E+03  0.93120746001E+03  0.00000000000E+00 0. -1.
<mgrwt>
<rscale>  0 0.23318492E+04</rscale>
<asrwt>0</asrwt>
<pdfrwt beam="1">  1        2 0.41750460E+00 0.23318492E+04</pdfrwt>
<pdfrwt beam="2">  1       -2 0.77064250E-01 0.23318492E+04</pdfrwt>
<totfact> 0.35423323E+00</totfact>
</mgrwt>
</event>
<event>
 6    1  0.3017327E-006  0.2241218E+04  0.7818608E-02  0.8501465E-01
         -2   -1    0    0    0  501 -0.00000000000E+00  0.00000000000E+00  0.10485594386E+04  0.10485594386E+04  0.00000000000E+00 0.  1.
          2   -1    0    0  501    0  0.00000000000E+00 -0.00000000000E+00 -0.11976094978E+04  0.11976094978E+04  0.00000000000E+00 0. -1.
         23    2    1    2    0    0  0.43314460927E+03  0.65492444198E+03 -0.87321521079E+03  0.11780137773E+04  0.93120233627E+02 0.  0.
         11    1    3    3    0    0  0.33636963641E+02  0.76438635019E+02 -0.13381941963E+03  0.15774012589E+03  0.00000000000E+00 0. -1.
        -11    1    3    3    0    0  0.39950764563E+03  0.57848580697E+03 -0.73939579117E+03  0.10202736514E+04  0.00000000000E+00 0.  1.
         22    1    1    2    0    0 -0.43314460927E+03 -0.65492444198E+03  0.72416515153E+03  0.10681551591E+04  0.00000000000E+00 0.  1.
<mgrwt>
<rscale>  0 0.22412182E+04</rscale>
<asrwt>0</asrwt>
<pdfrwt beam="1">  1        2 0.18424762E+00 0.22412182E+04</pdfrwt>
<pdfrwt beam="2">  1       -2 0.16131684E+00 0.22412182E+04</pdfrwt>
<totfact> 0.42643301E+00</totfact>
</mgrwt>
</event>
<event>
 6    1  0.3017327E-006  0.3537628E+04  0.7818608E-02  0.8104930E-01
         -2   -1    0    0    0  501 -0.00000000000E+00  0.00000000000E+00  0.16787738258E+04  0.16787738258E+04  0.00000000000E+00 0.  1.
          2   -1    0    0  501    0  0.00000000000E+00 -0.00000000000E+00 -0.18636836134E+04  0.18636836134E+04  0.00000000000E+00 0. -1.
         23    2    1    2    0    0 -0.12242652485E+04 -0.40986059348E+03  0.11163667132E+04  0.17093912548E+04  0.94513063182E+02 0.  0.
         13    1    3    3    0    0 -0.14751098276E+03 -0.81070775995E+02  0.13204443658E+03  0.21393385424E+03  0.00000000000E+00 0.  1.
        -13    1    3    3    0    0 -0.10767542657E+04 -0.32878981749E+03  0.98432227658E+03  0.14954574006E+04  0.00000000000E+00 0. -1.
         22    1    1    2    0    0  0.12242652485E+04  0.40986059348E+03 -0.13012765008E+04  0.18330661844E+04  0.00000000000E+00 0. -1.
<mgrwt>
<rscale>  0 0.35376282E+04</rscale>
<asrwt>0</asrwt>
<pdfrwt beam="1">  1        2 0.28672056E+00 0.35376282E+04</pdfrwt>
<pdfrwt beam="2">  1       -2 0.25827290E+00 0.35376282E+04</pdfrwt>
<totfact> 0.37253059E-01</totfact>
</mgrwt>
</event>
<event>
 6    1  0.3017327E-006  0.1470317E+04  0.7818608E-02  0.8904436E-01
          2   -1    0    0  501    0  0.00000000000E+00  0.00000000000E+00  0.14927144824E+04  0.14927144824E+04  0.00000000000E+00 0. -1.
         -2   -1    0    0    0  501 -0.00000000000E+00 -0.00000000000E+00 -0.36206365163E+03  0.36206365163E+03  0.00000000000E+00 0.  1.
         23    2    1    2    0    0  0.20718554202E+03  0.60591597365E+03  0.10158179271E+04  0.12042040708E+04  0.90340285855E+02 0.  0.
         13    1    3    3    0    0  0.70912709999E+02  0.13517358681E+03  0.18759749913E+03  0.24185394909E+03  0.00000000000E+00 0.  1.
        -13    1    3    3    0    0  0.13627283202E+03  0.47074238685E+03  0.82822042796E+03  0.96235012174E+03  0.00000000000E+00 0. -1.
         22    1    1    2    0    0 -0.20718554202E+03 -0.60591597365E+03  0.11483290368E+03  0.65057406321E+03  0.00000000000E+00 0.  1.
<mgrwt>
<rscale>  0 0.14703165E+04</rscale>
<asrwt>0</asrwt>
<pdfrwt beam="1">  1        2 0.22964838E+00 0.14703165E+04</pdfrwt>
<pdfrwt beam="2">  1       -2 0.55702101E-01 0.14703165E+04</pdfrwt>
<totfact> 0.37566303E+01</totfact>
</mgrwt>
</event>
<event>
 6    1  0.3017327E-006  0.1176222E+04  0.7818608E-02  0.9133927E-01
         -2   -1    0    0    0  501 -0.00000000000E+00  0.00000000000E+00  0.27882255330E+03  0.27882255330E+03  0.00000000000E+00 0.  1.
          2   -1    0    0  501    0  0.00000000000E+00 -0.00000000000E+00 -0.12404834330E+04  0.12404834330E+04  0.00000000000E+00 0. -1.
         23    2    1    2    0    0 -0.15227737900E+03 -0.41801089088E+03  0.62307569390E+01  0.45406623613E+03  0.90641157417E+02 0.  0.
         11    1    3    3    0    0 -0.11126769270E+03 -0.31130728579E+03 -0.35230759337E+02  0.33246643744E+03  0.00000000000E+00 0. -1.
        -11    1    3    3    0    0 -0.41009686307E+02 -0.10670360509E+03  0.41461516276E+02  0.12159979869E+03  0.00000000000E+00 0.  1.
         22    1    1    2    0    0  0.15227737900E+03  0.41801089088E+03 -0.96789163668E+03  0.10652397502E+04  0.00000000000E+00 0. -1.
<mgrwt>
<rscale>  0 0.11762224E+04</rscale>
<asrwt>0</asrwt>
<pdfrwt beam="1">  1        2 0.19084361E+00 0.11762224E+04</pdfrwt>
<pdfrwt beam="2">  1       -2 0.42895777E-01 0.11762224E+04</pdfrwt>
<totfact> 0.91186459E+01</totfact>
</mgrwt>
</event>
<event>
 6    1  0.3017327E-006  0.3373727E+04  0.7818608E-02  0.8144385E-01
          2   -1    0    0  501    0  0.00000000000E+00  0.00000000000E+00  0.32201202398E+04  0.32201202398E+04  0.00000000000E+00 0. -1.
         -2   -1    0    0    0  501 -0.00000000000E+00 -0.00000000000E+00 -0.88366524816E+03  0.88366524816E+03  0.00000000000E+00 0.  1.
         23    2    1    2    0    0  0.10133761384E+04  0.12412301854E+04  0.53264473985E+03  0.16910453454E+04  0.91325628246E+02 0.  0.
         13    1    3    3    0    0  0.31507466078E+03  0.36079184686E+03  0.11873308637E+03  0.49349806932E+03  0.00000000000E+00 0. -1.
        -13    1    3    3    0    0  0.69830147758E+03  0.88043833856E+03  0.41391165348E+03  0.11975472761E+04  0.00000000000E+00 0.  1.
         22    1    1    2    0    0 -0.10133761384E+04 -0.12412301854E+04  0.18038102518E+04  0.24127401426E+04  0.00000000000E+00 0. -1.
<mgrwt>
<rscale>  0 0.33737269E+04</rscale>
<asrwt>0</asrwt>
<pdfrwt beam="1">  1        2 0.49540311E+00 0.33737269E+04</pdfrwt>
<pdfrwt beam="2">  1       -2 0.13594850E+00 0.33737269E+04</pdfrwt>
<totfact> 0.40429940E-01</totfact>
</mgrwt>
</event>
<event>
 6    1  0.3017327E-006  0.1840076E+04  0.7818608E-02  0.8685273E-01
          2   -1    0    0  501    0  0.00000000000E+00  0.00000000000E+00  0.19357965126E+04  0.19357965126E+04  0.00000000000E+00 0. -1.
         -2   -1    0    0    0  501 -0.00000000000E+00 -0.00000000000E+00 -0.43727229874E+03  0.43727229874E+03  0.00000000000E+00 0.  1.
         23    2    1    2    0    0  0.16310694899E+03 -0.16613868310E+03  0.18959321254E+04  0.19124833286E+04  0.93957006046E+02 0.  0.
         11    1    3    3    0    0  0.13597023856E+03 -0.94976887822E+02  0.15120468746E+04  0.15211161251E+04  0.00000000000E+00 0. -1.
        -11    1    3    3    0    0  0.27136710430E+02 -0.71161795282E+02  0.38388525078E+03  0.39136720344E+03  0.00000000000E+00 0.  1.
         22    1    1    2    0    0 -0.16310694899E+03  0.16613868310E+03 -0.39740791153E+03  0.46058548281E+03  0.00000000000E+00 0.  1.
<mgrwt>
<rscale>  0 0.18400763E+04</rscale>
<asrwt>0</asrwt>
<pdfrwt beam="1">  1        2 0.29781484E+00 0.18400763E+04</pdfrwt>
<pdfrwt beam="2">  1       -2 0.67272663E-01 0.18400763E+04</pdfrwt>
<totfact> 0.13834889E+01</totfact>
</mgrwt>
</event>
<event>
 6    1  0.3017327E-006  0.4533706E+04  0.7818608E-02  0.7904762E-01
          2   -1    0    0  501    0  0.00000000000E+00  0.00000000000E+00  0.33656436779E+04  0.33656436779E+04  0.00000000000E+00 0. -1.
         -2   -1    0    0    0  501 -0.00000000000E+00 -0.00000000000E+00 -0.15267873197E+04  0.15267873197E+04  0.00000000000E+00 0.  1.
         23    2    1    2    0    0  0.12995064055E+04 -0.12812455545E+03  0.29183132843E+04  0.31982172995E+04  0.83118408201E+02 0.  0.
         11    1    3    3    0    0  0.78684822495E+03 -0.80220311217E+02  0.16672786403E+04  0.18453681183E+04  0.00000000000E+00 0. -1.
        -11    1    3    3    0    0  0.51265818053E+03 -0.47904244234E+02  0.12510346440E+04  0.13528491812E+04  0.00000000000E+00 0.  1.
         22    1    1    2    0    0 -0.12995064055E+04  0.12812455545E+03 -0.10794569261E+04  0.16942136981E+04  0.00000000000E+00 0.  1.
<mgrwt>
<rscale>  0 0.45337058E+04</rscale>
<asrwt>0</asrwt>
<pdfrwt beam="1">  1        2 0.51779133E+00 0.45337058E+04</pdfrwt>
<pdfrwt beam="2">  1       -2 0.23489036E+00 0.45337058E+04</pdfrwt>
<totfact> 0.60501650E-02</totfact>
</mgrwt>
</event>
<event>
 6    1  0.3017327E-006  0.2418816E+04  0.7818608E-02  0.8432493E-01
          2   -1    0    0  501    0  0.00000000000E+00  0.00000000000E+00  0.10568273924E+04  0.10568273924E+04  0.00000000000E+00 0. -1.
         -2   -1    0    0    0  501 -0.00000000000E+00 -0.00000000000E+00 -0.13840176978E+04  0.13840176978E+04  0.00000000000E+00 0.  1.
         23    2    1    2    0    0  0.70364410720E+03  0.40055059938E+03  0.74043606762E+03  0.11009264790E+04  0.90761938903E+02 0.  0.
         11    1    3    3    0    0  0.40964139243E+03  0.28039993492E+03  0.42895892181E+03  0.65607617736E+03  0.00000000000E+00 0. -1.
        -11    1    3    3    0    0  0.29400271477E+03  0.12015066446E+03  0.31147714581E+03  0.44485030159E+03  0.00000000000E+00 0.  1.
         22    1    1    2    0    0 -0.70364410720E+03 -0.40055059938E+03 -0.10676263731E+04  0.13399186112E+04  0.00000000000E+00 0. -1.
<mgrwt>
<rscale>  0 0.24188161E+04</rscale>
<asrwt>0</asrwt>
<pdfrwt beam="1">  1        2 0.16258883E+00 0.24188161E+04</pdfrwt>
<pdfrwt beam="2">  1       -2 0.21292580E+00 0.24188161E+04</pdfrwt>
<totfact> 0.22815702E+00</totfact>
</mgrwt>
</event>
<event>
 6    1  0.3017327E-006  0.2748091E+04  0.7818608E-02  0.8319568E-01
         -2   -1    0    0    0  501 -0.00000000000E+00  0.00000000000E+00  0.20622494501E+04  0.20622494501E+04  0.00000000000E+00 0.  1.
          2   -1    0    0  501    0  0.00000000000E+00 -0.00000000000E+00 -0.91550598673E+03  0.91550598673E+03  0.00000000000E+00 0. -1.
         23    2    1    2    0    0  0.76523333725E+03 -0.74377245403E+03  0.15093649799E+04  0.18506911582E+04  0.89975534534E+02 0.  0.
         13    1    3    3    0    0  0.29136425314E+02 -0.34137744228E+02  0.98970803988E+02  0.10867169320E+03  0.00000000000E+00 0.  1.
        -13    1    3    3    0    0  0.73609691193E+03 -0.70963470981E+03  0.14103941759E+04  0.17420194650E+04  0.00000000000E+00 0. -1.
         22    1    1    2    0    0 -0.76523333725E+03  0.74377245403E+03 -0.36262151653E+03  0.11270642786E+04  0.00000000000E+00 0. -1.
<mgrwt>
<rscale>  0 0.27480915E+04</rscale>
<asrwt>0</asrwt>
<pdfrwt beam="1">  1        2 0.14084707E+00 0.27480915E+04</pdfrwt>
<pdfrwt beam="2">  1       -2 0.31726915E+00 0.27480915E+04</pdfrwt>
<totfact> 0.62264385E-01</totfact>
</mgrwt>
</event>
<event>
 6    1  0.3017327E-006  0.5289091E+03  0.7818608E-02  0.1006497E+00
         -2   -1    0    0    0  501 -0.00000000000E+00  0.00000000000E+00  0.39721120977E+03  0.39721120977E+03  0.00000000000E+00 0.  1.
          2   -1    0    0  501    0  0.00000000000E+00 -0.00000000000E+00 -0.17606808010E+03  0.17606808010E+03  0.00000000000E+00 0. -1.
         23    2    1    2    0    0 -0.87972549766E+02 -0.79428038006E+02 -0.12816201725E+03  0.20441336790E+03  0.10635478163E+03 0.  0.
         13    1    3    3    0    0 -0.10746762237E+03 -0.81663437821E+02 -0.92243289648E+02  0.16348404026E+03  0.00000000000E+00 0. -1.
        -13    1    3    3    0    0  0.19495072605E+02  0.22353998156E+01 -0.35918727602E+02  0.40929327636E+02  0.00000000000E+00 0.  1.
         22    1    1    2    0    0  0.87972549766E+02  0.79428038006E+02  0.34930514691E+03  0.36886592198E+03  0.00000000000E+00 0.  1.
<mgrwt>
<rscale>  0 0.52890912E+03</rscale>
<asrwt>0</asrwt>
<pdfrwt beam="1">  1        2 0.27087397E-01 0.52890912E+03</pdfrwt>
<pdfrwt beam="2">  1       -2 0.61109416E-01 0.52890912E+03</pdfrwt>
<totfact> 0.50217815E+02</totfact>
</mgrwt>
</event>
<event>
 6    1  0.3017327E-006  0.1345169E+04  0.7818608E-02  0.8994493E-01
          2   -1    0    0  501    0  0.00000000000E+00  0.00000000000E+00  0.72069754774E+03  0.72069754774E+03  0.00000000000E+00 0. -1.
         -2   -1    0    0    0  501 -0.00000000000E+00 -0.00000000000E+00 -0.62768346402E+03  0.62768346402E+03  0.00000000000E+00 0.  1.
         23    2    1    2    0    0 -0.17462846216E+03 -0.20344609282E+03  0.66156817270E+03  0.71978005361E+03  0.92333449814E+02 0.  0.
         11    1    3    3    0    0 -0.62604604883E+02 -0.10195664872E+03  0.18957370167E+03  0.22417110236E+03  0.00000000000E+00 0. -1.
        -11    1    3    3    0    0 -0.11202385727E+03 -0.10148944410E+03  0.47199447104E+03  0.49560895124E+03  0.00000000000E+00 0.  1.
         22    1    1    2    0    0  0.17462846216E+03  0.20344609282E+03 -0.56855408899E+03  0.62860095815E+03  0.00000000000E+00 0.  1.
<mgrwt>
<rscale>  0 0.13451690E+04</rscale>
<asrwt>0</asrwt>
<pdfrwt beam="1">  1        2 0.11087655E+00 0.13451690E+04</pdfrwt>
<pdfrwt beam="2">  1       -2 0.96566686E-01 0.13451690E+04</pdfrwt>
<totfact> 0.34610010E+01</totfact>
</mgrwt>
</event>
<event>
 6    1  0.3134798E-006  0.4744645E+04  0.7818608E-02  0.7869153E-01
          2   -1    0    0  501    0  0.00000000000E+00  0.00000000000E+00  0.25632626087E+04  0.25632626087E+04  0.00000000000E+00 0. -1.
         -2   -1    0    0    0  501 -0.00000000000E+00 -0.00000000000E+00 -0.21956054512E+04  0.21956054512E+04  0.00000000000E+00 0.  1.
         23    2    1    2    0    0  0.14600744311E+03  0.36811807681E+03  0.25290706086E+04  0.25614747863E+04  0.90143473545E+02 0.  0.
         11    1    3    3    0    0  0.96950060769E+02  0.32829311059E+03  0.21847909882E+04  0.22114446281E+04  0.00000000000E+00 0.  1.
        -11    1    3    3    0    0  0.49057382337E+02  0.39824966229E+02  0.34427962037E+03  0.35003015827E+03  0.00000000000E+00 0. -1.
         22    1    1    2    0    0 -0.14600744311E+03 -0.36811807681E+03 -0.21614134511E+04  0.21973932735E+04  0.00000000000E+00 0.  1.
<mgrwt>
<rscale>  0 0.47446447E+04</rscale>
<asrwt>0</asrwt>
<pdfrwt beam="1">  1        2 0.39434809E+00 0.47446447E+04</pdfrwt>
<pdfrwt beam="2">  1       -2 0.33778545E+00 0.47446447E+04</pdfrwt>
<totfact> 0.44104489E-02</totfact>
</mgrwt>
</event>
<event>
 6    1  0.3017327E-006  0.1555785E+04  0.7818608E-02  0.8848181E-01
          2   -1    0    0  501    0  0.00000000000E+00  0.00000000000E+00  0.18851609801E+04  0.18851609801E+04  0.00000000000E+00 0. -1.
         -2   -1    0    0    0  501 -0.00000000000E+00 -0.00000000000E+00 -0.32098962251E+03  0.32098962251E+03  0.00000000000E+00 0.  1.
         23    2    1    2    0    0 -0.58809362434E+03  0.46483554467E+03  0.50479888348E+03  0.90838474027E+03  0.91731832004E+02 0.  0.
         11    1    3    3    0    0 -0.16802451926E+03  0.15405940011E+03  0.20122699152E+03  0.30407045229E+03  0.00000000000E+00 0. -1.
        -11    1    3    3    0    0 -0.42006910508E+03  0.31077614456E+03  0.30357189196E+03  0.60431428798E+03  0.00000000000E+00 0.  1.
         22    1    1    2    0    0  0.58809362434E+03 -0.46483554467E+03  0.10593724741E+04  0.12977658623E+04  0.00000000000E+00 0. -1.
<mgrwt>
<rscale>  0 0.15557855E+04</rscale>
<asrwt>0</asrwt>
<pdfrwt beam="1">  1        2 0.29002476E+00 0.15557855E+04</pdfrwt>
<pdfrwt beam="2">  1       -2 0.49383020E-01 0.15557855E+04</pdfrwt>
<totfact> 0.28902376E+01</totfact>
</mgrwt>
</event>
<event>
 6    1  0.3017327E-006  0.1704913E+04  0.7818608E-02  0.8758568E-01
         -2   -1    0    0    0  501 -0.00000000000E+00  0.00000000000E+00  0.38003626591E+03  0.38003626591E+03  0.00000000000E+00 0.  1.
          2   -1    0    0  501    0  0.00000000000E+00 -0.00000000000E+00 -0.19121376816E+04  0.19121376816E+04  0.00000000000E+00 0. -1.
         23    2    1    2    0    0  0.23080843307E+03  0.71948422955E+03 -0.24494745314E+03  0.79962732758E+03  0.92057150079E+02 0.  0.
         13    1    3    3    0    0  0.21050403919E+02  0.56783162356E+02 -0.47667415059E+02  0.77068991759E+02  0.00000000000E+00 0. -1.
        -13    1    3    3    0    0  0.20975802915E+03  0.66270106719E+03 -0.19728003808E+03  0.72255833582E+03  0.00000000000E+00 0.  1.
         22    1    1    2    0    0 -0.23080843307E+03 -0.71948422955E+03 -0.12871539625E+04  0.14925466199E+04  0.00000000000E+00 0. -1.
<mgrwt>
<rscale>  0 0.17049125E+04</rscale>
<asrwt>0</asrwt>
<pdfrwt beam="1">  1        2 0.29417502E+00 0.17049125E+04</pdfrwt>
<pdfrwt beam="2">  1       -2 0.58467119E-01 0.17049125E+04</pdfrwt>
<totfact> 0.19452887E+01</totfact>
</mgrwt>
</event>
<event>
 6    1  0.3017327E-006  0.3635472E+04  0.7818608E-02  0.8082414E-01
          2   -1    0    0  501    0  0.00000000000E+00  0.00000000000E+00  0.43340824308E+04  0.43340824308E+04  0.00000000000E+00 0. -1.
         -2   -1    0    0    0  501 -0.00000000000E+00 -0.00000000000E+00 -0.76236758235E+03  0.76236758235E+03  0.00000000000E+00 0.  1.
         23    2    1    2    0    0  0.12745959212E+04 -0.12924918657E+04  0.18854153870E+04  0.26188027705E+04  0.90591302133E+02 0.  0.
         13    1    3    3    0    0  0.53312810740E+03 -0.57089396564E+03  0.86824217851E+03  0.11678998157E+04  0.00000000000E+00 0.  1.
        -13    1    3    3    0    0  0.74146781376E+03 -0.72159790011E+03  0.10171732085E+04  0.14509029549E+04  0.00000000000E+00 0. -1.
         22    1    1    2    0    0 -0.12745959212E+04  0.12924918657E+04  0.16862994614E+04  0.24776472426E+04  0.00000000000E+00 0.  1.
<mgrwt>
<rscale>  0 0.36354719E+04</rscale>
<asrwt>0</asrwt>
<pdfrwt beam="1">  1        2 0.66678190E+00 0.36354719E+04</pdfrwt>
<pdfrwt beam="2">  1       -2 0.11728732E+00 0.36354719E+04</pdfrwt>
<totfact> 0.80292854E-02</totfact>
</mgrwt>
</event>
<event>
 6    1  0.3017327E-006  0.3244814E+04  0.7818608E-02  0.8177081E-01
         -2   -1    0    0    0  501 -0.00000000000E+00  0.00000000000E+00  0.11208193124E+04  0.11208193124E+04  0.00000000000E+00 0.  1.
          2   -1    0    0  501    0  0.00000000000E+00 -0.00000000000E+00 -0.23484643361E+04  0.23484643361E+04  0.00000000000E+00 0. -1.
         23    2    1    2    0    0  0.96164683718E+03  0.12004057698E+04 -0.11621330397E+04  0.19297933200E+04  0.88376490234E+02 0.  0.
         11    1    3    3    0    0  0.70380182609E+03  0.82696339702E+03 -0.78907887417E+03  0.13423304139E+04  0.00000000000E+00 0.  1.
        -11    1    3    3    0    0  0.25784501109E+03  0.37344237282E+03 -0.37305416556E+03  0.58746290606E+03  0.00000000000E+00 0. -1.
         22    1    1    2    0    0 -0.96164683718E+03 -0.12004057698E+04 -0.65511983992E+02  0.15394903286E+04  0.00000000000E+00 0. -1.
<mgrwt>
<rscale>  0 0.32448138E+04</rscale>
<asrwt>0</asrwt>
<pdfrwt beam="1">  1        2 0.36130220E+00 0.32448138E+04</pdfrwt>
<pdfrwt beam="2">  1       -2 0.17243374E+00 0.32448138E+04</pdfrwt>
<totfact> 0.73109338E-01</totfact>
</mgrwt>
</event>
<event>
 6    1  0.3017327E-006  0.3639539E+04  0.7818608E-02  0.8081494E-01
          2   -1    0    0  501    0  0.00000000000E+00  0.00000000000E+00  0.99348305745E+03  0.99348305745E+03  0.00000000000E+00 0. -1.
         -2   -1    0    0    0  501 -0.00000000000E+00 -0.00000000000E+00 -0.33332845140E+04  0.33332845140E+04  0.00000000000E+00 0.  1.
         23    2    1    2    0    0  0.14258745884E+04 -0.10811297724E+04 -0.15564357689E+04  0.23734059237E+04  0.92754780856E+02 0.  0.
         13    1    3    3    0    0  0.54367255987E+03 -0.45854863622E+03 -0.65320230466E+03  0.96567072801E+03  0.00000000000E+00 0. -1.
        -13    1    3    3    0    0  0.88220202850E+03 -0.62258113618E+03 -0.90323346421E+03  0.14077351957E+04  0.00000000000E+00 0.  1.
         22    1    1    2    0    0 -0.14258745884E+04  0.10811297724E+04 -0.78336568773E+03  0.19533616478E+04  0.00000000000E+00 0.  1.
<mgrwt>
<rscale>  0 0.36395394E+04</rscale>
<asrwt>0</asrwt>
<pdfrwt beam="1">  1        2 0.15284355E+00 0.36395394E+04</pdfrwt>
<pdfrwt beam="2">  1       -2 0.51281301E+00 0.36395394E+04</pdfrwt>
<totfact> 0.28444914E-02</totfact>
</mgrwt>
</event>
<event>
 6    1  0.3017327E-006  0.1773730E+04  0.7818608E-02  0.8720396E-01
          2   -1    0    0  501    0  0.00000000000E+00  0.00000000000E+00  0.31138037026E+04  0.31138037026E+04  0.00000000000E+00 0. -1.
         -2   -1    0    0    0  501 -0.00000000000E+00 -0.00000000000E+00 -0.25259435766E+03  0.25259435766E+03  0.00000000000E+00 0.  1.
         23    2    1    2    0    0 -0.31162243135E+03 -0.82624919575E+03  0.15276329551E+04  0.17669537002E+04  0.93094898784E+02 0.  0.
         11    1    3    3    0    0 -0.19469575745E+03 -0.44188092785E+03  0.75728710590E+03  0.89813637780E+03  0.00000000000E+00 0. -1.
        -11    1    3    3    0    0 -0.11692667390E+03 -0.38436826790E+03  0.77034584918E+03  0.86881732245E+03  0.00000000000E+00 0.  1.
         22    1    1    2    0    0  0.31162243135E+03  0.82624919575E+03  0.13335763899E+04  0.15994443601E+04  0.00000000000E+00 0.  1.
<mgrwt>
<rscale>  0 0.17737297E+04</rscale>
<asrwt>0</asrwt>
<pdfrwt beam="1">  1        2 0.47904670E+00 0.17737297E+04</pdfrwt>
<pdfrwt beam="2">  1       -2 0.38860673E-01 0.17737297E+04</pdfrwt>
<totfact> 0.87734097E+00</totfact>
</mgrwt>
</event>
<event>
 6    1  0.3017327E-006  0.2119570E+04  0.7818608E-02  0.8552671E-01
          2   -1    0    0  501    0  0.00000000000E+00  0.00000000000E+00  0.63434490914E+03  0.63434490914E+03  0.00000000000E+00 0. -1.
         -2   -1    0    0    0  501 -0.00000000000E+00 -0.00000000000E+00 -0.17705582830E+04  0.17705582830E+04  0.00000000000E+00 0.  1.
         23    2    1    2    0    0  0.20891227992E+03 -0.10219411079E+04 -0.36990882785E+03  0.11105961860E+04  0.92646525765E+02 0.  0.
         11    1    3    3    0    0  0.99536351944E+02 -0.62156649166E+03 -0.26138437774E+03  0.68159678831E+03  0.00000000000E+00 0.  1.
        -11    1    3    3    0    0  0.10937592797E+03 -0.40037461628E+03 -0.10852445011E+03  0.42899939773E+03  0.00000000000E+00 0. -1.
         22    1    1    2    0    0 -0.20891227992E+03  0.10219411079E+04 -0.76630454600E+03  0.12943070061E+04  0.00000000000E+00 0.  1.
<mgrwt>
<rscale>  0 0.21195704E+04</rscale>
<asrwt>0</asrwt>
<pdfrwt beam="1">  1        2 0.97591526E-01 0.21195704E+04</pdfrwt>
<pdfrwt beam="2">  1       -2 0.27239358E+00 0.21195704E+04</pdfrwt>
<totfact> 0.19982276E+00</totfact>
</mgrwt>
</event>
<event>
 6    1  0.3017327E-006  0.1381812E+04  0.7818608E-02  0.8967090E-01
         -2   -1    0    0    0  501 -0.00000000000E+00  0.00000000000E+00  0.17409723943E+03  0.17409723943E+03  0.00000000000E+00 0.  1.
          2   -1    0    0  501    0  0.00000000000E+00 -0.00000000000E+00 -0.27418632098E+04  0.27418632098E+04  0.00000000000E+00 0. -1.
         23    2    1    2    0    0  0.92785967067E+02 -0.26411867435E+03 -0.26154274440E+04  0.26319894544E+04  0.92411382900E+02 0.  0.
         11    1    3    3    0    0 -0.18395719397E+02 -0.24433920229E+02 -0.26983517411E+03  0.27156295797E+03  0.00000000000E+00 0.  1.
        -11    1    3    3    0    0  0.11118168646E+03 -0.23968475412E+03 -0.23455922699E+04  0.23604264965E+04  0.00000000000E+00 0. -1.
         22    1    1    2    0    0 -0.92785967067E+02  0.26411867435E+03  0.47661473606E+02  0.28397099480E+03  0.00000000000E+00 0.  1.
<mgrwt>
<rscale>  0 0.13818116E+04</rscale>
<asrwt>0</asrwt>
<pdfrwt beam="1">  1        2 0.42182506E+00 0.13818116E+04</pdfrwt>
<pdfrwt beam="2">  1       -2 0.26784194E-01 0.13818116E+04</pdfrwt>
<totfact> 0.31099156E+01</totfact>
</mgrwt>
</event>
<event>
 6    1  0.3017327E-006  0.2797485E+04  0.7818608E-02  0.8304050E-01
          2   -1    0    0  501    0  0.00000000000E+00  0.00000000000E+00  0.26557623439E+04  0.26557623439E+04  0.00000000000E+00 0.  1.
         -2   -1    0    0    0  501 -0.00000000000E+00 -0.00000000000E+00 -0.73669274981E+03  0.73669274981E+03  0.00000000000E+00 0. -1.
         23    2    1    2    0    0  0.27227897644E+03 -0.53025196375E+03 -0.57198597835E+03  0.83107639248E+03  0.90647805376E+02 0.  0.
         13    1    3    3    0    0  0.11694008058E+02 -0.78019061259E+02 -0.53078232530E+02  0.95084291619E+02  0.00000000000E+00 0. -1.
        -13    1    3    3    0    0  0.26058496839E+03 -0.45223290249E+03 -0.51890774582E+03  0.73599210086E+03  0.00000000000E+00 0.  1.
         22    1    1    2    0    0 -0.27227897644E+03  0.53025196375E+03  0.24910555724E+04  0.25613787012E+04  0.00000000000E+00 0.  1.
<mgrwt>
<rscale>  0 0.27974852E+04</rscale>
<asrwt>0</asrwt>
<pdfrwt beam="1">  1        2 0.40857882E+00 0.27974852E+04</pdfrwt>
<pdfrwt beam="2">  1       -2 0.11333735E+00 0.27974852E+04</pdfrwt>
<totfact> 0.14997334E+00</totfact>
</mgrwt>
</event>
<event>
 6    1  0.3017327E-006  0.2677862E+04  0.7818608E-02  0.8342224E-01
          2   -1    0    0  501    0  0.00000000000E+00  0.00000000000E+00  0.18193065469E+04  0.18193065469E+04  0.00000000000E+00 0. -1.
         -2   -1    0    0    0  501 -0.00000000000E+00 -0.00000000000E+00 -0.98539543190E+03  0.98539543190E+03  0.00000000000E+00 0.  1.
         23    2    1    2    0    0 -0.44059852973E+03  0.75456625648E+03  0.14785529418E+04  0.17188565088E+04  0.69653399141E+02 0.  0.
         13    1    3    3    0    0 -0.23129814720E+03  0.41266545807E+03  0.86604299750E+03  0.98682424307E+03  0.00000000000E+00 0. -1.
        -13    1    3    3    0    0 -0.20930038253E+03  0.34190079841E+03  0.61250994434E+03  0.73203226568E+03  0.00000000000E+00 0.  1.
         22    1    1    2    0    0  0.44059852973E+03 -0.75456625648E+03 -0.64464182686E+03  0.10858454700E+04  0.00000000000E+00 0.  1.
<mgrwt>
<rscale>  0 0.26778621E+04</rscale>
<asrwt>0</asrwt>
<pdfrwt beam="1">  1        2 0.27989331E+00 0.26778621E+04</pdfrwt>
<pdfrwt beam="2">  1       -2 0.15159930E+00 0.26778621E+04</pdfrwt>
<totfact> 0.21555099E+00</totfact>
</mgrwt>
</event>
<event>
 6    1  0.3017327E-006  0.3311947E+04  0.7818608E-02  0.8159862E-01
          2   -1    0    0  501    0  0.00000000000E+00  0.00000000000E+00  0.21585612563E+04  0.21585612563E+04  0.00000000000E+00 0. -1.
         -2   -1    0    0    0  501 -0.00000000000E+00 -0.00000000000E+00 -0.12704054337E+04  0.12704054337E+04  0.00000000000E+00 0.  1.
         23    2    1    2    0    0 -0.78170372398E+03  0.22115963273E+03 -0.10480678829E+04  0.13292203879E+04  0.91696549619E+02 0.  0.
         13    1    3    3    0    0 -0.27165893165E+03  0.76638301488E+02 -0.29512660687E+03  0.40837693187E+03  0.00000000000E+00 0.  1.
        -13    1    3    3    0    0 -0.51004479233E+03  0.14452133124E+03 -0.75294127605E+03  0.92084345605E+03  0.00000000000E+00 0. -1.
         22    1    1    2    0    0  0.78170372398E+03 -0.22115963273E+03  0.19362237056E+04  0.20997463021E+04  0.00000000000E+00 0. -1.
<mgrwt>
<rscale>  0 0.33119468E+04</rscale>
<asrwt>0</asrwt>
<pdfrwt beam="1">  1        2 0.33208635E+00 0.33119468E+04</pdfrwt>
<pdfrwt beam="2">  1       -2 0.19544699E+00 0.33119468E+04</pdfrwt>
<totfact> 0.64801628E-01</totfact>
</mgrwt>
</event>
<event>
 6    1  0.3017327E-006  0.2884715E+04  0.7818608E-02  0.8277440E-01
          2   -1    0    0  501    0  0.00000000000E+00  0.00000000000E+00  0.17006562707E+04  0.17006562707E+04  0.00000000000E+00 0.  1.
         -2   -1    0    0    0  501 -0.00000000000E+00 -0.00000000000E+00 -0.12232900315E+04  0.12232900315E+04  0.00000000000E+00 0. -1.
         23    2    1    2    0    0  0.12659730921E+04 -0.40222561546E+03  0.80475242298E+03  0.15558618645E+04  0.92770488342E+02 0.  0.
         13    1    3    3    0    0  0.66556284059E+03 -0.16884007966E+03  0.44131032766E+03  0.81623260936E+03  0.00000000000E+00 0.  1.
        -13    1    3    3    0    0  0.60041025147E+03 -0.23338553580E+03  0.36344209532E+03  0.73962925513E+03  0.00000000000E+00 0. -1.
         22    1    1    2    0    0 -0.12659730921E+04  0.40222561546E+03 -0.32738618376E+03  0.13680844378E+04  0.00000000000E+00 0. -1.
<mgrwt>
<rscale>  0 0.28847155E+04</rscale>
<asrwt>0</asrwt>
<pdfrwt beam="1">  1        2 0.26163943E+00 0.28847155E+04</pdfrwt>
<pdfrwt beam="2">  1       -2 0.18819847E+00 0.28847155E+04</pdfrwt>
<totfact> 0.13498174E+00</totfact>
</mgrwt>
</event>
<event>
 6    1  0.3017327E-006  0.1378128E+04  0.7818608E-02  0.8969805E-01
         -2   -1    0    0    0  501 -0.00000000000E+00  0.00000000000E+00  0.12205849148E+04  0.12205849148E+04  0.00000000000E+00 0.  1.
          2   -1    0    0  501    0  0.00000000000E+00 -0.00000000000E+00 -0.38900117563E+03  0.38900117563E+03  0.00000000000E+00 0. -1.
         23    2    1    2    0    0 -0.31903233302E+03 -0.77236071773E+01 -0.29164886880E+03  0.44189915668E+03  0.91512394692E+02 0.  0.
         13    1    3    3    0    0 -0.22488198182E+03  0.35776651082E+02 -0.18825754966E+03  0.29545351497E+03  0.00000000000E+00 0.  1.
        -13    1    3    3    0    0 -0.94150351208E+02 -0.43500258259E+02 -0.10339131914E+03  0.14644564171E+03  0.00000000000E+00 0. -1.
         22    1    1    2    0    0  0.31903233302E+03  0.77236071773E+01  0.11232326080E+04  0.11676869337E+04  0.00000000000E+00 0.  1.
<mgrwt>
<rscale>  0 0.13781277E+04</rscale>
<asrwt>0</asrwt>
<pdfrwt beam="1">  1        2 0.59846335E-01 0.13781277E+04</pdfrwt>
<pdfrwt beam="2">  1       -2 0.18778229E+00 0.13781277E+04</pdfrwt>
<totfact> 0.12818982E+01</totfact>
</mgrwt>
</event>
<event>
 6    1  0.3017327E-006  0.4161622E+04  0.7818608E-02  0.7972713E-01
         -2   -1    0    0    0  501 -0.00000000000E+00  0.00000000000E+00  0.15409170178E+04  0.15409170178E+04  0.00000000000E+00 0.  1.
          2   -1    0    0  501    0  0.00000000000E+00 -0.00000000000E+00 -0.28098686489E+04  0.28098686489E+04  0.00000000000E+00 0. -1.
         23    2    1    2    0    0  0.17903040105E+04  0.10456369084E+04 -0.46238141375E+03  0.21261282752E+04  0.89888135579E+02 0.  0.
         11    1    3    3    0    0  0.33079174317E+03  0.19546486545E+03 -0.12171013680E+03  0.40304224142E+03  0.00000000000E+00 0.  1.
        -11    1    3    3    0    0  0.14595122673E+04  0.85017204295E+03 -0.34067127695E+03  0.17230860338E+04  0.00000000000E+00 0. -1.
         22    1    1    2    0    0 -0.17903040105E+04 -0.10456369084E+04 -0.80657021737E+03  0.22246573915E+04  0.00000000000E+00 0.  1.
<mgrwt>
<rscale>  0 0.41616220E+04</rscale>
<asrwt>0</asrwt>
<pdfrwt beam="1">  1        2 0.43228748E+00 0.41616220E+04</pdfrwt>
<pdfrwt beam="2">  1       -2 0.23706416E+00 0.41616220E+04</pdfrwt>
<totfact> 0.13715511E-01</totfact>
</mgrwt>
</event>
<event>
 6    1  0.3017327E-006  0.1108104E+04  0.7818608E-02  0.9197329E-01
         -2   -1    0    0    0  501 -0.00000000000E+00  0.00000000000E+00  0.29098355005E+03  0.29098355005E+03  0.00000000000E+00 0.  1.
          2   -1    0    0  501    0  0.00000000000E+00 -0.00000000000E+00 -0.10549515540E+04  0.10549515540E+04  0.00000000000E+00 0. -1.
         23    2    1    2    0    0  0.35687978364E+03 -0.89878181178E+02 -0.88201998751E+03  0.95944119955E+03  0.84420907409E+02 0.  0.
         11    1    3    3    0    0  0.25299829758E+03 -0.78308818662E+02 -0.71430510506E+03  0.76182162792E+03  0.00000000000E+00 0. -1.
        -11    1    3    3    0    0  0.10388148606E+03 -0.11569362516E+02 -0.16771488245E+03  0.19761957163E+03  0.00000000000E+00 0.  1.
         22    1    1    2    0    0 -0.35687978364E+03  0.89878181178E+02  0.11805198353E+03  0.38649390453E+03  0.00000000000E+00 0.  1.
<mgrwt>
<rscale>  0 0.11081039E+04</rscale>
<asrwt>0</asrwt>
<pdfrwt beam="1">  1        2 0.16230024E+00 0.11081039E+04</pdfrwt>
<pdfrwt beam="2">  1       -2 0.44766700E-01 0.11081039E+04</pdfrwt>
<totfact> 0.10908941E+02</totfact>
</mgrwt>
</event>
<event>
 6    1  0.3017327E-006  0.1646060E+04  0.7818608E-02  0.8792741E-01
         -1   -1    0    0    0  501 -0.00000000000E+00  0.00000000000E+00  0.28565515441E+04  0.28565515441E+04  0.00000000000E+00 0.  1.
          1   -1    0    0  501    0  0.00000000000E+00 -0.00000000000E+00 -0.23713158698E+03  0.23713158698E+03  0.00000000000E+00 0. -1.
         23    2    1    2    0    0  0.39139591108E+03 -0.56533548171E+03  0.47247242902E+03  0.83931433814E+03  0.91779060435E+02 0.  0.
         13    1    3    3    0    0  0.32161618394E+03 -0.44331522138E+03  0.41627997478E+03  0.68793486079E+03  0.00000000000E+00 0.  1.
        -13    1    3    3    0    0  0.69779727144E+02 -0.12202026033E+03  0.56192454233E+02  0.15137947736E+03  0.00000000000E+00 0. -1.
         22    1    1    2    0    0 -0.39139591108E+03  0.56533548171E+03  0.21469475281E+04  0.22543687929E+04  0.00000000000E+00 0.  1.
<mgrwt>
<rscale>  0 0.16460603E+04</rscale>
<asrwt>0</asrwt>
<pdfrwt beam="1">  1        1 0.36481785E-01 0.16460603E+04</pdfrwt>
<pdfrwt beam="2">  1       -1 0.43946944E+00 0.16460603E+04</pdfrwt>
<totfact> 0.43753498E-01</totfact>
</mgrwt>
</event>
<event>
 6    1  0.3017327E-006  0.1178263E+04  0.7818608E-02  0.9132099E-01
         -1   -1    0    0    0  501 -0.00000000000E+00  0.00000000000E+00  0.50697288031E+03  0.50697288031E+03  0.00000000000E+00 0.  1.
          1   -1    0    0  501    0  0.00000000000E+00 -0.00000000000E+00 -0.68460421572E+03  0.68460421572E+03  0.00000000000E+00 0. -1.
         23    2    1    2    0    0 -0.39791753628E+03  0.27506016564E+03  0.24459281197E+03  0.54949478741E+03  0.90124454606E+02 0.  0.
         13    1    3    3    0    0 -0.39151728572E+03  0.26756322304E+03  0.25214385671E+03  0.53707763668E+03  0.00000000000E+00 0.  1.
        -13    1    3    3    0    0 -0.64002505597E+01  0.74969425929E+01 -0.75510447407E+01  0.12417150726E+02  0.00000000000E+00 0. -1.
         22    1    1    2    0    0  0.39791753628E+03 -0.27506016564E+03 -0.42222414739E+03  0.64208230862E+03  0.00000000000E+00 0. -1.
<mgrwt>
<rscale>  0 0.11782627E+04</rscale>
<asrwt>0</asrwt>
<pdfrwt beam="1">  1        1 0.10532373E+00 0.11782627E+04</pdfrwt>
<pdfrwt beam="2">  1       -1 0.77995828E-01 0.11782627E+04</pdfrwt>
<totfact> 0.46007628E+01</totfact>
</mgrwt>
</event>
<event>
 6    1  0.3017327E-006  0.4891214E+04  0.7818608E-02  0.7845511E-01
          2   -1    0    0  501    0  0.00000000000E+00  0.00000000000E+00  0.22414029142E+04  0.22414029142E+04  0.00000000000E+00 0. -1.
         -2   -1    0    0    0  501 -0.00000000000E+00 -0.00000000000E+00 -0.26684155365E+04  0.26684155365E+04  0.00000000000E+00 0.  1.
         23    2    1    2    0    0 -0.60746555924E+03 -0.64440652765E+01 -0.25906295310E+04  0.26625325188E+04  0.93070484749E+02 0.  0.
         13    1    3    3    0    0 -0.18180853647E+03  0.40748725116E+02 -0.78129294025E+03  0.80320200511E+03  0.00000000000E+00 0. -1.
        -13    1    3    3    0    0 -0.42565702277E+03 -0.47192790393E+02 -0.18093365908E+04  0.18593305137E+04  0.00000000000E+00 0.  1.
         22    1    1    2    0    0  0.60746555924E+03  0.64440652765E+01  0.21636169087E+04  0.22472859318E+04  0.00000000000E+00 0. -1.
<mgrwt>
<rscale>  0 0.48912143E+04</rscale>
<asrwt>0</asrwt>
<pdfrwt beam="1">  1        2 0.34483122E+00 0.48912143E+04</pdfrwt>
<pdfrwt beam="2">  1       -2 0.41052547E+00 0.48912143E+04</pdfrwt>
<totfact> 0.22770401E-02</totfact>
</mgrwt>
</event>
<event>
 6    1  0.3017327E-006  0.3489803E+04  0.7818608E-02  0.8116211E-01
          2   -1    0    0  501    0  0.00000000000E+00  0.00000000000E+00  0.28886068061E+04  0.28886068061E+04  0.00000000000E+00 0. -1.
         -2   -1    0    0    0  501 -0.00000000000E+00 -0.00000000000E+00 -0.10540308013E+04  0.10540308013E+04  0.00000000000E+00 0.  1.
         23    2    1    2    0    0 -0.54003310469E+03 -0.65843866754E+03 -0.80155265336E+03  0.11723756097E+04  0.82466241559E+02 0.  0.
         13    1    3    3    0    0 -0.33503764689E+03 -0.45933377712E+03 -0.56287402409E+03  0.80004056812E+03  0.00000000000E+00 0.  1.
        -13    1    3    3    0    0 -0.20499545780E+03 -0.19910489042E+03 -0.23867862928E+03  0.37233504157E+03  0.00000000000E+00 0. -1.
         22    1    1    2    0    0  0.54003310469E+03  0.65843866754E+03  0.26361286582E+04  0.27702619976E+04  0.00000000000E+00 0. -1.
<mgrwt>
<rscale>  0 0.34898026E+04</rscale>
<asrwt>0</asrwt>
<pdfrwt beam="1">  1        2 0.44440104E+00 0.34898026E+04</pdfrwt>
<pdfrwt beam="2">  1       -2 0.16215859E+00 0.34898026E+04</pdfrwt>
<totfact> 0.40752966E-01</totfact>
</mgrwt>
</event>
<event>
 6    1  0.3017327E-006  0.2584208E+04  0.7818608E-02  0.8373585E-01
          2   -1    0    0  501    0  0.00000000000E+00  0.00000000000E+00  0.27444779264E+04  0.27444779264E+04  0.00000000000E+00 0.  1.
         -2   -1    0    0    0  501 -0.00000000000E+00 -0.00000000000E+00 -0.60832419168E+03  0.60832419168E+03  0.00000000000E+00 0. -1.
         23    2    1    2    0    0  0.31380789574E+03 -0.39501190877E+03 -0.47139480335E+03  0.69689941243E+03  0.94582910284E+02 0.  0.
         11    1    3    3    0    0  0.24132510046E+03 -0.23430212066E+03 -0.32543052036E+03  0.46801742643E+03  0.00000000000E+00 0. -1.
        -11    1    3    3    0    0  0.72482795275E+02 -0.16070978811E+03 -0.14596428299E+03  0.22888198600E+03  0.00000000000E+00 0.  1.
         22    1    1    2    0    0 -0.31380789574E+03  0.39501190877E+03  0.26075485381E+04  0.26559027057E+04  0.00000000000E+00 0.  1.
<mgrwt>
<rscale>  0 0.25842077E+04</rscale>
<asrwt>0</asrwt>
<pdfrwt beam="1">  1        2 0.42222736E+00 0.25842077E+04</pdfrwt>
<pdfrwt beam="2">  1       -2 0.93588339E-01 0.25842077E+04</pdfrwt>
<totfact> 0.21347671E+00</totfact>
</mgrwt>
</event>
<event>
 6    1  0.3017327E-006  0.3321578E+04  0.7818608E-02  0.8157426E-01
         -2   -1    0    0    0  501 -0.00000000000E+00  0.00000000000E+00  0.89643052188E+03  0.89643052188E+03  0.00000000000E+00 0.  1.
          2   -1    0    0  501    0  0.00000000000E+00 -0.00000000000E+00 -0.30768927935E+04  0.30768927935E+04  0.00000000000E+00 0. -1.
         23    2    1    2    0    0  0.16338173518E+04  0.12930701601E+03 -0.14029542323E+04  0.21593227105E+04  0.91184136372E+02 0.  0.
         11    1    3    3    0    0  0.24535694101E+03 -0.68673594053E+01 -0.18511927676E+03  0.30743509194E+03  0.00000000000E+00 0.  1.
        -11    1    3    3    0    0  0.13884604108E+04  0.13617437542E+03 -0.12178349555E+04  0.18518876185E+04  0.00000000000E+00 0. -1.
         22    1    1    2    0    0 -0.16338173518E+04 -0.12930701601E+03 -0.77750803934E+03  0.18140006049E+04  0.00000000000E+00 0.  1.
<mgrwt>
<rscale>  0 0.33215783E+04</rscale>
<asrwt>0</asrwt>
<pdfrwt beam="1">  1        2 0.47336813E+00 0.33215783E+04</pdfrwt>
<pdfrwt beam="2">  1       -2 0.13791239E+00 0.33215783E+04</pdfrwt>
<totfact> 0.48432430E-01</totfact>
</mgrwt>
</event>
<event>
 6    1  0.3017327E-006  0.1190663E+04  0.7818608E-02  0.9121069E-01
          2   -1    0    0  501    0  0.00000000000E+00  0.00000000000E+00  0.58480761611E+03  0.58480761611E+03  0.00000000000E+00 0. -1.
         -2   -1    0    0    0  501 -0.00000000000E+00 -0.00000000000E+00 -0.60604443617E+03  0.60604443617E+03  0.00000000000E+00 0.  1.
         23    2    1    2    0    0 -0.78253278486E+02  0.30159222640E+03 -0.51391697851E+03  0.60791536176E+03  0.91482127473E+02 0.  0.
         11    1    3    3    0    0 -0.90336536310E+02  0.17342936562E+03 -0.32547190679E+03  0.37969777029E+03  0.00000000000E+00 0.  1.
        -11    1    3    3    0    0  0.12083257824E+02  0.12816286078E+03 -0.18844507171E+03  0.22821759147E+03  0.00000000000E+00 0. -1.
         22    1    1    2    0    0  0.78253278486E+02 -0.30159222640E+03  0.49268015845E+03  0.58293669052E+03  0.00000000000E+00 0. -1.
<mgrwt>
<rscale>  0 0.11906627E+04</rscale>
<asrwt>0</asrwt>
<pdfrwt beam="1">  1        2 0.89970402E-01 0.11906627E+04</pdfrwt>
<pdfrwt beam="2">  1       -2 0.93237606E-01 0.11906627E+04</pdfrwt>
<totfact> 0.49197067E+01</totfact>
</mgrwt>
</event>
<event>
 6    1  0.3017327E-006  0.1110404E+04  0.7818608E-02  0.9195111E-01
         -2   -1    0    0    0  501 -0.00000000000E+00  0.00000000000E+00  0.13880516557E+03  0.13880516557E+03  0.00000000000E+00 0.  1.
          2   -1    0    0  501    0  0.00000000000E+00 -0.00000000000E+00 -0.22207320323E+04  0.22207320323E+04  0.00000000000E+00 0. -1.
         23    2    1    2    0    0 -0.59010428319E+02 -0.41079118458E+03 -0.18199705228E+04  0.18687696826E+04  0.88180466205E+02 0.  0.
         11    1    3    3    0    0 -0.22365911374E+02 -0.22133326968E+03 -0.78260067183E+03  0.81360461024E+03  0.00000000000E+00 0.  1.
        -11    1    3    3    0    0 -0.36644516946E+02 -0.18945791490E+03 -0.10373698510E+04  0.10551650723E+04  0.00000000000E+00 0. -1.
         22    1    1    2    0    0  0.59010428319E+02  0.41079118458E+03 -0.26195634397E+03  0.49076751535E+03  0.00000000000E+00 0.  1.
<mgrwt>
<rscale>  0 0.11104037E+04</rscale>
<asrwt>0</asrwt>
<pdfrwt beam="1">  1        2 0.34165109E+00 0.11104037E+04</pdfrwt>
<pdfrwt beam="2">  1       -2 0.21354640E-01 0.11104037E+04</pdfrwt>
<totfact> 0.95381817E+01</totfact>
</mgrwt>
</event>
<event>
 6    1  0.3017327E-006  0.2114106E+04  0.7818608E-02  0.8555055E-01
          2   -1    0    0  501    0  0.00000000000E+00  0.00000000000E+00  0.14337935776E+04  0.14337935776E+04  0.00000000000E+00 0. -1.
         -2   -1    0    0    0  501 -0.00000000000E+00 -0.00000000000E+00 -0.77930380812E+03  0.77930380812E+03  0.00000000000E+00 0.  1.
         23    2    1    2    0    0  0.93129201802E+03 -0.44613548648E+03  0.10105332026E+03  0.10415029173E+04  0.90414921579E+02 0.  0.
         11    1    3    3    0    0  0.89780436763E+03 -0.41793086720E+03  0.81835054687E+02  0.99368801365E+03  0.00000000000E+00 0. -1.
        -11    1    3    3    0    0  0.33487650385E+02 -0.28204619285E+02  0.19218265578E+02  0.47814903629E+02  0.00000000000E+00 0.  1.
         22    1    1    2    0    0 -0.93129201802E+03  0.44613548648E+03  0.55343644918E+03  0.11715944684E+04  0.00000000000E+00 0. -1.
<mgrwt>
<rscale>  0 0.21141058E+04</rscale>
<asrwt>0</asrwt>
<pdfrwt beam="1">  1        2 0.22058363E+00 0.21141058E+04</pdfrwt>
<pdfrwt beam="2">  1       -2 0.11989289E+00 0.21141058E+04</pdfrwt>
<totfact> 0.67815371E+00</totfact>
</mgrwt>
</event>
<event>
 6    1  0.3017327E-006  0.1686544E+04  0.7818608E-02  0.8769076E-01
          1   -1    0    0  501    0  0.00000000000E+00  0.00000000000E+00  0.67417271836E+03  0.67417271836E+03  0.00000000000E+00 0. -1.
         -1   -1    0    0    0  501 -0.00000000000E+00 -0.00000000000E+00 -0.10547859544E+04  0.10547859544E+04  0.00000000000E+00 0.  1.
         23    2    1    2    0    0  0.82784786170E+03 -0.12033468256E+03 -0.27587514620E+03  0.88587944432E+03  0.94142315831E+02 0.  0.
         11    1    3    3    0    0  0.41015021211E+03 -0.17068567051E+02 -0.15681141377E+03  0.43943640264E+03  0.00000000000E+00 0.  1.
        -11    1    3    3    0    0  0.41769764959E+03 -0.10326611551E+03 -0.11906373242E+03  0.44644304168E+03  0.00000000000E+00 0. -1.
         22    1    1    2    0    0 -0.82784786170E+03  0.12033468256E+03 -0.10473808983E+03  0.84307922843E+03  0.00000000000E+00 0. -1.
<mgrwt>
<rscale>  0 0.16865443E+04</rscale>
<asrwt>0</asrwt>
<pdfrwt beam="1">  1        1 0.10371888E+00 0.16865443E+04</pdfrwt>
<pdfrwt beam="2">  1       -1 0.16227476E+00 0.16865443E+04</pdfrwt>
<totfact> 0.77174716E+00</totfact>
</mgrwt>
</event>
<event>
 6    1  0.3017327E-006  0.3046483E+04  0.7818608E-02  0.8230580E-01
          2   -1    0    0  501    0  0.00000000000E+00  0.00000000000E+00  0.11957127039E+04  0.11957127039E+04  0.00000000000E+00 0. -1.
         -2   -1    0    0    0  501 -0.00000000000E+00 -0.00000000000E+00 -0.19404871395E+04  0.19404871395E+04  0.00000000000E+00 0.  1.
         23    2    1    2    0    0 -0.55455669402E+03  0.50858439218E+03 -0.17342309946E+04  0.18931328729E+04  0.10101347009E+03 0.  0.
         11    1    3    3    0    0 -0.38054373221E+03  0.33778733034E+03 -0.12833850134E+04  0.13805762947E+04  0.00000000000E+00 0.  1.
        -11    1    3    3    0    0 -0.17401296181E+03  0.17079706184E+03 -0.45084598114E+03  0.51255657827E+03  0.00000000000E+00 0. -1.
         22    1    1    2    0    0  0.55455669402E+03 -0.50858439218E+03  0.98945655900E+03  0.12430669704E+04  0.00000000000E+00 0. -1.
<mgrwt>
<rscale>  0 0.30464833E+04</rscale>
<asrwt>0</asrwt>
<pdfrwt beam="1">  1        2 0.18395580E+00 0.30464833E+04</pdfrwt>
<pdfrwt beam="2">  1       -2 0.29853648E+00 0.30464833E+04</pdfrwt>
<totfact> 0.52713406E-01</totfact>
</mgrwt>
</event>
<event>
 6    1  0.3017327E-006  0.2603112E+04  0.7818608E-02  0.8367145E-01
         -2   -1    0    0    0  501 -0.00000000000E+00  0.00000000000E+00  0.16227225823E+04  0.16227225823E+04  0.00000000000E+00 0.  1.
          2   -1    0    0  501    0  0.00000000000E+00 -0.00000000000E+00 -0.10439540394E+04  0.10439540394E+04  0.00000000000E+00 0. -1.
         23    2    1    2    0    0  0.38316458707E+03  0.99135461307E+03  0.10565285133E+04  0.15014068422E+04  0.91492822495E+02 0.  0.
         13    1    3    3    0    0  0.20033466470E+03  0.39373534961E+03  0.44265808796E+03  0.62538602978E+03  0.00000000000E+00 0. -1.
        -13    1    3    3    0    0  0.18282992237E+03  0.59761926347E+03  0.61387042537E+03  0.87602081238E+03  0.00000000000E+00 0.  1.
         22    1    1    2    0    0 -0.38316458707E+03 -0.99135461307E+03 -0.47775997041E+03  0.11652697795E+04  0.00000000000E+00 0. -1.
<mgrwt>
<rscale>  0 0.26031118E+04</rscale>
<asrwt>0</asrwt>
<pdfrwt beam="1">  1        2 0.16060831E+00 0.26031118E+04</pdfrwt>
<pdfrwt beam="2">  1       -2 0.24964963E+00 0.26031118E+04</pdfrwt>
<totfact> 0.13485691E+00</totfact>
</mgrwt>
</event>
<event>
 6    1  0.3017327E-006  0.1894578E+04  0.7818608E-02  0.8657560E-01
          2   -1    0    0  501    0  0.00000000000E+00  0.00000000000E+00  0.28075224095E+04  0.28075224095E+04  0.00000000000E+00 0. -1.
         -2   -1    0    0    0  501 -0.00000000000E+00 -0.00000000000E+00 -0.31962587699E+03  0.31962587699E+03  0.00000000000E+00 0.  1.
         23    2    1    2    0    0  0.70706793997E+02 -0.79863278658E+03  0.42369824174E+03  0.91271193334E+03  0.10348475584E+03 0.  0.
         13    1    3    3    0    0 -0.10238047837E+02 -0.22059819782E+03  0.77227007334E+02  0.23394955261E+03  0.00000000000E+00 0. -1.
        -13    1    3    3    0    0  0.80944841834E+02 -0.57803458875E+03  0.34647123441E+03  0.67876238072E+03  0.00000000000E+00 0.  1.
         22    1    1    2    0    0 -0.70706793997E+02  0.79863278658E+03  0.20641982908E+04  0.22144363532E+04  0.00000000000E+00 0. -1.
<mgrwt>
<rscale>  0 0.18945784E+04</rscale>
<asrwt>0</asrwt>
<pdfrwt beam="1">  1        2 0.43192651E+00 0.18945784E+04</pdfrwt>
<pdfrwt beam="2">  1       -2 0.49173214E-01 0.18945784E+04</pdfrwt>
<totfact> 0.84116523E+00</totfact>
</mgrwt>
</event>
<event>
 6    1  0.3017327E-006  0.1315124E+04  0.7818608E-02  0.9017657E-01
          2   -1    0    0  501    0  0.00000000000E+00  0.00000000000E+00  0.14971410618E+04  0.14971410618E+04  0.00000000000E+00 0. -1.
         -2   -1    0    0    0  501 -0.00000000000E+00 -0.00000000000E+00 -0.28880911591E+03  0.28880911591E+03  0.00000000000E+00 0.  1.
         23    2    1    2    0    0  0.19650019155E+03  0.41735055696E+03 -0.23442796396E+02  0.47063165036E+03  0.90281631261E+02 0.  0.
         11    1    3    3    0    0  0.16610505312E+03  0.35704087949E+03  0.12778658295E+02  0.39399539642E+03  0.00000000000E+00 0. -1.
        -11    1    3    3    0    0  0.30395138433E+02  0.60309677475E+02 -0.36221454692E+02  0.76636253937E+02  0.00000000000E+00 0.  1.
         22    1    1    2    0    0 -0.19650019155E+03 -0.41735055696E+03  0.12317747423E+04  0.13153185274E+04  0.00000000000E+00 0. -1.
<mgrwt>
<rscale>  0 0.13151243E+04</rscale>
<asrwt>0</asrwt>
<pdfrwt beam="1">  1        2 0.23032939E+00 0.13151243E+04</pdfrwt>
<pdfrwt beam="2">  1       -2 0.44432173E-01 0.13151243E+04</pdfrwt>
<totfact> 0.59907771E+01</totfact>
</mgrwt>
</event>
<event>
 6    1  0.3017327E-006  0.4843028E+04  0.7818608E-02  0.7853189E-01
         -2   -1    0    0    0  501 -0.00000000000E+00  0.00000000000E+00  0.19509297255E+04  0.19509297255E+04  0.00000000000E+00 0.  1.
          2   -1    0    0  501    0  0.00000000000E+00 -0.00000000000E+00 -0.30056075416E+04  0.30056075416E+04  0.00000000000E+00 0. -1.
         23    2    1    2    0    0  0.71094076075E+03 -0.39792002474E+03  0.18053045794E+04  0.19827725800E+04  0.92116056599E+02 0.  0.
         11    1    3    3    0    0  0.12519956664E+03 -0.70932078653E+02  0.41153171401E+03  0.43596403855E+03  0.00000000000E+00 0. -1.
        -11    1    3    3    0    0  0.58574119411E+03 -0.32698794608E+03  0.13937728654E+04  0.15468085414E+04  0.00000000000E+00 0.  1.
         22    1    1    2    0    0 -0.71094076075E+03  0.39792002474E+03 -0.28599823955E+04  0.29737646871E+04  0.00000000000E+00 0. -1.
<mgrwt>
<rscale>  0 0.48430276E+04</rscale>
<asrwt>0</asrwt>
<pdfrwt beam="1">  1        2 0.46240116E+00 0.48430276E+04</pdfrwt>
<pdfrwt beam="2">  1       -2 0.30014303E+00 0.48430276E+04</pdfrwt>
<totfact> 0.40362075E-02</totfact>
</mgrwt>
</event>
<event>
 6    1  0.3017327E-006  0.3860173E+04  0.7818608E-02  0.8033364E-01
          2   -1    0    0  501    0  0.00000000000E+00  0.00000000000E+00  0.28361818668E+04  0.28361818668E+04  0.00000000000E+00 0. -1.
         -2   -1    0    0    0  501 -0.00000000000E+00 -0.00000000000E+00 -0.13134679555E+04  0.13134679555E+04  0.00000000000E+00 0.  1.
         23    2    1    2    0    0 -0.10746924038E+04  0.77276925133E+03 -0.74662411679E+03  0.15224781179E+04  0.91410991015E+02 0.  0.
         13    1    3    3    0    0 -0.43617751458E+03  0.26832752636E+03 -0.25977033133E+03  0.57422217883E+03  0.00000000000E+00 0.  1.
        -13    1    3    3    0    0 -0.63851488919E+03  0.50444172497E+03 -0.48685378547E+03  0.94825593910E+03  0.00000000000E+00 0. -1.
         22    1    1    2    0    0  0.10746924038E+04 -0.77276925133E+03  0.22693380281E+04  0.26271717044E+04  0.00000000000E+00 0. -1.
<mgrwt>
<rscale>  0 0.38601731E+04</rscale>
<asrwt>0</asrwt>
<pdfrwt beam="1">  1        2 0.43633567E+00 0.38601731E+04</pdfrwt>
<pdfrwt beam="2">  1       -2 0.20207199E+00 0.38601731E+04</pdfrwt>
<totfact> 0.22601017E-01</totfact>
</mgrwt>
</event>
<event>
 6    1  0.3017327E-006  0.3169601E+04  0.7818608E-02  0.8196892E-01
         -2   -1    0    0    0  501 -0.00000000000E+00  0.00000000000E+00  0.44529131434E+04  0.44529131434E+04  0.00000000000E+00 0.  1.
          2   -1    0    0  501    0  0.00000000000E+00 -0.00000000000E+00 -0.56403375444E+03  0.56403375444E+03  0.00000000000E+00 0. -1.
         23    2    1    2    0    0  0.42064598708E+03 -0.68071304499E+03 -0.21668922475E+03  0.83412405460E+03  0.92170615059E+02 0.  0.
         13    1    3    3    0    0  0.37932458073E+03 -0.54811265036E+03 -0.17670438838E+03  0.68959339898E+03  0.00000000000E+00 0. -1.
        -13    1    3    3    0    0  0.41321406352E+02 -0.13260039462E+03 -0.39984836372E+02  0.14453065563E+03  0.00000000000E+00 0.  1.
         22    1    1    2    0    0 -0.42064598708E+03  0.68071304499E+03  0.41055686137E+04  0.41828228432E+04  0.00000000000E+00 0.  1.
<mgrwt>
<rscale>  0 0.31696014E+04</rscale>
<asrwt>0</asrwt>
<pdfrwt beam="1">  1        2 0.86774427E-01 0.31696014E+04</pdfrwt>
<pdfrwt beam="2">  1       -2 0.68506354E+00 0.31696014E+04</pdfrwt>
<totfact> 0.11474368E-02</totfact>
</mgrwt>
</event>
<event>
 6    1  0.3017327E-006  0.1572000E+04  0.7818608E-02  0.8837936E-01
         -2   -1    0    0    0  501 -0.00000000000E+00  0.00000000000E+00  0.12218420708E+04  0.12218420708E+04  0.00000000000E+00 0.  1.
          2   -1    0    0  501    0  0.00000000000E+00 -0.00000000000E+00 -0.50562681613E+03  0.50562681613E+03  0.00000000000E+00 0. -1.
         23    2    1    2    0    0  0.16591784481E+03 -0.60755012067E+03  0.87110518792E+03  0.10789037230E+04  0.92537099482E+02 0.  0.
         11    1    3    3    0    0  0.35956224057E+02 -0.38742097586E+02  0.80776154100E+02  0.96532829882E+02  0.00000000000E+00 0.  1.
        -11    1    3    3    0    0  0.12996162076E+03 -0.56880802308E+03  0.79032903382E+03  0.98237089314E+03  0.00000000000E+00 0. -1.
         22    1    1    2    0    0 -0.16591784481E+03  0.60755012067E+03 -0.15488993328E+03  0.64856516387E+03  0.00000000000E+00 0. -1.
<mgrwt>
<rscale>  0 0.15720001E+04</rscale>
<asrwt>0</asrwt>
<pdfrwt beam="1">  1        2 0.77788741E-01 0.15720001E+04</pdfrwt>
<pdfrwt beam="2">  1       -2 0.18797570E+00 0.15720001E+04</pdfrwt>
<totfact> 0.93323429E+00</totfact>
</mgrwt>
</event>
<event>
 6    1  0.3017327E-006  0.2013746E+04  0.7818608E-02  0.8600221E-01
          4   -1    0    0  501    0  0.00000000000E+00  0.00000000000E+00  0.13882424521E+04  0.13882424521E+04  0.00000000000E+00 0. -1.
         -4   -1    0    0    0  501 -0.00000000000E+00 -0.00000000000E+00 -0.73027110827E+03  0.73027110827E+03  0.00000000000E+00 0.  1.
         23    2    1    2    0    0  0.35917287392E+03  0.80459826379E+03  0.83769441595E+03  0.12192450231E+04  0.91885648608E+02 0.  0.
         13    1    3    3    0    0  0.98073925470E+02  0.32786928522E+03  0.33401151487E+03  0.47820545283E+03  0.00000000000E+00 0. -1.
        -13    1    3    3    0    0  0.26109894845E+03  0.47672897857E+03  0.50368290108E+03  0.74103957029E+03  0.00000000000E+00 0.  1.
         22    1    1    2    0    0 -0.35917287392E+03 -0.80459826379E+03 -0.17972307212E+03  0.89926853726E+03  0.00000000000E+00 0.  1.
<mgrwt>
<rscale>  0 0.20137461E+04</rscale>
<asrwt>0</asrwt>
<pdfrwt beam="1">  1        4 0.21357576E+00 0.20137461E+04</pdfrwt>
<pdfrwt beam="2">  1       -4 0.11234940E+00 0.20137461E+04</pdfrwt>
<totfact> 0.12401655E-01</totfact>
</mgrwt>
</event>
<event>
 6    1  0.3516639E-006  0.1967232E+04  0.7818608E-02  0.8622096E-01
         -2   -1    0    0    0  501 -0.00000000000E+00  0.00000000000E+00  0.73799419951E+03  0.73799419951E+03  0.00000000000E+00 0.  1.
          2   -1    0    0  501    0  0.00000000000E+00 -0.00000000000E+00 -0.13109858634E+04  0.13109858634E+04  0.00000000000E+00 0. -1.
         23    2    1    2    0    0 -0.83891726072E+02  0.11798664723E+03 -0.12982699253E+04  0.13093942146E+04  0.89720340216E+02 0.  0.
         13    1    3    3    0    0 -0.64722742606E+02  0.17976859024E+02 -0.43855542175E+03  0.44366998864E+03  0.00000000000E+00 0. -1.
        -13    1    3    3    0    0 -0.19168983466E+02  0.10000978821E+03 -0.85971450359E+03  0.86572422592E+03  0.00000000000E+00 0.  1.
         22    1    1    2    0    0  0.83891726072E+02 -0.11798664723E+03  0.72527826142E+03  0.73958584837E+03  0.00000000000E+00 0.  1.
<mgrwt>
<rscale>  0 0.19672315E+04</rscale>
<asrwt>0</asrwt>
<pdfrwt beam="1">  1        2 0.20169013E+00 0.19672315E+04</pdfrwt>
<pdfrwt beam="2">  1       -2 0.11353757E+00 0.19672315E+04</pdfrwt>
<totfact> 0.92328007E+00</totfact>
</mgrwt>
</event>
<event>
 6    1  0.3017327E-006  0.1619511E+04  0.7818608E-02  0.8808650E-01
         -2   -1    0    0    0  501 -0.00000000000E+00  0.00000000000E+00  0.20850656650E+04  0.20850656650E+04  0.00000000000E+00 0.  1.
          2   -1    0    0  501    0  0.00000000000E+00 -0.00000000000E+00 -0.31447658688E+03  0.31447658688E+03  0.00000000000E+00 0. -1.
         23    2    1    2    0    0  0.57837057908E+03  0.51797195080E+02  0.17187784859E+04  0.18165501305E+04  0.91975087429E+02 0.  0.
         13    1    3    3    0    0  0.49436984363E+03  0.75274840279E+02  0.14922904646E+04  0.15738483646E+04  0.00000000000E+00 0.  1.
        -13    1    3    3    0    0  0.84000735452E+02 -0.23477645200E+02  0.22648802126E+03  0.24270176587E+03  0.00000000000E+00 0. -1.
         22    1    1    2    0    0 -0.57837057908E+03 -0.51797195080E+02  0.51810592212E+02  0.58299212141E+03  0.00000000000E+00 0. -1.
<mgrwt>
<rscale>  0 0.16195114E+04</rscale>
<asrwt>0</asrwt>
<pdfrwt beam="1">  1        2 0.48381015E-01 0.16195114E+04</pdfrwt>
<pdfrwt beam="2">  1       -2 0.32077932E+00 0.16195114E+04</pdfrwt>
<totfact> 0.23710962E+00</totfact>
</mgrwt>
</event>
<event>
 6    1  0.3017327E-006  0.5095217E+04  0.7818608E-02  0.7813985E-01
          2   -1    0    0  501    0  0.00000000000E+00  0.00000000000E+00  0.21783568022E+04  0.21783568022E+04  0.00000000000E+00 0. -1.
         -2   -1    0    0    0  501 -0.00000000000E+00 -0.00000000000E+00 -0.29794520470E+04  0.29794520470E+04  0.00000000000E+00 0.  1.
         23    2    1    2    0    0 -0.87950836882E+03 -0.23664269624E+04 -0.74271221812E+03  0.26325524035E+04  0.72105334110E+02 0.  0.
         13    1    3    3    0    0 -0.26844561581E+03 -0.72373110941E+03 -0.19258220133E+03  0.79557380025E+03  0.00000000000E+00 0.  1.
        -13    1    3    3    0    0 -0.61106275302E+03 -0.16426958530E+04 -0.55013001679E+03  0.18369786033E+04  0.00000000000E+00 0. -1.
         22    1    1    2    0    0  0.87950836882E+03  0.23664269624E+04 -0.58383026697E+02  0.25252564458E+04  0.00000000000E+00 0. -1.
<mgrwt>
<rscale>  0 0.50952172E+04</rscale>
<asrwt>0</asrwt>
<pdfrwt beam="1">  1        2 0.33513182E+00 0.50952172E+04</pdfrwt>
<pdfrwt beam="2">  1       -2 0.45837723E+00 0.50952172E+04</pdfrwt>
<totfact> 0.11768205E-02</totfact>
</mgrwt>
</event>
<event>
 6    1  0.3017327E-006  0.2577730E+03  0.7818608E-02  0.1108489E+00
          2   -1    0    0  501    0  0.00000000000E+00  0.00000000000E+00  0.43574057037E+03  0.43574057037E+03  0.00000000000E+00 0. -1.
         -2   -1    0    0    0  501 -0.00000000000E+00 -0.00000000000E+00 -0.38122992727E+02  0.38122992727E+02  0.00000000000E+00 0.  1.
         23    2    1    2    0    0 -0.70705622469E+02  0.87698200213E+02  0.25131859382E+03  0.28921889885E+03  0.88296525868E+02 0.  0.
         13    1    3    3    0    0 -0.43242124079E+02  0.10184437673E+03  0.17702342621E+03  0.20875692035E+03  0.00000000000E+00 0.  1.
        -13    1    3    3    0    0 -0.27463498391E+02 -0.14146176512E+02  0.74295167608E+02  0.80461978497E+02  0.00000000000E+00 0. -1.
         22    1    1    2    0    0  0.70705622469E+02 -0.87698200213E+02  0.14629898382E+03  0.18464466425E+03  0.00000000000E+00 0.  1.
<mgrwt>
<rscale>  0 0.25777304E+03</rscale>
<asrwt>0</asrwt>
<pdfrwt beam="1">  1        2 0.67037007E-01 0.25777304E+03</pdfrwt>
<pdfrwt beam="2">  1       -2 0.58650761E-02 0.25777304E+03</pdfrwt>
<totfact> 0.11018015E+04</totfact>
</mgrwt>
</event>
<event>
 6    1  0.4035353E-006  0.3383647E+04  0.7818608E-02  0.8141932E-01
         -2   -1    0    0    0  501 -0.00000000000E+00  0.00000000000E+00  0.16222360340E+04  0.16222360340E+04  0.00000000000E+00 0.  1.
          2   -1    0    0  501    0  0.00000000000E+00 -0.00000000000E+00 -0.17643961224E+04  0.17643961224E+04  0.00000000000E+00 0. -1.
         23    2    1    2    0    0 -0.99937755451E+03 -0.84808263822E+03  0.99847775655E+03  0.16490895380E+04  0.67370737014E+02 0.  0.
         13    1    3    3    0    0 -0.51518214752E+03 -0.43889954704E+03  0.55778941357E+03  0.87702593315E+03  0.00000000000E+00 0.  1.
        -13    1    3    3    0    0 -0.48419540699E+03 -0.40918309118E+03  0.44068834298E+03  0.77206360483E+03  0.00000000000E+00 0. -1.
         22    1    1    2    0    0  0.99937755451E+03  0.84808263822E+03 -0.11406378449E+04  0.17375426184E+04  0.00000000000E+00 0. -1.
<mgrwt>
<rscale>  0 0.33836471E+04</rscale>
<asrwt>0</asrwt>
<pdfrwt beam="1">  1        2 0.27144556E+00 0.33836471E+04</pdfrwt>
<pdfrwt beam="2">  1       -2 0.24957477E+00 0.33836471E+04</pdfrwt>
<totfact> 0.48434253E-01</totfact>
</mgrwt>
</event>
<event>
 6    1  0.3017327E-006  0.2045129E+04  0.7818608E-02  0.8585807E-01
          1   -1    0    0  501    0  0.00000000000E+00  0.00000000000E+00  0.10359613844E+04  0.10359613844E+04  0.00000000000E+00 0. -1.
         -1   -1    0    0    0  501 -0.00000000000E+00 -0.00000000000E+00 -0.10093404677E+04  0.10093404677E+04  0.00000000000E+00 0.  1.
         23    2    1    2    0    0  0.40105846003E+03 -0.69635190796E+03 -0.61588353092E+03  0.10164355666E+04  0.89860277169E+02 0.  0.
         11    1    3    3    0    0  0.18782371994E+03 -0.28123579157E+03 -0.21110539186E+03  0.39866879324E+03  0.00000000000E+00 0. -1.
        -11    1    3    3    0    0  0.21323474009E+03 -0.41511611639E+03 -0.40477813906E+03  0.61776677341E+03  0.00000000000E+00 0.  1.
         22    1    1    2    0    0 -0.40105846003E+03  0.69635190796E+03  0.64250444758E+03  0.10288662854E+04  0.00000000000E+00 0. -1.
<mgrwt>
<rscale>  0 0.20451286E+04</rscale>
<asrwt>0</asrwt>
<pdfrwt beam="1">  1        1 0.15937867E+00 0.20451286E+04</pdfrwt>
<pdfrwt beam="2">  1       -1 0.15528315E+00 0.20451286E+04</pdfrwt>
<totfact> 0.41631962E+00</totfact>
</mgrwt>
</event>
<event>
 6    1  0.3017327E-006  0.9652930E+03  0.7818608E-02  0.9347452E-01
         -1   -1    0    0    0  501 -0.00000000000E+00  0.00000000000E+00  0.40520123817E+03  0.40520123817E+03  0.00000000000E+00 0.  1.
          1   -1    0    0  501    0  0.00000000000E+00 -0.00000000000E+00 -0.57489369083E+03  0.57489369083E+03  0.00000000000E+00 0. -1.
         23    2    1    2    0    0 -0.27848883861E+03 -0.24779416047E+03 -0.39122868723E+03  0.54646342366E+03  0.81267511879E+02 0.  0.
         13    1    3    3    0    0 -0.15829979027E+03 -0.10125049336E+03 -0.23468811535E+03  0.30064763011E+03  0.00000000000E+00 0. -1.
        -13    1    3    3    0    0 -0.12018904835E+03 -0.14654366711E+03 -0.15654057188E+03  0.24581579355E+03  0.00000000000E+00 0.  1.
         22    1    1    2    0    0  0.27848883861E+03  0.24779416047E+03  0.22153623457E+03  0.43363150534E+03  0.00000000000E+00 0.  1.
<mgrwt>
<rscale>  0 0.96529298E+03</rscale>
<asrwt>0</asrwt>
<pdfrwt beam="1">  1        1 0.88445183E-01 0.96529298E+03</pdfrwt>
<pdfrwt beam="2">  1       -1 0.62338652E-01 0.96529298E+03</pdfrwt>
<totfact> 0.95521866E+01</totfact>
</mgrwt>
</event>
<event>
 6    1  0.3017327E-006  0.2053137E+04  0.7818608E-02  0.8582173E-01
         -2   -1    0    0    0  501 -0.00000000000E+00  0.00000000000E+00  0.10993140978E+04  0.10993140978E+04  0.00000000000E+00 0.  1.
          2   -1    0    0  501    0  0.00000000000E+00 -0.00000000000E+00 -0.95863673587E+03  0.95863673587E+03  0.00000000000E+00 0. -1.
         23    2    1    2    0    0  0.86991012200E+03  0.54011726703E+03  0.37276224598E+02  0.10287948311E+04  0.92514890552E+02 0.  0.
         11    1    3    3    0    0  0.37166215096E+03  0.25747664247E+03 -0.23507608257E+02  0.45274671012E+03  0.00000000000E+00 0.  1.
        -11    1    3    3    0    0  0.49824797104E+03  0.28264062456E+03  0.60783832855E+02  0.57604812093E+03  0.00000000000E+00 0. -1.
         22    1    1    2    0    0 -0.86991012200E+03 -0.54011726703E+03  0.10340113733E+03  0.10291560026E+04  0.00000000000E+00 0.  1.
<mgrwt>
<rscale>  0 0.20531370E+04</rscale>
<asrwt>0</asrwt>
<pdfrwt beam="1">  1        2 0.14748258E+00 0.20531370E+04</pdfrwt>
<pdfrwt beam="2">  1       -2 0.16912524E+00 0.20531370E+04</pdfrwt>
<totfact> 0.53585368E+00</totfact>
</mgrwt>
</event>
<event>
 6    1  0.3017327E-006  0.3384016E+04  0.7818608E-02  0.8141841E-01
         -2   -1    0    0    0  501 -0.00000000000E+00  0.00000000000E+00  0.10652200517E+04  0.10652200517E+04  0.00000000000E+00 0.  1.
          2   -1    0    0  501    0  0.00000000000E+00 -0.00000000000E+00 -0.26876046364E+04  0.26876046364E+04  0.00000000000E+00 0. -1.
         23    2    1    2    0    0  0.18134060920E+03  0.14252876196E+04 -0.18001541499E+04  0.23050915519E+04  0.92535853772E+02 0.  0.
         13    1    3    3    0    0  0.87790004829E+02  0.37126387672E+03 -0.48811781926E+03  0.61951832627E+03  0.00000000000E+00 0. -1.
        -13    1    3    3    0    0  0.93550604368E+02  0.10540237429E+04 -0.13120363306E+04  0.16855732257E+04  0.00000000000E+00 0.  1.
         22    1    1    2    0    0 -0.18134060920E+03 -0.14252876196E+04  0.17776956517E+03  0.14477331361E+04  0.00000000000E+00 0.  1.
<mgrwt>
<rscale>  0 0.33840156E+04</rscale>
<asrwt>0</asrwt>
<pdfrwt beam="1">  1        2 0.41347764E+00 0.33840156E+04</pdfrwt>
<pdfrwt beam="2">  1       -2 0.16388001E+00 0.33840156E+04</pdfrwt>
<totfact> 0.52837397E-01</totfact>
</mgrwt>
</event>
<event>
 6    1  0.3017327E-006  0.3290486E+04  0.7818608E-02  0.8165320E-01
          2   -1    0    0  501    0  0.00000000000E+00  0.00000000000E+00  0.25038680270E+04  0.25038680270E+04  0.00000000000E+00 0. -1.
         -2   -1    0    0    0  501 -0.00000000000E+00 -0.00000000000E+00 -0.10810574612E+04  0.10810574612E+04  0.00000000000E+00 0.  1.
         23    2    1    2    0    0  0.15218644318E+04 -0.58396177136E+03  0.94524336354E+03  0.18863516358E+04  0.88061219453E+02 0.  0.
         13    1    3    3    0    0  0.48145388197E+03 -0.15684942581E+03  0.32997673104E+03  0.60438747991E+03  0.00000000000E+00 0.  1.
        -13    1    3    3    0    0  0.10404105498E+04 -0.42711234555E+03  0.61526663250E+03  0.12819641559E+04  0.00000000000E+00 0. -1.
         22    1    1    2    0    0 -0.15218644318E+04  0.58396177136E+03  0.47756720225E+03  0.16985738524E+04  0.00000000000E+00 0.  1.
<mgrwt>
<rscale>  0 0.32904864E+04</rscale>
<asrwt>0</asrwt>
<pdfrwt beam="1">  1        2 0.38521046E+00 0.32904864E+04</pdfrwt>
<pdfrwt beam="2">  1       -2 0.16631653E+00 0.32904864E+04</pdfrwt>
<totfact> 0.65552121E-01</totfact>
</mgrwt>
</event>
<event>
 6    1  0.3017327E-006  0.1603590E+04  0.7818608E-02  0.8818346E-01
          2   -1    0    0  501    0  0.00000000000E+00  0.00000000000E+00  0.13139350965E+04  0.13139350965E+04  0.00000000000E+00 0. -1.
         -2   -1    0    0    0  501 -0.00000000000E+00 -0.00000000000E+00 -0.48927474450E+03  0.48927474450E+03  0.00000000000E+00 0.  1.
         23    2    1    2    0    0  0.36567930881E+03  0.57638612518E+03  0.88127278571E+03  0.11182665661E+04  0.89084610691E+02 0.  0.
         13    1    3    3    0    0  0.21815318596E+03  0.26594579997E+03  0.41553119609E+03  0.53942947268E+03  0.00000000000E+00 0. -1.
        -13    1    3    3    0    0  0.14752612286E+03  0.31044032521E+03  0.46574158962E+03  0.57883709344E+03  0.00000000000E+00 0.  1.
         22    1    1    2    0    0 -0.36567930881E+03 -0.57638612518E+03 -0.56612433694E+02  0.68494327491E+03  0.00000000000E+00 0.  1.
<mgrwt>
<rscale>  0 0.16035900E+04</rscale>
<asrwt>0</asrwt>
<pdfrwt beam="1">  1        2 0.20214386E+00 0.16035900E+04</pdfrwt>
<pdfrwt beam="2">  1       -2 0.75273038E-01 0.16035900E+04</pdfrwt>
<totfact> 0.24638986E+01</totfact>
</mgrwt>
</event>
<event>
 6    1  0.3017327E-006  0.1443860E+04  0.7818608E-02  0.8922669E-01
         -1   -1    0    0    0  501 -0.00000000000E+00  0.00000000000E+00  0.75204771160E+03  0.75204771160E+03  0.00000000000E+00 0.  1.
          1   -1    0    0  501    0  0.00000000000E+00 -0.00000000000E+00 -0.69301798158E+03  0.69301798158E+03  0.00000000000E+00 0. -1.
         23    2    1    2    0    0  0.47285289077E+03  0.44191323821E+03 -0.28376982815E+03  0.71268006832E+03  0.92251818350E+02 0.  0.
         11    1    3    3    0    0  0.27373313377E+03  0.25326720560E+03 -0.21274456325E+03  0.42934176963E+03  0.00000000000E+00 0. -1.
        -11    1    3    3    0    0  0.19911975700E+03  0.18864603261E+03 -0.71025264900E+02  0.28333829869E+03  0.00000000000E+00 0.  1.
         22    1    1    2    0    0 -0.47285289077E+03 -0.44191323821E+03  0.34279955817E+03  0.73238562486E+03  0.00000000000E+00 0.  1.
<mgrwt>
<rscale>  0 0.14438595E+04</rscale>
<asrwt>0</asrwt>
<pdfrwt beam="1">  1        1 0.10661815E+00 0.14438595E+04</pdfrwt>
<pdfrwt beam="2">  1       -1 0.11569965E+00 0.14438595E+04</pdfrwt>
<totfact> 0.18189892E+01</totfact>
</mgrwt>
</event>
<event>
 6    1  0.3017327E-006  0.1547550E+04  0.7818608E-02  0.8853434E-01
          2   -1    0    0  501    0  0.00000000000E+00  0.00000000000E+00  0.18149664909E+04  0.18149664909E+04  0.00000000000E+00 0. -1.
         -2   -1    0    0    0  501 -0.00000000000E+00 -0.00000000000E+00 -0.32988354958E+03  0.32988354958E+03  0.00000000000E+00 0.  1.
         23    2    1    2    0    0 -0.53804237863E+03  0.15048536050E+02 -0.20259247823E+02  0.54617209728E+03  0.90429326464E+02 0.  0.
         13    1    3    3    0    0 -0.85048090538E+02  0.20144862109E+02 -0.31787847622E+02  0.93002475397E+02  0.00000000000E+00 0. -1.
        -13    1    3    3    0    0 -0.45299428810E+03 -0.50963260587E+01  0.11528599799E+02  0.45316962189E+03  0.00000000000E+00 0.  1.
         22    1    1    2    0    0  0.53804237863E+03 -0.15048536050E+02  0.15053421892E+04  0.15986779432E+04  0.00000000000E+00 0. -1.
<mgrwt>
<rscale>  0 0.15475498E+04</rscale>
<asrwt>0</asrwt>
<pdfrwt beam="1">  1        2 0.27922561E+00 0.15475498E+04</pdfrwt>
<pdfrwt beam="2">  1       -2 0.50751316E-01 0.15475498E+04</pdfrwt>
<totfact> 0.29913600E+01</totfact>
</mgrwt>
</event>
<event>
 6    1  0.3017327E-006  0.2530412E+04  0.7818608E-02  0.8392231E-01
         -4   -1    0    0    0  501 -0.00000000000E+00  0.00000000000E+00  0.11776271711E+04  0.11776271711E+04  0.00000000000E+00 0.  1.
          4   -1    0    0  501    0  0.00000000000E+00 -0.00000000000E+00 -0.13592979686E+04  0.13592979686E+04  0.00000000000E+00 0. -1.
         23    2    1    2    0    0  0.91859482822E+03 -0.55387351405E+03  0.57846169953E+03  0.12222412458E+04  0.93077371678E+02 0.  0.
         13    1    3    3    0    0  0.64739275116E+03 -0.38155151852E+03  0.35669365305E+03  0.83182287638E+03  0.00000000000E+00 0.  1.
        -13    1    3    3    0    0  0.27120207707E+03 -0.17232199553E+03  0.22176804648E+03  0.39041836943E+03  0.00000000000E+00 0. -1.
         22    1    1    2    0    0 -0.91859482822E+03  0.55387351405E+03 -0.76013249698E+03  0.13146838939E+04  0.00000000000E+00 0.  1.
<mgrwt>
<rscale>  0 0.25304120E+04</rscale>
<asrwt>0</asrwt>
<pdfrwt beam="1">  1        4 0.20912276E+00 0.25304120E+04</pdfrwt>
<pdfrwt beam="2">  1       -4 0.18117341E+00 0.25304120E+04</pdfrwt>
<totfact> 0.35880835E-02</totfact>
</mgrwt>
</event>
<event>
 6    1  0.3017327E-006  0.1701182E+04  0.7818608E-02  0.8760690E-01
          2   -1    0    0  501    0  0.00000000000E+00  0.00000000000E+00  0.11518778274E+04  0.11518778274E+04  0.00000000000E+00 0. -1.
         -2   -1    0    0    0  501 -0.00000000000E+00 -0.00000000000E+00 -0.62810927472E+03  0.62810927472E+03  0.00000000000E+00 0.  1.
         23    2    1    2    0    0  0.12799296612E+03 -0.27434543705E+03  0.10916259123E+04  0.11364736220E+04  0.90981003791E+02 0.  0.
         13    1    3    3    0    0  0.76959084110E+02 -0.66736241866E+02  0.32433308779E+03  0.33995349453E+03  0.00000000000E+00 0.  1.
        -13    1    3    3    0    0  0.51033882006E+02 -0.20760919519E+03  0.76729282446E+03  0.79652012749E+03  0.00000000000E+00 0. -1.
         22    1    1    2    0    0 -0.12799296612E+03  0.27434543705E+03 -0.56785735958E+03  0.64351348008E+03  0.00000000000E+00 0.  1.
<mgrwt>
<rscale>  0 0.17011821E+04</rscale>
<asrwt>0</asrwt>
<pdfrwt beam="1">  1        2 0.17721197E+00 0.17011821E+04</pdfrwt>
<pdfrwt beam="2">  1       -2 0.96632197E-01 0.17011821E+04</pdfrwt>
<totfact> 0.17256587E+01</totfact>
</mgrwt>
</event>
<event>
 6    1  0.3017327E-006  0.4334559E+04  0.7818608E-02  0.7940259E-01
         -2   -1    0    0    0  501 -0.00000000000E+00  0.00000000000E+00  0.24670293298E+04  0.24670293298E+04  0.00000000000E+00 0.  1.
          2   -1    0    0  501    0  0.00000000000E+00 -0.00000000000E+00 -0.19039500336E+04  0.19039500336E+04  0.00000000000E+00 0. -1.
         23    2    1    2    0    0 -0.23046224263E+03  0.15173553311E+04  0.18234133339E+04  0.23850483644E+04  0.90219002550E+02 0.  0.
         11    1    3    3    0    0 -0.85033463271E+02  0.38993540590E+03  0.52162000368E+03  0.65678591557E+03  0.00000000000E+00 0.  1.
        -11    1    3    3    0    0 -0.14542877936E+03  0.11274199252E+04  0.13017933302E+04  0.17282624489E+04  0.00000000000E+00 0. -1.
         22    1    1    2    0    0  0.23046224263E+03 -0.15173553311E+04 -0.12603340377E+04  0.19859309990E+04  0.00000000000E+00 0. -1.
<mgrwt>
<rscale>  0 0.43345591E+04</rscale>
<asrwt>0</asrwt>
<pdfrwt beam="1">  1        2 0.29291539E+00 0.43345591E+04</pdfrwt>
<pdfrwt beam="2">  1       -2 0.37954297E+00 0.43345591E+04</pdfrwt>
<totfact> 0.58473760E-02</totfact>
</mgrwt>
</event>
<event>
 6    1  0.3017327E-006  0.3353582E+04  0.7818608E-02  0.8149394E-01
          2   -1    0    0  501    0  0.00000000000E+00  0.00000000000E+00  0.15524332801E+04  0.15524332801E+04  0.00000000000E+00 0. -1.
         -2   -1    0    0    0  501 -0.00000000000E+00 -0.00000000000E+00 -0.18111101546E+04  0.18111101546E+04  0.00000000000E+00 0.  1.
         23    2    1    2    0    0  0.65097025714E+03 -0.11458423295E+04  0.90846060406E+03  0.16031665393E+04  0.90140800701E+02 0.  0.
         13    1    3    3    0    0  0.33901342849E+03 -0.51969266259E+03  0.39793677638E+03  0.73713244823E+03  0.00000000000E+00 0. -1.
        -13    1    3    3    0    0  0.31195682865E+03 -0.62614966690E+03  0.51052382768E+03  0.86603409109E+03  0.00000000000E+00 0.  1.
         22    1    1    2    0    0 -0.65097025714E+03  0.11458423295E+04 -0.11671374786E+04  0.17603768953E+04  0.00000000000E+00 0.  1.
<mgrwt>
<rscale>  0 0.33535818E+04</rscale>
<asrwt>0</asrwt>
<pdfrwt beam="1">  1        2 0.23883589E+00 0.33535818E+04</pdfrwt>
<pdfrwt beam="2">  1       -2 0.27863233E+00 0.33535818E+04</pdfrwt>
<totfact> 0.42332930E-01</totfact>
</mgrwt>
</event>
<event>
 6    1  0.3017327E-006  0.3233994E+04  0.7818608E-02  0.8179897E-01
          2   -1    0    0  501    0  0.00000000000E+00  0.00000000000E+00  0.27066358738E+04  0.27066358738E+04  0.00000000000E+00 0. -1.
         -2   -1    0    0    0  501 -0.00000000000E+00 -0.00000000000E+00 -0.96602542237E+03  0.96602542237E+03  0.00000000000E+00 0.  1.
         23    2    1    2    0    0  0.28908561497E+03 -0.57411410837E+03 -0.81234072197E+03  0.10400319649E+04  0.92690545261E+02 0.  0.
         11    1    3    3    0    0  0.11927393671E+03 -0.27399755812E+03 -0.44669548991E+03  0.53743631672E+03  0.00000000000E+00 0. -1.
        -11    1    3    3    0    0  0.16981167826E+03 -0.30011655025E+03 -0.36564523207E+03  0.50259564815E+03  0.00000000000E+00 0.  1.
         22    1    1    2    0    0 -0.28908561497E+03  0.57411410837E+03  0.25529511734E+04  0.26326293313E+04  0.00000000000E+00 0. -1.
<mgrwt>
<rscale>  0 0.32339939E+04</rscale>
<asrwt>0</asrwt>
<pdfrwt beam="1">  1        2 0.41640552E+00 0.32339939E+04</pdfrwt>
<pdfrwt beam="2">  1       -2 0.14861930E+00 0.32339939E+04</pdfrwt>
<totfact> 0.67820532E-01</totfact>
</mgrwt>
</event>
<event>
 6    1  0.3017327E-006  0.2280997E+04  0.7818608E-02  0.8485452E-01
          2   -1    0    0  501    0  0.00000000000E+00  0.00000000000E+00  0.15249990771E+04  0.15249990771E+04  0.00000000000E+00 0. -1.
         -2   -1    0    0    0  501 -0.00000000000E+00 -0.00000000000E+00 -0.85294256126E+03  0.85294256126E+03  0.00000000000E+00 0.  1.
         23    2    1    2    0    0  0.69055438578E+03 -0.64321447058E+03  0.10007928791E+04  0.13786129580E+04  0.91635616120E+02 0.  0.
         11    1    3    3    0    0  0.58536313702E+03 -0.50035628057E+03  0.79270222309E+03  0.11051620805E+04  0.00000000000E+00 0.  1.
        -11    1    3    3    0    0  0.10519124876E+03 -0.14285819001E+03  0.20809065604E+03  0.27345087749E+03  0.00000000000E+00 0. -1.
         22    1    1    2    0    0 -0.69055438578E+03  0.64321447058E+03 -0.32873636328E+03  0.99932868037E+03  0.00000000000E+00 0.  1.
<mgrwt>
<rscale>  0 0.22809968E+04</rscale>
<asrwt>0</asrwt>
<pdfrwt beam="1">  1        2 0.23461524E+00 0.22809968E+04</pdfrwt>
<pdfrwt beam="2">  1       -2 0.13122193E+00 0.22809968E+04</pdfrwt>
<totfact> 0.47329647E+00</totfact>
</mgrwt>
</event>
<event>
 6    1  0.3017327E-006  0.1521829E+04  0.7818608E-02  0.8870065E-01
          1   -1    0    0  501    0  0.00000000000E+00  0.00000000000E+00  0.12270201069E+04  0.12270201069E+04  0.00000000000E+00 0. -1.
         -1   -1    0    0    0  501 -0.00000000000E+00 -0.00000000000E+00 -0.47186746848E+03  0.47186746848E+03  0.00000000000E+00 0.  1.
         23    2    1    2    0    0  0.44107321162E+03  0.43853665093E+03  0.86255723614E+03  0.10677016124E+04  0.95507985517E+02 0.  0.
         11    1    3    3    0    0  0.42766468048E+03  0.38958443326E+03  0.79425217636E+03  0.98260349542E+03  0.00000000000E+00 0.  1.
        -11    1    3    3    0    0  0.13408531140E+02  0.48952217668E+02  0.68305059776E+02  0.85098116977E+02  0.00000000000E+00 0. -1.
         22    1    1    2    0    0 -0.44107321162E+03 -0.43853665093E+03 -0.10740459774E+03  0.63118596295E+03  0.00000000000E+00 0.  1.
<mgrwt>
<rscale>  0 0.15218290E+04</rscale>
<asrwt>0</asrwt>
<pdfrwt beam="1">  1        1 0.18877232E+00 0.15218290E+04</pdfrwt>
<pdfrwt beam="2">  1       -1 0.72594996E-01 0.15218290E+04</pdfrwt>
<totfact> 0.18870755E+01</totfact>
</mgrwt>
</event>
<event>
 6    1  0.3017327E-006  0.1038298E+04  0.7818608E-02  0.9267509E-01
         -2   -1    0    0    0  501 -0.00000000000E+00  0.00000000000E+00  0.46614563803E+03  0.46614563803E+03  0.00000000000E+00 0.  1.
          2   -1    0    0  501    0  0.00000000000E+00 -0.00000000000E+00 -0.57817932494E+03  0.57817932494E+03  0.00000000000E+00 0. -1.
         23    2    1    2    0    0 -0.18778742905E+03  0.10409839713E+03 -0.52742623114E+03  0.57672303762E+03  0.91271233319E+02 0.  0.
         13    1    3    3    0    0 -0.17342908366E+03  0.67210731135E+02 -0.36644098850E+03  0.41094273018E+03  0.00000000000E+00 0. -1.
        -13    1    3    3    0    0 -0.14358345389E+02  0.36887665998E+02 -0.16098524264E+03  0.16578030744E+03  0.00000000000E+00 0.  1.
         22    1    1    2    0    0  0.18778742905E+03 -0.10409839713E+03  0.41539254423E+03  0.46760192535E+03  0.00000000000E+00 0.  1.
<mgrwt>
<rscale>  0 0.10382982E+04</rscale>
<asrwt>0</asrwt>
<pdfrwt beam="1">  1        2 0.88950665E-01 0.10382982E+04</pdfrwt>
<pdfrwt beam="2">  1       -2 0.71714714E-01 0.10382982E+04</pdfrwt>
<totfact> 0.91161689E+01</totfact>
</mgrwt>
</event>
<event>
 6    1  0.3017327E-006  0.1661883E+04  0.7818608E-02  0.8783408E-01
          2   -1    0    0  501    0  0.00000000000E+00  0.00000000000E+00  0.18518073048E+04  0.18518073048E+04  0.00000000000E+00 0. -1.
         -2   -1    0    0    0  501 -0.00000000000E+00 -0.00000000000E+00 -0.37285933326E+03  0.37285933326E+03  0.00000000000E+00 0.  1.
         23    2    1    2    0    0  0.47850339699E+03  0.48840674717E+03  0.11563048462E+03  0.69949739441E+03  0.91758074307E+02 0.  0.
         11    1    3    3    0    0  0.40042455156E+03  0.42302773249E+03  0.66014315771E+02  0.58621683175E+03  0.00000000000E+00 0.  1.
        -11    1    3    3    0    0  0.78078845435E+02  0.65379014688E+02  0.49616168847E+02  0.11328056266E+03  0.00000000000E+00 0. -1.
         22    1    1    2    0    0 -0.47850339699E+03 -0.48840674717E+03  0.13633174870E+04  0.15251692437E+04  0.00000000000E+00 0. -1.
<mgrwt>
<rscale>  0 0.16618828E+04</rscale>
<asrwt>0</asrwt>
<pdfrwt beam="1">  1        2 0.28489343E+00 0.16618828E+04</pdfrwt>
<pdfrwt beam="2">  1       -2 0.57362976E-01 0.16618828E+04</pdfrwt>
<totfact> 0.21944402E+01</totfact>
</mgrwt>
</event>
<event>
 6    1  0.3017327E-006  0.2695332E+04  0.7818608E-02  0.8336521E-01
          1   -1    0    0  501    0  0.00000000000E+00  0.00000000000E+00  0.11094718611E+04  0.11094718611E+04  0.00000000000E+00 0. -1.
         -1   -1    0    0    0  501 -0.00000000000E+00 -0.00000000000E+00 -0.16369986638E+04  0.16369986638E+04  0.00000000000E+00 0.  1.
         23    2    1    2    0    0  0.42085308730E+03  0.10266573376E+04 -0.10406512352E+04  0.15239979104E+04  0.92043619077E+02 0.  0.
         13    1    3    3    0    0  0.40480223109E+03  0.92409013842E+03 -0.92729040473E+03  0.13702827901E+04  0.00000000000E+00 0.  1.
        -13    1    3    3    0    0  0.16050856211E+02  0.10256719916E+03 -0.11336083044E+03  0.15371512029E+03  0.00000000000E+00 0. -1.
         22    1    1    2    0    0 -0.42085308730E+03 -0.10266573376E+04  0.51312443247E+03  0.12224726144E+04  0.00000000000E+00 0. -1.
<mgrwt>
<rscale>  0 0.26953322E+04</rscale>
<asrwt>0</asrwt>
<pdfrwt beam="1">  1        1 0.17068798E+00 0.26953322E+04</pdfrwt>
<pdfrwt beam="2">  1       -1 0.25184595E+00 0.26953322E+04</pdfrwt>
<totfact> 0.73871777E-01</totfact>
</mgrwt>
</event>
<event>
 6    1  0.3017327E-006  0.3285003E+04  0.7818608E-02  0.8166722E-01
         -2   -1    0    0    0  501 -0.00000000000E+00  0.00000000000E+00  0.85418278203E+03  0.85418278203E+03  0.00000000000E+00 0.  1.
          2   -1    0    0  501    0  0.00000000000E+00 -0.00000000000E+00 -0.31583527845E+04  0.31583527845E+04  0.00000000000E+00 0. -1.
         23    2    1    2    0    0  0.25435985384E+03 -0.15626726154E+04 -0.16810054664E+04  0.23110718798E+04  0.92893580940E+02 0.  0.
         11    1    3    3    0    0  0.20593132326E+03 -0.13532565621E+04 -0.14927625564E+04  0.20253520886E+04  0.00000000000E+00 0. -1.
        -11    1    3    3    0    0  0.48428530581E+02 -0.20941605329E+03 -0.18824291000E+03  0.28571979125E+03  0.00000000000E+00 0.  1.
         22    1    1    2    0    0 -0.25435985384E+03  0.15626726154E+04 -0.62316453609E+03  0.17014636867E+04  0.00000000000E+00 0.  1.
<mgrwt>
<rscale>  0 0.32850026E+04</rscale>
<asrwt>0</asrwt>
<pdfrwt beam="1">  1        2 0.48590043E+00 0.32850026E+04</pdfrwt>
<pdfrwt beam="2">  1       -2 0.13141274E+00 0.32850026E+04</pdfrwt>
<totfact> 0.48723317E-01</totfact>
</mgrwt>
</event>
<event>
 6    1  0.3017327E-006  0.5462660E+04  0.7818608E-02  0.7760848E-01
          2   -1    0    0  501    0  0.00000000000E+00  0.00000000000E+00  0.26337745895E+04  0.26337745895E+04  0.00000000000E+00 0.  1.
         -2   -1    0    0    0  501 -0.00000000000E+00 -0.00000000000E+00 -0.28324991697E+04  0.28324991697E+04  0.00000000000E+00 0. -1.
         23    2    1    2    0    0 -0.20715171565E+03  0.23458026615E+04  0.12835353868E+04  0.26836856528E+04  0.94887478573E+02 0.  0.
         13    1    3    3    0    0 -0.19009844237E+03  0.18684409719E+04  0.99011197823E+03  0.21230946311E+04  0.00000000000E+00 0.  1.
        -13    1    3    3    0    0 -0.17053273281E+02  0.47736168961E+03  0.29342340859E+03  0.56059102164E+03  0.00000000000E+00 0. -1.
         22    1    1    2    0    0  0.20715171565E+03 -0.23458026615E+04 -0.14822599671E+04  0.27825881064E+04  0.00000000000E+00 0. -1.
<mgrwt>
<rscale>  0 0.54626603E+04</rscale>
<asrwt>0</asrwt>
<pdfrwt beam="1">  1        2 0.40519609E+00 0.54626603E+04</pdfrwt>
<pdfrwt beam="2">  1       -2 0.43576911E+00 0.54626603E+04</pdfrwt>
<totfact> 0.88216591E-03</totfact>
</mgrwt>
</event>
<event>
 6    1  0.3017327E-006  0.1039614E+04  0.7818608E-02  0.9266133E-01
          2   -1    0    0  501    0  0.00000000000E+00  0.00000000000E+00  0.95265357263E+03  0.95265357263E+03  0.00000000000E+00 0. -1.
         -2   -1    0    0    0  501 -0.00000000000E+00 -0.00000000000E+00 -0.28362787840E+03  0.28362787840E+03  0.00000000000E+00 0.  1.
         23    2    1    2    0    0 -0.33662434018E+03  0.38508866572E+03  0.41558055467E+03  0.66545427435E+03  0.92265740951E+02 0.  0.
         13    1    3    3    0    0 -0.29189421585E+03  0.27571232057E+03  0.32461483428E+03  0.51632771337E+03  0.00000000000E+00 0.  1.
        -13    1    3    3    0    0 -0.44730124332E+02  0.10937634515E+03  0.90965720386E+02  0.14912656097E+03  0.00000000000E+00 0. -1.
         22    1    1    2    0    0  0.33662434018E+03 -0.38508866572E+03  0.25344513956E+03  0.57082717668E+03  0.00000000000E+00 0.  1.
<mgrwt>
<rscale>  0 0.10396136E+04</rscale>
<asrwt>0</asrwt>
<pdfrwt beam="1">  1        2 0.14656209E+00 0.10396136E+04</pdfrwt>
<pdfrwt beam="2">  1       -2 0.43635059E-01 0.10396136E+04</pdfrwt>
<totfact> 0.13409781E+02</totfact>
</mgrwt>
</event>
<event>
 6    1  0.3017327E-006  0.1183836E+04  0.7818608E-02  0.9127124E-01
         -2   -1    0    0    0  501 -0.00000000000E+00  0.00000000000E+00  0.19132021025E+03  0.19132021025E+03  0.00000000000E+00 0.  1.
          2   -1    0    0  501    0  0.00000000000E+00 -0.00000000000E+00 -0.18313112371E+04  0.18313112371E+04  0.00000000000E+00 0. -1.
         23    2    1    2    0    0 -0.55483046790E+03 -0.19274545644E+03 -0.76279181357E+03  0.96694867356E+03  0.90281378873E+02 0.  0.
         11    1    3    3    0    0 -0.47693868079E+03 -0.13049800436E+03 -0.64049792598E+03  0.80915871592E+03  0.00000000000E+00 0. -1.
        -11    1    3    3    0    0 -0.77891787109E+02 -0.62247452079E+02 -0.12229388759E+03  0.15778995764E+03  0.00000000000E+00 0.  1.
         22    1    1    2    0    0  0.55483046790E+03  0.19274545644E+03 -0.87719921326E+03  0.10556827738E+04  0.00000000000E+00 0.  1.
<mgrwt>
<rscale>  0 0.11838359E+04</rscale>
<asrwt>0</asrwt>
<pdfrwt beam="1">  1        2 0.28174020E+00 0.11838359E+04</pdfrwt>
<pdfrwt beam="2">  1       -2 0.29433878E-01 0.11838359E+04</pdfrwt>
<totfact> 0.87046945E+01</totfact>
</mgrwt>
</event>
<event>
 6    1  0.3017327E-006  0.2653009E+04  0.7818608E-02  0.8350415E-01
         -2   -1    0    0    0  501 -0.00000000000E+00  0.00000000000E+00  0.17530055704E+04  0.17530055704E+04  0.00000000000E+00 0.  1.
          2   -1    0    0  501    0  0.00000000000E+00 -0.00000000000E+00 -0.10037697753E+04  0.10037697753E+04  0.00000000000E+00 0. -1.
         23    2    1    2    0    0  0.58063126862E+03  0.11510641275E+04  0.57862412595E+02  0.12938746485E+04  0.93178599662E+02 0.  0.
         11    1    3    3    0    0  0.26372911623E+03  0.62609316483E+03  0.29082951332E+02  0.67999376163E+03  0.00000000000E+00 0. -1.
        -11    1    3    3    0    0  0.31690215239E+03  0.52497096270E+03  0.28779461262E+02  0.61388088687E+03  0.00000000000E+00 0.  1.
         22    1    1    2    0    0 -0.58063126862E+03 -0.11510641275E+04  0.69137338250E+03  0.14629006972E+04  0.00000000000E+00 0.  1.
<mgrwt>
<rscale>  0 0.26530089E+04</rscale>
<asrwt>0</asrwt>
<pdfrwt beam="1">  1        2 0.15442612E+00 0.26530089E+04</pdfrwt>
<pdfrwt beam="2">  1       -2 0.26969316E+00 0.26530089E+04</pdfrwt>
<totfact> 0.10737533E+00</totfact>
</mgrwt>
</event>
<event>
 6    1  0.3017327E-006  0.1524310E+04  0.7818608E-02  0.8868446E-01
          1   -1    0    0  501    0  0.00000000000E+00  0.00000000000E+00  0.16443655343E+04  0.16443655343E+04  0.00000000000E+00 0. -1.
         -1   -1    0    0    0  501 -0.00000000000E+00 -0.00000000000E+00 -0.35325492696E+03  0.35325492696E+03  0.00000000000E+00 0.  1.
         23    2    1    2    0    0 -0.67101169610E+02  0.42930755493E+03 -0.16795637393E+03  0.47522629432E+03  0.93931589926E+02 0.  0.
         11    1    3    3    0    0 -0.51845792342E+02  0.12972899900E+03 -0.86801956091E+02  0.16447546609E+03  0.00000000000E+00 0. -1.
        -11    1    3    3    0    0 -0.15255377269E+02  0.29957855593E+03 -0.81154417837E+02  0.31075082823E+03  0.00000000000E+00 0.  1.
         22    1    1    2    0    0  0.67101169610E+02 -0.42930755493E+03  0.14590669812E+04  0.15223941669E+04  0.00000000000E+00 0. -1.
<mgrwt>
<rscale>  0 0.15243100E+04</rscale>
<asrwt>0</asrwt>
<pdfrwt beam="1">  1        1 0.25297931E+00 0.15243100E+04</pdfrwt>
<pdfrwt beam="2">  1       -1 0.54346913E-01 0.15243100E+04</pdfrwt>
<totfact> 0.17174620E+01</totfact>
</mgrwt>
</event>
<event>
 6    1  0.3017327E-006  0.2417599E+04  0.7818608E-02  0.8432944E-01
          1   -1    0    0  501    0  0.00000000000E+00  0.00000000000E+00  0.12971635305E+04  0.12971635305E+04  0.00000000000E+00 0. -1.
         -1   -1    0    0    0  501 -0.00000000000E+00 -0.00000000000E+00 -0.11264552950E+04  0.11264552950E+04  0.00000000000E+00 0.  1.
         23    2    1    2    0    0  0.45407938633E+03  0.60000979667E+03 -0.86061769835E+03  0.11469696854E+04  0.93149296253E+02 0.  0.
         13    1    3    3    0    0  0.12978202610E+03  0.14398201710E+03 -0.16769841659E+03  0.25631417143E+03  0.00000000000E+00 0.  1.
        -13    1    3    3    0    0  0.32429736023E+03  0.45602777956E+03 -0.69291928176E+03  0.89065551400E+03  0.00000000000E+00 0. -1.
         22    1    1    2    0    0 -0.45407938633E+03 -0.60000979667E+03  0.10313259338E+04  0.12766491401E+04  0.00000000000E+00 0. -1.
<mgrwt>
<rscale>  0 0.24175994E+04</rscale>
<asrwt>0</asrwt>
<pdfrwt beam="1">  1        1 0.19956362E+00 0.24175994E+04</pdfrwt>
<pdfrwt beam="2">  1       -1 0.17330081E+00 0.24175994E+04</pdfrwt>
<totfact> 0.18926390E+00</totfact>
</mgrwt>
</event>
<event>
 6    1  0.3017327E-006  0.4313156E+04  0.7818608E-02  0.7944190E-01
         -1   -1    0    0    0  501 -0.00000000000E+00  0.00000000000E+00  0.18913591436E+04  0.18913591436E+04  0.00000000000E+00 0.  1.
          1   -1    0    0  501    0  0.00000000000E+00 -0.00000000000E+00 -0.24589877187E+04  0.24589877187E+04  0.00000000000E+00 0. -1.
         23    2    1    2    0    0  0.17524500050E+04 -0.98758579287E+03 -0.10654806606E+04  0.22780864015E+04  0.89565040003E+02 0.  0.
         11    1    3    3    0    0  0.81174932863E+03 -0.46942034435E+03 -0.54587686450E+03  0.10850225728E+04  0.00000000000E+00 0. -1.
        -11    1    3    3    0    0  0.94070067639E+03 -0.51816544852E+03 -0.51960379613E+03  0.11930638288E+04  0.00000000000E+00 0.  1.
         22    1    1    2    0    0 -0.17524500050E+04  0.98758579287E+03  0.49785208549E+03  0.20722604608E+04  0.00000000000E+00 0.  1.
<mgrwt>
<rscale>  0 0.43131561E+04</rscale>
<asrwt>0</asrwt>
<pdfrwt beam="1">  1        1 0.37830580E+00 0.43131561E+04</pdfrwt>
<pdfrwt beam="2">  1       -1 0.29097833E+00 0.43131561E+04</pdfrwt>
<totfact> 0.41697986E-02</totfact>
</mgrwt>
</event>
<event>
 6    1  0.3017327E-006  0.1560788E+04  0.7818608E-02  0.8845006E-01
         -2   -1    0    0    0  501 -0.00000000000E+00  0.00000000000E+00  0.71866883232E+03  0.71866883232E+03  0.00000000000E+00 0.  1.
          2   -1    0    0  501    0  0.00000000000E+00 -0.00000000000E+00 -0.84742095772E+03  0.84742095772E+03  0.00000000000E+00 0. -1.
         23    2    1    2    0    0 -0.21025754807E+03 -0.33701839654E+03 -0.73608303608E+03  0.84038980299E+03  0.81530048700E+02 0.  0.
         11    1    3    3    0    0 -0.13408140174E+03 -0.14116497837E+03 -0.32993057228E+03  0.38309209850E+03  0.00000000000E+00 0.  1.
        -11    1    3    3    0    0 -0.76176146324E+02 -0.19585341817E+03 -0.40615246380E+03  0.45729770449E+03  0.00000000000E+00 0. -1.
         22    1    1    2    0    0  0.21025754807E+03  0.33701839654E+03  0.60733091069E+03  0.72569998705E+03  0.00000000000E+00 0.  1.
<mgrwt>
<rscale>  0 0.15607883E+04</rscale>
<asrwt>0</asrwt>
<pdfrwt beam="1">  1        2 0.13037246E+00 0.15607883E+04</pdfrwt>
<pdfrwt beam="2">  1       -2 0.11056444E+00 0.15607883E+04</pdfrwt>
<totfact> 0.19893155E+01</totfact>
</mgrwt>
</event>
<event>
 6    1  0.3017327E-006  0.4258020E+04  0.7818608E-02  0.7954427E-01
          2   -1    0    0  501    0  0.00000000000E+00  0.00000000000E+00  0.24988983425E+04  0.24988983425E+04  0.00000000000E+00 0. -1.
         -2   -1    0    0    0  501 -0.00000000000E+00 -0.00000000000E+00 -0.18138725494E+04  0.18138725494E+04  0.00000000000E+00 0.  1.
         23    2    1    2    0    0 -0.98963527431E+03 -0.30559949065E+03 -0.15402327594E+04  0.18582761068E+04  0.90022837773E+02 0.  0.
         13    1    3    3    0    0 -0.34613434536E+03 -0.14146069475E+03 -0.60529930591E+03  0.71148251063E+03  0.00000000000E+00 0. -1.
        -13    1    3    3    0    0 -0.64350092895E+03 -0.16413879590E+03 -0.93493345347E+03  0.11467935962E+04  0.00000000000E+00 0.  1.
         22    1    1    2    0    0  0.98963527431E+03  0.30559949065E+03  0.22252585524E+04  0.24544947851E+04  0.00000000000E+00 0. -1.
<mgrwt>
<rscale>  0 0.42580198E+04</rscale>
<asrwt>0</asrwt>
<pdfrwt beam="1">  1        2 0.38444590E+00 0.42580198E+04</pdfrwt>
<pdfrwt beam="2">  1       -2 0.27905731E+00 0.42580198E+04</pdfrwt>
<totfact> 0.11494849E-01</totfact>
</mgrwt>
</event>
<event>
 6    1  0.3017327E-006  0.2357753E+04  0.7818608E-02  0.8455492E-01
          2   -1    0    0  501    0  0.00000000000E+00  0.00000000000E+00  0.13252462748E+04  0.13252462748E+04  0.00000000000E+00 0. -1.
         -2   -1    0    0    0  501 -0.00000000000E+00 -0.00000000000E+00 -0.10486730163E+04  0.10486730163E+04  0.00000000000E+00 0.  1.
         23    2    1    2    0    0  0.88373870389E+03  0.32273569690E+03 -0.57385814111E+03  0.11056977047E+04  0.90010117392E+02 0.  0.
         13    1    3    3    0    0  0.67065789979E+02  0.28513029233E+02 -0.74694818352E+02  0.10435578043E+03  0.00000000000E+00 0.  1.
        -13    1    3    3    0    0  0.81667291392E+03  0.29422266767E+03 -0.49916332275E+03  0.10013419243E+04  0.00000000000E+00 0. -1.
         22    1    1    2    0    0 -0.88373870389E+03 -0.32273569690E+03  0.85043139964E+03  0.12682215864E+04  0.00000000000E+00 0. -1.
<mgrwt>
<rscale>  0 0.23577532E+04</rscale>
<asrwt>0</asrwt>
<pdfrwt beam="1">  1        2 0.20388404E+00 0.23577532E+04</pdfrwt>
<pdfrwt beam="2">  1       -2 0.16133431E+00 0.23577532E+04</pdfrwt>
<totfact> 0.35513971E+00</totfact>
</mgrwt>
</event>
<event>
 6    1  0.3017327E-006  0.3755807E+04  0.7818608E-02  0.8055706E-01
          2   -1    0    0  501    0  0.00000000000E+00  0.00000000000E+00  0.15709392440E+04  0.15709392440E+04  0.00000000000E+00 0. -1.
         -2   -1    0    0    0  501 -0.00000000000E+00 -0.00000000000E+00 -0.22448495684E+04  0.22448495684E+04  0.00000000000E+00 0.  1.
         23    2    1    2    0    0  0.12039543764E+04  0.14385376536E+04 -0.39831965361E+03  0.19197806534E+04  0.89456635585E+02 0.  0.
         11    1    3    3    0    0  0.96939786846E+03  0.11493558791E+04 -0.35501706203E+03  0.15449233892E+04  0.00000000000E+00 0.  1.
        -11    1    3    3    0    0  0.23455650793E+03  0.28918177447E+03 -0.43302591579E+02  0.37485726421E+03  0.00000000000E+00 0. -1.
         22    1    1    2    0    0 -0.12039543764E+04 -0.14385376536E+04 -0.27559067082E+03  0.18960081590E+04  0.00000000000E+00 0.  1.
<mgrwt>
<rscale>  0 0.37558074E+04</rscale>
<asrwt>0</asrwt>
<pdfrwt beam="1">  1        2 0.24168296E+00 0.37558074E+04</pdfrwt>
<pdfrwt beam="2">  1       -2 0.34536147E+00 0.37558074E+04</pdfrwt>
<totfact> 0.15499222E-01</totfact>
</mgrwt>
</event>
<event>
 6    1  0.3017327E-006  0.1633976E+04  0.7818608E-02  0.8799943E-01
          2   -1    0    0  501    0  0.00000000000E+00  0.00000000000E+00  0.14452312106E+04  0.14452312106E+04  0.00000000000E+00 0. -1.
         -2   -1    0    0    0  501 -0.00000000000E+00 -0.00000000000E+00 -0.46184243395E+03  0.46184243395E+03  0.00000000000E+00 0.  1.
         23    2    1    2    0    0 -0.38775995841E+03 -0.58378012407E+02  0.13263400899E+04  0.13861308636E+04  0.91733086564E+02 0.  0.
         13    1    3    3    0    0 -0.15801667361E+03 -0.28891871574E+02  0.70372280802E+03  0.72182393969E+03  0.00000000000E+00 0.  1.
        -13    1    3    3    0    0 -0.22974328480E+03 -0.29486140833E+02  0.62261728191E+03  0.66430692390E+03  0.00000000000E+00 0. -1.
         22    1    1    2    0    0  0.38775995841E+03  0.58378012407E+02 -0.34295131332E+03  0.52094278091E+03  0.00000000000E+00 0.  1.
<mgrwt>
<rscale>  0 0.16339756E+04</rscale>
<asrwt>0</asrwt>
<pdfrwt beam="1">  1        2 0.22234326E+00 0.16339756E+04</pdfrwt>
<pdfrwt beam="2">  1       -2 0.71052683E-01 0.16339756E+04</pdfrwt>
<totfact> 0.23461648E+01</totfact>
</mgrwt>
</event>
<event>
 6    1  0.3017327E-006  0.2631160E+04  0.7818608E-02  0.8357693E-01
          2   -1    0    0  501    0  0.00000000000E+00  0.00000000000E+00  0.33505164551E+04  0.33505164551E+04  0.00000000000E+00 0.  1.
         -2   -1    0    0    0  501 -0.00000000000E+00 -0.00000000000E+00 -0.51656218221E+03  0.51656218221E+03  0.00000000000E+00 0. -1.
         23    2    1    2    0    0  0.66691553104E+03 -0.25281665234E+03  0.30405398976E+04  0.31245355708E+04  0.95640363901E+02 0.  0.
         13    1    3    3    0    0  0.29832065425E+03 -0.15423571482E+03  0.15465706493E+04  0.15826132319E+04  0.00000000000E+00 0. -1.
        -13    1    3    3    0    0  0.36859487679E+03 -0.98580937526E+02  0.14939692483E+04  0.15419223389E+04  0.00000000000E+00 0.  1.
         22    1    1    2    0    0 -0.66691553104E+03  0.25281665234E+03 -0.20658562472E+03  0.74254306648E+03  0.00000000000E+00 0. -1.
<mgrwt>
<rscale>  0 0.26311595E+04</rscale>
<asrwt>0</asrwt>
<pdfrwt beam="1">  1        2 0.51546406E+00 0.26311595E+04</pdfrwt>
<pdfrwt beam="2">  1       -2 0.79471107E-01 0.26311595E+04</pdfrwt>
<totfact> 0.12755733E+00</totfact>
</mgrwt>
</event>
<event>
 6    1  0.3017327E-006  0.2000400E+04  0.7818608E-02  0.8606434E-01
          2   -1    0    0  501    0  0.00000000000E+00  0.00000000000E+00  0.19532213270E+04  0.19532213270E+04  0.00000000000E+00 0.  1.
         -2   -1    0    0    0  501 -0.00000000000E+00 -0.00000000000E+00 -0.51217974809E+03  0.51217974809E+03  0.00000000000E+00 0. -1.
         23    2    1    2    0    0  0.93320750755E+03  0.35387821208E+03  0.68482865691E+03  0.12132173727E+04  0.82462494474E+02 0.  0.
         11    1    3    3    0    0  0.38188506058E+03  0.11815995383E+03  0.23570422100E+03  0.46406298493E+03  0.00000000000E+00 0. -1.
        -11    1    3    3    0    0  0.55132244696E+03  0.23571825825E+03  0.44912443591E+03  0.74915438778E+03  0.00000000000E+00 0.  1.
         22    1    1    2    0    0 -0.93320750755E+03 -0.35387821208E+03  0.75621292201E+03  0.12521837024E+04  0.00000000000E+00 0.  1.
<mgrwt>
<rscale>  0 0.20004004E+04</rscale>
<asrwt>0</asrwt>
<pdfrwt beam="1">  1        2 0.30049558E+00 0.20004004E+04</pdfrwt>
<pdfrwt beam="2">  1       -2 0.78796885E-01 0.20004004E+04</pdfrwt>
<totfact> 0.94244818E+00</totfact>
</mgrwt>
</event>
<event>
 6    1  0.3017327E-006  0.3070259E+04  0.7818608E-02  0.8223948E-01
         -2   -1    0    0    0  501 -0.00000000000E+00  0.00000000000E+00  0.78547534852E+03  0.78547534852E+03  0.00000000000E+00 0.  1.
          2   -1    0    0  501    0  0.00000000000E+00 -0.00000000000E+00 -0.30002501313E+04  0.30002501313E+04  0.00000000000E+00 0. -1.
         23    2    1    2    0    0 -0.71566615171E+03 -0.13055674347E+04 -0.65392507063E+03  0.16286589089E+04  0.90705437530E+02 0.  0.
         11    1    3    3    0    0 -0.30132390007E+03 -0.59808369371E+03 -0.33630454295E+03  0.74940038901E+03  0.00000000000E+00 0. -1.
        -11    1    3    3    0    0 -0.41434225164E+03 -0.70748374100E+03 -0.31762052768E+03  0.87925851993E+03  0.00000000000E+00 0.  1.
         22    1    1    2    0    0  0.71566615171E+03  0.13055674347E+04 -0.15608497121E+04  0.21570665709E+04  0.00000000000E+00 0. -1.
<mgrwt>
<rscale>  0 0.30702590E+04</rscale>
<asrwt>0</asrwt>
<pdfrwt beam="1">  1        2 0.46157695E+00 0.30702590E+04</pdfrwt>
<pdfrwt beam="2">  1       -2 0.12084236E+00 0.30702590E+04</pdfrwt>
<totfact> 0.77251957E-01</totfact>
</mgrwt>
</event>
<event>
 6    1  0.3017327E-006  0.3248580E+04  0.7818608E-02  0.8176104E-01
         -2   -1    0    0    0  501 -0.00000000000E+00  0.00000000000E+00  0.14497279145E+04  0.14497279145E+04  0.00000000000E+00 0.  1.
          2   -1    0    0  501    0  0.00000000000E+00 -0.00000000000E+00 -0.18198713593E+04  0.18198713593E+04  0.00000000000E+00 0. -1.
         23    2    1    2    0    0 -0.12777766017E+04  0.37449488695E+03 -0.11194823219E+04  0.17417026095E+04  0.85602842062E+02 0.  0.
         13    1    3    3    0    0 -0.42895208885E+03  0.14418100123E+03 -0.33330629420E+03  0.56203304297E+03  0.00000000000E+00 0. -1.
        -13    1    3    3    0    0 -0.84882451288E+03  0.23031388573E+03 -0.78617602772E+03  0.11796695665E+04  0.00000000000E+00 0.  1.
         22    1    1    2    0    0  0.12777766017E+04 -0.37449488695E+03  0.74933887709E+03  0.15278966644E+04  0.00000000000E+00 0.  1.
<mgrwt>
<rscale>  0 0.32485802E+04</rscale>
<asrwt>0</asrwt>
<pdfrwt beam="1">  1        2 0.27998021E+00 0.32485802E+04</pdfrwt>
<pdfrwt beam="2">  1       -2 0.22303506E+00 0.32485802E+04</pdfrwt>
<totfact> 0.66723670E-01</totfact>
</mgrwt>
</event>
<event>
 6    1  0.3017327E-006  0.1568758E+04  0.7818608E-02  0.8839974E-01
          2   -1    0    0  501    0  0.00000000000E+00  0.00000000000E+00  0.14337321107E+04  0.14337321107E+04  0.00000000000E+00 0. -1.
         -2   -1    0    0    0  501 -0.00000000000E+00 -0.00000000000E+00 -0.42912532869E+03  0.42912532869E+03  0.00000000000E+00 0.  1.
         23    2    1    2    0    0  0.78007497139E+03 -0.16082594825E+02  0.56113946725E+03  0.96539497771E+03  0.91292663615E+02 0.  0.
         13    1    3    3    0    0  0.42657350680E+03 -0.52266791283E+02  0.29084632624E+03  0.51893001422E+03  0.00000000000E+00 0. -1.
        -13    1    3    3    0    0  0.35350146459E+03  0.36184196458E+02  0.27029314102E+03  0.44646496349E+03  0.00000000000E+00 0.  1.
         22    1    1    2    0    0 -0.78007497139E+03  0.16082594825E+02  0.44346731474E+03  0.89746246166E+03  0.00000000000E+00 0. -1.
<mgrwt>
<rscale>  0 0.15687584E+04</rscale>
<asrwt>0</asrwt>
<pdfrwt beam="1">  1        2 0.22057417E+00 0.15687584E+04</pdfrwt>
<pdfrwt beam="2">  1       -2 0.66019282E-01 0.15687584E+04</pdfrwt>
<totfact> 0.28087327E+01</totfact>
</mgrwt>
</event>
<event>
 6    1  0.3017327E-006  0.1218117E+04  0.7818608E-02  0.9097145E-01
         -2   -1    0    0    0  501 -0.00000000000E+00  0.00000000000E+00  0.57933265709E+03  0.57933265709E+03  0.00000000000E+00 0.  1.
          2   -1    0    0  501    0  0.00000000000E+00 -0.00000000000E+00 -0.64030943497E+03  0.64030943497E+03  0.00000000000E+00 0. -1.
         23    2    1    2    0    0 -0.35179889619E+03  0.15022348307E+03  0.44069851394E+03  0.58876361196E+03  0.78088746708E+02 0.  0.
         11    1    3    3    0    0 -0.12886208189E+03  0.44905421504E+02  0.21409934052E+03  0.25389064701E+03  0.00000000000E+00 0.  1.
        -11    1    3    3    0    0 -0.22293681430E+03  0.10531806157E+03  0.22659917341E+03  0.33487296495E+03  0.00000000000E+00 0. -1.
         22    1    1    2    0    0  0.35179889619E+03 -0.15022348307E+03 -0.50167529182E+03  0.63087848010E+03  0.00000000000E+00 0. -1.
<mgrwt>
<rscale>  0 0.12181169E+04</rscale>
<asrwt>0</asrwt>
<pdfrwt beam="1">  1        2 0.98509144E-01 0.12181169E+04</pdfrwt>
<pdfrwt beam="2">  1       -2 0.89128101E-01 0.12181169E+04</pdfrwt>
<totfact> 0.48814617E+01</totfact>
</mgrwt>
</event>
<event>
 6    1  0.3017327E-006  0.6243880E+04  0.7818608E-02  0.7660878E-01
          2   -1    0    0  501    0  0.00000000000E+00  0.00000000000E+00  0.24180249302E+04  0.24180249302E+04  0.00000000000E+00 0. -1.
         -2   -1    0    0    0  501 -0.00000000000E+00 -0.00000000000E+00 -0.40307729334E+04  0.40307729334E+04  0.00000000000E+00 0.  1.
         23    2    1    2    0    0  0.22384837534E+04 -0.11497965789E+03 -0.30499687336E+04  0.37861613387E+04  0.93158847576E+02 0.  0.
         11    1    3    3    0    0  0.70940815393E+03 -0.35632092901E+00 -0.10056069757E+04  0.12306524471E+04  0.00000000000E+00 0. -1.
        -11    1    3    3    0    0  0.15290755995E+04 -0.11462333696E+03 -0.20443617579E+04  0.25555088917E+04  0.00000000000E+00 0.  1.
         22    1    1    2    0    0 -0.22384837534E+04  0.11497965789E+03  0.14372207304E+04  0.26626365249E+04  0.00000000000E+00 0. -1.
<mgrwt>
<rscale>  0 0.62438800E+04</rscale>
<asrwt>0</asrwt>
<pdfrwt beam="1">  1        2 0.37200384E+00 0.62438800E+04</pdfrwt>
<pdfrwt beam="2">  1       -2 0.62011891E+00 0.62438800E+04</pdfrwt>
<totfact> 0.11193888E-03</totfact>
</mgrwt>
</event>
<event>
 6    1  0.3017327E-006  0.3115670E+04  0.7818608E-02  0.8211450E-01
          2   -1    0    0  501    0  0.00000000000E+00  0.00000000000E+00  0.15273918281E+04  0.15273918281E+04  0.00000000000E+00 0. -1.
         -2   -1    0    0    0  501 -0.00000000000E+00 -0.00000000000E+00 -0.15888853825E+04  0.15888853825E+04  0.00000000000E+00 0.  1.
         23    2    1    2    0    0  0.42297663858E+03  0.14217686891E+04 -0.50257723722E+03  0.15687339131E+04  0.89480548648E+02 0.  0.
         11    1    3    3    0    0  0.19701119910E+03  0.60612695461E+03 -0.17239419138E+03  0.66024469320E+03  0.00000000000E+00 0.  1.
        -11    1    3    3    0    0  0.22596543948E+03  0.81564173454E+03 -0.33018304584E+03  0.90848921992E+03  0.00000000000E+00 0. -1.
         22    1    1    2    0    0 -0.42297663858E+03 -0.14217686891E+04  0.44108368289E+03  0.15475432975E+04  0.00000000000E+00 0. -1.
<mgrwt>
<rscale>  0 0.31156704E+04</rscale>
<asrwt>0</asrwt>
<pdfrwt beam="1">  1        2 0.23498336E+00 0.31156704E+04</pdfrwt>
<pdfrwt beam="2">  1       -2 0.24444391E+00 0.31156704E+04</pdfrwt>
<totfact> 0.72227388E-01</totfact>
</mgrwt>
</event>
<event>
 6    1  0.3017327E-006  0.2065431E+04  0.7818608E-02  0.8576626E-01
         -2   -1    0    0    0  501 -0.00000000000E+00  0.00000000000E+00  0.37103917020E+03  0.37103917020E+03  0.00000000000E+00 0.  1.
          2   -1    0    0  501    0  0.00000000000E+00 -0.00000000000E+00 -0.28743637053E+04  0.28743637053E+04  0.00000000000E+00 0. -1.
         23    2    1    2    0    0  0.91267187450E+03  0.23859199923E+03 -0.19066283984E+04  0.21291849881E+04  0.91108569034E+02 0.  0.
         13    1    3    3    0    0  0.51413895858E+03  0.18094732390E+03 -0.10980754544E+04  0.12259080334E+04  0.00000000000E+00 0.  1.
        -13    1    3    3    0    0  0.39853291592E+03  0.57644675323E+02 -0.80855294396E+03  0.90327695468E+03  0.00000000000E+00 0. -1.
         22    1    1    2    0    0 -0.91267187450E+03 -0.23859199923E+03 -0.59669613670E+03  0.11162178874E+04  0.00000000000E+00 0.  1.
<mgrwt>
<rscale>  0 0.20654312E+04</rscale>
<asrwt>0</asrwt>
<pdfrwt beam="1">  1        2 0.44220980E+00 0.20654312E+04</pdfrwt>
<pdfrwt beam="2">  1       -2 0.57082949E-01 0.20654312E+04</pdfrwt>
<totfact> 0.55464885E+00</totfact>
</mgrwt>
</event>
<event>
 6    1  0.3418185E-006  0.4206196E+04  0.7818608E-02  0.7964195E-01
          2   -1    0    0  501    0  0.00000000000E+00  0.00000000000E+00  0.22619021509E+04  0.22619021509E+04  0.00000000000E+00 0. -1.
         -2   -1    0    0    0  501 -0.00000000000E+00 -0.00000000000E+00 -0.19554433201E+04  0.19554433201E+04  0.00000000000E+00 0.  1.
         23    2    1    2    0    0  0.13972328715E+04  0.64030742870E+03  0.15911711817E+04  0.22141632215E+04  0.91868064834E+02 0.  0.
         13    1    3    3    0    0  0.55654210482E+03  0.23273057380E+03  0.56724081339E+03  0.82804877562E+03  0.00000000000E+00 0.  1.
        -13    1    3    3    0    0  0.84069076665E+03  0.40757685490E+03  0.10239303683E+04  0.13861144458E+04  0.00000000000E+00 0. -1.
         22    1    1    2    0    0 -0.13972328715E+04 -0.64030742870E+03 -0.12847123509E+04  0.20031822496E+04  0.00000000000E+00 0.  1.
<mgrwt>
<rscale>  0 0.42061961E+04</rscale>
<asrwt>0</asrwt>
<pdfrwt beam="1">  1        2 0.34798495E+00 0.42061961E+04</pdfrwt>
<pdfrwt beam="2">  1       -2 0.30083743E+00 0.42061961E+04</pdfrwt>
<totfact> 0.11612385E-01</totfact>
</mgrwt>
</event>
<event>
 6    1  0.3017327E-006  0.4358657E+04  0.7818608E-02  0.7935860E-01
          2   -1    0    0  501    0  0.00000000000E+00  0.00000000000E+00  0.20219984879E+04  0.20219984879E+04  0.00000000000E+00 0. -1.
         -2   -1    0    0    0  501 -0.00000000000E+00 -0.00000000000E+00 -0.23488998122E+04  0.23488998122E+04  0.00000000000E+00 0.  1.
         23    2    1    2    0    0  0.17301028319E+04  0.50942986968E+03 -0.13886632407E+04  0.22780263574E+04  0.90795857863E+02 0.  0.
         11    1    3    3    0    0  0.57820000170E+03  0.12733941083E+03 -0.44144709298E+03  0.73851614974E+03  0.00000000000E+00 0. -1.
        -11    1    3    3    0    0  0.11519028302E+04  0.38209045885E+03 -0.94721614776E+03  0.15395102077E+04  0.00000000000E+00 0.  1.
         22    1    1    2    0    0 -0.17301028319E+04 -0.50942986968E+03  0.10617619164E+04  0.20928719427E+04  0.00000000000E+00 0. -1.
<mgrwt>
<rscale>  0 0.43586566E+04</rscale>
<asrwt>0</asrwt>
<pdfrwt beam="1">  1        2 0.31107669E+00 0.43586566E+04</pdfrwt>
<pdfrwt beam="2">  1       -2 0.36136920E+00 0.43586566E+04</pdfrwt>
<totfact> 0.65606479E-02</totfact>
</mgrwt>
</event>
<event>
 6    1  0.3017327E-006  0.4638879E+04  0.7818608E-02  0.7886764E-01
          2   -1    0    0  501    0  0.00000000000E+00  0.00000000000E+00  0.38459693590E+04  0.38459693590E+04  0.00000000000E+00 0. -1.
         -2   -1    0    0    0  501 -0.00000000000E+00 -0.00000000000E+00 -0.13988151687E+04  0.13988151687E+04  0.00000000000E+00 0.  1.
         23    2    1    2    0    0 -0.58863567360E+03  0.70707710204E+03 -0.11821803558E+04  0.15006532224E+04  0.89217239193E+02 0.  0.
         13    1    3    3    0    0 -0.23653820156E+03  0.31430319312E+03 -0.57008361657E+03  0.69262699044E+03  0.00000000000E+00 0.  1.
        -13    1    3    3    0    0 -0.35209747204E+03  0.39277390892E+03 -0.61209673919E+03  0.80802623192E+03  0.00000000000E+00 0. -1.
         22    1    1    2    0    0  0.58863567360E+03 -0.70707710204E+03  0.36293345461E+04  0.37441313053E+04  0.00000000000E+00 0. -1.
<mgrwt>
<rscale>  0 0.46388793E+04</rscale>
<asrwt>0</asrwt>
<pdfrwt beam="1">  1        2 0.59168759E+00 0.46388793E+04</pdfrwt>
<pdfrwt beam="2">  1       -2 0.21520234E+00 0.46388793E+04</pdfrwt>
<totfact> 0.35853605E-02</totfact>
</mgrwt>
</event>
<event>
 6    1  0.3017327E-006  0.1262741E+04  0.7818608E-02  0.9059645E-01
          2   -1    0    0  501    0  0.00000000000E+00  0.00000000000E+00  0.10956694838E+04  0.10956694838E+04  0.00000000000E+00 0. -1.
         -2   -1    0    0    0  501 -0.00000000000E+00 -0.00000000000E+00 -0.36382219001E+03  0.36382219001E+03  0.00000000000E+00 0.  1.
         23    2    1    2    0    0  0.39356826472E+03  0.48480252871E+03  0.44540416770E+03  0.77248429733E+03  0.91747731181E+02 0.  0.
         11    1    3    3    0    0  0.30780623682E+03  0.40042400242E+03  0.31588542761E+03  0.59570770056E+03  0.00000000000E+00 0. -1.
        -11    1    3    3    0    0  0.85762027904E+02  0.84378526297E+02  0.12951874009E+03  0.17677659677E+03  0.00000000000E+00 0.  1.
         22    1    1    2    0    0 -0.39356826472E+03 -0.48480252871E+03  0.28644312608E+03  0.68700737647E+03  0.00000000000E+00 0. -1.
<mgrwt>
<rscale>  0 0.12627413E+04</rscale>
<asrwt>0</asrwt>
<pdfrwt beam="1">  1        2 0.16856453E+00 0.12627413E+04</pdfrwt>
<pdfrwt beam="2">  1       -2 0.55972645E-01 0.12627413E+04</pdfrwt>
<totfact> 0.64563372E+01</totfact>
</mgrwt>
</event>
<event>
 6    1  0.3017327E-006  0.1496768E+04  0.7818608E-02  0.8886605E-01
         -2   -1    0    0    0  501 -0.00000000000E+00  0.00000000000E+00  0.59131828519E+03  0.59131828519E+03  0.00000000000E+00 0.  1.
          2   -1    0    0  501    0  0.00000000000E+00 -0.00000000000E+00 -0.94716900470E+03  0.94716900470E+03  0.00000000000E+00 0. -1.
         23    2    1    2    0    0  0.30661519984E+03  0.19193454810E+03  0.49164164371E+03  0.61702374897E+03  0.90305312316E+02 0.  0.
         11    1    3    3    0    0  0.11833622153E+03  0.25851938748E+02  0.14327816925E+03  0.18761774396E+03  0.00000000000E+00 0.  1.
        -11    1    3    3    0    0  0.18827897831E+03  0.16608260935E+03  0.34836347446E+03  0.42940600501E+03  0.00000000000E+00 0. -1.
         22    1    1    2    0    0 -0.30661519984E+03 -0.19193454810E+03 -0.84749236322E+03  0.92146354092E+03  0.00000000000E+00 0. -1.
<mgrwt>
<rscale>  0 0.14967677E+04</rscale>
<asrwt>0</asrwt>
<pdfrwt beam="1">  1        2 0.14571831E+00 0.14967677E+04</pdfrwt>
<pdfrwt beam="2">  1       -2 0.90972045E-01 0.14967677E+04</pdfrwt>
<totfact> 0.27172200E+01</totfact>
</mgrwt>
</event>
<event>
 6    1  0.3017327E-006  0.2027848E+04  0.7818608E-02  0.8593710E-01
         -2   -1    0    0    0  501 -0.00000000000E+00  0.00000000000E+00  0.22730069730E+03  0.22730069730E+03  0.00000000000E+00 0.  1.
          2   -1    0    0  501    0  0.00000000000E+00 -0.00000000000E+00 -0.45228278165E+04  0.45228278165E+04  0.00000000000E+00 0. -1.
         23    2    1    2    0    0 -0.86710721854E+03 -0.51520460306E+03 -0.23677804165E+04  0.25744635439E+04  0.64557932804E+02 0.  0.
         13    1    3    3    0    0 -0.94986036683E+02 -0.36715740434E+02 -0.26360951110E+03  0.28259576625E+03  0.00000000000E+00 0. -1.
        -13    1    3    3    0    0 -0.77212118186E+03 -0.47848886263E+03 -0.21041709054E+04  0.22918677777E+04  0.00000000000E+00 0.  1.
         22    1    1    2    0    0  0.86710721854E+03  0.51520460306E+03 -0.19277467027E+04  0.21756649699E+04  0.00000000000E+00 0.  1.
<mgrwt>
<rscale>  0 0.20278480E+04</rscale>
<asrwt>0</asrwt>
<pdfrwt beam="1">  1        2 0.69581963E+00 0.20278480E+04</pdfrwt>
<pdfrwt beam="2">  1       -2 0.34969340E-01 0.20278480E+04</pdfrwt>
<totfact> 0.84491529E-01</totfact>
</mgrwt>
</event>
<event>
 6    1  0.3017327E-006  0.1645030E+04  0.7818608E-02  0.8793352E-01
         -2   -1    0    0    0  501 -0.00000000000E+00  0.00000000000E+00  0.50115848131E+03  0.50115848131E+03  0.00000000000E+00 0.  1.
          2   -1    0    0  501    0  0.00000000000E+00 -0.00000000000E+00 -0.13499347754E+04  0.13499347754E+04  0.00000000000E+00 0. -1.
         23    2    1    2    0    0  0.72614251654E+03  0.56538798288E+02 -0.84932476303E+03  0.11227527519E+04  0.93496517677E+02 0.  0.
         13    1    3    3    0    0  0.20812927412E+03  0.66038020326E+01 -0.30853163216E+03  0.37222731360E+03  0.00000000000E+00 0. -1.
        -13    1    3    3    0    0  0.51801324242E+03  0.49934996255E+02 -0.54079313087E+03  0.75052543833E+03  0.00000000000E+00 0.  1.
         22    1    1    2    0    0 -0.72614251654E+03 -0.56538798288E+02  0.54846896876E+00  0.72834050475E+03  0.00000000000E+00 0.  1.
<mgrwt>
<rscale>  0 0.16450304E+04</rscale>
<asrwt>0</asrwt>
<pdfrwt beam="1">  1        2 0.20768227E+00 0.16450304E+04</pdfrwt>
<pdfrwt beam="2">  1       -2 0.77101306E-01 0.16450304E+04</pdfrwt>
<totfact> 0.22189165E+01</totfact>
</mgrwt>
</event>
<event>
 6    1  0.3017327E-006  0.3255005E+04  0.7818608E-02  0.8174440E-01
         -1   -1    0    0    0  501 -0.00000000000E+00  0.00000000000E+00  0.15905553773E+04  0.15905553773E+04  0.00000000000E+00 0.  1.
          1   -1    0    0  501    0  0.00000000000E+00 -0.00000000000E+00 -0.16653079167E+04  0.16653079167E+04  0.00000000000E+00 0. -1.
         23    2    1    2    0    0  0.12262897579E+04 -0.94087484448E+03 -0.54233697703E+03  0.16410359814E+04  0.99184940588E+02 0.  0.
         11    1    3    3    0    0  0.36266569290E+03 -0.26388251879E+03 -0.11163347202E+03  0.46219305556E+03  0.00000000000E+00 0. -1.
        -11    1    3    3    0    0  0.86362406500E+03 -0.67699232569E+03 -0.43070350501E+03  0.11788429259E+04  0.00000000000E+00 0.  1.
         22    1    1    2    0    0 -0.12262897579E+04  0.94087484448E+03  0.46758443762E+03  0.16148273126E+04  0.00000000000E+00 0.  1.
<mgrwt>
<rscale>  0 0.32550050E+04</rscale>
<asrwt>0</asrwt>
<pdfrwt beam="1">  1        1 0.25620122E+00 0.32550050E+04</pdfrwt>
<pdfrwt beam="2">  1       -1 0.24470083E+00 0.32550050E+04</pdfrwt>
<totfact> 0.31653901E-01</totfact>
</mgrwt>
</event>
<event>
 6    1  0.3017327E-006  0.1119485E+04  0.7818608E-02  0.9186406E-01
          2   -1    0    0  501    0  0.00000000000E+00  0.00000000000E+00  0.13534897344E+04  0.13534897344E+04  0.00000000000E+00 0. -1.
         -2   -1    0    0    0  501 -0.00000000000E+00 -0.00000000000E+00 -0.23148419280E+03  0.23148419280E+03  0.00000000000E+00 0.  1.
         23    2    1    2    0    0 -0.51007784649E+03 -0.17105089420E+03  0.76340397288E+03  0.93841928683E+03  0.91691407441E+02 0.  0.
         11    1    3    3    0    0 -0.22230085450E+03 -0.31888854703E+02  0.28096241696E+03  0.35968659790E+03  0.00000000000E+00 0.  1.
        -11    1    3    3    0    0 -0.28777699198E+03 -0.13916203949E+03  0.48244155592E+03  0.57873268892E+03  0.00000000000E+00 0. -1.
         22    1    1    2    0    0  0.51007784649E+03  0.17105089420E+03  0.35860156870E+03  0.64655464035E+03  0.00000000000E+00 0.  1.
<mgrwt>
<rscale>  0 0.11194847E+04</rscale>
<asrwt>0</asrwt>
<pdfrwt beam="1">  1        2 0.20822918E+00 0.11194847E+04</pdfrwt>
<pdfrwt beam="2">  1       -2 0.35612954E-01 0.11194847E+04</pdfrwt>
<totfact> 0.11299565E+02</totfact>
</mgrwt>
</event>
<event>
 6    1  0.3017327E-006  0.3795731E+04  0.7818608E-02  0.8047072E-01
         -2   -1    0    0    0  501 -0.00000000000E+00  0.00000000000E+00  0.15959250316E+04  0.15959250316E+04  0.00000000000E+00 0.  1.
          2   -1    0    0  501    0  0.00000000000E+00 -0.00000000000E+00 -0.22569315332E+04  0.22569315332E+04  0.00000000000E+00 0. -1.
         23    2    1    2    0    0  0.65779314212E+03  0.41629009335E+02  0.14744970411E+04  0.16179516063E+04  0.95922280316E+02 0.  0.
         11    1    3    3    0    0  0.42835807629E+03 -0.41654580963E+01  0.10328394044E+04  0.11181525960E+04  0.00000000000E+00 0.  1.
        -11    1    3    3    0    0  0.22943506583E+03  0.45794467432E+02  0.44165763672E+03  0.49979901035E+03  0.00000000000E+00 0. -1.
         22    1    1    2    0    0 -0.65779314212E+03 -0.41629009335E+02 -0.21355035428E+04  0.22349049585E+04  0.00000000000E+00 0. -1.
<mgrwt>
<rscale>  0 0.37957310E+04</rscale>
<asrwt>0</asrwt>
<pdfrwt beam="1">  1        2 0.34722024E+00 0.37957310E+04</pdfrwt>
<pdfrwt beam="2">  1       -2 0.24552693E+00 0.37957310E+04</pdfrwt>
<totfact> 0.26339994E-01</totfact>
</mgrwt>
</event>
<event>
 6    1  0.3017327E-006  0.1435274E+04  0.7818608E-02  0.8928674E-01
          2   -1    0    0  501    0  0.00000000000E+00  0.00000000000E+00  0.26513460134E+03  0.26513460134E+03  0.00000000000E+00 0. -1.
         -2   -1    0    0    0  501 -0.00000000000E+00 -0.00000000000E+00 -0.19424201280E+04  0.19424201280E+04  0.00000000000E+00 0.  1.
         23    2    1    2    0    0 -0.31975584760E+03 -0.18569890857E+03 -0.17827087869E+04  0.18230525180E+04  0.93498544753E+02 0.  0.
         13    1    3    3    0    0 -0.20948104954E+03 -0.11819778562E+03 -0.93015406995E+03  0.96074950975E+03  0.00000000000E+00 0.  1.
        -13    1    3    3    0    0 -0.11027479806E+03 -0.67501122953E+02 -0.85255471691E+03  0.86230300824E+03  0.00000000000E+00 0. -1.
         22    1    1    2    0    0  0.31975584760E+03  0.18569890857E+03  0.10542326023E+03  0.38450221133E+03  0.00000000000E+00 0. -1.
<mgrwt>
<rscale>  0 0.14352739E+04</rscale>
<asrwt>0</asrwt>
<pdfrwt beam="1">  1        2 0.40789938E-01 0.14352739E+04</pdfrwt>
<pdfrwt beam="2">  1       -2 0.29883387E+00 0.14352739E+04</pdfrwt>
<totfact> 0.39703496E+00</totfact>
</mgrwt>
</event>
<event>
 6    1  0.3017327E-006  0.2787146E+04  0.7818608E-02  0.8307270E-01
         -2   -1    0    0    0  501 -0.00000000000E+00  0.00000000000E+00  0.12016027301E+04  0.12016027301E+04  0.00000000000E+00 0. -1.
          2   -1    0    0  501    0  0.00000000000E+00 -0.00000000000E+00 -0.16162131911E+04  0.16162131911E+04  0.00000000000E+00 0.  1.
         23    2    1    2    0    0  0.60205488791E+03  0.22908747824E+02  0.10611352893E+04  0.12238208088E+04  0.93457857839E+02 0.  0.
         11    1    3    3    0    0  0.21460171438E+03  0.23118182315E+02  0.29794714543E+03  0.36791418516E+03  0.00000000000E+00 0. -1.
        -11    1    3    3    0    0  0.38745317353E+03 -0.20943449106E+00  0.76318814384E+03  0.85590662367E+03  0.00000000000E+00 0.  1.
         22    1    1    2    0    0 -0.60205488791E+03 -0.22908747824E+02 -0.14757457503E+04  0.15939951124E+04  0.00000000000E+00 0.  1.
<mgrwt>
<rscale>  0 0.27871463E+04</rscale>
<asrwt>0</asrwt>
<pdfrwt beam="1">  1        2 0.24864818E+00 0.27871463E+04</pdfrwt>
<pdfrwt beam="2">  1       -2 0.18486196E+00 0.27871463E+04</pdfrwt>
<totfact> 0.15976518E+00</totfact>
</mgrwt>
</event>
<event>
 6    1  0.3017327E-006  0.1216930E+04  0.7818608E-02  0.9098165E-01
         -2   -1    0    0    0  501 -0.00000000000E+00  0.00000000000E+00  0.42805490736E+03  0.42805490736E+03  0.00000000000E+00 0.  1.
          2   -1    0    0  501    0  0.00000000000E+00 -0.00000000000E+00 -0.86491195100E+03  0.86491195100E+03  0.00000000000E+00 0. -1.
         23    2    1    2    0    0 -0.75539789295E+02 -0.23861399312E+03 -0.80466852941E+03  0.84807565082E+03  0.95383278392E+02 0.  0.
         11    1    3    3    0    0  0.34388040044E+01 -0.13869755599E+03 -0.37105752820E+03  0.39614710228E+03  0.00000000000E+00 0.  1.
        -11    1    3    3    0    0 -0.78978593300E+02 -0.99916437138E+02 -0.43361100121E+03  0.45192854853E+03  0.00000000000E+00 0. -1.
         22    1    1    2    0    0  0.75539789295E+02  0.23861399312E+03  0.36781148578E+03  0.44489120755E+03  0.00000000000E+00 0.  1.
<mgrwt>
<rscale>  0 0.12169302E+04</rscale>
<asrwt>0</asrwt>
<pdfrwt beam="1">  1        2 0.13306338E+00 0.12169302E+04</pdfrwt>
<pdfrwt beam="2">  1       -2 0.65854602E-01 0.12169302E+04</pdfrwt>
<totfact> 0.64855583E+01</totfact>
</mgrwt>
</event>
<event>
 6    1  0.3017327E-006  0.2851847E+04  0.7818608E-02  0.8287350E-01
          2   -1    0    0  501    0  0.00000000000E+00  0.00000000000E+00  0.29268829620E+04  0.29268829620E+04  0.00000000000E+00 0. -1.
         -2   -1    0    0    0  501 -0.00000000000E+00 -0.00000000000E+00 -0.69468364443E+03  0.69468364443E+03  0.00000000000E+00 0.  1.
         23    2    1    2    0    0 -0.14206144417E+04  0.69320763776E+02  0.12153838944E+04  0.18731775293E+04  0.93194876721E+02 0.  0.
         13    1    3    3    0    0 -0.59364944588E+03  0.64579088497E+02  0.54809596010E+03  0.81055493629E+03  0.00000000000E+00 0. -1.
        -13    1    3    3    0    0 -0.82696499586E+03  0.47416752792E+01  0.66728793427E+03  0.10626225930E+04  0.00000000000E+00 0.  1.
         22    1    1    2    0    0  0.14206144417E+04 -0.69320763776E+02  0.10168154232E+04  0.17483890772E+04  0.00000000000E+00 0. -1.
<mgrwt>
<rscale>  0 0.28518469E+04</rscale>
<asrwt>0</asrwt>
<pdfrwt beam="1">  1        2 0.45028968E+00 0.28518469E+04</pdfrwt>
<pdfrwt beam="2">  1       -2 0.10687441E+00 0.28518469E+04</pdfrwt>
<totfact> 0.11797590E+00</totfact>
</mgrwt>
</event>
<event>
 6    1  0.3017327E-006  0.1172111E+04  0.7818608E-02  0.9137625E-01
         -2   -1    0    0    0  501 -0.00000000000E+00  0.00000000000E+00  0.31996151714E+03  0.31996151714E+03  0.00000000000E+00 0.  1.
          2   -1    0    0  501    0  0.00000000000E+00 -0.00000000000E+00 -0.10734440039E+04  0.10734440039E+04  0.00000000000E+00 0. -1.
         23    2    1    2    0    0 -0.54505240233E+02  0.52534836974E+02 -0.10656599015E+04  0.10721805710E+04  0.90605853585E+02 0.  0.
         13    1    3    3    0    0 -0.37997857807E+02  0.83811490754E+01 -0.13959385759E+03  0.14491558210E+03  0.00000000000E+00 0.  1.
        -13    1    3    3    0    0 -0.16507382426E+02  0.44153687899E+02 -0.92606604393E+03  0.92726498885E+03  0.00000000000E+00 0. -1.
         22    1    1    2    0    0  0.54505240233E+02 -0.52534836974E+02  0.31217741474E+03  0.32122495012E+03  0.00000000000E+00 0.  1.
<mgrwt>
<rscale>  0 0.11721105E+04</rscale>
<asrwt>0</asrwt>
<pdfrwt beam="1">  1        2 0.16514523E+00 0.11721105E+04</pdfrwt>
<pdfrwt beam="2">  1       -2 0.49224849E-01 0.11721105E+04</pdfrwt>
<totfact> 0.87369421E+01</totfact>
</mgrwt>
</event>
<event>
 6    1  0.3017327E-006  0.1892415E+04  0.7818608E-02  0.8658641E-01
          2   -1    0    0  501    0  0.00000000000E+00  0.00000000000E+00  0.64781806151E+03  0.64781806151E+03  0.00000000000E+00 0. -1.
         -2   -1    0    0    0  501 -0.00000000000E+00 -0.00000000000E+00 -0.13820369732E+04  0.13820369732E+04  0.00000000000E+00 0.  1.
         23    2    1    2    0    0  0.31337238403E+03 -0.21665224450E+03 -0.12944463697E+04  0.13523631523E+04  0.90300860582E+02 0.  0.
         11    1    3    3    0    0  0.11450786604E+03 -0.10465424886E+03 -0.39391943849E+03  0.42336401266E+03  0.00000000000E+00 0.  1.
        -11    1    3    3    0    0  0.19886451799E+03 -0.11199799564E+03 -0.90052693122E+03  0.92899913961E+03  0.00000000000E+00 0. -1.
         22    1    1    2    0    0 -0.31337238403E+03  0.21665224450E+03  0.56022745800E+03  0.67749188247E+03  0.00000000000E+00 0. -1.
<mgrwt>
<rscale>  0 0.18924149E+04</rscale>
<asrwt>0</asrwt>
<pdfrwt beam="1">  1        2 0.99664318E-01 0.18924149E+04</pdfrwt>
<pdfrwt beam="2">  1       -2 0.21262107E+00 0.18924149E+04</pdfrwt>
<totfact> 0.46574325E+00</totfact>
</mgrwt>
</event>
<event>
 6    1  0.3247228E-006  0.2532464E+04  0.7818608E-02  0.8391510E-01
         -2   -1    0    0    0  501 -0.00000000000E+00  0.00000000000E+00  0.85797730293E+03  0.85797730293E+03  0.00000000000E+00 0.  1.
          2   -1    0    0  501    0  0.00000000000E+00 -0.00000000000E+00 -0.18687485642E+04  0.18687485642E+04  0.00000000000E+00 0. -1.
         23    2    1    2    0    0  0.20672774184E+02  0.51875496640E+03  0.73552251118E+03  0.90489271932E+03  0.91122940379E+02 0.  0.
         11    1    3    3    0    0 -0.28676534569E+01  0.29256240844E+03  0.48611772986E+03  0.56737239407E+03  0.00000000000E+00 0.  1.
        -11    1    3    3    0    0  0.23540427641E+02  0.22619255796E+03  0.24940478132E+03  0.33752032525E+03  0.00000000000E+00 0. -1.
         22    1    1    2    0    0 -0.20672774184E+02 -0.51875496640E+03 -0.17462937724E+04  0.18218331478E+04  0.00000000000E+00 0. -1.
<mgrwt>
<rscale>  0 0.25324643E+04</rscale>
<asrwt>0</asrwt>
<pdfrwt beam="1">  1        2 0.28749978E+00 0.25324643E+04</pdfrwt>
<pdfrwt beam="2">  1       -2 0.13199651E+00 0.25324643E+04</pdfrwt>
<totfact> 0.29373589E+00</totfact>
</mgrwt>
</event>
<event>
 6    1  0.3017327E-006  0.2752849E+04  0.7818608E-02  0.8318058E-01
         -2   -1    0    0    0  501 -0.00000000000E+00  0.00000000000E+00  0.11253435859E+04  0.11253435859E+04  0.00000000000E+00 0. -1.
          2   -1    0    0  501    0  0.00000000000E+00 -0.00000000000E+00 -0.16835251414E+04  0.16835251414E+04  0.00000000000E+00 0.  1.
         23    2    1    2    0    0 -0.13555457135E+04  0.62032892095E+02 -0.55566396635E+02  0.13618116244E+04  0.10045404258E+03 0.  0.
         13    1    3    3    0    0 -0.18862933956E+03  0.24573728622E+02  0.23239187607E+02  0.19163756344E+03  0.00000000000E+00 0. -1.
        -13    1    3    3    0    0 -0.11669163740E+04  0.37459163473E+02 -0.78805584242E+02  0.11701740609E+04  0.00000000000E+00 0.  1.
         22    1    1    2    0    0  0.13555457135E+04 -0.62032892095E+02 -0.50261515882E+03  0.14470571029E+04  0.00000000000E+00 0.  1.
<mgrwt>
<rscale>  0 0.27528489E+04</rscale>
<asrwt>0</asrwt>
<pdfrwt beam="1">  1        2 0.25900387E+00 0.27528489E+04</pdfrwt>
<pdfrwt beam="2">  1       -2 0.17312978E+00 0.27528489E+04</pdfrwt>
<totfact> 0.17722902E+00</totfact>
</mgrwt>
</event>
<event>
 6    1  0.3017327E-006  0.1256972E+04  0.7818608E-02  0.9064401E-01
          1   -1    0    0  501    0  0.00000000000E+00  0.00000000000E+00  0.21439495084E+04  0.21439495084E+04  0.00000000000E+00 0. -1.
         -1   -1    0    0    0  501 -0.00000000000E+00 -0.00000000000E+00 -0.18423682714E+03  0.18423682714E+03  0.00000000000E+00 0.  1.
         23    2    1    2    0    0  0.61644965736E+03  0.10341029421E+03  0.10096511278E+04  0.11909436946E+04  0.90816379688E+02 0.  0.
         13    1    3    3    0    0  0.58361250315E+03  0.85870676712E+02  0.90903614026E+03  0.10836623234E+04  0.00000000000E+00 0. -1.
        -13    1    3    3    0    0  0.32837154214E+02  0.17539617497E+02  0.10061498755E+03  0.10728137116E+03  0.00000000000E+00 0.  1.
         22    1    1    2    0    0 -0.61644965736E+03 -0.10341029421E+03  0.95006155345E+03  0.11372426409E+04  0.00000000000E+00 0. -1.
<mgrwt>
<rscale>  0 0.12569717E+04</rscale>
<asrwt>0</asrwt>
<pdfrwt beam="1">  1        1 0.32983837E+00 0.12569717E+04</pdfrwt>
<pdfrwt beam="2">  1       -1 0.28344129E-01 0.12569717E+04</pdfrwt>
<totfact> 0.26489775E+01</totfact>
</mgrwt>
</event>
<event>
 6    1  0.3017327E-006  0.3243810E+04  0.7818608E-02  0.8177342E-01
          2   -1    0    0  501    0  0.00000000000E+00  0.00000000000E+00  0.27695272863E+04  0.27695272863E+04  0.00000000000E+00 0. -1.
         -2   -1    0    0    0  501 -0.00000000000E+00 -0.00000000000E+00 -0.94982858559E+03  0.94982858559E+03  0.00000000000E+00 0.  1.
         23    2    1    2    0    0  0.57274460369E+03  0.11017597263E+04  0.21046962561E+04  0.24453329200E+04  0.89419703787E+02 0.  0.
         11    1    3    3    0    0  0.13260652984E+03  0.34343951843E+03  0.62573124122E+03  0.72599916034E+03  0.00000000000E+00 0. -1.
        -11    1    3    3    0    0  0.44013807385E+03  0.75832020789E+03  0.14789650149E+04  0.17193337596E+04  0.00000000000E+00 0.  1.
         22    1    1    2    0    0 -0.57274460369E+03 -0.11017597263E+04 -0.28499755535E+03  0.12740229520E+04  0.00000000000E+00 0.  1.
<mgrwt>
<rscale>  0 0.32438102E+04</rscale>
<asrwt>0</asrwt>
<pdfrwt beam="1">  1        2 0.42608112E+00 0.32438102E+04</pdfrwt>
<pdfrwt beam="2">  1       -2 0.14612748E+00 0.32438102E+04</pdfrwt>
<totfact> 0.64961310E-01</totfact>
</mgrwt>
</event>
<event>
 6    1  0.3017327E-006  0.3672543E+04  0.7818608E-02  0.8074074E-01
          1   -1    0    0  501    0  0.00000000000E+00  0.00000000000E+00  0.37040824089E+04  0.37040824089E+04  0.00000000000E+00 0. -1.
         -1   -1    0    0    0  501 -0.00000000000E+00 -0.00000000000E+00 -0.91031800361E+03  0.91031800361E+03  0.00000000000E+00 0.  1.
         23    2    1    2    0    0  0.14207381416E+04 -0.71248765949E+03  0.24501279388E+03  0.16106909877E+04  0.90325283191E+02 0.  0.
         11    1    3    3    0    0  0.33963269755E+03 -0.19085481807E+03  0.94849044492E+02  0.40096417803E+03  0.00000000000E+00 0. -1.
        -11    1    3    3    0    0  0.10811054441E+04 -0.52163284142E+03  0.15016374939E+03  0.12097268097E+04  0.00000000000E+00 0.  1.
         22    1    1    2    0    0 -0.14207381416E+04  0.71248765949E+03  0.25487516114E+04  0.30037094248E+04  0.00000000000E+00 0.  1.
<mgrwt>
<rscale>  0 0.36725429E+04</rscale>
<asrwt>0</asrwt>
<pdfrwt beam="1">  1        1 0.56985882E+00 0.36725429E+04</pdfrwt>
<pdfrwt beam="2">  1       -1 0.14004893E+00 0.36725429E+04</pdfrwt>
<totfact> 0.57537684E-02</totfact>
</mgrwt>
</event>
<event>
 6    1  0.3017327E-006  0.3196655E+04  0.7818608E-02  0.8189701E-01
         -2   -1    0    0    0  501 -0.00000000000E+00  0.00000000000E+00  0.92898978077E+03  0.92898978077E+03  0.00000000000E+00 0.  1.
          2   -1    0    0  501    0  0.00000000000E+00 -0.00000000000E+00 -0.27499232199E+04  0.27499232199E+04  0.00000000000E+00 0. -1.
         23    2    1    2    0    0 -0.13768538788E+04 -0.44165495791E+03 -0.13231712917E+03  0.14558046480E+04  0.10523138883E+03 0.  0.
         11    1    3    3    0    0 -0.91610221043E+03 -0.28468475292E+03 -0.38496016827E+02  0.96008885621E+03  0.00000000000E+00 0.  1.
        -11    1    3    3    0    0 -0.46075166835E+03 -0.15697020499E+03 -0.93821112347E+02  0.49571579183E+03  0.00000000000E+00 0. -1.
         22    1    1    2    0    0  0.13768538788E+04  0.44165495791E+03 -0.16886163100E+04  0.22231083527E+04  0.00000000000E+00 0. -1.
<mgrwt>
<rscale>  0 0.31966549E+04</rscale>
<asrwt>0</asrwt>
<pdfrwt beam="1">  1        2 0.42306511E+00 0.31966549E+04</pdfrwt>
<pdfrwt beam="2">  1       -2 0.14292150E+00 0.31966549E+04</pdfrwt>
<totfact> 0.71028905E-01</totfact>
</mgrwt>
</event>
<event>
 6    1  0.3017327E-006  0.7387989E+03  0.7818608E-02  0.9653089E-01
         -2   -1    0    0    0  501 -0.00000000000E+00  0.00000000000E+00  0.45422785058E+02  0.45422785058E+02  0.00000000000E+00 0.  1.
          2   -1    0    0  501    0  0.00000000000E+00 -0.00000000000E+00 -0.30041301586E+04  0.30041301586E+04  0.00000000000E+00 0. -1.
         23    2    1    2    0    0 -0.15589626244E+03  0.32296489814E+03 -0.17516615950E+04  0.17903589628E+04  0.91961415749E+02 0.  0.
         11    1    3    3    0    0 -0.29203938657E+02  0.16088849478E+03 -0.71125918519E+03  0.72981340513E+03  0.00000000000E+00 0.  1.
        -11    1    3    3    0    0 -0.12669232379E+03  0.16207640337E+03 -0.10404024099E+04  0.10605455577E+04  0.00000000000E+00 0. -1.
         22    1    1    2    0    0  0.15589626244E+03 -0.32296489814E+03 -0.12070457785E+04  0.12591939808E+04  0.00000000000E+00 0.  1.
<mgrwt>
<rscale>  0 0.73879891E+03</rscale>
<asrwt>0</asrwt>
<pdfrwt beam="1">  1        2 0.46217398E+00 0.73879891E+03</pdfrwt>
<pdfrwt beam="2">  1       -2 0.69881191E-02 0.73879891E+03</pdfrwt>
<totfact> 0.22324517E+02</totfact>
</mgrwt>
</event>
<event>
 6    1  0.3017327E-006  0.3697799E+04  0.7818608E-02  0.8068450E-01
          2   -1    0    0  501    0  0.00000000000E+00  0.00000000000E+00  0.23874668109E+04  0.23874668109E+04  0.00000000000E+00 0. -1.
         -2   -1    0    0    0  501 -0.00000000000E+00 -0.00000000000E+00 -0.14318229504E+04  0.14318229504E+04  0.00000000000E+00 0.  1.
         23    2    1    2    0    0  0.73803516210E+03  0.11767332919E+04  0.17367476645E+04  0.22257025207E+04  0.89789306732E+02 0.  0.
         11    1    3    3    0    0  0.48551640312E+03  0.70701303047E+03  0.11108808808E+04  0.14034421735E+04  0.00000000000E+00 0. -1.
        -11    1    3    3    0    0  0.25251875898E+03  0.46972026141E+03  0.62586678370E+03  0.82226034718E+03  0.00000000000E+00 0.  1.
         22    1    1    2    0    0 -0.73803516210E+03 -0.11767332919E+04 -0.78110380399E+03  0.15935872406E+04  0.00000000000E+00 0.  1.
<mgrwt>
<rscale>  0 0.36977992E+04</rscale>
<asrwt>0</asrwt>
<pdfrwt beam="1">  1        2 0.36730259E+00 0.36977992E+04</pdfrwt>
<pdfrwt beam="2">  1       -2 0.22028045E+00 0.36977992E+04</pdfrwt>
<totfact> 0.32167122E-01</totfact>
</mgrwt>
</event>
<event>
 6    1  0.3017327E-006  0.1476101E+04  0.7818608E-02  0.8900503E-01
          1   -1    0    0  501    0  0.00000000000E+00  0.00000000000E+00  0.11822153138E+04  0.11822153138E+04  0.00000000000E+00 0.  1.
         -1   -1    0    0    0  501 -0.00000000000E+00 -0.00000000000E+00 -0.46076065650E+03  0.46076065650E+03  0.00000000000E+00 0. -1.
         23    2    1    2    0    0  0.94924424098E+02 -0.68705388561E+03  0.63390658809E+03  0.94389203226E+03  0.89671166581E+02 0.  0.
         13    1    3    3    0    0  0.79995595486E+02 -0.67408603961E+03  0.60794034429E+03  0.91125339303E+03  0.00000000000E+00 0. -1.
        -13    1    3    3    0    0  0.14928828612E+02 -0.12967846001E+02  0.25966243803E+02  0.32638639231E+02  0.00000000000E+00 0.  1.
         22    1    1    2    0    0 -0.94924424098E+02  0.68705388561E+03  0.87548069234E+02  0.69908393806E+03  0.00000000000E+00 0. -1.
<mgrwt>
<rscale>  0 0.14761007E+04</rscale>
<asrwt>0</asrwt>
<pdfrwt beam="1">  1        1 0.18187928E+00 0.14761007E+04</pdfrwt>
<pdfrwt beam="2">  1       -1 0.70886255E-01 0.14761007E+04</pdfrwt>
<totfact> 0.21458121E+01</totfact>
</mgrwt>
</event>
<event>
 6    1  0.3017327E-006  0.2793567E+04  0.7818608E-02  0.8305268E-01
          2   -1    0    0  501    0  0.00000000000E+00  0.00000000000E+00  0.24400764085E+04  0.24400764085E+04  0.00000000000E+00 0. -1.
         -2   -1    0    0    0  501 -0.00000000000E+00 -0.00000000000E+00 -0.79956684260E+03  0.79956684260E+03  0.00000000000E+00 0.  1.
         23    2    1    2    0    0  0.13560032799E+04  0.23429476730E+02  0.44061407144E+03  0.14288304410E+04  0.90121217495E+02 0.  0.
         13    1    3    3    0    0  0.39611174190E+03 -0.15982069093E+02  0.16477664971E+03  0.42931489945E+03  0.00000000000E+00 0.  1.
        -13    1    3    3    0    0  0.95989153799E+03  0.39411545823E+02  0.27583742174E+03  0.99951554159E+03  0.00000000000E+00 0. -1.
         22    1    1    2    0    0 -0.13560032799E+04 -0.23429476730E+02  0.11998954945E+04  0.18108128101E+04  0.00000000000E+00 0.  1.
<mgrwt>
<rscale>  0 0.27935670E+04</rscale>
<asrwt>0</asrwt>
<pdfrwt beam="1">  1        2 0.37539637E+00 0.27935670E+04</pdfrwt>
<pdfrwt beam="2">  1       -2 0.12301028E+00 0.27935670E+04</pdfrwt>
<totfact> 0.16381086E+00</totfact>
</mgrwt>
</event>
<event>
 6    1  0.3017327E-006  0.2542771E+04  0.7818608E-02  0.8387905E-01
          2   -1    0    0  501    0  0.00000000000E+00  0.00000000000E+00  0.77968704977E+03  0.77968704977E+03  0.00000000000E+00 0. -1.
         -2   -1    0    0    0  501 -0.00000000000E+00 -0.00000000000E+00 -0.20731665209E+04  0.20731665209E+04  0.00000000000E+00 0.  1.
         23    2    1    2    0    0 -0.74163490990E+03 -0.68405394623E+02  0.50639295975E+03  0.90497205347E+03  0.88537846639E+02 0.  0.
         13    1    3    3    0    0 -0.29398204778E+03 -0.64572687379E+02  0.23055588307E+03  0.37914521175E+03  0.00000000000E+00 0. -1.
        -13    1    3    3    0    0 -0.44765286211E+03 -0.38327072437E+01  0.27583707668E+03  0.52582684172E+03  0.00000000000E+00 0.  1.
         22    1    1    2    0    0  0.74163490990E+03  0.68405394623E+02 -0.17998724309E+04  0.19478815172E+04  0.00000000000E+00 0.  1.
<mgrwt>
<rscale>  0 0.25427710E+04</rscale>
<asrwt>0</asrwt>
<pdfrwt beam="1">  1        2 0.11995186E+00 0.25427710E+04</pdfrwt>
<pdfrwt beam="2">  1       -2 0.31894869E+00 0.25427710E+04</pdfrwt>
<totfact> 0.77008826E-01</totfact>
</mgrwt>
</event>
<event>
 6    1  0.3017327E-006  0.1657299E+04  0.7818608E-02  0.8786100E-01
         -2   -1    0    0    0  501 -0.00000000000E+00  0.00000000000E+00  0.51538717673E+03  0.51538717673E+03  0.00000000000E+00 0. -1.
          2   -1    0    0  501    0  0.00000000000E+00 -0.00000000000E+00 -0.13323189622E+04  0.13323189622E+04  0.00000000000E+00 0.  1.
         23    2    1    2    0    0  0.39231851981E+03  0.88774014155E+01  0.40125196392E+03  0.56787635472E+03  0.86531996759E+02 0.  0.
         13    1    3    3    0    0  0.25059034046E+03  0.45097711413E+02  0.27334510649E+03  0.37355972688E+03  0.00000000000E+00 0. -1.
        -13    1    3    3    0    0  0.14172817935E+03 -0.36220309997E+02  0.12790685743E+03  0.19431662784E+03  0.00000000000E+00 0.  1.
         22    1    1    2    0    0 -0.39231851981E+03 -0.88774014155E+01 -0.12181837494E+04  0.12798297842E+04  0.00000000000E+00 0.  1.
<mgrwt>
<rscale>  0 0.16572991E+04</rscale>
<asrwt>0</asrwt>
<pdfrwt beam="1">  1        2 0.20497215E+00 0.16572991E+04</pdfrwt>
<pdfrwt beam="2">  1       -2 0.79290336E-01 0.16572991E+04</pdfrwt>
<totfact> 0.21316008E+01</totfact>
</mgrwt>
</event>
<event>
 6    1  0.3017327E-006  0.1360299E+04  0.7818608E-02  0.8983068E-01
         -2   -1    0    0    0  501 -0.00000000000E+00  0.00000000000E+00  0.19246026356E+03  0.19246026356E+03  0.00000000000E+00 0.  1.
          2   -1    0    0  501    0  0.00000000000E+00 -0.00000000000E+00 -0.24036299315E+04  0.24036299315E+04  0.00000000000E+00 0. -1.
         23    2    1    2    0    0 -0.17526849801E+03  0.17210843373E+03 -0.23145953958E+04  0.23295620717E+04  0.95745704871E+02 0.  0.
         13    1    3    3    0    0 -0.75446423512E+00  0.42289550515E+02 -0.54746100278E+03  0.54909245566E+03  0.00000000000E+00 0. -1.
        -13    1    3    3    0    0 -0.17451403378E+03  0.12981888322E+03 -0.17671343931E+04  0.17804696160E+04  0.00000000000E+00 0.  1.
         22    1    1    2    0    0  0.17526849801E+03 -0.17210843373E+03  0.10342572790E+03  0.26652812338E+03  0.00000000000E+00 0.  1.
<mgrwt>
<rscale>  0 0.13602989E+04</rscale>
<asrwt>0</asrwt>
<pdfrwt beam="1">  1        2 0.36978920E+00 0.13602989E+04</pdfrwt>
<pdfrwt beam="2">  1       -2 0.29609273E-01 0.13602989E+04</pdfrwt>
<totfact> 0.40712882E+01</totfact>
</mgrwt>
</event>
<event>
 6    1  0.3017327E-006  0.2454148E+04  0.7818608E-02  0.8419505E-01
         -2   -1    0    0    0  501 -0.00000000000E+00  0.00000000000E+00  0.96983599174E+03  0.96983599174E+03  0.00000000000E+00 0.  1.
          2   -1    0    0  501    0  0.00000000000E+00 -0.00000000000E+00 -0.15525416364E+04  0.15525416364E+04  0.00000000000E+00 0. -1.
         23    2    1    2    0    0  0.61598048937E+03  0.10289042612E+04 -0.55102910289E+03  0.13227612955E+04  0.89378021371E+02 0.  0.
         11    1    3    3    0    0  0.36617094100E+03  0.53975364573E+03 -0.27172013562E+03  0.70657412082E+03  0.00000000000E+00 0.  1.
        -11    1    3    3    0    0  0.24980954837E+03  0.48915061548E+03 -0.27930896727E+03  0.61618717471E+03  0.00000000000E+00 0. -1.
         22    1    1    2    0    0 -0.61598048937E+03 -0.10289042612E+04 -0.31676541725E+02  0.11996163326E+04  0.00000000000E+00 0.  1.
<mgrwt>
<rscale>  0 0.24541481E+04</rscale>
<asrwt>0</asrwt>
<pdfrwt beam="1">  1        2 0.23885256E+00 0.24541481E+04</pdfrwt>
<pdfrwt beam="2">  1       -2 0.14920554E+00 0.24541481E+04</pdfrwt>
<totfact> 0.32260856E+00</totfact>
</mgrwt>
</event>
<event>
 6    1  0.3017327E-006  0.2352038E+04  0.7818608E-02  0.8457681E-01
          1   -1    0    0  501    0  0.00000000000E+00  0.00000000000E+00  0.11216369633E+04  0.11216369633E+04  0.00000000000E+00 0. -1.
         -1   -1    0    0    0  501 -0.00000000000E+00 -0.00000000000E+00 -0.12330375442E+04  0.12330375442E+04  0.00000000000E+00 0.  1.
         23    2    1    2    0    0 -0.42304204334E+03 -0.56415317628E+03  0.88424289960E+03  0.11346174116E+04  0.90762264053E+02 0.  0.
         11    1    3    3    0    0 -0.28554851016E+03 -0.32593089572E+03  0.58733755455E+03  0.72988650037E+03  0.00000000000E+00 0. -1.
        -11    1    3    3    0    0 -0.13749353318E+03 -0.23822228056E+03  0.29690534505E+03  0.40473091128E+03  0.00000000000E+00 0.  1.
         22    1    1    2    0    0  0.42304204334E+03  0.56415317628E+03 -0.99564348056E+03  0.12200570958E+04  0.00000000000E+00 0.  1.
<mgrwt>
<rscale>  0 0.23520378E+04</rscale>
<asrwt>0</asrwt>
<pdfrwt beam="1">  1        1 0.17255953E+00 0.23520378E+04</pdfrwt>
<pdfrwt beam="2">  1       -1 0.18969808E+00 0.23520378E+04</pdfrwt>
<totfact> 0.19514043E+00</totfact>
</mgrwt>
</event>
<event>
 6    1  0.3407567E-006  0.2662641E+04  0.7818608E-02  0.8347230E-01
          2   -1    0    0  501    0  0.00000000000E+00  0.00000000000E+00  0.12314861004E+04  0.12314861004E+04  0.00000000000E+00 0. -1.
         -2   -1    0    0    0  501 -0.00000000000E+00 -0.00000000000E+00 -0.14392478539E+04  0.14392478539E+04  0.00000000000E+00 0.  1.
         23    2    1    2    0    0  0.78740954401E+03 -0.96027410088E+03  0.37299606719E+03  0.12998146332E+04  0.90839834942E+02 0.  0.
         11    1    3    3    0    0  0.17964730730E+03 -0.27332557126E+03  0.76904388495E+02  0.33599748197E+03  0.00000000000E+00 0. -1.
        -11    1    3    3    0    0  0.60776223671E+03 -0.68694852962E+03  0.29609167869E+03  0.96381715118E+03  0.00000000000E+00 0.  1.
         22    1    1    2    0    0 -0.78740954401E+03  0.96027410088E+03 -0.58075782062E+03  0.13709193211E+04  0.00000000000E+00 0. -1.
<mgrwt>
<rscale>  0 0.26626406E+04</rscale>
<asrwt>0</asrwt>
<pdfrwt beam="1">  1        2 0.18945940E+00 0.26626406E+04</pdfrwt>
<pdfrwt beam="2">  1       -2 0.22142275E+00 0.26626406E+04</pdfrwt>
<totfact> 0.15452955E+00</totfact>
</mgrwt>
</event>
<event>
 6    1  0.3017327E-006  0.1552301E+04  0.7818608E-02  0.8850400E-01
          2   -1    0    0  501    0  0.00000000000E+00  0.00000000000E+00  0.96657510100E+03  0.96657510100E+03  0.00000000000E+00 0. -1.
         -2   -1    0    0    0  501 -0.00000000000E+00 -0.00000000000E+00 -0.62324102335E+03  0.62324102335E+03  0.00000000000E+00 0.  1.
         23    2    1    2    0    0  0.15459212687E+03  0.65659393528E+03  0.56007655475E+03  0.88130245269E+03  0.89408860856E+02 0.  0.
         11    1    3    3    0    0  0.24341373373E+02  0.26317330697E+03  0.18779039468E+03  0.32421894500E+03  0.00000000000E+00 0.  1.
        -11    1    3    3    0    0  0.13025075350E+03  0.39342062831E+03  0.37228616007E+03  0.55708350769E+03  0.00000000000E+00 0. -1.
         22    1    1    2    0    0 -0.15459212687E+03 -0.65659393528E+03 -0.21674247710E+03  0.70851367166E+03  0.00000000000E+00 0.  1.
<mgrwt>
<rscale>  0 0.15523006E+04</rscale>
<asrwt>0</asrwt>
<pdfrwt beam="1">  1        2 0.14870386E+00 0.15523006E+04</pdfrwt>
<pdfrwt beam="2">  1       -2 0.95883234E-01 0.15523006E+04</pdfrwt>
<totfact> 0.23245962E+01</totfact>
</mgrwt>
</event>
<event>
 6    1  0.3017327E-006  0.1075412E+04  0.7818608E-02  0.9229494E-01
          2   -1    0    0  501    0  0.00000000000E+00  0.00000000000E+00  0.24481382795E+04  0.24481382795E+04  0.00000000000E+00 0. -1.
         -2   -1    0    0    0  501 -0.00000000000E+00 -0.00000000000E+00 -0.11810109144E+03  0.11810109144E+03  0.00000000000E+00 0.  1.
         23    2    1    2    0    0  0.30874324198E+03 -0.25411527616E+03  0.20170731543E+04  0.20584564946E+04  0.93605915952E+02 0.  0.
         11    1    3    3    0    0  0.35456101255E+02 -0.20645708343E+02  0.39014813374E+03  0.39229956239E+03  0.00000000000E+00 0. -1.
        -11    1    3    3    0    0  0.27328714072E+03 -0.23346956782E+03  0.16269250206E+04  0.16661569323E+04  0.00000000000E+00 0.  1.
         22    1    1    2    0    0 -0.30874324198E+03  0.25411527616E+03  0.31296403379E+03  0.50778287633E+03  0.00000000000E+00 0.  1.
<mgrwt>
<rscale>  0 0.10754121E+04</rscale>
<asrwt>0</asrwt>
<pdfrwt beam="1">  1        2 0.37663662E+00 0.10754121E+04</pdfrwt>
<pdfrwt beam="2">  1       -2 0.18169401E-01 0.10754121E+04</pdfrwt>
<totfact> 0.94563802E+01</totfact>
</mgrwt>
</event>
<event>
 6    1  0.3017327E-006  0.9039637E+03  0.7818608E-02  0.9420640E-01
          2   -1    0    0  501    0  0.00000000000E+00  0.00000000000E+00  0.14602212015E+03  0.14602212015E+03  0.00000000000E+00 0. -1.
         -2   -1    0    0    0  501 -0.00000000000E+00 -0.00000000000E+00 -0.13990179955E+04  0.13990179955E+04  0.00000000000E+00 0.  1.
         23    2    1    2    0    0  0.20137397751E+03 -0.28399004977E+03 -0.16133601017E+03  0.39921155585E+03  0.11017590918E+03 0.  0.
         11    1    3    3    0    0  0.98090392093E+02 -0.18201472202E+03 -0.14630835556E+03  0.25329275347E+03  0.00000000000E+00 0. -1.
        -11    1    3    3    0    0  0.10328358542E+03 -0.10197532775E+03 -0.15027654611E+02  0.14591880239E+03  0.00000000000E+00 0.  1.
         22    1    1    2    0    0 -0.20137397751E+03  0.28399004977E+03 -0.10916598652E+04  0.11458285598E+04  0.00000000000E+00 0.  1.
<mgrwt>
<rscale>  0 0.90396366E+03</rscale>
<asrwt>0</asrwt>
<pdfrwt beam="1">  1        2 0.22464941E-01 0.90396366E+03</pdfrwt>
<pdfrwt beam="2">  1       -2 0.21523355E+00 0.90396366E+03</pdfrwt>
<totfact> 0.26516198E+01</totfact>
</mgrwt>
</event>
<event>
 6    1  0.3017327E-006  0.2197911E+04  0.7818608E-02  0.8519298E-01
         -2   -1    0    0    0  501 -0.00000000000E+00  0.00000000000E+00  0.10945217705E+04  0.10945217705E+04  0.00000000000E+00 0.  1.
          2   -1    0    0  501    0  0.00000000000E+00 -0.00000000000E+00 -0.11034076557E+04  0.11034076557E+04  0.00000000000E+00 0. -1.
         23    2    1    2    0    0  0.97131772473E+03  0.35598848977E+02 -0.51316880250E+03  0.11029286677E+04  0.91564326249E+02 0.  0.
         13    1    3    3    0    0  0.19835588083E+03  0.95113203941E+01 -0.14790292973E+03  0.24761017204E+03  0.00000000000E+00 0. -1.
        -13    1    3    3    0    0  0.77296184391E+03  0.26087528583E+02 -0.36526587277E+03  0.85531849570E+03  0.00000000000E+00 0.  1.
         22    1    1    2    0    0 -0.97131772473E+03 -0.35598848977E+02  0.50428291726E+03  0.10950007585E+04  0.00000000000E+00 0.  1.
<mgrwt>
<rscale>  0 0.21979115E+04</rscale>
<asrwt>0</asrwt>
<pdfrwt beam="1">  1        2 0.16975502E+00 0.21979115E+04</pdfrwt>
<pdfrwt beam="2">  1       -2 0.16838796E+00 0.21979115E+04</pdfrwt>
<totfact> 0.43376695E+00</totfact>
</mgrwt>
</event>
<event>
 6    1  0.3017327E-006  0.2923467E+04  0.7818608E-02  0.8265929E-01
         -2   -1    0    0    0  501 -0.00000000000E+00  0.00000000000E+00  0.16447816104E+04  0.16447816104E+04  0.00000000000E+00 0.  1.
          2   -1    0    0  501    0  0.00000000000E+00 -0.00000000000E+00 -0.12990569184E+04  0.12990569184E+04  0.00000000000E+00 0. -1.
         23    2    1    2    0    0 -0.38710286355E+03 -0.13847902516E+04 -0.83024469912E+02  0.14433990893E+04  0.94948409879E+02 0.  0.
         11    1    3    3    0    0 -0.10916985447E+03 -0.55443198033E+03 -0.18339005257E+02  0.56537527099E+03  0.00000000000E+00 0. -1.
        -11    1    3    3    0    0 -0.27793300908E+03 -0.83035827128E+03 -0.64685464654E+02  0.87802381833E+03  0.00000000000E+00 0.  1.
         22    1    1    2    0    0  0.38710286355E+03  0.13847902516E+04  0.42874916191E+03  0.15004394395E+04  0.00000000000E+00 0. -1.
<mgrwt>
<rscale>  0 0.29234671E+04</rscale>
<asrwt>0</asrwt>
<pdfrwt beam="1">  1        2 0.19985491E+00 0.29234671E+04</pdfrwt>
<pdfrwt beam="2">  1       -2 0.25304333E+00 0.29234671E+04</pdfrwt>
<totfact> 0.87761730E-01</totfact>
</mgrwt>
</event>
<event>
 6    1  0.3017327E-006  0.7965283E+03  0.7818608E-02  0.9565056E-01
          2   -1    0    0  501    0  0.00000000000E+00  0.00000000000E+00  0.17467628756E+04  0.17467628756E+04  0.00000000000E+00 0. -1.
         -2   -1    0    0    0  501 -0.00000000000E+00 -0.00000000000E+00 -0.90804736836E+02  0.90804736836E+02  0.00000000000E+00 0.  1.
         23    2    1    2    0    0  0.18086082783E+03 -0.34680328613E+03  0.74847586511E+03  0.84938380599E+03  0.90849165773E+02 0.  0.
         11    1    3    3    0    0  0.15556576042E+03 -0.22377568111E+03  0.45865754779E+03  0.53351945365E+03  0.00000000000E+00 0.  1.
        -11    1    3    3    0    0  0.25295067404E+02 -0.12302760502E+03  0.28981831731E+03  0.31586435234E+03  0.00000000000E+00 0. -1.
         22    1    1    2    0    0 -0.18086082783E+03  0.34680328613E+03  0.90748227365E+03  0.98818380644E+03  0.00000000000E+00 0. -1.
<mgrwt>
<rscale>  0 0.79652833E+03</rscale>
<asrwt>0</asrwt>
<pdfrwt beam="1">  1        2 0.26873273E+00 0.79652833E+03</pdfrwt>
<pdfrwt beam="2">  1       -2 0.13969961E-01 0.79652833E+03</pdfrwt>
<totfact> 0.37013944E+02</totfact>
</mgrwt>
</event>
<event>
 6    1  0.3017327E-006  0.9765603E+03  0.7818608E-02  0.9334633E-01
         -2   -1    0    0    0  501 -0.00000000000E+00  0.00000000000E+00  0.10549396817E+03  0.10549396817E+03  0.00000000000E+00 0.  1.
          2   -1    0    0  501    0  0.00000000000E+00 -0.00000000000E+00 -0.22600107761E+04  0.22600107761E+04  0.00000000000E+00 0. -1.
         23    2    1    2    0    0  0.26639708155E+03 -0.34127628065E+03 -0.55979169966E+03  0.71305653760E+03  0.87441260361E+02 0.  0.
         13    1    3    3    0    0  0.21567081642E+03 -0.30046215614E+03 -0.42522516241E+03  0.56356707415E+03  0.00000000000E+00 0.  1.
        -13    1    3    3    0    0  0.50726265133E+02 -0.40814124518E+02 -0.13456653725E+03  0.14948946345E+03  0.00000000000E+00 0. -1.
         22    1    1    2    0    0 -0.26639708155E+03  0.34127628065E+03 -0.15947251082E+04  0.16524482066E+04  0.00000000000E+00 0. -1.
<mgrwt>
<rscale>  0 0.97656030E+03</rscale>
<asrwt>0</asrwt>
<pdfrwt beam="1">  1        2 0.34769397E+00 0.97656030E+03</pdfrwt>
<pdfrwt beam="2">  1       -2 0.16229841E-01 0.97656030E+03</pdfrwt>
<totfact> 0.14785857E+02</totfact>
</mgrwt>
</event>
<event>
 6    1  0.3017327E-006  0.3132117E+04  0.7818608E-02  0.8206978E-01
         -2   -1    0    0    0  501 -0.00000000000E+00  0.00000000000E+00  0.10989995358E+04  0.10989995358E+04  0.00000000000E+00 0.  1.
          2   -1    0    0  501    0  0.00000000000E+00 -0.00000000000E+00 -0.22316112574E+04  0.22316112574E+04  0.00000000000E+00 0. -1.
         23    2    1    2    0    0  0.48957336286E+03  0.10359177037E+04 -0.16999924979E+04  0.20520457727E+04  0.90054394312E+02 0.  0.
         11    1    3    3    0    0  0.38042311918E+03  0.72162540552E+03 -0.12426820253E+04  0.14865139056E+04  0.00000000000E+00 0.  1.
        -11    1    3    3    0    0  0.10915024368E+03  0.31429229814E+03 -0.45731047267E+03  0.56553186717E+03  0.00000000000E+00 0. -1.
         22    1    1    2    0    0 -0.48957336286E+03 -0.10359177037E+04  0.56738077627E+03  0.12785650205E+04  0.00000000000E+00 0.  1.
<mgrwt>
<rscale>  0 0.31321173E+04</rscale>
<asrwt>0</asrwt>
<pdfrwt beam="1">  1        2 0.34332481E+00 0.31321173E+04</pdfrwt>
<pdfrwt beam="2">  1       -2 0.16907685E+00 0.31321173E+04</pdfrwt>
<totfact> 0.90813261E-01</totfact>
</mgrwt>
</event>
<event>
 6    1  0.3017327E-006  0.1580893E+04  0.7818608E-02  0.8832373E-01
         -2   -1    0    0    0  501 -0.00000000000E+00  0.00000000000E+00  0.36209767636E+03  0.36209767636E+03  0.00000000000E+00 0.  1.
          2   -1    0    0  501    0  0.00000000000E+00 -0.00000000000E+00 -0.17255164543E+04  0.17255164543E+04  0.00000000000E+00 0. -1.
         23    2    1    2    0    0 -0.57995531994E+03 -0.48804112106E+03 -0.40173927248E+03  0.86313065579E+03  0.95224875661E+02 0.  0.
         13    1    3    3    0    0 -0.28302789605E+03 -0.17686945585E+03 -0.18174949804E+03  0.38002693903E+03  0.00000000000E+00 0. -1.
        -13    1    3    3    0    0 -0.29692742389E+03 -0.31117166521E+03 -0.21998977445E+03  0.48310371676E+03  0.00000000000E+00 0.  1.
         22    1    1    2    0    0  0.57995531994E+03  0.48804112106E+03 -0.96167950543E+03  0.12244834748E+04  0.00000000000E+00 0. -1.
<mgrwt>
<rscale>  0 0.15808928E+04</rscale>
<asrwt>0</asrwt>
<pdfrwt beam="1">  1        2 0.26546407E+00 0.15808928E+04</pdfrwt>
<pdfrwt beam="2">  1       -2 0.55707335E-01 0.15808928E+04</pdfrwt>
<totfact> 0.27590309E+01</totfact>
</mgrwt>
</event>
<event>
 6    1  0.4799180E-006  0.4523571E+04  0.7818608E-02  0.7906523E-01
         -2   -1    0    0    0  501 -0.00000000000E+00  0.00000000000E+00  0.29024504454E+04  0.29024504454E+04  0.00000000000E+00 0.  1.
          2   -1    0    0  501    0  0.00000000000E+00 -0.00000000000E+00 -0.17625359729E+04  0.17625359729E+04  0.00000000000E+00 0. -1.
         23    2    1    2    0    0 -0.26327358806E+03  0.21827047046E+04  0.11138494077E+04  0.24663067696E+04  0.92172496209E+02 0.  0.
         13    1    3    3    0    0 -0.19333949227E+03  0.13843511142E+04  0.74792249302E+03  0.15853063496E+04  0.00000000000E+00 0.  1.
        -13    1    3    3    0    0 -0.69934095794E+02  0.79835359044E+03  0.36592691463E+03  0.88100041997E+03  0.00000000000E+00 0. -1.
         22    1    1    2    0    0  0.26327358806E+03 -0.21827047046E+04  0.26065064848E+02  0.21986796487E+04  0.00000000000E+00 0. -1.
<mgrwt>
<rscale>  0 0.45235709E+04</rscale>
<asrwt>0</asrwt>
<pdfrwt beam="1">  1        2 0.27115938E+00 0.45235709E+04</pdfrwt>
<pdfrwt beam="2">  1       -2 0.44653084E+00 0.45235709E+04</pdfrwt>
<totfact> 0.25082080E-02</totfact>
</mgrwt>
</event>
<event>
 6    1  0.3017327E-006  0.5929855E+04  0.7818608E-02  0.7699160E-01
         -2   -1    0    0    0  501 -0.00000000000E+00  0.00000000000E+00  0.35960055634E+04  0.35960055634E+04  0.00000000000E+00 0. -1.
          2   -1    0    0  501    0  0.00000000000E+00 -0.00000000000E+00 -0.24446001940E+04  0.24446001940E+04  0.00000000000E+00 0.  1.
         23    2    1    2    0    0  0.12981102012E+04 -0.54469454960E+02  0.32898712643E+04  0.35383880612E+04  0.94234390924E+02 0.  0.
         13    1    3    3    0    0  0.10768784283E+04 -0.80487580730E+02  0.27357935711E+04  0.29412092519E+04  0.00000000000E+00 0. -1.
        -13    1    3    3    0    0  0.22123177285E+03  0.26018125770E+02  0.55407769316E+03  0.59717880927E+03  0.00000000000E+00 0.  1.
         22    1    1    2    0    0 -0.12981102012E+04  0.54469454960E+02 -0.21384658948E+04  0.25022176962E+04  0.00000000000E+00 0.  1.
<mgrwt>
<rscale>  0 0.59298553E+04</rscale>
<asrwt>0</asrwt>
<pdfrwt beam="1">  1        2 0.37609233E+00 0.59298553E+04</pdfrwt>
<pdfrwt beam="2">  1       -2 0.55323163E+00 0.59298553E+04</pdfrwt>
<totfact> 0.21222157E-03</totfact>
</mgrwt>
</event>
<event>
 6    1  0.3017327E-006  0.9223321E+03  0.7818608E-02  0.9398088E-01
          2   -1    0    0  501    0  0.00000000000E+00  0.00000000000E+00  0.12122129032E+04  0.12122129032E+04  0.00000000000E+00 0. -1.
         -2   -1    0    0    0  501 -0.00000000000E+00 -0.00000000000E+00 -0.17544286653E+03  0.17544286653E+03  0.00000000000E+00 0.  1.
         23    2    1    2    0    0 -0.77528286554E+02  0.43997660584E+03  0.66707660328E+03  0.80777364067E+03  0.88977587182E+02 0.  0.
         11    1    3    3    0    0  0.26083348544E+01  0.23565994368E+03  0.36198062672E+03  0.43194025812E+03  0.00000000000E+00 0. -1.
        -11    1    3    3    0    0 -0.80136621408E+02  0.20431666216E+03  0.30509597656E+03  0.37583338255E+03  0.00000000000E+00 0.  1.
         22    1    1    2    0    0  0.77528286554E+02 -0.43997660584E+03  0.36969343340E+03  0.57988212906E+03  0.00000000000E+00 0.  1.
<mgrwt>
<rscale>  0 0.92233206E+03</rscale>
<asrwt>0</asrwt>
<pdfrwt beam="1">  1        2 0.18649429E+00 0.92233206E+03</pdfrwt>
<pdfrwt beam="2">  1       -2 0.26991211E-01 0.92233206E+03</pdfrwt>
<totfact> 0.23236179E+02</totfact>
</mgrwt>
</event>
<event>
 6    1  0.3017327E-006  0.2615001E+04  0.7818608E-02  0.8363123E-01
         -1   -1    0    0    0  501 -0.00000000000E+00  0.00000000000E+00  0.11977636331E+04  0.11977636331E+04  0.00000000000E+00 0.  1.
          1   -1    0    0  501    0  0.00000000000E+00 -0.00000000000E+00 -0.14272915853E+04  0.14272915853E+04  0.00000000000E+00 0. -1.
         23    2    1    2    0    0  0.75045257483E+03  0.22213112266E+03  0.93456679025E+03  0.12223300593E+04  0.90301636622E+02 0.  0.
         13    1    3    3    0    0  0.14244546456E+03  0.93855291927E+01  0.19304091864E+03  0.24009080533E+03  0.00000000000E+00 0. -1.
        -13    1    3    3    0    0  0.60800711027E+03  0.21274559347E+03  0.74152587161E+03  0.98223925392E+03  0.00000000000E+00 0.  1.
         22    1    1    2    0    0 -0.75045257483E+03 -0.22213112266E+03 -0.11640947424E+04  0.14027251591E+04  0.00000000000E+00 0. -1.
<mgrwt>
<rscale>  0 0.26150013E+04</rscale>
<asrwt>0</asrwt>
<pdfrwt beam="1">  1        1 0.21958332E+00 0.26150013E+04</pdfrwt>
<pdfrwt beam="2">  1       -1 0.18427133E+00 0.26150013E+04</pdfrwt>
<totfact> 0.12543488E+00</totfact>
</mgrwt>
</event>
<event>
 6    1  0.3017327E-006  0.1823099E+04  0.7818608E-02  0.8694111E-01
          2   -1    0    0  501    0  0.00000000000E+00  0.00000000000E+00  0.24708153050E+04  0.24708153050E+04  0.00000000000E+00 0. -1.
         -2   -1    0    0    0  501 -0.00000000000E+00 -0.00000000000E+00 -0.33629491477E+03  0.33629491477E+03  0.00000000000E+00 0.  1.
         23    2    1    2    0    0  0.33921953868E+03 -0.68727606364E+03  0.31629314864E+03  0.83394814201E+03  0.89497846962E+02 0.  0.
         11    1    3    3    0    0  0.18956994176E+03 -0.29208562836E+03  0.16243271429E+03  0.38423321536E+03  0.00000000000E+00 0.  1.
        -11    1    3    3    0    0  0.14964959693E+03 -0.39519043528E+03  0.15386043434E+03  0.44971492665E+03  0.00000000000E+00 0. -1.
         22    1    1    2    0    0 -0.33921953868E+03  0.68727606364E+03  0.18182272416E+04  0.19731620778E+04  0.00000000000E+00 0.  1.
<mgrwt>
<rscale>  0 0.18230991E+04</rscale>
<asrwt>0</asrwt>
<pdfrwt beam="1">  1        2 0.38012542E+00 0.18230991E+04</pdfrwt>
<pdfrwt beam="2">  1       -2 0.51737681E-01 0.18230991E+04</pdfrwt>
<totfact> 0.12045173E+01</totfact>
</mgrwt>
</event>
<event>
 6    1  0.3017327E-006  0.5216019E+04  0.7818608E-02  0.7796022E-01
         -2   -1    0    0    0  501 -0.00000000000E+00  0.00000000000E+00  0.26504647259E+04  0.26504647259E+04  0.00000000000E+00 0.  1.
          2   -1    0    0  501    0  0.00000000000E+00 -0.00000000000E+00 -0.25662341151E+04  0.25662341151E+04  0.00000000000E+00 0. -1.
         23    2    1    2    0    0 -0.72868825900E+03  0.10483249564E+04 -0.22314080313E+04  0.25724306787E+04  0.90807498056E+02 0.  0.
         13    1    3    3    0    0 -0.26091847194E+03  0.37061230326E+03 -0.88097453415E+03  0.99073107257E+03  0.00000000000E+00 0. -1.
        -13    1    3    3    0    0 -0.46776978705E+03  0.67771265316E+03 -0.13504334971E+04  0.15816996062E+04  0.00000000000E+00 0.  1.
         22    1    1    2    0    0  0.72868825900E+03 -0.10483249564E+04  0.23156386421E+04  0.26442681622E+04  0.00000000000E+00 0.  1.
<mgrwt>
<rscale>  0 0.52160188E+04</rscale>
<asrwt>0</asrwt>
<pdfrwt beam="1">  1        2 0.39480525E+00 0.52160188E+04</pdfrwt>
<pdfrwt beam="2">  1       -2 0.40776380E+00 0.52160188E+04</pdfrwt>
<totfact> 0.15065142E-02</totfact>
</mgrwt>
</event>
<event>
 6    1  0.3017327E-006  0.1659128E+04  0.7818608E-02  0.8785025E-01
          2   -1    0    0  501    0  0.00000000000E+00  0.00000000000E+00  0.15110532576E+04  0.15110532576E+04  0.00000000000E+00 0. -1.
         -2   -1    0    0    0  501 -0.00000000000E+00 -0.00000000000E+00 -0.45542810803E+03  0.45542810803E+03  0.00000000000E+00 0.  1.
         23    2    1    2    0    0  0.28833429236E+03  0.21388435353E+03 -0.35374312772E+03  0.51210791913E+03  0.90758688800E+02 0.  0.
         11    1    3    3    0    0  0.21365434371E+03  0.11111216295E+03 -0.25877382146E+03  0.35349396320E+03  0.00000000000E+00 0.  1.
        -11    1    3    3    0    0  0.74679948646E+02  0.10277219057E+03 -0.94969306256E+02  0.15861395593E+03  0.00000000000E+00 0. -1.
         22    1    1    2    0    0 -0.28833429236E+03 -0.21388435353E+03  0.14093682773E+04  0.14543734465E+04  0.00000000000E+00 0. -1.
<mgrwt>
<rscale>  0 0.16591276E+04</rscale>
<asrwt>0</asrwt>
<pdfrwt beam="1">  1        2 0.23246973E+00 0.16591276E+04</pdfrwt>
<pdfrwt beam="2">  1       -2 0.70065863E-01 0.16591276E+04</pdfrwt>
<totfact> 0.22156366E+01</totfact>
</mgrwt>
</event>
<event>
 6    1  0.3017327E-006  0.1661564E+04  0.7818608E-02  0.8783595E-01
         -2   -1    0    0    0  501 -0.00000000000E+00  0.00000000000E+00  0.30230721457E+03  0.30230721457E+03  0.00000000000E+00 0.  1.
          2   -1    0    0  501    0  0.00000000000E+00 -0.00000000000E+00 -0.22831037305E+04  0.22831037305E+04  0.00000000000E+00 0. -1.
         23    2    1    2    0    0 -0.42227154744E+03  0.11425362366E+03  0.10126679074E+03  0.45788779284E+03  0.89661126632E+02 0.  0.
         13    1    3    3    0    0 -0.25545997241E+03  0.96095546300E+02  0.98194866306E+02  0.29006272303E+03  0.00000000000E+00 0. -1.
        -13    1    3    3    0    0 -0.16681157503E+03  0.18158077360E+02  0.30719244354E+01  0.16782506981E+03  0.00000000000E+00 0.  1.
         22    1    1    2    0    0  0.42227154744E+03 -0.11425362366E+03 -0.20820633066E+04  0.21275231522E+04  0.00000000000E+00 0. -1.
<mgrwt>
<rscale>  0 0.16615640E+04</rscale>
<asrwt>0</asrwt>
<pdfrwt beam="1">  1        2 0.35124671E+00 0.16615640E+04</pdfrwt>
<pdfrwt beam="2">  1       -2 0.46508804E-01 0.16615640E+04</pdfrwt>
<totfact> 0.19404804E+01</totfact>
</mgrwt>
</event>
<event>
 6    1  0.3017327E-006  0.3527893E+04  0.7818608E-02  0.8107211E-01
         -2   -1    0    0    0  501 -0.00000000000E+00  0.00000000000E+00  0.86788818880E+03  0.86788818880E+03  0.00000000000E+00 0.  1.
          2   -1    0    0  501    0  0.00000000000E+00 -0.00000000000E+00 -0.35851467332E+04  0.35851467332E+04  0.00000000000E+00 0. -1.
         23    2    1    2    0    0 -0.79759239285E+02 -0.11611248501E+04 -0.30309102115E+04  0.32476512395E+04  0.79053204607E+02 0.  0.
         11    1    3    3    0    0 -0.81910927382E+02 -0.73633137655E+03 -0.18653888633E+04  0.20071295193E+04  0.00000000000E+00 0. -1.
        -11    1    3    3    0    0  0.21516880962E+01 -0.42479347350E+03 -0.11655213482E+04  0.12405217201E+04  0.00000000000E+00 0.  1.
         22    1    1    2    0    0  0.79759239285E+02  0.11611248501E+04  0.31365166718E+03  0.12053836825E+04  0.00000000000E+00 0.  1.
<mgrwt>
<rscale>  0 0.35278926E+04</rscale>
<asrwt>0</asrwt>
<pdfrwt beam="1">  1        2 0.55156103E+00 0.35278926E+04</pdfrwt>
<pdfrwt beam="2">  1       -2 0.13352126E+00 0.35278926E+04</pdfrwt>
<totfact> 0.23495619E-01</totfact>
</mgrwt>
</event>
<event>
 6    1  0.3017327E-006  0.3320042E+04  0.7818608E-02  0.8157814E-01
         -2   -1    0    0    0  501 -0.00000000000E+00  0.00000000000E+00  0.16102311597E+04  0.16102311597E+04  0.00000000000E+00 0.  1.
          2   -1    0    0  501    0  0.00000000000E+00 -0.00000000000E+00 -0.17113501694E+04  0.17113501694E+04  0.00000000000E+00 0. -1.
         23    2    1    2    0    0 -0.58420138717E+03  0.15492223233E+04  0.50050313670E+02  0.16589829915E+04  0.91315192679E+02 0.  0.
         13    1    3    3    0    0 -0.29275696673E+03  0.79825072490E+03 -0.19303913260E+02  0.85046075890E+03  0.00000000000E+00 0. -1.
        -13    1    3    3    0    0 -0.29144442044E+03  0.75097159837E+03  0.69354226931E+02  0.80852223257E+03  0.00000000000E+00 0.  1.
         22    1    1    2    0    0  0.58420138717E+03 -0.15492223233E+04 -0.15116932337E+03  0.16625983375E+04  0.00000000000E+00 0.  1.
<mgrwt>
<rscale>  0 0.33200418E+04</rscale>
<asrwt>0</asrwt>
<pdfrwt beam="1">  1        2 0.26328464E+00 0.33200418E+04</pdfrwt>
<pdfrwt beam="2">  1       -2 0.24772787E+00 0.33200418E+04</pdfrwt>
<totfact> 0.53489839E-01</totfact>
</mgrwt>
</event>
<event>
 6    1  0.3017327E-006  0.1288572E+04  0.7818608E-02  0.9038677E-01
          2   -1    0    0  501    0  0.00000000000E+00  0.00000000000E+00  0.50389247353E+03  0.50389247353E+03  0.00000000000E+00 0. -1.
         -2   -1    0    0    0  501 -0.00000000000E+00 -0.00000000000E+00 -0.82379506414E+03  0.82379506414E+03  0.00000000000E+00 0.  1.
         23    2    1    2    0    0 -0.21348951163E+03  0.48741910049E+03  0.20647755628E+03  0.57920159248E+03  0.98419268405E+02 0.  0.
         11    1    3    3    0    0 -0.17939411424E+03  0.30308670041E+03  0.15504177912E+03  0.38481391537E+03  0.00000000000E+00 0.  1.
        -11    1    3    3    0    0 -0.34095397388E+02  0.18433240008E+03  0.51435777154E+02  0.19438767711E+03  0.00000000000E+00 0. -1.
         22    1    1    2    0    0  0.21348951163E+03 -0.48741910049E+03 -0.52638014689E+03  0.74848594518E+03  0.00000000000E+00 0.  1.
<mgrwt>
<rscale>  0 0.12885715E+04</rscale>
<asrwt>0</asrwt>
<pdfrwt beam="1">  1        2 0.77521920E-01 0.12885715E+04</pdfrwt>
<pdfrwt beam="2">  1       -2 0.12673770E+00 0.12885715E+04</pdfrwt>
<totfact> 0.27710582E+01</totfact>
</mgrwt>
</event>
<event>
 6    1  0.3017327E-006  0.1917972E+04  0.7818608E-02  0.8645962E-01
         -2   -1    0    0    0  501 -0.00000000000E+00  0.00000000000E+00  0.60344381619E+03  0.60344381619E+03  0.00000000000E+00 0.  1.
          2   -1    0    0  501    0  0.00000000000E+00 -0.00000000000E+00 -0.15240090988E+04  0.15240090988E+04  0.00000000000E+00 0. -1.
         23    2    1    2    0    0  0.72778553652E+03  0.43838690149E+03  0.26763166149E+02  0.85494120488E+03  0.91396576344E+02 0.  0.
         11    1    3    3    0    0  0.24490381015E+03  0.17715155004E+03  0.45175877029E+02  0.30561643898E+03  0.00000000000E+00 0. -1.
        -11    1    3    3    0    0  0.48288172637E+03  0.26123535145E+03 -0.18412710880E+02  0.54932476590E+03  0.00000000000E+00 0.  1.
         22    1    1    2    0    0 -0.72778553652E+03 -0.43838690149E+03 -0.94732844877E+03  0.12725117101E+04  0.00000000000E+00 0. -1.
<mgrwt>
<rscale>  0 0.19179717E+04</rscale>
<asrwt>0</asrwt>
<pdfrwt beam="1">  1        2 0.23446294E+00 0.19179717E+04</pdfrwt>
<pdfrwt beam="2">  1       -2 0.92837511E-01 0.19179717E+04</pdfrwt>
<totfact> 0.11316856E+01</totfact>
</mgrwt>
</event>
<event>
 6    1  0.3017327E-006  0.6697193E+03  0.7818608E-02  0.9770465E-01
          2   -1    0    0  501    0  0.00000000000E+00  0.00000000000E+00  0.47512075189E+03  0.47512075189E+03  0.00000000000E+00 0.  1.
         -2   -1    0    0    0  501 -0.00000000000E+00 -0.00000000000E+00 -0.23600523538E+03  0.23600523538E+03  0.00000000000E+00 0. -1.
         23    2    1    2    0    0  0.29762218433E+03 -0.13268219084E+03  0.16679391272E+03  0.37733871557E+03  0.91546537744E+02 0.  0.
         11    1    3    3    0    0  0.22953564123E+03 -0.85126017565E+02  0.16317536697E+03  0.29420953392E+03  0.00000000000E+00 0.  1.
        -11    1    3    3    0    0  0.68086543098E+02 -0.47556173278E+02  0.36185457440E+01  0.83129181647E+02  0.00000000000E+00 0. -1.
         22    1    1    2    0    0 -0.29762218433E+03  0.13268219084E+03  0.72321603789E+02  0.33378727170E+03  0.00000000000E+00 0.  1.
<mgrwt>
<rscale>  0 0.66971930E+03</rscale>
<asrwt>0</asrwt>
<pdfrwt beam="1">  1        2 0.73095500E-01 0.66971930E+03</pdfrwt>
<pdfrwt beam="2">  1       -2 0.36308498E-01 0.66971930E+03</pdfrwt>
<totfact> 0.46991708E+02</totfact>
</mgrwt>
</event>
<event>
 6    1  0.3017327E-006  0.3167164E+04  0.7818608E-02  0.8197543E-01
          2   -1    0    0  501    0  0.00000000000E+00  0.00000000000E+00  0.24478425524E+04  0.24478425524E+04  0.00000000000E+00 0.  1.
         -2   -1    0    0    0  501 -0.00000000000E+00 -0.00000000000E+00 -0.10244662603E+04  0.10244662603E+04  0.00000000000E+00 0. -1.
         23    2    1    2    0    0  0.93763058108E+02 -0.91534588140E+03  0.21234973189E+04  0.23160999018E+04  0.91805763477E+02 0.  0.
         13    1    3    3    0    0 -0.17586044417E+02 -0.19639161382E+03  0.45416063920E+03  0.49511697722E+03  0.00000000000E+00 0.  1.
        -13    1    3    3    0    0  0.11134910252E+03 -0.71895426759E+03  0.16693366797E+04  0.18209829246E+04  0.00000000000E+00 0. -1.
         22    1    1    2    0    0 -0.93763058108E+02  0.91534588140E+03 -0.70012102676E+03  0.11562089110E+04  0.00000000000E+00 0. -1.
<mgrwt>
<rscale>  0 0.31671641E+04</rscale>
<asrwt>0</asrwt>
<pdfrwt beam="1">  1        2 0.37659116E+00 0.31671641E+04</pdfrwt>
<pdfrwt beam="2">  1       -2 0.15761019E+00 0.31671641E+04</pdfrwt>
<totfact> 0.82663361E-01</totfact>
</mgrwt>
</event>
<event>
 6    1  0.3017327E-006  0.3426397E+04  0.7818608E-02  0.8131458E-01
         -2   -1    0    0    0  501 -0.00000000000E+00  0.00000000000E+00  0.77538795023E+03  0.77538795023E+03  0.00000000000E+00 0.  1.
          2   -1    0    0  501    0  0.00000000000E+00 -0.00000000000E+00 -0.37852643539E+04  0.37852643539E+04  0.00000000000E+00 0. -1.
         23    2    1    2    0    0 -0.94804227789E+03  0.22116921558E+03  0.36845541561E+03  0.10448556855E+04  0.90906697208E+02 0.  0.
         13    1    3    3    0    0 -0.96979878157E+02  0.14317589985E+02  0.66363256093E+02  0.11838146776E+03  0.00000000000E+00 0.  1.
        -13    1    3    3    0    0 -0.85106239973E+03  0.20685162560E+03  0.30209215951E+03  0.92647421771E+03  0.00000000000E+00 0. -1.
         22    1    1    2    0    0  0.94804227789E+03 -0.22116921558E+03 -0.33783318193E+04  0.35157966186E+04  0.00000000000E+00 0. -1.
<mgrwt>
<rscale>  0 0.34263966E+04</rscale>
<asrwt>0</asrwt>
<pdfrwt beam="1">  1        2 0.58234835E+00 0.34263966E+04</pdfrwt>
<pdfrwt beam="2">  1       -2 0.11929046E+00 0.34263966E+04</pdfrwt>
<totfact> 0.22403387E-01</totfact>
</mgrwt>
</event>
<event>
 6    1  0.3017327E-006  0.3758657E+04  0.7818608E-02  0.8055086E-01
         -4   -1    0    0    0  501 -0.00000000000E+00  0.00000000000E+00  0.10545794199E+04  0.10545794199E+04  0.00000000000E+00 0.  1.
          4   -1    0    0  501    0  0.00000000000E+00 -0.00000000000E+00 -0.33490847559E+04  0.33490847559E+04  0.00000000000E+00 0. -1.
         23    2    1    2    0    0  0.41711802732E+03 -0.15580818125E+04 -0.20408503979E+02  0.16156321128E+04  0.90797762250E+02 0.  0.
         13    1    3    3    0    0  0.18497222082E+03 -0.67463556455E+03  0.35949595762E+02  0.70045716562E+03  0.00000000000E+00 0. -1.
        -13    1    3    3    0    0  0.23214580649E+03 -0.88344624796E+03 -0.56358099741E+02  0.91517494717E+03  0.00000000000E+00 0.  1.
         22    1    1    2    0    0 -0.41711802732E+03  0.15580818125E+04 -0.22740968320E+04  0.27880320630E+04  0.00000000000E+00 0. -1.
<mgrwt>
<rscale>  0 0.37586571E+04</rscale>
<asrwt>0</asrwt>
<pdfrwt beam="1">  1        4 0.51524380E+00 0.37586571E+04</pdfrwt>
<pdfrwt beam="2">  1       -4 0.16224299E+00 0.37586571E+04</pdfrwt>
<totfact> 0.34472982E-04</totfact>
</mgrwt>
</event>
<event>
 6    1  0.3017327E-006  0.3219561E+04  0.7818608E-02  0.8183670E-01
          2   -1    0    0  501    0  0.00000000000E+00  0.00000000000E+00  0.20075258597E+04  0.20075258597E+04  0.00000000000E+00 0. -1.
         -2   -1    0    0    0  501 -0.00000000000E+00 -0.00000000000E+00 -0.12908390010E+04  0.12908390010E+04  0.00000000000E+00 0.  1.
         23    2    1    2    0    0  0.77095111995E+03  0.10431258327E+04  0.13330222294E+04  0.18622776693E+04  0.93020005926E+02 0.  0.
         11    1    3    3    0    0  0.57667414229E+03  0.75105091892E+03  0.10251073147E+04  0.13955198156E+04  0.00000000000E+00 0.  1.
        -11    1    3    3    0    0  0.19427697766E+03  0.29207491375E+03  0.30791491467E+03  0.46675785368E+03  0.00000000000E+00 0. -1.
         22    1    1    2    0    0 -0.77095111995E+03 -0.10431258327E+04 -0.61633537071E+03  0.14360871914E+04  0.00000000000E+00 0.  1.
<mgrwt>
<rscale>  0 0.32195606E+04</rscale>
<asrwt>0</asrwt>
<pdfrwt beam="1">  1        2 0.30885013E+00 0.32195606E+04</pdfrwt>
<pdfrwt beam="2">  1       -2 0.19859061E+00 0.32195606E+04</pdfrwt>
<totfact> 0.75591300E-01</totfact>
</mgrwt>
</event>
<event>
 6    1  0.3017327E-006  0.7863557E+04  0.7818608E-02  0.7494390E-01
         -1   -1    0    0    0  501 -0.00000000000E+00  0.00000000000E+00  0.43684409003E+04  0.43684409003E+04  0.00000000000E+00 0.  1.
          1   -1    0    0  501    0  0.00000000000E+00 -0.00000000000E+00 -0.35387645421E+04  0.35387645421E+04  0.00000000000E+00 0. -1.
         23    2    1    2    0    0  0.17825054017E+04  0.28357833119E+04 -0.16546444897E+04  0.37369725263E+04  0.90126445419E+02 0.  0.
         11    1    3    3    0    0  0.15261114705E+04  0.23934652567E+04 -0.14316557056E+04  0.31792027641E+04  0.00000000000E+00 0. -1.
        -11    1    3    3    0    0  0.25639393119E+03  0.44231805518E+03 -0.22298878408E+03  0.55776976228E+03  0.00000000000E+00 0.  1.
         22    1    1    2    0    0 -0.17825054017E+04 -0.28357833119E+04  0.24843208479E+04  0.41702329161E+04  0.00000000000E+00 0. -1.
<mgrwt>
<rscale>  0 0.78635574E+04</rscale>
<asrwt>0</asrwt>
<pdfrwt beam="1">  1        1 0.54442532E+00 0.78635574E+04</pdfrwt>
<pdfrwt beam="2">  1       -1 0.67206783E+00 0.78635574E+04</pdfrwt>
<totfact> 0.34785361E-05</totfact>
</mgrwt>
</event>
<event>
 6    1  0.3017327E-006  0.1197576E+04  0.7818608E-02  0.9114981E-01
         -2   -1    0    0    0  501 -0.00000000000E+00  0.00000000000E+00  0.48339905487E+03  0.48339905487E+03  0.00000000000E+00 0. -1.
          2   -1    0    0  501    0  0.00000000000E+00 -0.00000000000E+00 -0.74172058485E+03  0.74172058485E+03  0.00000000000E+00 0.  1.
         23    2    1    2    0    0  0.14870425959E+03 -0.41718927620E+03 -0.53701324722E+03  0.70183298572E+03  0.89590530459E+02 0.  0.
         11    1    3    3    0    0  0.80956412000E+02 -0.10712111197E+03 -0.14985493774E+03  0.20120978018E+03  0.00000000000E+00 0. -1.
        -11    1    3    3    0    0  0.67747847593E+02 -0.31006816423E+03 -0.38715830948E+03  0.50062320554E+03  0.00000000000E+00 0.  1.
         22    1    1    2    0    0 -0.14870425959E+03  0.41718927620E+03  0.27869171725E+03  0.52328665401E+03  0.00000000000E+00 0. -1.
<mgrwt>
<rscale>  0 0.11975759E+04</rscale>
<asrwt>0</asrwt>
<pdfrwt beam="1">  1        2 0.11411086E+00 0.11975759E+04</pdfrwt>
<pdfrwt beam="2">  1       -2 0.74369085E-01 0.11975759E+04</pdfrwt>
<totfact> 0.61117134E+01</totfact>
</mgrwt>
</event>
<event>
 6    1  0.3017327E-006  0.1725151E+04  0.7818608E-02  0.8747148E-01
         -2   -1    0    0    0  501 -0.00000000000E+00  0.00000000000E+00  0.40058044012E+03  0.40058044012E+03  0.00000000000E+00 0.  1.
          2   -1    0    0  501    0  0.00000000000E+00 -0.00000000000E+00 -0.18573961555E+04  0.18573961555E+04  0.00000000000E+00 0. -1.
         23    2    1    2    0    0 -0.52030410356E+02 -0.31618052642E+03  0.31446661847E+03  0.45794370839E+03  0.90254623333E+02 0.  0.
         13    1    3    3    0    0 -0.77784667748E+02 -0.22061353573E+03  0.22098557678E+03  0.32180026698E+03  0.00000000000E+00 0. -1.
        -13    1    3    3    0    0  0.25754257392E+02 -0.95566990698E+02  0.93481041687E+02  0.13614344141E+03  0.00000000000E+00 0.  1.
         22    1    1    2    0    0  0.52030410356E+02  0.31618052642E+03 -0.17712823339E+04  0.18000328872E+04  0.00000000000E+00 0. -1.
<mgrwt>
<rscale>  0 0.17251511E+04</rscale>
<asrwt>0</asrwt>
<pdfrwt beam="1">  1        2 0.28575325E+00 0.17251511E+04</pdfrwt>
<pdfrwt beam="2">  1       -2 0.61627761E-01 0.17251511E+04</pdfrwt>
<totfact> 0.18631479E+01</totfact>
</mgrwt>
</event>
<event>
 6    1  0.3017327E-006  0.1917749E+04  0.7818608E-02  0.8646072E-01
          1   -1    0    0  501    0  0.00000000000E+00  0.00000000000E+00  0.27247549842E+04  0.27247549842E+04  0.00000000000E+00 0. -1.
         -1   -1    0    0    0  501 -0.00000000000E+00 -0.00000000000E+00 -0.33743952717E+03  0.33743952717E+03  0.00000000000E+00 0.  1.
         23    2    1    2    0    0  0.82038243968E+03  0.46039157717E+03  0.14744927029E+04  0.17513805917E+04  0.90650395942E+02 0.  0.
         13    1    3    3    0    0  0.54591419301E+03  0.27086099960E+03  0.10081676348E+04  0.11780449767E+04  0.00000000000E+00 0. -1.
        -13    1    3    3    0    0  0.27446824666E+03  0.18953057756E+03  0.46632506809E+03  0.57333561496E+03  0.00000000000E+00 0.  1.
         22    1    1    2    0    0 -0.82038243968E+03 -0.46039157717E+03  0.91282275412E+03  0.13108139197E+04  0.00000000000E+00 0.  1.
<mgrwt>
<rscale>  0 0.19177487E+04</rscale>
<asrwt>0</asrwt>
<pdfrwt beam="1">  1        1 0.41919306E+00 0.19177487E+04</pdfrwt>
<pdfrwt beam="2">  1       -1 0.51913775E-01 0.19177487E+04</pdfrwt>
<totfact> 0.32937466E+00</totfact>
</mgrwt>
</event>
<event>
 6    1  0.3017327E-006  0.3416491E+04  0.7818608E-02  0.8133871E-01
          2   -1    0    0  501    0  0.00000000000E+00  0.00000000000E+00  0.26695126806E+04  0.26695126806E+04  0.00000000000E+00 0. -1.
         -2   -1    0    0    0  501 -0.00000000000E+00 -0.00000000000E+00 -0.10931219424E+04  0.10931219424E+04  0.00000000000E+00 0.  1.
         23    2    1    2    0    0 -0.90599265428E+03  0.38545595972E+02  0.23817451244E+04  0.25498262540E+04  0.81213518198E+02 0.  0.
         11    1    3    3    0    0 -0.30543296438E+03  0.44086618859E+02  0.87293851951E+03  0.92588043749E+03  0.00000000000E+00 0. -1.
        -11    1    3    3    0    0 -0.60055968990E+03 -0.55410228875E+01  0.15088066049E+04  0.16239458165E+04  0.00000000000E+00 0.  1.
         22    1    1    2    0    0  0.90599265428E+03 -0.38545595972E+02 -0.80535438615E+03  0.12128083690E+04  0.00000000000E+00 0.  1.
<mgrwt>
<rscale>  0 0.34164911E+04</rscale>
<asrwt>0</asrwt>
<pdfrwt beam="1">  1        2 0.41069426E+00 0.34164911E+04</pdfrwt>
<pdfrwt beam="2">  1       -2 0.16817261E+00 0.34164911E+04</pdfrwt>
<totfact> 0.50296398E-01</totfact>
</mgrwt>
</event>
<event>
 6    1  0.3017327E-006  0.4223953E+04  0.7818608E-02  0.7960831E-01
          1   -1    0    0  501    0  0.00000000000E+00  0.00000000000E+00  0.10731786708E+04  0.10731786708E+04  0.00000000000E+00 0. -1.
         -1   -1    0    0    0  501 -0.00000000000E+00 -0.00000000000E+00 -0.41562930306E+04  0.41562930306E+04  0.00000000000E+00 0.  1.
         23    2    1    2    0    0  0.45000720769E+02 -0.19887008801E+04 -0.66742241197E+03  0.21001708463E+04  0.91151808062E+02 0.  0.
         11    1    3    3    0    0  0.38916610894E+02 -0.15608484086E+04 -0.48412212684E+03  0.16346670887E+04  0.00000000000E+00 0. -1.
        -11    1    3    3    0    0  0.60841098743E+01 -0.42785247149E+03 -0.18330028513E+03  0.46550375754E+03  0.00000000000E+00 0.  1.
         22    1    1    2    0    0 -0.45000720769E+02  0.19887008801E+04 -0.24156919477E+04  0.31293008551E+04  0.00000000000E+00 0.  1.
<mgrwt>
<rscale>  0 0.42239531E+04</rscale>
<asrwt>0</asrwt>
<pdfrwt beam="1">  1        1 0.16510441E+00 0.42239531E+04</pdfrwt>
<pdfrwt beam="2">  1       -1 0.63942970E+00 0.42239531E+04</pdfrwt>
<totfact> 0.32473218E-03</totfact>
</mgrwt>
</event>
<event>
 6    1  0.3017327E-006  0.1435856E+04  0.7818608E-02  0.8928265E-01
          2   -1    0    0  501    0  0.00000000000E+00  0.00000000000E+00  0.24220832988E+04  0.24220832988E+04  0.00000000000E+00 0. -1.
         -2   -1    0    0    0  501 -0.00000000000E+00 -0.00000000000E+00 -0.21280051159E+03  0.21280051159E+03  0.00000000000E+00 0.  1.
         23    2    1    2    0    0  0.25763636342E+03 -0.16869174714E+03  0.22932910474E+04  0.23156804441E+04  0.91425870833E+02 0.  0.
         11    1    3    3    0    0  0.14324850903E+03 -0.48483824727E+02  0.12783327855E+04  0.12872472672E+04  0.00000000000E+00 0. -1.
        -11    1    3    3    0    0  0.11438785439E+03 -0.12020792242E+03  0.10149582619E+04  0.10284331769E+04  0.00000000000E+00 0.  1.
         22    1    1    2    0    0 -0.25763636342E+03  0.16869174714E+03 -0.84008260132E+02  0.31920336634E+03  0.00000000000E+00 0.  1.
<mgrwt>
<rscale>  0 0.14358559E+04</rscale>
<asrwt>0</asrwt>
<pdfrwt beam="1">  1        2 0.37262818E+00 0.14358559E+04</pdfrwt>
<pdfrwt beam="2">  1       -2 0.32738542E-01 0.14358559E+04</pdfrwt>
<totfact> 0.32701386E+01</totfact>
</mgrwt>
</event>
<event>
 6    1  0.3017327E-006  0.7225634E+03  0.7818608E-02  0.9679405E-01
         -1   -1    0    0    0  501 -0.00000000000E+00  0.00000000000E+00  0.62978666228E+02  0.62978666228E+02  0.00000000000E+00 0.  1.
          1   -1    0    0  501    0  0.00000000000E+00 -0.00000000000E+00 -0.20725187410E+04  0.20725187410E+04  0.00000000000E+00 0. -1.
         23    2    1    2    0    0  0.21098519157E+02  0.28049504712E+03 -0.16625329251E+04  0.16888022305E+04  0.94417306820E+02 0.  0.
         13    1    3    3    0    0 -0.84064952529E+01  0.14291355958E+03 -0.59212612609E+03  0.60918659200E+03  0.00000000000E+00 0.  1.
        -13    1    3    3    0    0  0.29505014410E+02  0.13758148755E+03 -0.10704067990E+04  0.10796156385E+04  0.00000000000E+00 0. -1.
         22    1    1    2    0    0 -0.21098519157E+02 -0.28049504712E+03 -0.34700714972E+03  0.44669517674E+03  0.00000000000E+00 0.  1.
<mgrwt>
<rscale>  0 0.72256340E+03</rscale>
<asrwt>0</asrwt>
<pdfrwt beam="1">  1        1 0.31884901E+00 0.72256340E+03</pdfrwt>
<pdfrwt beam="2">  1       -1 0.96890264E-02 0.72256340E+03</pdfrwt>
<totfact> 0.18241217E+02</totfact>
</mgrwt>
</event>
<event>
 6    1  0.3017327E-006  0.7042267E+03  0.7818608E-02  0.9710031E-01
         -2   -1    0    0    0  501 -0.00000000000E+00  0.00000000000E+00  0.24409996432E+03  0.24409996432E+03  0.00000000000E+00 0.  1.
          2   -1    0    0  501    0  0.00000000000E+00 -0.00000000000E+00 -0.50792232275E+03  0.50792232275E+03  0.00000000000E+00 0. -1.
         23    2    1    2    0    0  0.13648995941E+03  0.19987545644E+03 -0.39850170003E+03  0.47504172428E+03  0.91001800939E+02 0.  0.
         11    1    3    3    0    0  0.13506726718E+03  0.14885755699E+03 -0.26866028612E+03  0.33552956393E+03  0.00000000000E+00 0.  1.
        -11    1    3    3    0    0  0.14226922277E+01  0.51017899445E+02 -0.12984141392E+03  0.13951216035E+03  0.00000000000E+00 0. -1.
         22    1    1    2    0    0 -0.13648995941E+03 -0.19987545644E+03  0.13467934160E+03  0.27698056278E+03  0.00000000000E+00 0.  1.
<mgrwt>
<rscale>  0 0.70422673E+03</rscale>
<asrwt>0</asrwt>
<pdfrwt beam="1">  1        2 0.78141896E-01 0.70422673E+03</pdfrwt>
<pdfrwt beam="2">  1       -2 0.37553841E-01 0.70422673E+03</pdfrwt>
<totfact> 0.40742490E+02</totfact>
</mgrwt>
</event>
<event>
 6    1  0.3017327E-006  0.1680854E+04  0.7818608E-02  0.8772360E-01
         -2   -1    0    0    0  501 -0.00000000000E+00  0.00000000000E+00  0.46143452847E+03  0.46143452847E+03  0.00000000000E+00 0. -1.
          2   -1    0    0  501    0  0.00000000000E+00 -0.00000000000E+00 -0.15306995890E+04  0.15306995890E+04  0.00000000000E+00 0.  1.
         23    2    1    2    0    0 -0.42095164809E+03 -0.72405493247E+03 -0.56918848703E+03  0.10166688876E+04  0.90466889057E+02 0.  0.
         11    1    3    3    0    0 -0.18561856025E+03 -0.30838335734E+03 -0.19139765554E+03  0.40766114303E+03  0.00000000000E+00 0.  1.
        -11    1    3    3    0    0 -0.23533308785E+03 -0.41567157514E+03 -0.37779083149E+03  0.60900774459E+03  0.00000000000E+00 0. -1.
         22    1    1    2    0    0  0.42095164809E+03  0.72405493247E+03 -0.50007657351E+03  0.97546522985E+03  0.00000000000E+00 0.  1.
<mgrwt>
<rscale>  0 0.16808541E+04</rscale>
<asrwt>0</asrwt>
<pdfrwt beam="1">  1        2 0.23549225E+00 0.16808541E+04</pdfrwt>
<pdfrwt beam="2">  1       -2 0.70989927E-01 0.16808541E+04</pdfrwt>
<totfact> 0.20951891E+01</totfact>
</mgrwt>
</event>
<event>
 6    1  0.3017327E-006  0.6642286E+03  0.7818608E-02  0.9780441E-01
          2   -1    0    0  501    0  0.00000000000E+00  0.00000000000E+00  0.16644784335E+03  0.16644784335E+03  0.00000000000E+00 0. -1.
         -2   -1    0    0    0  501 -0.00000000000E+00 -0.00000000000E+00 -0.66266951094E+03  0.66266951094E+03  0.00000000000E+00 0.  1.
         23    2    1    2    0    0 -0.17948174289E+03 -0.41222127108E+02  0.80186485524E+02  0.22400635723E+03  0.99176689937E+02 0.  0.
         11    1    3    3    0    0 -0.97709287243E+02 -0.67777401707E+02  0.24041078488E+02  0.12132128606E+03  0.00000000000E+00 0.  1.
        -11    1    3    3    0    0 -0.81772455645E+02  0.26555274599E+02  0.56145407036E+02  0.10268507118E+03  0.00000000000E+00 0. -1.
         22    1    1    2    0    0  0.17948174289E+03  0.41222127108E+02 -0.57640815311E+03  0.60511099706E+03  0.00000000000E+00 0.  1.
<mgrwt>
<rscale>  0 0.66422861E+03</rscale>
<asrwt>0</asrwt>
<pdfrwt beam="1">  1        2 0.25607360E-01 0.66422861E+03</pdfrwt>
<pdfrwt beam="2">  1       -2 0.10194916E+00 0.66422861E+03</pdfrwt>
<totfact> 0.17006636E+02</totfact>
</mgrwt>
</event>
<event>
 6    1  0.3017327E-006  0.1339986E+04  0.7818608E-02  0.8998443E-01
          2   -1    0    0  501    0  0.00000000000E+00  0.00000000000E+00  0.20836225305E+04  0.20836225305E+04  0.00000000000E+00 0. -1.
         -2   -1    0    0    0  501 -0.00000000000E+00 -0.00000000000E+00 -0.21543771058E+03  0.21543771058E+03  0.00000000000E+00 0.  1.
         23    2    1    2    0    0  0.30326624072E+03 -0.29375872692E+03  0.18241360444E+04  0.18745547676E+04  0.90656858883E+02 0.  0.
         13    1    3    3    0    0  0.20841424105E+03 -0.25383465522E+03  0.13497028914E+04  0.13890883424E+04  0.00000000000E+00 0.  1.
        -13    1    3    3    0    0  0.94851999668E+02 -0.39924071700E+02  0.47443315295E+03  0.48546642516E+03  0.00000000000E+00 0. -1.
         22    1    1    2    0    0 -0.30326624072E+03  0.29375872692E+03  0.44048775606E+02  0.42450547351E+03  0.00000000000E+00 0.  1.
<mgrwt>
<rscale>  0 0.13399864E+04</rscale>
<asrwt>0</asrwt>
<pdfrwt beam="1">  1        2 0.32055730E+00 0.13399864E+04</pdfrwt>
<pdfrwt beam="2">  1       -2 0.33144265E-01 0.13399864E+04</pdfrwt>
<totfact> 0.49915241E+01</totfact>
</mgrwt>
</event>
<event>
 6    1  0.3017327E-006  0.3474779E+04  0.7818608E-02  0.8119793E-01
         -2   -1    0    0    0  501 -0.00000000000E+00  0.00000000000E+00  0.15469066710E+04  0.15469066710E+04  0.00000000000E+00 0.  1.
          2   -1    0    0  501    0  0.00000000000E+00 -0.00000000000E+00 -0.19513281787E+04  0.19513281787E+04  0.00000000000E+00 0. -1.
         23    2    1    2    0    0  0.88559958794E+03 -0.31343006651E+03 -0.16722536536E+04  0.19202857418E+04  0.92412181138E+02 0.  0.
         13    1    3    3    0    0  0.34674006177E+03 -0.17055063057E+03 -0.67330252162E+03  0.77630694551E+03  0.00000000000E+00 0. -1.
        -13    1    3    3    0    0  0.53885952616E+03 -0.14287943594E+03 -0.99895113200E+03  0.11439787963E+04  0.00000000000E+00 0.  1.
         22    1    1    2    0    0 -0.88559958794E+03  0.31343006651E+03  0.12678321460E+04  0.15779491079E+04  0.00000000000E+00 0.  1.
<mgrwt>
<rscale>  0 0.34747792E+04</rscale>
<asrwt>0</asrwt>
<pdfrwt beam="1">  1        2 0.30020433E+00 0.34747792E+04</pdfrwt>
<pdfrwt beam="2">  1       -2 0.23798564E+00 0.34747792E+04</pdfrwt>
<totfact> 0.44641151E-01</totfact>
</mgrwt>
</event>
<event>
 6    1  0.3017327E-006  0.1939225E+04  0.7818608E-02  0.8635574E-01
          2   -1    0    0  501    0  0.00000000000E+00  0.00000000000E+00  0.81310529977E+03  0.81310529977E+03  0.00000000000E+00 0. -1.
         -2   -1    0    0    0  501 -0.00000000000E+00 -0.00000000000E+00 -0.11562443181E+04  0.11562443181E+04  0.00000000000E+00 0.  1.
         23    2    1    2    0    0 -0.65016213616E+03 -0.53124148864E+03  0.31387310445E+03  0.90323834226E+03  0.11133218177E+03 0.  0.
         13    1    3    3    0    0 -0.26895136122E+03 -0.18898782112E+03  0.71074285335E+02  0.33630757539E+03  0.00000000000E+00 0.  1.
        -13    1    3    3    0    0 -0.38121077494E+03 -0.34225366752E+03  0.24279881912E+03  0.56693076687E+03  0.00000000000E+00 0. -1.
         22    1    1    2    0    0  0.65016213616E+03  0.53124148864E+03 -0.65701212283E+03  0.10661112757E+04  0.00000000000E+00 0.  1.
<mgrwt>
<rscale>  0 0.19392250E+04</rscale>
<asrwt>0</asrwt>
<pdfrwt beam="1">  1        2 0.12509312E+00 0.19392250E+04</pdfrwt>
<pdfrwt beam="2">  1       -2 0.17788374E+00 0.19392250E+04</pdfrwt>
<totfact> 0.58993610E+00</totfact>
</mgrwt>
</event>
<event>
 6    1  0.3017327E-006  0.3910861E+04  0.7818608E-02  0.8022774E-01
          2   -1    0    0  501    0  0.00000000000E+00  0.00000000000E+00  0.37031123663E+04  0.37031123663E+04  0.00000000000E+00 0. -1.
         -2   -1    0    0    0  501 -0.00000000000E+00 -0.00000000000E+00 -0.10325659990E+04  0.10325659990E+04  0.00000000000E+00 0.  1.
         23    2    1    2    0    0 -0.10919132681E+04 -0.62648769191E+03  0.31462988594E+04  0.33899065247E+04  0.86650568496E+02 0.  0.
         11    1    3    3    0    0 -0.57380344778E+03 -0.37863214238E+03  0.17007125073E+04  0.18344033712E+04  0.00000000000E+00 0. -1.
        -11    1    3    3    0    0 -0.51810982031E+03 -0.24785554953E+03  0.14455863521E+04  0.15555031535E+04  0.00000000000E+00 0.  1.
         22    1    1    2    0    0  0.10919132681E+04  0.62648769191E+03 -0.47575249202E+03  0.13457718406E+04  0.00000000000E+00 0.  1.
<mgrwt>
<rscale>  0 0.39108607E+04</rscale>
<asrwt>0</asrwt>
<pdfrwt beam="1">  1        2 0.56970959E+00 0.39108607E+04</pdfrwt>
<pdfrwt beam="2">  1       -2 0.15885631E+00 0.39108607E+04</pdfrwt>
<totfact> 0.11820944E-01</totfact>
</mgrwt>
</event>
<event>
 6    1  0.3017327E-006  0.2548653E+04  0.7818608E-02  0.8385855E-01
         -2   -1    0    0    0  501 -0.00000000000E+00  0.00000000000E+00  0.61138067344E+03  0.61138067344E+03  0.00000000000E+00 0.  1.
          2   -1    0    0  501    0  0.00000000000E+00 -0.00000000000E+00 -0.26561320590E+04  0.26561320590E+04  0.00000000000E+00 0. -1.
         23    2    1    2    0    0  0.48465637656E+03 -0.83452157353E+03  0.40141060322E+02  0.97010232703E+03  0.90383406407E+02 0.  0.
         11    1    3    3    0    0  0.15857982057E+03 -0.23339850520E+03  0.47785495005E+02  0.28619202514E+03  0.00000000000E+00 0. -1.
        -11    1    3    3    0    0  0.32607655599E+03 -0.60112306834E+03 -0.76444346827E+01  0.68391030189E+03  0.00000000000E+00 0.  1.
         22    1    1    2    0    0 -0.48465637656E+03  0.83452157353E+03 -0.20848924459E+04  0.22974104054E+04  0.00000000000E+00 0. -1.
<mgrwt>
<rscale>  0 0.25486528E+04</rscale>
<asrwt>0</asrwt>
<pdfrwt beam="1">  1        2 0.40863572E+00 0.25486528E+04</pdfrwt>
<pdfrwt beam="2">  1       -2 0.94058562E-01 0.25486528E+04</pdfrwt>
<totfact> 0.23890720E+00</totfact>
</mgrwt>
</event>
<event>
 6    1  0.3017327E-006  0.3109348E+04  0.7818608E-02  0.8213177E-01
         -1   -1    0    0    0  501 -0.00000000000E+00  0.00000000000E+00  0.89985921565E+03  0.89985921565E+03  0.00000000000E+00 0.  1.
          1   -1    0    0  501    0  0.00000000000E+00 -0.00000000000E+00 -0.26859888519E+04  0.26859888519E+04  0.00000000000E+00 0. -1.
         23    2    1    2    0    0  0.19569930196E+03 -0.93539357062E+03  0.51834202146E+03  0.10910837561E+04  0.92336140263E+02 0.  0.
         11    1    3    3    0    0  0.51247971233E+02 -0.33219370004E+03  0.22858479185E+03  0.40648495171E+03  0.00000000000E+00 0. -1.
        -11    1    3    3    0    0  0.14445133073E+03 -0.60319987057E+03  0.28975722961E+03  0.68459880435E+03  0.00000000000E+00 0.  1.
         22    1    1    2    0    0 -0.19569930196E+03  0.93539357062E+03 -0.23044716577E+04  0.24947643115E+04  0.00000000000E+00 0. -1.
<mgrwt>
<rscale>  0 0.31093484E+04</rscale>
<asrwt>0</asrwt>
<pdfrwt beam="1">  1        1 0.41322905E+00 0.31093484E+04</pdfrwt>
<pdfrwt beam="2">  1       -1 0.13843988E+00 0.31093484E+04</pdfrwt>
<totfact> 0.36517498E-01</totfact>
</mgrwt>
</event>
<event>
 6    1  0.3017327E-006  0.2317422E+04  0.7818608E-02  0.8471084E-01
          2   -1    0    0  501    0  0.00000000000E+00  0.00000000000E+00  0.49550373381E+03  0.49550373381E+03  0.00000000000E+00 0.  1.
         -2   -1    0    0    0  501 -0.00000000000E+00 -0.00000000000E+00 -0.27095875239E+04  0.27095875239E+04  0.00000000000E+00 0. -1.
         23    2    1    2    0    0 -0.10360389335E+04 -0.44687601064E+03 -0.14622671173E+04  0.18492508725E+04  0.91808641565E+02 0.  0.
         13    1    3    3    0    0 -0.23435501891E+03 -0.13854650597E+03 -0.32172183619E+03  0.42145266529E+03  0.00000000000E+00 0.  1.
        -13    1    3    3    0    0 -0.80168391457E+03 -0.30832950467E+03 -0.11405452811E+04  0.14277982072E+04  0.00000000000E+00 0. -1.
         22    1    1    2    0    0  0.10360389335E+04  0.44687601064E+03 -0.75181667280E+03  0.13558403852E+04  0.00000000000E+00 0. -1.
<mgrwt>
<rscale>  0 0.23174216E+04</rscale>
<asrwt>0</asrwt>
<pdfrwt beam="1">  1        2 0.76231343E-01 0.23174216E+04</pdfrwt>
<pdfrwt beam="2">  1       -2 0.41685962E+00 0.23174216E+04</pdfrwt>
<totfact> 0.32426510E-01</totfact>
</mgrwt>
</event>
<event>
 6    1  0.3017327E-006  0.2555429E+04  0.7818608E-02  0.8383501E-01
          2   -1    0    0  501    0  0.00000000000E+00  0.00000000000E+00  0.64536638802E+03  0.64536638802E+03  0.00000000000E+00 0. -1.
         -2   -1    0    0    0  501 -0.00000000000E+00 -0.00000000000E+00 -0.25296541338E+04  0.25296541338E+04  0.00000000000E+00 0.  1.
         23    2    1    2    0    0  0.78490569947E+03 -0.83997544015E+03 -0.25517865450E+03  0.11811217961E+04  0.91087070434E+02 0.  0.
         13    1    3    3    0    0  0.69453584102E+02 -0.41654084083E+02 -0.24104830972E+02  0.84497964127E+02  0.00000000000E+00 0. -1.
        -13    1    3    3    0    0  0.71545211537E+03 -0.79832135607E+03 -0.23107382353E+03  0.10966238320E+04  0.00000000000E+00 0.  1.
         22    1    1    2    0    0 -0.78490569947E+03  0.83997544015E+03 -0.16291090913E+04  0.19938987258E+04  0.00000000000E+00 0. -1.
<mgrwt>
<rscale>  0 0.25554285E+04</rscale>
<asrwt>0</asrwt>
<pdfrwt beam="1">  1        2 0.99287138E-01 0.25554285E+04</pdfrwt>
<pdfrwt beam="2">  1       -2 0.38917755E+00 0.25554285E+04</pdfrwt>
<totfact> 0.35174999E-01</totfact>
</mgrwt>
</event>
<event>
 6    1  0.3017327E-006  0.5716561E+04  0.7818608E-02  0.7726573E-01
          2   -1    0    0  501    0  0.00000000000E+00  0.00000000000E+00  0.26047540095E+04  0.26047540095E+04  0.00000000000E+00 0. -1.
         -2   -1    0    0    0  501 -0.00000000000E+00 -0.00000000000E+00 -0.31364836906E+04  0.31364836906E+04  0.00000000000E+00 0.  1.
         23    2    1    2    0    0  0.14144488203E+04 -0.94945253565E+03  0.20381822402E+04  0.26579646233E+04  0.91997347250E+02 0.  0.
         11    1    3    3    0    0  0.56267797105E+03 -0.34192262947E+03  0.83985599114E+03  0.10671811793E+04  0.00000000000E+00 0.  1.
        -11    1    3    3    0    0  0.85177084928E+03 -0.60752990618E+03  0.11983262490E+04  0.15907834440E+04  0.00000000000E+00 0. -1.
         22    1    1    2    0    0 -0.14144488203E+04  0.94945253565E+03 -0.25699119213E+04  0.30832730768E+04  0.00000000000E+00 0.  1.
<mgrwt>
<rscale>  0 0.57165614E+04</rscale>
<asrwt>0</asrwt>
<pdfrwt beam="1">  1        2 0.40073139E+00 0.57165614E+04</pdfrwt>
<pdfrwt beam="2">  1       -2 0.48253595E+00 0.57165614E+04</pdfrwt>
<totfact> 0.44598249E-03</totfact>
</mgrwt>
</event>
<event>
 6    1  0.3017327E-006  0.1448132E+04  0.7818608E-02  0.8919696E-01
         -1   -1    0    0    0  501 -0.00000000000E+00  0.00000000000E+00  0.48826761587E+03  0.48826761587E+03  0.00000000000E+00 0.  1.
          1   -1    0    0  501    0  0.00000000000E+00 -0.00000000000E+00 -0.10737387953E+04  0.10737387953E+04  0.00000000000E+00 0. -1.
         23    2    1    2    0    0 -0.18655878923E+03  0.94759638506E+02  0.45059747438E+03  0.50501926539E+03  0.90679675628E+02 0.  0.
         13    1    3    3    0    0 -0.14848824655E+03  0.49669179480E+02  0.24200533614E+03  0.28824012468E+03  0.00000000000E+00 0. -1.
        -13    1    3    3    0    0 -0.38070542688E+02  0.45090459026E+02  0.20859213824E+03  0.21677914072E+03  0.00000000000E+00 0.  1.
         22    1    1    2    0    0  0.18655878923E+03 -0.94759638506E+02 -0.10360686538E+04  0.10569871457E+04  0.00000000000E+00 0. -1.
<mgrwt>
<rscale>  0 0.14481324E+04</rscale>
<asrwt>0</asrwt>
<pdfrwt beam="1">  1        1 0.16519058E+00 0.14481324E+04</pdfrwt>
<pdfrwt beam="2">  1       -1 0.75118096E-01 0.14481324E+04</pdfrwt>
<totfact> 0.22979311E+01</totfact>
</mgrwt>
</event>
<event>
 6    1  0.3017327E-006  0.1737150E+04  0.7818608E-02  0.8740455E-01
          2   -1    0    0  501    0  0.00000000000E+00  0.00000000000E+00  0.65069655016E+03  0.65069655016E+03  0.00000000000E+00 0. -1.
         -2   -1    0    0    0  501 -0.00000000000E+00 -0.00000000000E+00 -0.11594077843E+04  0.11594077843E+04  0.00000000000E+00 0.  1.
         23    2    1    2    0    0  0.31038199222E+03 -0.24938250786E+03 -0.10564392145E+04  0.11329525370E+04  0.94810446960E+02 0.  0.
         13    1    3    3    0    0  0.23254937796E+02 -0.40019370111E+02 -0.20827738639E+03  0.21335841159E+03  0.00000000000E+00 0.  1.
        -13    1    3    3    0    0  0.28712705442E+03 -0.20936313775E+03 -0.84816182808E+03  0.91959412539E+03  0.00000000000E+00 0. -1.
         22    1    1    2    0    0 -0.31038199222E+03  0.24938250786E+03  0.54772798036E+03  0.67715179745E+03  0.00000000000E+00 0. -1.
<mgrwt>
<rscale>  0 0.17371501E+04</rscale>
<asrwt>0</asrwt>
<pdfrwt beam="1">  1        2 0.10010716E+00 0.17371501E+04</pdfrwt>
<pdfrwt beam="2">  1       -2 0.17837043E+00 0.17371501E+04</pdfrwt>
<totfact> 0.79222169E+00</totfact>
</mgrwt>
</event>
<event>
 6    1  0.3017327E-006  0.1240769E+04  0.7818608E-02  0.9077901E-01
         -2   -1    0    0    0  501 -0.00000000000E+00  0.00000000000E+00  0.42040996506E+03  0.42040996506E+03  0.00000000000E+00 0.  1.
          2   -1    0    0  501    0  0.00000000000E+00 -0.00000000000E+00 -0.91548007892E+03  0.91548007892E+03  0.00000000000E+00 0. -1.
         23    2    1    2    0    0  0.42257952598E+03  0.18575379034E+02  0.23503107146E+03  0.49210912379E+03  0.89516951894E+02 0.  0.
         11    1    3    3    0    0  0.37593208461E+03  0.10641995707E+02  0.17266657567E+03  0.41382596664E+03  0.00000000000E+00 0. -1.
        -11    1    3    3    0    0  0.46647441374E+02  0.79333833264E+01  0.62364495793E+02  0.78283157149E+02  0.00000000000E+00 0.  1.
         22    1    1    2    0    0 -0.42257952598E+03 -0.18575379034E+02 -0.73010118532E+03  0.84378092020E+03  0.00000000000E+00 0. -1.
<mgrwt>
<rscale>  0 0.12407690E+04</rscale>
<asrwt>0</asrwt>
<pdfrwt beam="1">  1        2 0.14084309E+00 0.12407690E+04</pdfrwt>
<pdfrwt beam="2">  1       -2 0.64678456E-01 0.12407690E+04</pdfrwt>
<totfact> 0.62175661E+01</totfact>
</mgrwt>
</event>
<event>
 6    1  0.3017327E-006  0.5280189E+04  0.7818608E-02  0.7786681E-01
          2   -1    0    0  501    0  0.00000000000E+00  0.00000000000E+00  0.34788226641E+04  0.34788226641E+04  0.00000000000E+00 0. -1.
         -2   -1    0    0    0  501 -0.00000000000E+00 -0.00000000000E+00 -0.20035795069E+04  0.20035795069E+04  0.00000000000E+00 0.  1.
         23    2    1    2    0    0 -0.25706221590E+03  0.14134198642E+04  0.30366688091E+04  0.33606371600E+04  0.93209281255E+02 0.  0.
         13    1    3    3    0    0 -0.94381766146E+01  0.13849462373E+02  0.55756323157E+02  0.58220738210E+02  0.00000000000E+00 0. -1.
        -13    1    3    3    0    0 -0.24762403928E+03  0.13995704018E+04  0.29809124859E+04  0.33024164218E+04  0.00000000000E+00 0.  1.
         22    1    1    2    0    0  0.25706221590E+03 -0.14134198642E+04 -0.15614256519E+04  0.21217650110E+04  0.00000000000E+00 0.  1.
<mgrwt>
<rscale>  0 0.52801886E+04</rscale>
<asrwt>0</asrwt>
<pdfrwt beam="1">  1        2 0.53520349E+00 0.52801886E+04</pdfrwt>
<pdfrwt beam="2">  1       -2 0.30824300E+00 0.52801886E+04</pdfrwt>
<totfact> 0.16911516E-02</totfact>
</mgrwt>
</event>
<event>
 6    1  0.3017327E-006  0.2472178E+04  0.7818608E-02  0.8412965E-01
         -2   -1    0    0    0  501 -0.00000000000E+00  0.00000000000E+00  0.43901081739E+03  0.43901081739E+03  0.00000000000E+00 0.  1.
          2   -1    0    0  501    0  0.00000000000E+00 -0.00000000000E+00 -0.34803609406E+04  0.34803609406E+04  0.00000000000E+00 0. -1.
         23    2    1    2    0    0  0.10038318522E+04  0.16566824793E+03 -0.41455052547E+03  0.11024229685E+04  0.91432529772E+02 0.  0.
         11    1    3    3    0    0  0.47943878177E+03  0.10979095413E+03 -0.16314024661E+03  0.51819913078E+03  0.00000000000E+00 0.  1.
        -11    1    3    3    0    0  0.52439307042E+03  0.55877293804E+02 -0.25141027886E+03  0.58422383774E+03  0.00000000000E+00 0. -1.
         22    1    1    2    0    0 -0.10038318522E+04 -0.16566824793E+03 -0.26267995978E+04  0.28169487895E+04  0.00000000000E+00 0. -1.
<mgrwt>
<rscale>  0 0.24721781E+04</rscale>
<asrwt>0</asrwt>
<pdfrwt beam="1">  1        2 0.53544013E+00 0.24721781E+04</pdfrwt>
<pdfrwt beam="2">  1       -2 0.67540128E-01 0.24721781E+04</pdfrwt>
<totfact> 0.15094556E+00</totfact>
</mgrwt>
</event>
<event>
 6    1  0.3017327E-006  0.2720481E+04  0.7818608E-02  0.8328390E-01
          2   -1    0    0  501    0  0.00000000000E+00  0.00000000000E+00  0.11552796097E+04  0.11552796097E+04  0.00000000000E+00 0. -1.
         -2   -1    0    0    0  501 -0.00000000000E+00 -0.00000000000E+00 -0.16015644365E+04  0.16015644365E+04  0.00000000000E+00 0.  1.
         23    2    1    2    0    0  0.59056895509E+03 -0.83058156147E+03  0.68739708853E+03  0.12324188738E+04  0.87773015974E+02 0.  0.
         13    1    3    3    0    0  0.15358793337E+03 -0.17716646238E+03  0.12350278925E+03  0.26500971232E+03  0.00000000000E+00 0.  1.
        -13    1    3    3    0    0  0.43698102172E+03 -0.65341509909E+03  0.56389429927E+03  0.96740916153E+03  0.00000000000E+00 0. -1.
         22    1    1    2    0    0 -0.59056895509E+03  0.83058156147E+03 -0.11336819154E+04  0.15244251724E+04  0.00000000000E+00 0.  1.
<mgrwt>
<rscale>  0 0.27204814E+04</rscale>
<asrwt>0</asrwt>
<pdfrwt beam="1">  1        2 0.17773532E+00 0.27204814E+04</pdfrwt>
<pdfrwt beam="2">  1       -2 0.24639453E+00 0.27204814E+04</pdfrwt>
<totfact> 0.11937541E+00</totfact>
</mgrwt>
</event>
<event>
 6    1  0.3017327E-006  0.1057415E+04  0.7818608E-02  0.9247722E-01
          1   -1    0    0  501    0  0.00000000000E+00  0.00000000000E+00  0.12266089660E+04  0.12266089660E+04  0.00000000000E+00 0. -1.
         -1   -1    0    0    0  501 -0.00000000000E+00 -0.00000000000E+00 -0.22788980175E+03  0.22788980175E+03  0.00000000000E+00 0.  1.
         23    2    1    2    0    0  0.17746812208E+03  0.18670959008E+03 -0.12582313066E+03  0.30083036720E+03  0.91170413158E+02 0.  0.
         11    1    3    3    0    0  0.68754236927E+02  0.12631940897E+03 -0.96086494282E+02  0.17296344285E+03  0.00000000000E+00 0. -1.
        -11    1    3    3    0    0  0.10871388515E+03  0.60390181114E+02 -0.29736636379E+02  0.12786692435E+03  0.00000000000E+00 0.  1.
         22    1    1    2    0    0 -0.17746812208E+03 -0.18670959008E+03  0.11245422949E+04  0.11536684005E+04  0.00000000000E+00 0. -1.
<mgrwt>
<rscale>  0 0.10574151E+04</rscale>
<asrwt>0</asrwt>
<pdfrwt beam="1">  1        1 0.18870907E+00 0.10574151E+04</pdfrwt>
<pdfrwt beam="2">  1       -1 0.35059970E-01 0.10574151E+04</pdfrwt>
<totfact> 0.78915276E+01</totfact>
</mgrwt>
</event>
<event>
 6    1  0.3017327E-006  0.1858288E+04  0.7818608E-02  0.8675902E-01
         -2   -1    0    0    0  501 -0.00000000000E+00  0.00000000000E+00  0.25154813018E+03  0.25154813018E+03  0.00000000000E+00 0.  1.
          2   -1    0    0  501    0  0.00000000000E+00 -0.00000000000E+00 -0.34319831781E+04  0.34319831781E+04  0.00000000000E+00 0. -1.
         23    2    1    2    0    0  0.57411278796E+03 -0.20621975382E+03 -0.29774403537E+04  0.30406169080E+04  0.89822277677E+02 0.  0.
         13    1    3    3    0    0  0.41178351229E+03 -0.12479021339E+03 -0.22562864752E+04  0.22969473038E+04  0.00000000000E+00 0. -1.
        -13    1    3    3    0    0  0.16232927567E+03 -0.81429540425E+02 -0.72115387846E+03  0.74366960420E+03  0.00000000000E+00 0.  1.
         22    1    1    2    0    0 -0.57411278796E+03  0.20621975382E+03 -0.20299469425E+03  0.64291440026E+03  0.00000000000E+00 0.  1.
<mgrwt>
<rscale>  0 0.18582884E+04</rscale>
<asrwt>0</asrwt>
<pdfrwt beam="1">  1        2 0.52799738E+00 0.18582884E+04</pdfrwt>
<pdfrwt beam="2">  1       -2 0.38699715E-01 0.18582884E+04</pdfrwt>
<totfact> 0.54099116E+00</totfact>
</mgrwt>
</event>
<event>
 6    1  0.3017327E-006  0.1121465E+04  0.7818608E-02  0.9184519E-01
         -2   -1    0    0    0  501 -0.00000000000E+00  0.00000000000E+00  0.51114915204E+03  0.51114915204E+03  0.00000000000E+00 0. -1.
          2   -1    0    0  501    0  0.00000000000E+00 -0.00000000000E+00 -0.61512595234E+03  0.61512595234E+03  0.00000000000E+00 0.  1.
         23    2    1    2    0    0  0.23123380776E+03 -0.38600675824E+03 -0.38119853501E+03  0.59776570857E+03  0.97679209600E+02 0.  0.
         13    1    3    3    0    0  0.11807658384E+03 -0.28605547681E+03 -0.25664892031E+03  0.40204288796E+03  0.00000000000E+00 0. -1.
        -13    1    3    3    0    0  0.11315722392E+03 -0.99951281431E+02 -0.12454961470E+03  0.19572282061E+03  0.00000000000E+00 0.  1.
         22    1    1    2    0    0 -0.23123380776E+03  0.38600675824E+03  0.27722173471E+03  0.52850939580E+03  0.00000000000E+00 0. -1.
<mgrwt>
<rscale>  0 0.11214653E+04</rscale>
<asrwt>0</asrwt>
<pdfrwt beam="1">  1        2 0.94634762E-01 0.11214653E+04</pdfrwt>
<pdfrwt beam="2">  1       -2 0.78638331E-01 0.11214653E+04</pdfrwt>
<totfact> 0.68588723E+01</totfact>
</mgrwt>
</event>
<event>
 6    1  0.3017327E-006  0.1956038E+04  0.7818608E-02  0.8627455E-01
         -1   -1    0    0    0  501 -0.00000000000E+00  0.00000000000E+00  0.49998729103E+03  0.49998729103E+03  0.00000000000E+00 0.  1.
          1   -1    0    0  501    0  0.00000000000E+00 -0.00000000000E+00 -0.19130909000E+04  0.19130909000E+04  0.00000000000E+00 0. -1.
         23    2    1    2    0    0  0.10087691832E+03  0.95696088577E+03 -0.50738270200E+03  0.10916090651E+04  0.90679959939E+02 0.  0.
         11    1    3    3    0    0  0.11290709467E+03  0.72442818457E+03 -0.36980049225E+03  0.82115565558E+03  0.00000000000E+00 0. -1.
        -11    1    3    3    0    0 -0.12030176344E+02  0.23253270120E+03 -0.13758220975E+03  0.27045340950E+03  0.00000000000E+00 0.  1.
         22    1    1    2    0    0 -0.10087691832E+03 -0.95696088577E+03 -0.90572090699E+03  0.13214691260E+04  0.00000000000E+00 0.  1.
<mgrwt>
<rscale>  0 0.19560380E+04</rscale>
<asrwt>0</asrwt>
<pdfrwt beam="1">  1        1 0.29432168E+00 0.19560380E+04</pdfrwt>
<pdfrwt beam="2">  1       -1 0.76921120E-01 0.19560380E+04</pdfrwt>
<totfact> 0.53882057E+00</totfact>
</mgrwt>
</event>
<event>
 6    1  0.3017327E-006  0.2914124E+04  0.7818608E-02  0.8268687E-01
         -2   -1    0    0    0  501 -0.00000000000E+00  0.00000000000E+00  0.85602462295E+03  0.85602462295E+03  0.00000000000E+00 0.  1.
          2   -1    0    0  501    0  0.00000000000E+00 -0.00000000000E+00 -0.24801039857E+04  0.24801039857E+04  0.00000000000E+00 0. -1.
         23    2    1    2    0    0 -0.32642253589E+03  0.13976042155E+04 -0.53441421241E+03  0.15341243481E+04  0.89943036919E+02 0.  0.
         11    1    3    3    0    0 -0.65000280290E+01  0.14285821850E+03 -0.46833295944E+02  0.15047949550E+03  0.00000000000E+00 0.  1.
        -11    1    3    3    0    0 -0.31992250786E+03  0.12547459970E+04 -0.48758091647E+03  0.13836448526E+04  0.00000000000E+00 0. -1.
         22    1    1    2    0    0  0.32642253589E+03 -0.13976042155E+04 -0.10896651503E+04  0.18020042605E+04  0.00000000000E+00 0. -1.
<mgrwt>
<rscale>  0 0.29141243E+04</rscale>
<asrwt>0</asrwt>
<pdfrwt beam="1">  1        2 0.38155446E+00 0.29141243E+04</pdfrwt>
<pdfrwt beam="2">  1       -2 0.13169610E+00 0.29141243E+04</pdfrwt>
<totfact> 0.12947861E+00</totfact>
</mgrwt>
</event>
<event>
 6    1  0.3017327E-006  0.1492620E+04  0.7818608E-02  0.8889375E-01
         -2   -1    0    0    0  501 -0.00000000000E+00  0.00000000000E+00  0.53980871556E+03  0.53980871556E+03  0.00000000000E+00 0.  1.
          2   -1    0    0  501    0  0.00000000000E+00 -0.00000000000E+00 -0.10318079385E+04  0.10318079385E+04  0.00000000000E+00 0. -1.
         23    2    1    2    0    0  0.56730390054E+02  0.74131191619E+03 -0.24110743597E+03  0.78694577844E+03  0.91592402964E+02 0.  0.
         11    1    3    3    0    0  0.29816270053E+01  0.55383837907E+03 -0.16977296860E+03  0.57928291974E+03  0.00000000000E+00 0.  1.
        -11    1    3    3    0    0  0.53748763049E+02  0.18747353712E+03 -0.71334467364E+02  0.20766285870E+03  0.00000000000E+00 0. -1.
         22    1    1    2    0    0 -0.56730390054E+02 -0.74131191619E+03 -0.25089178692E+03  0.78467087558E+03  0.00000000000E+00 0. -1.
<mgrwt>
<rscale>  0 0.14926204E+04</rscale>
<asrwt>0</asrwt>
<pdfrwt beam="1">  1        2 0.15873968E+00 0.14926204E+04</pdfrwt>
<pdfrwt beam="2">  1       -2 0.83047496E-01 0.14926204E+04</pdfrwt>
<totfact> 0.29524171E+01</totfact>
</mgrwt>
</event>
<event>
 6    1  0.3017327E-006  0.3818563E+04  0.7818608E-02  0.8042183E-01
          2   -1    0    0  501    0  0.00000000000E+00  0.00000000000E+00  0.32935340492E+04  0.32935340492E+04  0.00000000000E+00 0.  1.
         -2   -1    0    0    0  501 -0.00000000000E+00 -0.00000000000E+00 -0.11068219203E+04  0.11068219203E+04  0.00000000000E+00 0. -1.
         23    2    1    2    0    0  0.43998468259E+03 -0.32971667488E+03  0.31996150680E+04  0.32478491493E+04  0.93208938465E+02 0.  0.
         11    1    3    3    0    0  0.38224384019E+03 -0.31854966721E+03  0.29233539950E+04  0.29653975828E+04  0.00000000000E+00 0. -1.
        -11    1    3    3    0    0  0.57740842401E+02 -0.11167007673E+02  0.27626107304E+03  0.28245156650E+03  0.00000000000E+00 0.  1.
         22    1    1    2    0    0 -0.43998468259E+03  0.32971667488E+03 -0.10129029391E+04  0.11525068202E+04  0.00000000000E+00 0. -1.
<mgrwt>
<rscale>  0 0.38185629E+04</rscale>
<asrwt>0</asrwt>
<pdfrwt beam="1">  1        2 0.50669754E+00 0.38185629E+04</pdfrwt>
<pdfrwt beam="2">  1       -2 0.17028030E+00 0.38185629E+04</pdfrwt>
<totfact> 0.19083965E-01</totfact>
</mgrwt>
</event>
<event>
 6    1  0.3017327E-006  0.4873813E+04  0.7818608E-02  0.7848273E-01
          2   -1    0    0  501    0  0.00000000000E+00  0.00000000000E+00  0.40519786690E+04  0.40519786690E+04  0.00000000000E+00 0. -1.
         -2   -1    0    0    0  501 -0.00000000000E+00 -0.00000000000E+00 -0.14655834082E+04  0.14655834082E+04  0.00000000000E+00 0.  1.
         23    2    1    2    0    0  0.10575939302E+04  0.62927945258E+03 -0.10863492821E+04  0.16441204514E+04  0.92085533332E+02 0.  0.
         13    1    3    3    0    0  0.63495473176E+03  0.37879627953E+03 -0.71213455441E+03  0.10265426228E+04  0.00000000000E+00 0.  1.
        -13    1    3    3    0    0  0.42263919840E+03  0.25048317305E+03 -0.37421472773E+03  0.61757782866E+03  0.00000000000E+00 0. -1.
         22    1    1    2    0    0 -0.10575939302E+04 -0.62927945258E+03  0.36727445429E+04  0.38734416258E+04  0.00000000000E+00 0. -1.
<mgrwt>
<rscale>  0 0.48738128E+04</rscale>
<asrwt>0</asrwt>
<pdfrwt beam="1">  1        2 0.62338133E+00 0.48738128E+04</pdfrwt>
<pdfrwt beam="2">  1       -2 0.22547437E+00 0.48738128E+04</pdfrwt>
<totfact> 0.20720286E-02</totfact>
</mgrwt>
</event>
<event>
 6    1  0.3017327E-006  0.1391903E+04  0.7818608E-02  0.8959700E-01
         -2   -1    0    0    0  501 -0.00000000000E+00  0.00000000000E+00  0.23572174039E+03  0.23572174039E+03  0.00000000000E+00 0. -1.
          2   -1    0    0  501    0  0.00000000000E+00 -0.00000000000E+00 -0.20547479944E+04  0.20547479944E+04  0.00000000000E+00 0.  1.
         23    2    1    2    0    0  0.31720025105E+02  0.81393759975E+02 -0.20444324757E+04  0.20487279947E+04  0.99755423366E+02 0.  0.
         11    1    3    3    0    0  0.13868153585E+02  0.40308909378E+01 -0.12988102136E+04  0.12988905052E+04  0.00000000000E+00 0. -1.
        -11    1    3    3    0    0  0.17851871520E+02  0.77362869037E+02 -0.74562226214E+03  0.74983748947E+03  0.00000000000E+00 0.  1.
         22    1    1    2    0    0 -0.31720025105E+02 -0.81393759975E+02  0.22540622164E+03  0.24174174011E+03  0.00000000000E+00 0. -1.
<mgrwt>
<rscale>  0 0.13919034E+04</rscale>
<asrwt>0</asrwt>
<pdfrwt beam="1">  1        2 0.31611508E+00 0.13919034E+04</pdfrwt>
<pdfrwt beam="2">  1       -2 0.36264883E-01 0.13919034E+04</pdfrwt>
<totfact> 0.43438062E+01</totfact>
</mgrwt>
</event>
<event>
 6    1  0.3017327E-006  0.1220557E+04  0.7818608E-02  0.9095051E-01
          2   -1    0    0  501    0  0.00000000000E+00  0.00000000000E+00  0.20337848901E+04  0.20337848901E+04  0.00000000000E+00 0. -1.
         -2   -1    0    0    0  501 -0.00000000000E+00 -0.00000000000E+00 -0.18312658347E+03  0.18312658347E+03  0.00000000000E+00 0.  1.
         23    2    1    2    0    0  0.76614304030E+02 -0.53312355333E+03  0.14393381859E+04  0.15392133723E+04  0.85982076316E+02 0.  0.
         11    1    3    3    0    0  0.21200090692E+02 -0.38096534887E+02  0.17350164491E+03  0.17889552985E+03  0.00000000000E+00 0.  1.
        -11    1    3    3    0    0  0.55414213338E+02 -0.49502701844E+03  0.12658365410E+04  0.13603178425E+04  0.00000000000E+00 0. -1.
         22    1    1    2    0    0 -0.76614304030E+02  0.53312355333E+03  0.41132012069E+03  0.67769810121E+03  0.00000000000E+00 0.  1.
<mgrwt>
<rscale>  0 0.12205574E+04</rscale>
<asrwt>0</asrwt>
<pdfrwt beam="1">  1        2 0.31288997E+00 0.12205574E+04</pdfrwt>
<pdfrwt beam="2">  1       -2 0.28173322E-01 0.12205574E+04</pdfrwt>
<totfact> 0.72766232E+01</totfact>
</mgrwt>
</event>
<event>
 6    1  0.3017327E-006  0.1245804E+04  0.7818608E-02  0.9073682E-01
         -2   -1    0    0    0  501 -0.00000000000E+00  0.00000000000E+00  0.45826931759E+03  0.45826931759E+03  0.00000000000E+00 0.  1.
          2   -1    0    0  501    0  0.00000000000E+00 -0.00000000000E+00 -0.84667942983E+03  0.84667942983E+03  0.00000000000E+00 0. -1.
         23    2    1    2    0    0  0.48061092172E+03 -0.10417411288E+03  0.19971289401E+03  0.53831469237E+03  0.89768391564E+02 0.  0.
         13    1    3    3    0    0  0.40033696630E+03 -0.11936999394E+03  0.15853532788E+03  0.44682472204E+03  0.00000000000E+00 0.  1.
        -13    1    3    3    0    0  0.80273955415E+02  0.15195881061E+02  0.41177566125E+02  0.91489970331E+02  0.00000000000E+00 0. -1.
         22    1    1    2    0    0 -0.48061092172E+03  0.10417411288E+03 -0.58812300625E+03  0.76663405504E+03  0.00000000000E+00 0. -1.
<mgrwt>
<rscale>  0 0.12458045E+04</rscale>
<asrwt>0</asrwt>
<pdfrwt beam="1">  1        2 0.13025837E+00 0.12458045E+04</pdfrwt>
<pdfrwt beam="2">  1       -2 0.70502973E-01 0.12458045E+04</pdfrwt>
<totfact> 0.57469347E+01</totfact>
</mgrwt>
</event>
<event>
 6    1  0.3017327E-006  0.1011550E+04  0.7818608E-02  0.9295967E-01
         -2   -1    0    0    0  501 -0.00000000000E+00  0.00000000000E+00  0.14261969404E+03  0.14261969404E+03  0.00000000000E+00 0. -1.
          2   -1    0    0  501    0  0.00000000000E+00 -0.00000000000E+00 -0.17936397611E+04  0.17936397611E+04  0.00000000000E+00 0.  1.
         23    2    1    2    0    0  0.11168617299E+03  0.10017299495E+03 -0.17484980823E+04  0.17573449683E+04  0.92235370893E+02 0.  0.
         13    1    3    3    0    0  0.47287853532E+02  0.67323145076E+02 -0.49723471500E+03  0.50399494914E+03  0.00000000000E+00 0.  1.
        -13    1    3    3    0    0  0.64398319454E+02  0.32849849875E+02 -0.12512633673E+04  0.12533500192E+04  0.00000000000E+00 0. -1.
         22    1    1    2    0    0 -0.11168617299E+03 -0.10017299495E+03  0.97478015229E+02  0.17891448686E+03  0.00000000000E+00 0. -1.
<mgrwt>
<rscale>  0 0.10115500E+04</rscale>
<asrwt>0</asrwt>
<pdfrwt beam="1">  1        2 0.27594455E+00 0.10115500E+04</pdfrwt>
<pdfrwt beam="2">  1       -2 0.21941494E-01 0.10115500E+04</pdfrwt>
<totfact> 0.15765026E+02</totfact>
</mgrwt>
</event>
<event>
 6    1  0.3017327E-006  0.2263045E+04  0.7818608E-02  0.8492636E-01
         -2   -1    0    0    0  501 -0.00000000000E+00  0.00000000000E+00  0.84751236194E+03  0.84751236194E+03  0.00000000000E+00 0.  1.
          2   -1    0    0  501    0  0.00000000000E+00 -0.00000000000E+00 -0.15107070931E+04  0.15107070931E+04  0.00000000000E+00 0. -1.
         23    2    1    2    0    0  0.35422903320E+03 -0.63832894167E+02  0.78348348546E+03  0.86743754317E+03  0.95124513040E+02 0.  0.
         13    1    3    3    0    0  0.24580395598E+03 -0.71007870664E+02  0.46239651989E+03  0.52846215009E+03  0.00000000000E+00 0. -1.
        -13    1    3    3    0    0  0.10842507722E+03  0.71749764968E+01  0.32108696556E+03  0.33897539308E+03  0.00000000000E+00 0.  1.
         22    1    1    2    0    0 -0.35422903320E+03  0.63832894167E+02 -0.14466782166E+04  0.14907819119E+04  0.00000000000E+00 0. -1.
<mgrwt>
<rscale>  0 0.22630448E+04</rscale>
<asrwt>0</asrwt>
<pdfrwt beam="1">  1        2 0.23241647E+00 0.22630448E+04</pdfrwt>
<pdfrwt beam="2">  1       -2 0.13038652E+00 0.22630448E+04</pdfrwt>
<totfact> 0.49076351E+00</totfact>
</mgrwt>
</event>
<event>
 6    1  0.3017327E-006  0.1117551E+04  0.7818608E-02  0.9188252E-01
         -2   -1    0    0    0  501 -0.00000000000E+00  0.00000000000E+00  0.80396405214E+03  0.80396405214E+03  0.00000000000E+00 0.  1.
          2   -1    0    0  501    0  0.00000000000E+00 -0.00000000000E+00 -0.38836353033E+03  0.38836353033E+03  0.00000000000E+00 0. -1.
         23    2    1    2    0    0  0.34096578928E+03  0.19359713879E+03  0.62834042839E+03  0.74623814138E+03  0.91225808306E+02 0.  0.
         13    1    3    3    0    0  0.33239128175E+02  0.17935371971E+02  0.21328787588E+02  0.43375504488E+02  0.00000000000E+00 0. -1.
        -13    1    3    3    0    0  0.30772666110E+03  0.17566176682E+03  0.60701164080E+03  0.70286263689E+03  0.00000000000E+00 0.  1.
         22    1    1    2    0    0 -0.34096578928E+03 -0.19359713879E+03 -0.21273990658E+03  0.44608944109E+03  0.00000000000E+00 0. -1.
<mgrwt>
<rscale>  0 0.11175515E+04</rscale>
<asrwt>0</asrwt>
<pdfrwt beam="1">  1        2 0.59748236E-01 0.11175515E+04</pdfrwt>
<pdfrwt beam="2">  1       -2 0.12368678E+00 0.11175515E+04</pdfrwt>
<totfact> 0.40127710E+01</totfact>
</mgrwt>
</event>
<event>
 6    1  0.3017327E-006  0.2382555E+04  0.7818608E-02  0.8446064E-01
         -2   -1    0    0    0  501 -0.00000000000E+00  0.00000000000E+00  0.15750878312E+04  0.15750878312E+04  0.00000000000E+00 0. -1.
          2   -1    0    0  501    0  0.00000000000E+00 -0.00000000000E+00 -0.90099264698E+03  0.90099264698E+03  0.00000000000E+00 0.  1.
         23    2    1    2    0    0  0.80791519052E+02  0.64656554769E+03  0.13718748127E+04  0.15213707384E+04  0.89186013298E+02 0.  0.
         11    1    3    3    0    0  0.56202008699E+02  0.45579468486E+03  0.10560000914E+04  0.11515396883E+04  0.00000000000E+00 0. -1.
        -11    1    3    3    0    0  0.24589510353E+02  0.19077086283E+03  0.31587472131E+03  0.36983105019E+03  0.00000000000E+00 0.  1.
         22    1    1    2    0    0 -0.80791519052E+02 -0.64656554769E+03 -0.69777962856E+03  0.95470973968E+03  0.00000000000E+00 0.  1.
<mgrwt>
<rscale>  0 0.23825554E+04</rscale>
<asrwt>0</asrwt>
<pdfrwt beam="1">  1        2 0.13861425E+00 0.23825554E+04</pdfrwt>
<pdfrwt beam="2">  1       -2 0.24232120E+00 0.23825554E+04</pdfrwt>
<totfact> 0.18889986E+00</totfact>
</mgrwt>
</event>
<event>
 6    1  0.3017327E-006  0.3311495E+04  0.7818608E-02  0.8159977E-01
         -2   -1    0    0    0  501 -0.00000000000E+00  0.00000000000E+00  0.83073471480E+03  0.83073471480E+03  0.00000000000E+00 0.  1.
          2   -1    0    0  501    0  0.00000000000E+00 -0.00000000000E+00 -0.33000901501E+04  0.33000901501E+04  0.00000000000E+00 0. -1.
         23    2    1    2    0    0  0.50844039501E+03 -0.13362811622E+04 -0.19694123159E+03  0.14460482833E+04  0.90060031567E+02 0.  0.
         13    1    3    3    0    0  0.20497621057E+03 -0.60325221983E+03 -0.48955506246E+02  0.63900323099E+03  0.00000000000E+00 0. -1.
        -13    1    3    3    0    0  0.30346418444E+03 -0.73302894237E+03 -0.14798572534E+03  0.80704505234E+03  0.00000000000E+00 0.  1.
         22    1    1    2    0    0 -0.50844039501E+03  0.13362811622E+04 -0.22724142037E+04  0.26847765816E+04  0.00000000000E+00 0. -1.
<mgrwt>
<rscale>  0 0.33114948E+04</rscale>
<asrwt>0</asrwt>
<pdfrwt beam="1">  1        2 0.50770617E+00 0.33114948E+04</pdfrwt>
<pdfrwt beam="2">  1       -2 0.12780534E+00 0.33114948E+04</pdfrwt>
<totfact> 0.42087554E-01</totfact>
</mgrwt>
</event>
<event>
 6    1  0.3017327E-006  0.3039427E+04  0.7818608E-02  0.8232561E-01
         -1   -1    0    0    0  501 -0.00000000000E+00  0.00000000000E+00  0.12484469691E+04  0.12484469691E+04  0.00000000000E+00 0.  1.
          1   -1    0    0  501    0  0.00000000000E+00 -0.00000000000E+00 -0.18499213577E+04  0.18499213577E+04  0.00000000000E+00 0. -1.
         23    2    1    2    0    0 -0.11153300102E+04  0.10238623605E+04 -0.18510720946E+03  0.15281400655E+04  0.93232054545E+02 0.  0.
         13    1    3    3    0    0 -0.33967675662E+03  0.37091579745E+03 -0.66931544163E+02  0.50738413395E+03  0.00000000000E+00 0. -1.
        -13    1    3    3    0    0 -0.77565325354E+03  0.65294656307E+03 -0.11817566530E+03  0.10207559316E+04  0.00000000000E+00 0.  1.
         22    1    1    2    0    0  0.11153300102E+04 -0.10238623605E+04 -0.41636717909E+03  0.15702282613E+04  0.00000000000E+00 0. -1.
<mgrwt>
<rscale>  0 0.30394267E+04</rscale>
<asrwt>0</asrwt>
<pdfrwt beam="1">  1        1 0.28460328E+00 0.30394267E+04</pdfrwt>
<pdfrwt beam="2">  1       -1 0.19206877E+00 0.30394267E+04</pdfrwt>
<totfact> 0.54618424E-01</totfact>
</mgrwt>
</event>
<event>
 6    1  0.3017327E-006  0.6383326E+04  0.7818608E-02  0.7644609E-01
          2   -1    0    0  501    0  0.00000000000E+00  0.00000000000E+00  0.39758233207E+04  0.39758233207E+04  0.00000000000E+00 0. -1.
         -2   -1    0    0    0  501 -0.00000000000E+00 -0.00000000000E+00 -0.25621640821E+04  0.25621640821E+04  0.00000000000E+00 0.  1.
         23    2    1    2    0    0 -0.28523790307E+03 -0.10009037605E+04  0.37965821860E+04  0.39377007316E+04  0.91004159707E+02 0.  0.
         13    1    3    3    0    0 -0.13955506340E+03 -0.58507967451E+03  0.20520286894E+04  0.21383675043E+04  0.00000000000E+00 0.  1.
        -13    1    3    3    0    0 -0.14568283966E+03 -0.41582408600E+03  0.17445534966E+04  0.17993332273E+04  0.00000000000E+00 0. -1.
         22    1    1    2    0    0  0.28523790307E+03  0.10009037605E+04 -0.23829229474E+04  0.26002866712E+04  0.00000000000E+00 0.  1.
<mgrwt>
<rscale>  0 0.63833257E+04</rscale>
<asrwt>0</asrwt>
<pdfrwt beam="1">  1        2 0.61166513E+00 0.63833257E+04</pdfrwt>
<pdfrwt beam="2">  1       -2 0.39417909E+00 0.63833257E+04</pdfrwt>
<totfact> 0.18867344E-03</totfact>
</mgrwt>
</event>
<event>
 6    1  0.3017327E-006  0.1323262E+04  0.7818608E-02  0.9011319E-01
         -2   -1    0    0    0  501 -0.00000000000E+00  0.00000000000E+00  0.15759960277E+03  0.15759960277E+03  0.00000000000E+00 0.  1.
          2   -1    0    0  501    0  0.00000000000E+00 -0.00000000000E+00 -0.27776438768E+04  0.27776438768E+04  0.00000000000E+00 0. -1.
         23    2    1    2    0    0 -0.25391679906E+03 -0.44095866069E+03 -0.22434146894E+04  0.23021809824E+04  0.90606433239E+02 0.  0.
         11    1    3    3    0    0 -0.14384105759E+03 -0.33218498538E+03 -0.15505472764E+04  0.15922418066E+04  0.00000000000E+00 0.  1.
        -11    1    3    3    0    0 -0.11007574147E+03 -0.10877367531E+03 -0.69286741305E+03  0.70993917582E+03  0.00000000000E+00 0. -1.
         22    1    1    2    0    0  0.25391679906E+03  0.44095866069E+03 -0.37662958456E+03  0.63306249712E+03  0.00000000000E+00 0.  1.
<mgrwt>
<rscale>  0 0.13232620E+04</rscale>
<asrwt>0</asrwt>
<pdfrwt beam="1">  1        2 0.42732983E+00 0.13232620E+04</pdfrwt>
<pdfrwt beam="2">  1       -2 0.24246092E-01 0.13232620E+04</pdfrwt>
<totfact> 0.35674084E+01</totfact>
</mgrwt>
</event>
<event>
 6    1  0.3017327E-006  0.1009091E+04  0.7818608E-02  0.9298630E-01
         -2   -1    0    0    0  501 -0.00000000000E+00  0.00000000000E+00  0.11069926238E+03  0.11069926238E+03  0.00000000000E+00 0. -1.
          2   -1    0    0  501    0  0.00000000000E+00 -0.00000000000E+00 -0.22996195761E+04  0.22996195761E+04  0.00000000000E+00 0.  1.
         23    2    1    2    0    0 -0.40725458330E+02 -0.49867461028E+03 -0.10851177627E+04  0.11984133134E+04  0.91536774585E+02 0.  0.
         11    1    3    3    0    0  0.13177727312E+02 -0.10594126442E+02 -0.26241107438E+02  0.31216721989E+02  0.00000000000E+00 0. -1.
        -11    1    3    3    0    0 -0.53903185641E+02 -0.48808048384E+03 -0.10588766552E+04  0.11671965914E+04  0.00000000000E+00 0.  1.
         22    1    1    2    0    0  0.40725458330E+02  0.49867461028E+03 -0.11038025511E+04  0.12119055251E+04  0.00000000000E+00 0.  1.
<mgrwt>
<rscale>  0 0.10090911E+04</rscale>
<asrwt>0</asrwt>
<pdfrwt beam="1">  1        2 0.35378761E+00 0.10090911E+04</pdfrwt>
<pdfrwt beam="2">  1       -2 0.17030657E-01 0.10090911E+04</pdfrwt>
<totfact> 0.12900813E+02</totfact>
</mgrwt>
</event>
<event>
 6    1  0.3017327E-006  0.1924034E+04  0.7818608E-02  0.8642985E-01
          2   -1    0    0  501    0  0.00000000000E+00  0.00000000000E+00  0.24621033710E+04  0.24621033710E+04  0.00000000000E+00 0. -1.
         -2   -1    0    0    0  501 -0.00000000000E+00 -0.00000000000E+00 -0.37588853763E+03  0.37588853763E+03  0.00000000000E+00 0.  1.
         23    2    1    2    0    0 -0.71705556781E+03  0.62579689030E+03  0.86163872525E+03  0.12870640961E+04  0.91226417909E+02 0.  0.
         13    1    3    3    0    0 -0.29778830913E+03  0.21440068713E+03  0.29371400157E+03  0.47001430448E+03  0.00000000000E+00 0. -1.
        -13    1    3    3    0    0 -0.41926725867E+03  0.41139620316E+03  0.56792472368E+03  0.81704979159E+03  0.00000000000E+00 0.  1.
         22    1    1    2    0    0  0.71705556781E+03 -0.62579689030E+03  0.12245761081E+04  0.15509278126E+04  0.00000000000E+00 0. -1.
<mgrwt>
<rscale>  0 0.19240337E+04</rscale>
<asrwt>0</asrwt>
<pdfrwt beam="1">  1        2 0.37878512E+00 0.19240337E+04</pdfrwt>
<pdfrwt beam="2">  1       -2 0.57829007E-01 0.19240337E+04</pdfrwt>
<totfact> 0.95871173E+00</totfact>
</mgrwt>
</event>
<event>
 6    1  0.3017327E-006  0.1540157E+04  0.7818608E-02  0.8858180E-01
          2   -1    0    0  501    0  0.00000000000E+00  0.00000000000E+00  0.70774333112E+03  0.70774333112E+03  0.00000000000E+00 0. -1.
         -2   -1    0    0    0  501 -0.00000000000E+00 -0.00000000000E+00 -0.83790370689E+03  0.83790370689E+03  0.00000000000E+00 0.  1.
         23    2    1    2    0    0 -0.71932101125E+03 -0.11913005000E+03 -0.30528583170E+03  0.79579131099E+03  0.92030894644E+02 0.  0.
         11    1    3    3    0    0 -0.52973056930E+03 -0.10968555947E+03 -0.18824563823E+03  0.57278426857E+03  0.00000000000E+00 0. -1.
        -11    1    3    3    0    0 -0.18959044195E+03 -0.94444905236E+01 -0.11704019348E+03  0.22300704242E+03  0.00000000000E+00 0.  1.
         22    1    1    2    0    0  0.71932101125E+03  0.11913005000E+03  0.17512545593E+03  0.74985572703E+03  0.00000000000E+00 0. -1.
<mgrwt>
<rscale>  0 0.15401568E+04</rscale>
<asrwt>0</asrwt>
<pdfrwt beam="1">  1        2 0.10888359E+00 0.15401568E+04</pdfrwt>
<pdfrwt beam="2">  1       -2 0.12890826E+00 0.15401568E+04</pdfrwt>
<totfact> 0.17263610E+01</totfact>
</mgrwt>
</event>
<event>
 6    1  0.3017327E-006  0.1467345E+04  0.7818608E-02  0.8906463E-01
          1   -1    0    0  501    0  0.00000000000E+00  0.00000000000E+00  0.77997881769E+03  0.77997881769E+03  0.00000000000E+00 0. -1.
         -1   -1    0    0    0  501 -0.00000000000E+00 -0.00000000000E+00 -0.69011521480E+03  0.69011521480E+03  0.00000000000E+00 0.  1.
         23    2    1    2    0    0 -0.45137007297E+02  0.16279983761E+03  0.75750639215E+03  0.78140830547E+03  0.90784740732E+02 0.  0.
         13    1    3    3    0    0 -0.32003735203E+01  0.85622406776E+02  0.54132897787E+03  0.54806797135E+03  0.00000000000E+00 0.  1.
        -13    1    3    3    0    0 -0.41936633777E+02  0.77177430836E+02  0.21617741428E+03  0.23334033412E+03  0.00000000000E+00 0. -1.
         22    1    1    2    0    0  0.45137007297E+02 -0.16279983761E+03 -0.66764278926E+03  0.68868572702E+03  0.00000000000E+00 0.  1.
<mgrwt>
<rscale>  0 0.14673449E+04</rscale>
<asrwt>0</asrwt>
<pdfrwt beam="1">  1        1 0.11999674E+00 0.14673449E+04</pdfrwt>
<pdfrwt beam="2">  1       -1 0.10617157E+00 0.14673449E+04</pdfrwt>
<totfact> 0.18532313E+01</totfact>
</mgrwt>
</event>
<event>
 6    1  0.3017327E-006  0.6363956E+04  0.7818608E-02  0.7646844E-01
          1   -1    0    0  501    0  0.00000000000E+00  0.00000000000E+00  0.31586068370E+04  0.31586068370E+04  0.00000000000E+00 0. -1.
         -1   -1    0    0    0  501 -0.00000000000E+00 -0.00000000000E+00 -0.32055221704E+04  0.32055221704E+04  0.00000000000E+00 0.  1.
         23    2    1    2    0    0  0.18777167600E+04  0.88300026673E+03 -0.24350629074E+04  0.32004668041E+04  0.89144258629E+02 0.  0.
         11    1    3    3    0    0  0.11891596705E+04  0.58519309956E+03 -0.16096410334E+04  0.20850649731E+04  0.00000000000E+00 0.  1.
        -11    1    3    3    0    0  0.68855708952E+03  0.29780716716E+03 -0.82542187404E+03  0.11154018309E+04  0.00000000000E+00 0. -1.
         22    1    1    2    0    0 -0.18777167600E+04 -0.88300026673E+03  0.23881475740E+04  0.31636622034E+04  0.00000000000E+00 0. -1.
<mgrwt>
<rscale>  0 0.63639561E+04</rscale>
<asrwt>0</asrwt>
<pdfrwt beam="1">  1        1 0.48593951E+00 0.63639561E+04</pdfrwt>
<pdfrwt beam="2">  1       -1 0.49315726E+00 0.63639561E+04</pdfrwt>
<totfact> 0.49483165E-04</totfact>
</mgrwt>
</event>
<event>
 6    1  0.3017327E-006  0.1522695E+04  0.7818608E-02  0.8869500E-01
         -2   -1    0    0    0  501 -0.00000000000E+00  0.00000000000E+00  0.37802786118E+03  0.37802786118E+03  0.00000000000E+00 0. -1.
          2   -1    0    0  501    0  0.00000000000E+00 -0.00000000000E+00 -0.15333517603E+04  0.15333517603E+04  0.00000000000E+00 0.  1.
         23    2    1    2    0    0  0.88432469709E+02 -0.43878427016E+03  0.18915169876E+03  0.49435225029E+03  0.90850673039E+02 0.  0.
         13    1    3    3    0    0  0.74518533233E+02 -0.38764865498E+03  0.19632898678E+03  0.44087363559E+03  0.00000000000E+00 0. -1.
        -13    1    3    3    0    0  0.13913936475E+02 -0.51135615171E+02 -0.71772880255E+01  0.53478614703E+02  0.00000000000E+00 0.  1.
         22    1    1    2    0    0 -0.88432469709E+02  0.43878427016E+03 -0.13444755979E+04  0.14170273712E+04  0.00000000000E+00 0.  1.
<mgrwt>
<rscale>  0 0.15226946E+04</rscale>
<asrwt>0</asrwt>
<pdfrwt beam="1">  1        2 0.23590027E+00 0.15226946E+04</pdfrwt>
<pdfrwt beam="2">  1       -2 0.58158132E-01 0.15226946E+04</pdfrwt>
<totfact> 0.32426630E+01</totfact>
</mgrwt>
</event>
<event>
 6    1  0.3017327E-006  0.4180972E+04  0.7818608E-02  0.7969002E-01
          2   -1    0    0  501    0  0.00000000000E+00  0.00000000000E+00  0.39357161938E+04  0.39357161938E+04  0.00000000000E+00 0. -1.
         -2   -1    0    0    0  501 -0.00000000000E+00 -0.00000000000E+00 -0.11103779443E+04  0.11103779443E+04  0.00000000000E+00 0.  1.
         23    2    1    2    0    0  0.18333276719E+04 -0.13086358325E+03  0.21358271874E+03  0.18524312594E+04  0.87569189114E+02 0.  0.
         11    1    3    3    0    0  0.15532531259E+04 -0.93115008856E+02  0.15429973914E+03  0.15636732675E+04  0.00000000000E+00 0. -1.
        -11    1    3    3    0    0  0.28007454607E+03 -0.37748574398E+02  0.59282979601E+02  0.28875799192E+03  0.00000000000E+00 0.  1.
         22    1    1    2    0    0 -0.18333276719E+04  0.13086358325E+03  0.26117555308E+04  0.31936628787E+04  0.00000000000E+00 0. -1.
<mgrwt>
<rscale>  0 0.41809724E+04</rscale>
<asrwt>0</asrwt>
<pdfrwt beam="1">  1        2 0.60549479E+00 0.41809724E+04</pdfrwt>
<pdfrwt beam="2">  1       -2 0.17082738E+00 0.41809724E+04</pdfrwt>
<totfact> 0.62752004E-02</totfact>
</mgrwt>
</event>
<event>
 6    1  0.3017327E-006  0.4391874E+04  0.7818608E-02  0.7929845E-01
          2   -1    0    0  501    0  0.00000000000E+00  0.00000000000E+00  0.30167082255E+04  0.30167082255E+04  0.00000000000E+00 0. -1.
         -2   -1    0    0    0  501 -0.00000000000E+00 -0.00000000000E+00 -0.15984774137E+04  0.15984774137E+04  0.00000000000E+00 0.  1.
         23    2    1    2    0    0 -0.17871611117E+04 -0.89452175117E+03 -0.24435178172E+03  0.20155135670E+04  0.92049678684E+02 0.  0.
         11    1    3    3    0    0 -0.56375812905E+03 -0.23512485727E+03 -0.69451370126E+02  0.61476045692E+03  0.00000000000E+00 0. -1.
        -11    1    3    3    0    0 -0.12234029826E+04 -0.65939689389E+03 -0.17490041160E+03  0.14007531101E+04  0.00000000000E+00 0.  1.
         22    1    1    2    0    0  0.17871611117E+04  0.89452175117E+03  0.16625825935E+04  0.25996720721E+04  0.00000000000E+00 0. -1.
<mgrwt>
<rscale>  0 0.43918743E+04</rscale>
<asrwt>0</asrwt>
<pdfrwt beam="1">  1        2 0.46410896E+00 0.43918743E+04</pdfrwt>
<pdfrwt beam="2">  1       -2 0.24591960E+00 0.43918743E+04</pdfrwt>
<totfact> 0.88404352E-02</totfact>
</mgrwt>
</event>
<event>
 6    1  0.3017327E-006  0.7691497E+03  0.7818608E-02  0.9605777E-01
          2   -1    0    0  501    0  0.00000000000E+00  0.00000000000E+00  0.60176358155E+03  0.60176358155E+03  0.00000000000E+00 0. -1.
         -2   -1    0    0    0  501 -0.00000000000E+00 -0.00000000000E+00 -0.24577394590E+03  0.24577394590E+03  0.00000000000E+00 0.  1.
         23    2    1    2    0    0  0.24792097537E+02  0.94830591450E+02 -0.22343297688E+03  0.25988282179E+03  0.89494674296E+02 0.  0.
         11    1    3    3    0    0  0.17248598921E+02  0.52830871551E+02 -0.32800545218E+02  0.64532866976E+02  0.00000000000E+00 0. -1.
        -11    1    3    3    0    0  0.75434986162E+01  0.41999719899E+02 -0.19063243166E+03  0.19534995481E+03  0.00000000000E+00 0.  1.
         22    1    1    2    0    0 -0.24792097537E+02 -0.94830591450E+02  0.57942261253E+03  0.58765470566E+03  0.00000000000E+00 0. -1.
<mgrwt>
<rscale>  0 0.76914969E+03</rscale>
<asrwt>0</asrwt>
<pdfrwt beam="1">  1        2 0.92579012E-01 0.76914969E+03</pdfrwt>
<pdfrwt beam="2">  1       -2 0.37811376E-01 0.76914969E+03</pdfrwt>
<totfact> 0.32828335E+02</totfact>
</mgrwt>
</event>
<event>
 6    1  0.3017327E-006  0.1531427E+04  0.7818608E-02  0.8863819E-01
         -2   -1    0    0    0  501 -0.00000000000E+00  0.00000000000E+00  0.38009733958E+03  0.38009733958E+03  0.00000000000E+00 0.  1.
          2   -1    0    0  501    0  0.00000000000E+00 -0.00000000000E+00 -0.15425457178E+04  0.15425457178E+04  0.00000000000E+00 0. -1.
         23    2    1    2    0    0 -0.10938943816E+02  0.56490577229E+03  0.60531981890E+02  0.57545370422E+03  0.90800070575E+02 0.  0.
         13    1    3    3    0    0 -0.68794624410E+01  0.27807586839E+03  0.75435101497E+02  0.28820820620E+03  0.00000000000E+00 0. -1.
        -13    1    3    3    0    0 -0.40594813748E+01  0.28682990390E+03 -0.14903119608E+02  0.28724549802E+03  0.00000000000E+00 0.  1.
         22    1    1    2    0    0  0.10938943816E+02 -0.56490577229E+03 -0.12229803601E+04  0.13471893532E+04  0.00000000000E+00 0. -1.
<mgrwt>
<rscale>  0 0.15314275E+04</rscale>
<asrwt>0</asrwt>
<pdfrwt beam="1">  1        2 0.23731472E+00 0.15314275E+04</pdfrwt>
<pdfrwt beam="2">  1       -2 0.58476515E-01 0.15314275E+04</pdfrwt>
<totfact> 0.31655634E+01</totfact>
</mgrwt>
</event>
<event>
 6    1  0.3017327E-006  0.1353632E+04  0.7818608E-02  0.8988083E-01
          2   -1    0    0  501    0  0.00000000000E+00  0.00000000000E+00  0.79271255367E+03  0.79271255367E+03  0.00000000000E+00 0.  1.
         -2   -1    0    0    0  501 -0.00000000000E+00 -0.00000000000E+00 -0.57786414587E+03  0.57786414587E+03  0.00000000000E+00 0. -1.
         23    2    1    2    0    0 -0.10434027655E+01  0.58777245396E+03 -0.22557691923E+03  0.63610272790E+03  0.90907577339E+02 0.  0.
         13    1    3    3    0    0 -0.39665505731E+02  0.34611244883E+03 -0.10902707974E+03  0.36503983850E+03  0.00000000000E+00 0. -1.
        -13    1    3    3    0    0  0.38622102965E+02  0.24166000514E+03 -0.11654983949E+03  0.27106288939E+03  0.00000000000E+00 0.  1.
         22    1    1    2    0    0  0.10434027655E+01 -0.58777245396E+03  0.44042532703E+03  0.73447397164E+03  0.00000000000E+00 0.  1.
<mgrwt>
<rscale>  0 0.13536324E+04</rscale>
<asrwt>0</asrwt>
<pdfrwt beam="1">  1        2 0.12195578E+00 0.13536324E+04</pdfrwt>
<pdfrwt beam="2">  1       -2 0.88902176E-01 0.13536324E+04</pdfrwt>
<totfact> 0.37030264E+01</totfact>
</mgrwt>
</event>
<event>
 6    1  0.3017327E-006  0.2508659E+04  0.7818608E-02  0.8399907E-01
         -1   -1    0    0    0  501 -0.00000000000E+00  0.00000000000E+00  0.10839658236E+04  0.10839658236E+04  0.00000000000E+00 0.  1.
          1   -1    0    0  501    0  0.00000000000E+00 -0.00000000000E+00 -0.14514687311E+04  0.14514687311E+04  0.00000000000E+00 0. -1.
         23    2    1    2    0    0  0.24298919912E+03  0.52837167578E+01 -0.14259944209E+04  0.14493977447E+04  0.90675605535E+02 0.  0.
         11    1    3    3    0    0  0.13065973118E+03  0.39078427200E+02 -0.61321715274E+03  0.62819930376E+03  0.00000000000E+00 0. -1.
        -11    1    3    3    0    0  0.11232946794E+03 -0.33794710442E+02 -0.81277726816E+03  0.82119844098E+03  0.00000000000E+00 0.  1.
         22    1    1    2    0    0 -0.24298919912E+03 -0.52837167578E+01  0.10584915134E+04  0.10860368099E+04  0.00000000000E+00 0.  1.
<mgrwt>
<rscale>  0 0.25086590E+04</rscale>
<asrwt>0</asrwt>
<pdfrwt beam="1">  1        1 0.22330288E+00 0.25086590E+04</pdfrwt>
<pdfrwt beam="2">  1       -1 0.16676397E+00 0.25086590E+04</pdfrwt>
<totfact> 0.16321057E+00</totfact>
</mgrwt>
</event>
<event>
 6    1  0.3017327E-006  0.2720423E+04  0.7818608E-02  0.8328409E-01
          2   -1    0    0  501    0  0.00000000000E+00  0.00000000000E+00  0.18114037918E+04  0.18114037918E+04  0.00000000000E+00 0. -1.
         -2   -1    0    0    0  501 -0.00000000000E+00 -0.00000000000E+00 -0.10214043518E+04  0.10214043518E+04  0.00000000000E+00 0.  1.
         23    2    1    2    0    0 -0.73179225451E+03  0.10171242861E+04 -0.15139809300E+03  0.12655522511E+04  0.92948375265E+02 0.  0.
         11    1    3    3    0    0 -0.24721173265E+03  0.28500265899E+03 -0.19993782628E+02  0.37780935369E+03  0.00000000000E+00 0.  1.
        -11    1    3    3    0    0 -0.48458052187E+03  0.73212162715E+03 -0.13140431037E+03  0.88774289741E+03  0.00000000000E+00 0. -1.
         22    1    1    2    0    0  0.73179225451E+03 -0.10171242861E+04  0.94139753302E+03  0.15672558924E+04  0.00000000000E+00 0. -1.
<mgrwt>
<rscale>  0 0.27204233E+04</rscale>
<asrwt>0</asrwt>
<pdfrwt beam="1">  1        2 0.27867751E+00 0.27204233E+04</pdfrwt>
<pdfrwt beam="2">  1       -2 0.15713913E+00 0.27204233E+04</pdfrwt>
<totfact> 0.19706364E+00</totfact>
</mgrwt>
</event>
<event>
 6    1  0.3017327E-006  0.5039216E+04  0.7818608E-02  0.7822486E-01
          2   -1    0    0  501    0  0.00000000000E+00  0.00000000000E+00  0.39307772922E+04  0.39307772922E+04  0.00000000000E+00 0. -1.
         -2   -1    0    0    0  501 -0.00000000000E+00 -0.00000000000E+00 -0.16150558093E+04  0.16150558093E+04  0.00000000000E+00 0.  1.
         23    2    1    2    0    0  0.14967473842E+04 -0.18265061300E+04  0.19392888878E+03  0.23711864775E+04  0.92409536440E+02 0.  0.
         11    1    3    3    0    0  0.10087637856E+04 -0.12455765773E+04  0.89275434572E+02  0.16053147629E+04  0.00000000000E+00 0.  1.
        -11    1    3    3    0    0  0.48798359858E+03 -0.58092955275E+03  0.10465345420E+03  0.76587171459E+03  0.00000000000E+00 0. -1.
         22    1    1    2    0    0 -0.14967473842E+04  0.18265061300E+04  0.21217925941E+04  0.31746466240E+04  0.00000000000E+00 0. -1.
<mgrwt>
<rscale>  0 0.50392161E+04</rscale>
<asrwt>0</asrwt>
<pdfrwt beam="1">  1        2 0.60473496E+00 0.50392161E+04</pdfrwt>
<pdfrwt beam="2">  1       -2 0.24847013E+00 0.50392161E+04</pdfrwt>
<totfact> 0.18449594E-02</totfact>
</mgrwt>
</event>
<event>
 6    1  0.3017327E-006  0.9952660E+03  0.7818608E-02  0.9313752E-01
         -2   -1    0    0    0  501 -0.00000000000E+00  0.00000000000E+00  0.11287670598E+03  0.11287670598E+03  0.00000000000E+00 0.  1.
          2   -1    0    0  501    0  0.00000000000E+00 -0.00000000000E+00 -0.21938858976E+04  0.21938858976E+04  0.00000000000E+00 0. -1.
         23    2    1    2    0    0 -0.19244709175E+03 -0.26960788392E+03 -0.18967835103E+04  0.19277330588E+04  0.92966481656E+02 0.  0.
         13    1    3    3    0    0 -0.62581246782E+02 -0.33760642649E+02 -0.52335896146E+03  0.52816739390E+03  0.00000000000E+00 0. -1.
        -13    1    3    3    0    0 -0.12986584496E+03 -0.23584724127E+03 -0.13734245488E+04  0.13995656649E+04  0.00000000000E+00 0.  1.
         22    1    1    2    0    0  0.19244709175E+03  0.26960788392E+03 -0.18422568134E+03  0.37902954483E+03  0.00000000000E+00 0. -1.
<mgrwt>
<rscale>  0 0.99526602E+03</rscale>
<asrwt>0</asrwt>
<pdfrwt beam="1">  1        2 0.33752091E+00 0.99526602E+03</pdfrwt>
<pdfrwt beam="2">  1       -2 0.17365647E-01 0.99526602E+03</pdfrwt>
<totfact> 0.14305386E+02</totfact>
</mgrwt>
</event>
<event>
 6    1  0.3017327E-006  0.5565388E+04  0.7818608E-02  0.7746755E-01
         -2   -1    0    0    0  501 -0.00000000000E+00  0.00000000000E+00  0.19015610824E+04  0.19015610824E+04  0.00000000000E+00 0. -1.
          2   -1    0    0  501    0  0.00000000000E+00 -0.00000000000E+00 -0.40721209073E+04  0.40721209073E+04  0.00000000000E+00 0.  1.
         23    2    1    2    0    0  0.24544519032E+04  0.62131277282E+03 -0.23233594763E+04  0.34372058041E+04  0.77593663649E+02 0.  0.
         13    1    3    3    0    0  0.18000195373E+04  0.47199540477E+03 -0.16658434114E+04  0.24975756781E+04  0.00000000000E+00 0.  1.
        -13    1    3    3    0    0  0.65443236594E+03  0.14931736805E+03 -0.65751606488E+03  0.93963012593E+03  0.00000000000E+00 0. -1.
         22    1    1    2    0    0 -0.24544519032E+04 -0.62131277282E+03  0.15279965131E+03  0.25364761856E+04  0.00000000000E+00 0. -1.
<mgrwt>
<rscale>  0 0.55653883E+04</rscale>
<asrwt>0</asrwt>
<pdfrwt beam="1">  1        2 0.62648014E+00 0.55653883E+04</pdfrwt>
<pdfrwt beam="2">  1       -2 0.29254786E+00 0.55653883E+04</pdfrwt>
<totfact> 0.72954233E-03</totfact>
</mgrwt>
</event>
<event>
 6    1  0.3017327E-006  0.6274296E+03  0.7818608E-02  0.9850078E-01
         -2   -1    0    0    0  501 -0.00000000000E+00  0.00000000000E+00  0.12450803929E+03  0.12450803929E+03  0.00000000000E+00 0.  1.
          2   -1    0    0  501    0  0.00000000000E+00 -0.00000000000E+00 -0.79044674211E+03  0.79044674211E+03  0.00000000000E+00 0. -1.
         23    2    1    2    0    0  0.59085976940E+02 -0.14087404965E+03 -0.72828144894E+03  0.74996002836E+03  0.93324834451E+02 0.  0.
         13    1    3    3    0    0  0.20481151981E+02 -0.12926505289E+03 -0.63489273699E+03  0.64824202191E+03  0.00000000000E+00 0. -1.
        -13    1    3    3    0    0  0.38604824960E+02 -0.11608996763E+02 -0.93388711946E+02  0.10171800644E+03  0.00000000000E+00 0.  1.
         22    1    1    2    0    0 -0.59085976940E+02  0.14087404965E+03  0.62342746119E+02  0.16499475304E+03  0.00000000000E+00 0. -1.
<mgrwt>
<rscale>  0 0.62742959E+03</rscale>
<asrwt>0</asrwt>
<pdfrwt beam="1">  1        2 0.12160719E+00 0.62742959E+03</pdfrwt>
<pdfrwt beam="2">  1       -2 0.19155083E-01 0.62742959E+03</pdfrwt>
<totfact> 0.81013301E+02</totfact>
</mgrwt>
</event>
<event>
 6    1  0.3017327E-006  0.1624103E+04  0.7818608E-02  0.8805876E-01
          2   -1    0    0  501    0  0.00000000000E+00  0.00000000000E+00  0.97571792697E+03  0.97571792697E+03  0.00000000000E+00 0. -1.
         -2   -1    0    0    0  501 -0.00000000000E+00 -0.00000000000E+00 -0.67583875404E+03  0.67583875404E+03  0.00000000000E+00 0.  1.
         23    2    1    2    0    0  0.25166046564E+03 -0.71896524697E+03  0.42880476063E+03  0.87898576292E+03  0.92186942488E+02 0.  0.
         11    1    3    3    0    0  0.24832714193E+03 -0.68862392493E+03  0.38944864302E+03  0.82918003169E+03  0.00000000000E+00 0. -1.
        -11    1    3    3    0    0  0.33333237036E+01 -0.30341322043E+02  0.39356117611E+02  0.49805731233E+02  0.00000000000E+00 0.  1.
         22    1    1    2    0    0 -0.25166046564E+03  0.71896524697E+03 -0.12892558769E+03  0.77257091809E+03  0.00000000000E+00 0.  1.
<mgrwt>
<rscale>  0 0.16241034E+04</rscale>
<asrwt>0</asrwt>
<pdfrwt beam="1">  1        2 0.15011045E+00 0.16241034E+04</pdfrwt>
<pdfrwt beam="2">  1       -2 0.10397519E+00 0.16241034E+04</pdfrwt>
<totfact> 0.18816539E+01</totfact>
</mgrwt>
</event>
<event>
 6    1  0.3017327E-006  0.4745997E+04  0.7818608E-02  0.7868931E-01
         -2   -1    0    0    0  501 -0.00000000000E+00  0.00000000000E+00  0.20121888798E+04  0.20121888798E+04  0.00000000000E+00 0.  1.
          2   -1    0    0  501    0  0.00000000000E+00 -0.00000000000E+00 -0.27985054817E+04  0.27985054817E+04  0.00000000000E+00 0. -1.
         23    2    1    2    0    0 -0.88096658814E+03 -0.79933133995E+03  0.16870592167E+04  0.20661323454E+04  0.87757324070E+02 0.  0.
         11    1    3    3    0    0 -0.54479881912E+03 -0.46738912308E+03  0.95082063936E+03  0.11913514317E+04  0.00000000000E+00 0. -1.
        -11    1    3    3    0    0 -0.33616776903E+03 -0.33194221687E+03  0.73623857730E+03  0.87478091370E+03  0.00000000000E+00 0.  1.
         22    1    1    2    0    0  0.88096658814E+03  0.79933133995E+03 -0.24733758185E+04  0.27445620161E+04  0.00000000000E+00 0. -1.
<mgrwt>
<rscale>  0 0.47459969E+04</rscale>
<asrwt>0</asrwt>
<pdfrwt beam="1">  1        2 0.43053931E+00 0.47459969E+04</pdfrwt>
<pdfrwt beam="2">  1       -2 0.30956752E+00 0.47459969E+04</pdfrwt>
<totfact> 0.47783012E-02</totfact>
</mgrwt>
</event>
<event>
 6    1  0.3017327E-006  0.2408435E+04  0.7818608E-02  0.8436353E-01
          1   -1    0    0  501    0  0.00000000000E+00  0.00000000000E+00  0.17028341955E+04  0.17028341955E+04  0.00000000000E+00 0. -1.
         -1   -1    0    0    0  501 -0.00000000000E+00 -0.00000000000E+00 -0.85160335576E+03  0.85160335576E+03  0.00000000000E+00 0.  1.
         23    2    1    2    0    0  0.11046533813E+04 -0.11992740895E+03 -0.61809657245E+02  0.11162843517E+04  0.87342108325E+02 0.  0.
         11    1    3    3    0    0  0.96463213167E+03 -0.85868801529E+02 -0.76334724145E+02  0.97145025124E+03  0.00000000000E+00 0. -1.
        -11    1    3    3    0    0  0.14002124964E+03 -0.34058607419E+02  0.14525066901E+02  0.14483410047E+03  0.00000000000E+00 0.  1.
         22    1    1    2    0    0 -0.11046533813E+04  0.11992740895E+03  0.91304049701E+03  0.14381531996E+04  0.00000000000E+00 0. -1.
<mgrwt>
<rscale>  0 0.24084346E+04</rscale>
<asrwt>0</asrwt>
<pdfrwt beam="1">  1        1 0.26197449E+00 0.24084346E+04</pdfrwt>
<pdfrwt beam="2">  1       -1 0.13101590E+00 0.24084346E+04</pdfrwt>
<totfact> 0.21125847E+00</totfact>
</mgrwt>
</event>
<event>
 6    1  0.3017327E-006  0.2076660E+04  0.7818608E-02  0.8571595E-01
         -2   -1    0    0    0  501 -0.00000000000E+00  0.00000000000E+00  0.74417227816E+03  0.74417227816E+03  0.00000000000E+00 0.  1.
          2   -1    0    0  501    0  0.00000000000E+00 -0.00000000000E+00 -0.14487628644E+04  0.14487628644E+04  0.00000000000E+00 0. -1.
         23    2    1    2    0    0 -0.33746226386E+03  0.83289905486E+03  0.19209743090E+03  0.92342696410E+03  0.90632885611E+02 0.  0.
         13    1    3    3    0    0 -0.11976004613E+03  0.31208921790E+03  0.27341041276E+02  0.33539481379E+03  0.00000000000E+00 0. -1.
        -13    1    3    3    0    0 -0.21770221773E+03  0.52080983696E+03  0.16475638962E+03  0.58803215031E+03  0.00000000000E+00 0.  1.
         22    1    1    2    0    0  0.33746226386E+03 -0.83289905486E+03 -0.89668801714E+03  0.12695081785E+04  0.00000000000E+00 0. -1.
<mgrwt>
<rscale>  0 0.20766600E+04</rscale>
<asrwt>0</asrwt>
<pdfrwt beam="1">  1        2 0.22288660E+00 0.20766600E+04</pdfrwt>
<pdfrwt beam="2">  1       -2 0.11448804E+00 0.20766600E+04</pdfrwt>
<totfact> 0.74711798E+00</totfact>
</mgrwt>
</event>
<event>
 6    1  0.3677272E-006  0.4522430E+04  0.7818608E-02  0.7906722E-01
          2   -1    0    0  501    0  0.00000000000E+00  0.00000000000E+00  0.30663426224E+04  0.30663426224E+04  0.00000000000E+00 0. -1.
         -2   -1    0    0    0  501 -0.00000000000E+00 -0.00000000000E+00 -0.16674895012E+04  0.16674895012E+04  0.00000000000E+00 0.  1.
         23    2    1    2    0    0 -0.10183782980E+03  0.13250132692E+04 -0.12141182230E+04  0.18023392698E+04  0.91173883700E+02 0.  0.
         11    1    3    3    0    0 -0.10651686263E+03  0.82435583288E+03 -0.77106429491E+03  0.11337762249E+04  0.00000000000E+00 0. -1.
        -11    1    3    3    0    0  0.46790328299E+01  0.50065743629E+03 -0.44305392804E+03  0.66856304491E+03  0.00000000000E+00 0.  1.
         22    1    1    2    0    0  0.10183782980E+03 -0.13250132692E+04  0.26129713441E+04  0.29314928539E+04  0.00000000000E+00 0. -1.
<mgrwt>
<rscale>  0 0.45224304E+04</rscale>
<asrwt>0</asrwt>
<pdfrwt beam="1">  1        2 0.47174502E+00 0.45224304E+04</pdfrwt>
<pdfrwt beam="2">  1       -2 0.25653685E+00 0.45224304E+04</pdfrwt>
<totfact> 0.70012039E-02</totfact>
</mgrwt>
</event>
<event>
 6    1  0.3017327E-006  0.8253437E+03  0.7818608E-02  0.9524041E-01
         -2   -1    0    0    0  501 -0.00000000000E+00  0.00000000000E+00  0.99730935369E+02  0.99730935369E+02  0.00000000000E+00 0.  1.
          2   -1    0    0  501    0  0.00000000000E+00 -0.00000000000E+00 -0.17075750274E+04  0.17075750274E+04  0.00000000000E+00 0. -1.
         23    2    1    2    0    0 -0.87667952174E+02 -0.34899967657E+03 -0.12307778823E+04  0.12860906804E+04  0.98633657981E+02 0.  0.
         11    1    3    3    0    0 -0.22835845695E+01 -0.11335772610E+03 -0.52579117388E+03  0.53787688866E+03  0.00000000000E+00 0. -1.
        -11    1    3    3    0    0 -0.85384367604E+02 -0.23564195047E+03 -0.70498670841E+03  0.74821379170E+03  0.00000000000E+00 0.  1.
         22    1    1    2    0    0  0.87667952174E+02  0.34899967657E+03 -0.37706620972E+03  0.52121528239E+03  0.00000000000E+00 0. -1.
<mgrwt>
<rscale>  0 0.82534370E+03</rscale>
<asrwt>0</asrwt>
<pdfrwt beam="1">  1        2 0.26270383E+00 0.82534370E+03</pdfrwt>
<pdfrwt beam="2">  1       -2 0.15343222E-01 0.82534370E+03</pdfrwt>
<totfact> 0.33130922E+02</totfact>
</mgrwt>
</event>
<event>
 6    1  0.3017327E-006  0.3300118E+03  0.7818608E-02  0.1071132E+00
          2   -1    0    0  501    0  0.00000000000E+00  0.00000000000E+00  0.11509676955E+04  0.11509676955E+04  0.00000000000E+00 0. -1.
         -2   -1    0    0    0  501 -0.00000000000E+00 -0.00000000000E+00 -0.23655697866E+02  0.23655697866E+02  0.00000000000E+00 0.  1.
         23    2    1    2    0    0 -0.11456641626E+03 -0.89146739891E+02  0.43626695542E+03  0.46849602856E+03  0.89928123581E+02 0.  0.
         11    1    3    3    0    0 -0.52755768544E+02 -0.32716586365E+02  0.31558191389E+03  0.32162943042E+03  0.00000000000E+00 0. -1.
        -11    1    3    3    0    0 -0.61810647721E+02 -0.56430153526E+02  0.12068504154E+03  0.14686659814E+03  0.00000000000E+00 0.  1.
         22    1    1    2    0    0  0.11456641626E+03  0.89146739891E+02  0.69104504224E+03  0.70612736484E+03  0.00000000000E+00 0. -1.
<mgrwt>
<rscale>  0 0.33001178E+03</rscale>
<asrwt>0</asrwt>
<pdfrwt beam="1">  1        2 0.17707191E+00 0.33001178E+03</pdfrwt>
<pdfrwt beam="2">  1       -2 0.36393390E-02 0.33001178E+03</pdfrwt>
<totfact> 0.67818066E+03</totfact>
</mgrwt>
</event>
<event>
 6    1  0.3017327E-006  0.1569154E+04  0.7818608E-02  0.8839726E-01
         -4   -1    0    0    0  501 -0.00000000000E+00  0.00000000000E+00  0.55280012253E+03  0.55280012253E+03  0.00000000000E+00 0. -1.
          4   -1    0    0  501    0  0.00000000000E+00 -0.00000000000E+00 -0.11135320994E+04  0.11135320994E+04  0.00000000000E+00 0.  1.
         23    2    1    2    0    0  0.38192678636E+03 -0.72743406655E+02 -0.10017353529E+04  0.10784175589E+04  0.91384028725E+02 0.  0.
         13    1    3    3    0    0  0.32041755009E+03 -0.33219909532E+02 -0.87046753405E+03  0.92816199913E+03  0.00000000000E+00 0. -1.
        -13    1    3    3    0    0  0.61509236270E+02 -0.39523497123E+02 -0.13126781888E+03  0.15025555978E+03  0.00000000000E+00 0.  1.
         22    1    1    2    0    0 -0.38192678636E+03  0.72743406655E+02  0.44100337604E+03  0.58791466305E+03  0.00000000000E+00 0. -1.
<mgrwt>
<rscale>  0 0.15691535E+04</rscale>
<asrwt>0</asrwt>
<pdfrwt beam="1">  1        4 0.17131263E+00 0.15691535E+04</pdfrwt>
<pdfrwt beam="2">  1       -4 0.85046173E-01 0.15691535E+04</pdfrwt>
<totfact> 0.48003305E-01</totfact>
</mgrwt>
</event>
<event>
 6    1  0.3017327E-006  0.2372397E+04  0.7818608E-02  0.8449910E-01
         -2   -1    0    0    0  501 -0.00000000000E+00  0.00000000000E+00  0.68272247723E+03  0.68272247723E+03  0.00000000000E+00 0. -1.
          2   -1    0    0  501    0  0.00000000000E+00 -0.00000000000E+00 -0.20609650056E+04  0.20609650056E+04  0.00000000000E+00 0.  1.
         23    2    1    2    0    0 -0.11357542794E+03 -0.10645751265E+04 -0.12759888305E+04  0.16681990373E+04  0.92309017989E+02 0.  0.
         13    1    3    3    0    0  0.49961835753E-02 -0.83870812954E+01 -0.66335126043E+00  0.84132747793E+01  0.00000000000E+00 0. -1.
        -13    1    3    3    0    0 -0.11358042412E+03 -0.10561880452E+04 -0.12753254792E+04  0.16597857625E+04  0.00000000000E+00 0.  1.
         22    1    1    2    0    0  0.11357542794E+03  0.10645751265E+04 -0.10225369796E+03  0.10754884456E+04  0.00000000000E+00 0. -1.
<mgrwt>
<rscale>  0 0.23723972E+04</rscale>
<asrwt>0</asrwt>
<pdfrwt beam="1">  1        2 0.31707153E+00 0.23723972E+04</pdfrwt>
<pdfrwt beam="2">  1       -2 0.10503423E+00 0.23723972E+04</pdfrwt>
<totfact> 0.40897420E+00</totfact>
</mgrwt>
</event>
<event>
 6    1  0.3017327E-006  0.1508789E+04  0.7818608E-02  0.8878629E-01
         -1   -1    0    0    0  501 -0.00000000000E+00  0.00000000000E+00  0.62766501451E+03  0.62766501451E+03  0.00000000000E+00 0.  1.
          1   -1    0    0  501    0  0.00000000000E+00 -0.00000000000E+00 -0.90671196012E+03  0.90671196012E+03  0.00000000000E+00 0. -1.
         23    2    1    2    0    0  0.55218212959E+03  0.12464319599E+03  0.36300261428E+03  0.67841630502E+03  0.89647947001E+02 0.  0.
         11    1    3    3    0    0  0.33893311956E+03  0.10691438124E+03  0.18845353422E+03  0.40226990816E+03  0.00000000000E+00 0.  1.
        -11    1    3    3    0    0  0.21324901003E+03  0.17728814755E+02  0.17454908006E+03  0.27614639687E+03  0.00000000000E+00 0. -1.
         22    1    1    2    0    0 -0.55218212959E+03 -0.12464319599E+03 -0.64204955990E+03  0.85596066960E+03  0.00000000000E+00 0. -1.
<mgrwt>
<rscale>  0 0.15087894E+04</rscale>
<asrwt>0</asrwt>
<pdfrwt beam="1">  1        1 0.13949415E+00 0.15087894E+04</pdfrwt>
<pdfrwt beam="2">  1       -1 0.96563849E-01 0.15087894E+04</pdfrwt>
<totfact> 0.17930707E+01</totfact>
</mgrwt>
</event>
<event>
 6    1  0.3017327E-006  0.1834117E+04  0.7818608E-02  0.8688364E-01
         -2   -1    0    0    0  501 -0.00000000000E+00  0.00000000000E+00  0.69146465039E+03  0.69146465039E+03  0.00000000000E+00 0.  1.
          2   -1    0    0  501    0  0.00000000000E+00 -0.00000000000E+00 -0.12162534053E+04  0.12162534053E+04  0.00000000000E+00 0. -1.
         23    2    1    2    0    0 -0.15051748453E+03  0.81464964114E+03  0.14055277564E+03  0.84517916075E+03  0.90902035608E+02 0.  0.
         13    1    3    3    0    0 -0.25907784464E+02  0.25823253701E+03  0.81013699273E+02  0.27187952467E+03  0.00000000000E+00 0. -1.
        -13    1    3    3    0    0 -0.12460970007E+03  0.55641710413E+03  0.59539076371E+02  0.57329963608E+03  0.00000000000E+00 0.  1.
         22    1    1    2    0    0  0.15051748453E+03 -0.81464964114E+03 -0.66534153054E+03  0.10625388949E+04  0.00000000000E+00 0.  1.
<mgrwt>
<rscale>  0 0.18341169E+04</rscale>
<asrwt>0</asrwt>
<pdfrwt beam="1">  1        2 0.18711591E+00 0.18341169E+04</pdfrwt>
<pdfrwt beam="2">  1       -2 0.10637918E+00 0.18341169E+04</pdfrwt>
<totfact> 0.12424874E+01</totfact>
</mgrwt>
</event>
<event>
 6    1  0.3017327E-006  0.2119047E+04  0.7818608E-02  0.8552899E-01
         -1   -1    0    0    0  501 -0.00000000000E+00  0.00000000000E+00  0.52874744493E+03  0.52874744493E+03  0.00000000000E+00 0.  1.
          1   -1    0    0  501    0  0.00000000000E+00 -0.00000000000E+00 -0.21231117363E+04  0.21231117363E+04  0.00000000000E+00 0. -1.
         23    2    1    2    0    0 -0.46129872346E+02  0.42044647702E+03 -0.20117159708E+04  0.20576490926E+04  0.89528966903E+02 0.  0.
         11    1    3    3    0    0 -0.10191947987E+02  0.28661768690E+03 -0.15180217366E+04  0.15448765540E+04  0.00000000000E+00 0.  1.
        -11    1    3    3    0    0 -0.35937924360E+02  0.13382879013E+03 -0.49369423418E+03  0.51277253860E+03  0.00000000000E+00 0. -1.
         22    1    1    2    0    0  0.46129872346E+02 -0.42044647702E+03  0.41735167940E+03  0.59421008866E+03  0.00000000000E+00 0.  1.
<mgrwt>
<rscale>  0 0.21190469E+04</rscale>
<asrwt>0</asrwt>
<pdfrwt beam="1">  1        1 0.32663257E+00 0.21190469E+04</pdfrwt>
<pdfrwt beam="2">  1       -1 0.81345763E-01 0.21190469E+04</pdfrwt>
<totfact> 0.33964973E+00</totfact>
</mgrwt>
</event>
<event>
 6    1  0.3017327E-006  0.4845063E+04  0.7818608E-02  0.7852862E-01
         -2   -1    0    0    0  501 -0.00000000000E+00  0.00000000000E+00  0.19893015334E+04  0.19893015334E+04  0.00000000000E+00 0.  1.
          2   -1    0    0  501    0  0.00000000000E+00 -0.00000000000E+00 -0.29501103969E+04  0.29501103969E+04  0.00000000000E+00 0. -1.
         23    2    1    2    0    0 -0.22876700440E+04  0.79255393300E+03 -0.53574147902E+03  0.24813113936E+04  0.91166509077E+02 0.  0.
         11    1    3    3    0    0 -0.45598805655E+03  0.19655904021E+03 -0.10477375080E+03  0.50748212073E+03  0.00000000000E+00 0. -1.
        -11    1    3    3    0    0 -0.18316819875E+04  0.59599489279E+03 -0.43096772822E+03  0.19738292728E+04  0.00000000000E+00 0.  1.
         22    1    1    2    0    0  0.22876700440E+04 -0.79255393300E+03 -0.42506738455E+03  0.24581005367E+04  0.00000000000E+00 0.  1.
<mgrwt>
<rscale>  0 0.48450631E+04</rscale>
<asrwt>0</asrwt>
<pdfrwt beam="1">  1        2 0.45386314E+00 0.48450631E+04</pdfrwt>
<pdfrwt beam="2">  1       -2 0.30604639E+00 0.48450631E+04</pdfrwt>
<totfact> 0.40217888E-02</totfact>
</mgrwt>
</event>
<event>
 6    1  0.3017327E-006  0.1971637E+04  0.7818608E-02  0.8619998E-01
         -2   -1    0    0    0  501 -0.00000000000E+00  0.00000000000E+00  0.50066656970E+03  0.50066656970E+03  0.00000000000E+00 0.  1.
          2   -1    0    0  501    0  0.00000000000E+00 -0.00000000000E+00 -0.19410875199E+04  0.19410875199E+04  0.00000000000E+00 0. -1.
         23    2    1    2    0    0 -0.36650053885E+02 -0.61019313775E+03 -0.16762777868E+04  0.17865385989E+04  0.90188997789E+02 0.  0.
         11    1    3    3    0    0  0.30000201051E+02 -0.22525241307E+03 -0.61762442401E+03  0.65810226469E+03  0.00000000000E+00 0.  1.
        -11    1    3    3    0    0 -0.66650254936E+02 -0.38494072468E+03 -0.10586533627E+04  0.11284363342E+04  0.00000000000E+00 0. -1.
         22    1    1    2    0    0  0.36650053885E+02  0.61019313775E+03  0.23585683658E+03  0.65521549064E+03  0.00000000000E+00 0.  1.
<mgrwt>
<rscale>  0 0.19716365E+04</rscale>
<asrwt>0</asrwt>
<pdfrwt beam="1">  1        2 0.29862885E+00 0.19716365E+04</pdfrwt>
<pdfrwt beam="2">  1       -2 0.77025626E-01 0.19716365E+04</pdfrwt>
<totfact> 0.10095019E+01</totfact>
</mgrwt>
</event>
<event>
 6    1  0.3017327E-006  0.1989389E+04  0.7818608E-02  0.8611598E-01
          2   -1    0    0  501    0  0.00000000000E+00  0.00000000000E+00  0.27382558917E+04  0.27382558917E+04  0.00000000000E+00 0. -1.
         -2   -1    0    0    0  501 -0.00000000000E+00 -0.00000000000E+00 -0.36133131381E+03  0.36133131381E+03  0.00000000000E+00 0.  1.
         23    2    1    2    0    0 -0.28699236484E+03 -0.74257774240E+03  0.26726308974E+03  0.84471294836E+03  0.91236423694E+02 0.  0.
         11    1    3    3    0    0 -0.48032023283E+02 -0.23421639383E+03  0.66156678056E+02  0.24807478802E+03  0.00000000000E+00 0. -1.
        -11    1    3    3    0    0 -0.23896034155E+03 -0.50836134857E+03  0.20110641168E+03  0.59663816034E+03  0.00000000000E+00 0.  1.
         22    1    1    2    0    0  0.28699236484E+03  0.74257774240E+03  0.21096614882E+04  0.22548742572E+04  0.00000000000E+00 0. -1.
<mgrwt>
<rscale>  0 0.19893895E+04</rscale>
<asrwt>0</asrwt>
<pdfrwt beam="1">  1        2 0.42127012E+00 0.19893895E+04</pdfrwt>
<pdfrwt beam="2">  1       -2 0.55589435E-01 0.19893895E+04</pdfrwt>
<totfact> 0.71323553E+00</totfact>
</mgrwt>
</event>
<event>
 6    1  0.3017327E-006  0.7011744E+04  0.7818608E-02  0.7576225E-01
          2   -1    0    0  501    0  0.00000000000E+00  0.00000000000E+00  0.26201387498E+04  0.26201387498E+04  0.00000000000E+00 0. -1.
         -2   -1    0    0    0  501 -0.00000000000E+00 -0.00000000000E+00 -0.46910263151E+04  0.46910263151E+04  0.00000000000E+00 0.  1.
         23    2    1    2    0    0  0.25702041340E+04 -0.23030123174E+04 -0.16760227849E+04  0.38375886343E+04  0.90659392965E+02 0.  0.
         13    1    3    3    0    0  0.12633236569E+04 -0.11081836217E+04 -0.76975309297E+03  0.18483986111E+04  0.00000000000E+00 0. -1.
        -13    1    3    3    0    0  0.13068804771E+04 -0.11948286957E+04 -0.90626969191E+03  0.19891900231E+04  0.00000000000E+00 0.  1.
         22    1    1    2    0    0 -0.25702041340E+04  0.23030123174E+04 -0.39486478041E+03  0.34735764307E+04  0.00000000000E+00 0.  1.
<mgrwt>
<rscale>  0 0.70117444E+04</rscale>
<asrwt>0</asrwt>
<pdfrwt beam="1">  1        2 0.40309827E+00 0.70117444E+04</pdfrwt>
<pdfrwt beam="2">  1       -2 0.72169636E+00 0.70117444E+04</pdfrwt>
<totfact> 0.35631717E-04</totfact>
</mgrwt>
</event>
<event>
 6    1  0.3017327E-006  0.2929246E+04  0.7818608E-02  0.8264229E-01
         -2   -1    0    0    0  501 -0.00000000000E+00  0.00000000000E+00  0.69098116844E+03  0.69098116844E+03  0.00000000000E+00 0.  1.
          2   -1    0    0  501    0  0.00000000000E+00 -0.00000000000E+00 -0.31044549412E+04  0.31044549412E+04  0.00000000000E+00 0. -1.
         23    2    1    2    0    0 -0.92132706515E+03  0.53707392622E+03 -0.25060024910E+04  0.27249906290E+04  0.90738528279E+02 0.  0.
         13    1    3    3    0    0 -0.72950440798E+03  0.40685206813E+03 -0.18710125918E+04  0.20489981467E+04  0.00000000000E+00 0. -1.
        -13    1    3    3    0    0 -0.19182265717E+03  0.13022185809E+03 -0.63498989914E+03  0.67599248231E+03  0.00000000000E+00 0.  1.
         22    1    1    2    0    0  0.92132706515E+03 -0.53707392622E+03  0.92528718208E+02  0.10704454806E+04  0.00000000000E+00 0.  1.
<mgrwt>
<rscale>  0 0.29292456E+04</rscale>
<asrwt>0</asrwt>
<pdfrwt beam="1">  1        2 0.47760845E+00 0.29292456E+04</pdfrwt>
<pdfrwt beam="2">  1       -2 0.10630480E+00 0.29292456E+04</pdfrwt>
<totfact> 0.91795660E-01</totfact>
</mgrwt>
</event>
<event>
 6    1  0.3017327E-006  0.2634820E+04  0.7818608E-02  0.8356469E-01
          2   -1    0    0  501    0  0.00000000000E+00  0.00000000000E+00  0.24092501866E+04  0.24092501866E+04  0.00000000000E+00 0.  1.
         -2   -1    0    0    0  501 -0.00000000000E+00 -0.00000000000E+00 -0.72037723717E+03  0.72037723717E+03  0.00000000000E+00 0. -1.
         23    2    1    2    0    0  0.12902398826E+04  0.92328776081E+02  0.55879549299E+03  0.14119782701E+04  0.90480245687E+02 0.  0.
         13    1    3    3    0    0  0.99856612215E+03  0.48351051733E+02  0.46386405272E+03  0.11021079729E+04  0.00000000000E+00 0. -1.
        -13    1    3    3    0    0  0.29167376041E+03  0.43977724348E+02  0.94931440270E+02  0.30987029722E+03  0.00000000000E+00 0.  1.
         22    1    1    2    0    0 -0.12902398826E+04 -0.92328776081E+02  0.11300774564E+04  0.17176491536E+04  0.00000000000E+00 0.  1.
<mgrwt>
<rscale>  0 0.26348199E+04</rscale>
<asrwt>0</asrwt>
<pdfrwt beam="1">  1        2 0.37065387E+00 0.26348199E+04</pdfrwt>
<pdfrwt beam="2">  1       -2 0.11082727E+00 0.26348199E+04</pdfrwt>
<totfact> 0.22344006E+00</totfact>
</mgrwt>
</event>
<event>
 6    1  0.3017327E-006  0.1994219E+04  0.7818608E-02  0.8609328E-01
          2   -1    0    0  501    0  0.00000000000E+00  0.00000000000E+00  0.16297445367E+04  0.16297445367E+04  0.00000000000E+00 0. -1.
         -2   -1    0    0    0  501 -0.00000000000E+00 -0.00000000000E+00 -0.61005085972E+03  0.61005085972E+03  0.00000000000E+00 0.  1.
         23    2    1    2    0    0  0.52102800814E+03 -0.73729766358E+03  0.41182236187E+02  0.90841916494E+03  0.91931347568E+02 0.  0.
         11    1    3    3    0    0  0.18252955630E+03 -0.25735938524E+03  0.58353599429E+02  0.32086762794E+03  0.00000000000E+00 0. -1.
        -11    1    3    3    0    0  0.33849845184E+03 -0.47993827834E+03 -0.17171363242E+02  0.58755153700E+03  0.00000000000E+00 0.  1.
         22    1    1    2    0    0 -0.52102800814E+03  0.73729766358E+03  0.97851144081E+03  0.13313762315E+04  0.00000000000E+00 0.  1.
<mgrwt>
<rscale>  0 0.19942187E+04</rscale>
<asrwt>0</asrwt>
<pdfrwt beam="1">  1        2 0.25072993E+00 0.19942187E+04</pdfrwt>
<pdfrwt beam="2">  1       -2 0.93853979E-01 0.19942187E+04</pdfrwt>
<totfact> 0.95654492E+00</totfact>
</mgrwt>
</event>
<event>
 6    1  0.3017327E-006  0.4013418E+04  0.7818608E-02  0.8001845E-01
          2   -1    0    0  501    0  0.00000000000E+00  0.00000000000E+00  0.25281526572E+04  0.25281526572E+04  0.00000000000E+00 0. -1.
         -2   -1    0    0    0  501 -0.00000000000E+00 -0.00000000000E+00 -0.15928159923E+04  0.15928159923E+04  0.00000000000E+00 0.  1.
         23    2    1    2    0    0  0.98397476918E+03 -0.11693795201E+04  0.18012697165E+04  0.23644109766E+04  0.10105377822E+03 0.  0.
         13    1    3    3    0    0  0.13708467475E+03 -0.21353787424E+03  0.32800004628E+03  0.41469827845E+03  0.00000000000E+00 0.  1.
        -13    1    3    3    0    0  0.84689009443E+03 -0.95584164591E+03  0.14732696702E+04  0.19497126982E+04  0.00000000000E+00 0. -1.
         22    1    1    2    0    0 -0.98397476918E+03  0.11693795201E+04 -0.86593305163E+03  0.17565576730E+04  0.00000000000E+00 0.  1.
<mgrwt>
<rscale>  0 0.40134185E+04</rscale>
<asrwt>0</asrwt>
<pdfrwt beam="1">  1        2 0.38894656E+00 0.40134185E+04</pdfrwt>
<pdfrwt beam="2">  1       -2 0.24504861E+00 0.40134185E+04</pdfrwt>
<totfact> 0.18212129E-01</totfact>
</mgrwt>
</event>
<event>
 6    1  0.3017327E-006  0.2334855E+04  0.7818608E-02  0.8464304E-01
         -2   -1    0    0    0  501 -0.00000000000E+00  0.00000000000E+00  0.10400877779E+04  0.10400877779E+04  0.00000000000E+00 0.  1.
          2   -1    0    0  501    0  0.00000000000E+00 -0.00000000000E+00 -0.13103575058E+04  0.13103575058E+04  0.00000000000E+00 0. -1.
         23    2    1    2    0    0 -0.88031537333E+03 -0.46108886784E+03  0.47804716377E+03  0.11064451748E+04  0.90187213228E+02 0.  0.
         13    1    3    3    0    0 -0.59528575698E+03 -0.35829988044E+03  0.32786130423E+03  0.76826881467E+03  0.00000000000E+00 0. -1.
        -13    1    3    3    0    0 -0.28502961635E+03 -0.10278898740E+03  0.15018585953E+03  0.33817636010E+03  0.00000000000E+00 0.  1.
         22    1    1    2    0    0  0.88031537333E+03  0.46108886784E+03 -0.74831689165E+03  0.12440001089E+04  0.00000000000E+00 0. -1.
<mgrwt>
<rscale>  0 0.23348549E+04</rscale>
<asrwt>0</asrwt>
<pdfrwt beam="1">  1        2 0.20159346E+00 0.23348549E+04</pdfrwt>
<pdfrwt beam="2">  1       -2 0.16001350E+00 0.23348549E+04</pdfrwt>
<totfact> 0.37120897E+00</totfact>
</mgrwt>
</event>
<event>
 6    1  0.3017327E-006  0.2179998E+04  0.7818608E-02  0.8526800E-01
          2   -1    0    0  501    0  0.00000000000E+00  0.00000000000E+00  0.96661499939E+03  0.96661499939E+03  0.00000000000E+00 0.  1.
         -2   -1    0    0    0  501 -0.00000000000E+00 -0.00000000000E+00 -0.12291321048E+04  0.12291321048E+04  0.00000000000E+00 0. -1.
         23    2    1    2    0    0  0.14710312512E+03  0.99588543855E+03  0.28443246727E+03  0.10500678423E+04  0.91178444606E+02 0.  0.
         11    1    3    3    0    0  0.94658758088E+02  0.39977612646E+03  0.87120969448E+02  0.41996582609E+03  0.00000000000E+00 0. -1.
        -11    1    3    3    0    0  0.52444367030E+02  0.59610931210E+03  0.19731149782E+03  0.63010201616E+03  0.00000000000E+00 0.  1.
         22    1    1    2    0    0 -0.14710312512E+03 -0.99588543855E+03 -0.54694957265E+03  0.11456792619E+04  0.00000000000E+00 0. -1.
<mgrwt>
<rscale>  0 0.21799977E+04</rscale>
<asrwt>0</asrwt>
<pdfrwt beam="1">  1        2 0.14871000E+00 0.21799977E+04</pdfrwt>
<pdfrwt beam="2">  1       -2 0.18909725E+00 0.21799977E+04</pdfrwt>
<totfact> 0.38091269E+00</totfact>
</mgrwt>
</event>
<event>
 6    1  0.3017327E-006  0.1283621E+04  0.7818608E-02  0.9042655E-01
         -2   -1    0    0    0  501 -0.00000000000E+00  0.00000000000E+00  0.18915441250E+03  0.18915441250E+03  0.00000000000E+00 0. -1.
          2   -1    0    0  501    0  0.00000000000E+00 -0.00000000000E+00 -0.21776971648E+04  0.21776971648E+04  0.00000000000E+00 0.  1.
         23    2    1    2    0    0  0.19898231328E+03  0.41206694318E+02 -0.21155191201E+04  0.21272374070E+04  0.91792621005E+02 0.  0.
         11    1    3    3    0    0  0.11638986190E+03  0.84185519992E+01 -0.77057473813E+03  0.77936057061E+03  0.00000000000E+00 0. -1.
        -11    1    3    3    0    0  0.82592451383E+02  0.32788142319E+02 -0.13449443820E+04  0.13478768363E+04  0.00000000000E+00 0.  1.
         22    1    1    2    0    0 -0.19898231328E+03 -0.41206694318E+02  0.12697636781E+03  0.23961417036E+03  0.00000000000E+00 0. -1.
<mgrwt>
<rscale>  0 0.12836215E+04</rscale>
<asrwt>0</asrwt>
<pdfrwt beam="1">  1        2 0.33503034E+00 0.12836215E+04</pdfrwt>
<pdfrwt beam="2">  1       -2 0.29100679E-01 0.12836215E+04</pdfrwt>
<totfact> 0.56721506E+01</totfact>
</mgrwt>
</event>
<event>
 6    1  0.3017327E-006  0.2598708E+04  0.7818608E-02  0.8368640E-01
         -2   -1    0    0    0  501 -0.00000000000E+00  0.00000000000E+00  0.98940111191E+03  0.98940111191E+03  0.00000000000E+00 0.  1.
          2   -1    0    0  501    0  0.00000000000E+00 -0.00000000000E+00 -0.17064067005E+04  0.17064067005E+04  0.00000000000E+00 0. -1.
         23    2    1    2    0    0  0.12772535630E+04 -0.20769770166E+03 -0.45626427406E+03  0.13757695431E+04  0.10024843295E+03 0.  0.
         13    1    3    3    0    0  0.49241113588E+03 -0.35497737868E+02 -0.19575809730E+03  0.53108384346E+03  0.00000000000E+00 0.  1.
        -13    1    3    3    0    0  0.78484242715E+03 -0.17219996379E+03 -0.26050617676E+03  0.84468569960E+03  0.00000000000E+00 0. -1.
         22    1    1    2    0    0 -0.12772535630E+04  0.20769770166E+03 -0.26074131458E+03  0.13200382694E+04  0.00000000000E+00 0. -1.
<mgrwt>
<rscale>  0 0.25987079E+04</rscale>
<asrwt>0</asrwt>
<pdfrwt beam="1">  1        2 0.26252410E+00 0.25987079E+04</pdfrwt>
<pdfrwt beam="2">  1       -2 0.15221556E+00 0.25987079E+04</pdfrwt>
<totfact> 0.24799327E+00</totfact>
</mgrwt>
</event>
<event>
 6    1  0.3017327E-006  0.1567223E+04  0.7818608E-02  0.8840941E-01
         -2   -1    0    0    0  501 -0.00000000000E+00  0.00000000000E+00  0.76065636765E+03  0.76065636765E+03  0.00000000000E+00 0.  1.
          2   -1    0    0  501    0  0.00000000000E+00 -0.00000000000E+00 -0.80725896802E+03  0.80725896802E+03  0.00000000000E+00 0. -1.
         23    2    1    2    0    0 -0.40786141651E+03  0.43419339237E+03  0.48184372378E+03  0.77159231418E+03  0.91139936933E+02 0.  0.
         11    1    3    3    0    0 -0.12361663257E+03  0.16314553034E+03  0.11836359480E+03  0.23644761892E+03  0.00000000000E+00 0. -1.
        -11    1    3    3    0    0 -0.28424478394E+03  0.27104786203E+03  0.36348012898E+03  0.53514469526E+03  0.00000000000E+00 0.  1.
         22    1    1    2    0    0  0.40786141651E+03 -0.43419339237E+03 -0.52844632415E+03  0.79632302150E+03  0.00000000000E+00 0. -1.
<mgrwt>
<rscale>  0 0.15672226E+04</rscale>
<asrwt>0</asrwt>
<pdfrwt beam="1">  1        2 0.12419369E+00 0.15672226E+04</pdfrwt>
<pdfrwt beam="2">  1       -2 0.11702406E+00 0.15672226E+04</pdfrwt>
<totfact> 0.18484544E+01</totfact>
</mgrwt>
</event>
<event>
 6    1  0.3017327E-006  0.1757321E+04  0.7818608E-02  0.8729331E-01
         -2   -1    0    0    0  501 -0.00000000000E+00  0.00000000000E+00  0.94215938966E+03  0.94215938966E+03  0.00000000000E+00 0.  1.
          2   -1    0    0  501    0  0.00000000000E+00 -0.00000000000E+00 -0.81944127307E+03  0.81944127307E+03  0.00000000000E+00 0. -1.
         23    2    1    2    0    0  0.33638175721E+03 -0.72970728273E+02 -0.74647291173E+03  0.82673679164E+03  0.88286470904E+02 0.  0.
         13    1    3    3    0    0  0.12265748498E+03 -0.69120780190E+02 -0.26970315951E+03  0.30424058757E+03  0.00000000000E+00 0. -1.
        -13    1    3    3    0    0  0.21372427223E+03 -0.38499480834E+01 -0.47676975221E+03  0.52249620407E+03  0.00000000000E+00 0.  1.
         22    1    1    2    0    0 -0.33638175721E+03  0.72970728273E+02  0.86919102832E+03  0.93486387109E+03  0.00000000000E+00 0.  1.
<mgrwt>
<rscale>  0 0.17573210E+04</rscale>
<asrwt>0</asrwt>
<pdfrwt beam="1">  1        2 0.12606789E+00 0.17573210E+04</pdfrwt>
<pdfrwt beam="2">  1       -2 0.14494760E+00 0.17573210E+04</pdfrwt>
<totfact> 0.10360114E+01</totfact>
</mgrwt>
</event>
<event>
 6    1  0.3017327E-006  0.1081214E+04  0.7818608E-02  0.9223697E-01
         -1   -1    0    0    0  501 -0.00000000000E+00  0.00000000000E+00  0.73710649761E+03  0.73710649761E+03  0.00000000000E+00 0.  1.
          1   -1    0    0  501    0  0.00000000000E+00 -0.00000000000E+00 -0.39649106553E+03  0.39649106553E+03  0.00000000000E+00 0. -1.
         23    2    1    2    0    0 -0.45923585172E+02 -0.11292904550E+03 -0.37666186144E+03  0.40603405334E+03  0.90152923501E+02 0.  0.
         11    1    3    3    0    0 -0.17638923308E+02 -0.17804024495E+02 -0.21418447896E+03  0.21564578812E+03  0.00000000000E+00 0.  1.
        -11    1    3    3    0    0 -0.28284661864E+02 -0.95125021007E+02 -0.16247738247E+03  0.19038826522E+03  0.00000000000E+00 0. -1.
         22    1    1    2    0    0  0.45923585172E+02  0.11292904550E+03  0.71727729352E+03  0.72756350980E+03  0.00000000000E+00 0.  1.
<mgrwt>
<rscale>  0 0.10812144E+04</rscale>
<asrwt>0</asrwt>
<pdfrwt beam="1">  1        1 0.60998626E-01 0.10812144E+04</pdfrwt>
<pdfrwt beam="2">  1       -1 0.11340100E+00 0.10812144E+04</pdfrwt>
<totfact> 0.43011395E+01</totfact>
</mgrwt>
</event>
<event>
 6    1  0.3017327E-006  0.3096292E+04  0.7818608E-02  0.8216756E-01
          1   -1    0    0  501    0  0.00000000000E+00  0.00000000000E+00  0.35320623490E+04  0.35320623490E+04  0.00000000000E+00 0.  1.
         -1   -1    0    0    0  501 -0.00000000000E+00 -0.00000000000E+00 -0.67857126872E+03  0.67857126872E+03  0.00000000000E+00 0. -1.
         23    2    1    2    0    0  0.55452913504E+03 -0.14186675056E+04  0.10619668447E+04  0.18591066373E+04  0.91563401393E+02 0.  0.
         13    1    3    3    0    0  0.19704164333E+03 -0.39531923066E+03  0.32269735951E+03  0.54702494383E+03  0.00000000000E+00 0.  1.
        -13    1    3    3    0    0  0.35748749171E+03 -0.10233482749E+04  0.73926948523E+03  0.13120816935E+04  0.00000000000E+00 0. -1.
         22    1    1    2    0    0 -0.55452913504E+03  0.14186675056E+04  0.17915242355E+04  0.23515269804E+04  0.00000000000E+00 0.  1.
<mgrwt>
<rscale>  0 0.30962920E+04</rscale>
<asrwt>0</asrwt>
<pdfrwt beam="1">  1        1 0.54339420E+00 0.30962920E+04</pdfrwt>
<pdfrwt beam="2">  1       -1 0.10439558E+00 0.30962920E+04</pdfrwt>
<totfact> 0.17149602E-01</totfact>
</mgrwt>
</event>
<event>
 6    1  0.3017327E-006  0.1559664E+04  0.7818608E-02  0.8845718E-01
          4   -1    0    0  501    0  0.00000000000E+00  0.00000000000E+00  0.85648149086E+03  0.85648149086E+03  0.00000000000E+00 0. -1.
         -4   -1    0    0    0  501 -0.00000000000E+00 -0.00000000000E+00 -0.71004225331E+03  0.71004225331E+03  0.00000000000E+00 0.  1.
         23    2    1    2    0    0  0.13040020445E+03 -0.20949684731E+03 -0.66668133186E+03  0.71678366465E+03  0.91769718946E+02 0.  0.
         11    1    3    3    0    0  0.92649815056E+02 -0.68504777550E+02 -0.24994266390E+03  0.27522395974E+03  0.00000000000E+00 0.  1.
        -11    1    3    3    0    0  0.37750389395E+02 -0.14099206976E+03 -0.41673866795E+03  0.44155970491E+03  0.00000000000E+00 0. -1.
         22    1    1    2    0    0 -0.13040020445E+03  0.20949684731E+03  0.81312056941E+03  0.84974007952E+03  0.00000000000E+00 0. -1.
<mgrwt>
<rscale>  0 0.15596641E+04</rscale>
<asrwt>0</asrwt>
<pdfrwt beam="1">  1        4 0.13176638E+00 0.15596641E+04</pdfrwt>
<pdfrwt beam="2">  1       -4 0.10923727E+00 0.15596641E+04</pdfrwt>
<totfact> 0.53627805E-01</totfact>
</mgrwt>
</event>
<event>
 6    1  0.3017327E-006  0.4873270E+04  0.7818608E-02  0.7848359E-01
         -2   -1    0    0    0  501 -0.00000000000E+00  0.00000000000E+00  0.26458058426E+04  0.26458058426E+04  0.00000000000E+00 0.  1.
          2   -1    0    0  501    0  0.00000000000E+00 -0.00000000000E+00 -0.22440006945E+04  0.22440006945E+04  0.00000000000E+00 0. -1.
         23    2    1    2    0    0  0.12736221158E+04  0.19791473351E+04 -0.42876558400E+03  0.23940130343E+04  0.91219593844E+02 0.  0.
         13    1    3    3    0    0  0.57053886631E+03  0.87769168943E+03 -0.14492894771E+03  0.10568167767E+04  0.00000000000E+00 0. -1.
        -13    1    3    3    0    0  0.70308324947E+03  0.11014556457E+04 -0.28383663629E+03  0.13371962575E+04  0.00000000000E+00 0.  1.
         22    1    1    2    0    0 -0.12736221158E+04 -0.19791473351E+04  0.83057073203E+03  0.24957935028E+04  0.00000000000E+00 0. -1.
<mgrwt>
<rscale>  0 0.48732700E+04</rscale>
<asrwt>0</asrwt>
<pdfrwt beam="1">  1        2 0.34523088E+00 0.48732700E+04</pdfrwt>
<pdfrwt beam="2">  1       -2 0.40704705E+00 0.48732700E+04</pdfrwt>
<totfact> 0.23951582E-02</totfact>
</mgrwt>
</event>
<event>
 6    1  0.3017327E-006  0.1492627E+04  0.7818608E-02  0.8889371E-01
         -2   -1    0    0    0  501 -0.00000000000E+00  0.00000000000E+00  0.48169126530E+03  0.48169126530E+03  0.00000000000E+00 0.  1.
          2   -1    0    0  501    0  0.00000000000E+00 -0.00000000000E+00 -0.11563089028E+04  0.11563089028E+04  0.00000000000E+00 0. -1.
         23    2    1    2    0    0 -0.51289071291E+03 -0.29927828819E+02 -0.92839248830E+03  0.10649781500E+04  0.91177241094E+02 0.  0.
         11    1    3    3    0    0 -0.26047606154E+03  0.27214351189E+02 -0.43245790450E+03  0.50557713428E+03  0.00000000000E+00 0.  1.
        -11    1    3    3    0    0 -0.25241465137E+03 -0.57142180008E+02 -0.49593458380E+03  0.55940101570E+03  0.00000000000E+00 0. -1.
         22    1    1    2    0    0  0.51289071291E+03  0.29927828819E+02  0.25377485081E+03  0.57302201810E+03  0.00000000000E+00 0.  1.
<mgrwt>
<rscale>  0 0.14926271E+04</rscale>
<asrwt>0</asrwt>
<pdfrwt beam="1">  1        2 0.17789367E+00 0.14926271E+04</pdfrwt>
<pdfrwt beam="2">  1       -2 0.74106350E-01 0.14926271E+04</pdfrwt>
<totfact> 0.31906038E+01</totfact>
</mgrwt>
</event>
<event>
 6    1  0.3017327E-006  0.1325168E+04  0.7818608E-02  0.9009842E-01
          2   -1    0    0  501    0  0.00000000000E+00  0.00000000000E+00  0.67980605331E+03  0.67980605331E+03  0.00000000000E+00 0. -1.
         -2   -1    0    0    0  501 -0.00000000000E+00 -0.00000000000E+00 -0.64579806622E+03  0.64579806622E+03  0.00000000000E+00 0.  1.
         23    2    1    2    0    0  0.19103449089E+03 -0.20060829775E+03 -0.58141632921E+03  0.65070786459E+03  0.92940364397E+02 0.  0.
         13    1    3    3    0    0  0.13309165813E+03 -0.74080794182E+02 -0.28116004990E+03  0.31976917799E+03  0.00000000000E+00 0. -1.
        -13    1    3    3    0    0  0.57942832763E+02 -0.12652750356E+03 -0.30025627931E+03  0.33093868660E+03  0.00000000000E+00 0.  1.
         22    1    1    2    0    0 -0.19103449089E+03  0.20060829775E+03  0.61542431630E+03  0.67489625494E+03  0.00000000000E+00 0. -1.
<mgrwt>
<rscale>  0 0.13251678E+04</rscale>
<asrwt>0</asrwt>
<pdfrwt beam="1">  1        2 0.10458555E+00 0.13251678E+04</pdfrwt>
<pdfrwt beam="2">  1       -2 0.99353548E-01 0.13251678E+04</pdfrwt>
<totfact> 0.34902894E+01</totfact>
</mgrwt>
</event>
<event>
 6    1  0.3017327E-006  0.9943062E+03  0.7818608E-02  0.9314812E-01
         -2   -1    0    0    0  501 -0.00000000000E+00  0.00000000000E+00  0.19081993228E+03  0.19081993228E+03  0.00000000000E+00 0. -1.
          2   -1    0    0  501    0  0.00000000000E+00 -0.00000000000E+00 -0.12952588368E+04  0.12952588368E+04  0.00000000000E+00 0.  1.
         23    2    1    2    0    0 -0.29868402724E+03 -0.37690223848E+03 -0.71876703261E+03  0.86962906450E+03  0.91439691381E+02 0.  0.
         13    1    3    3    0    0 -0.21073519849E+03 -0.19921587348E+03 -0.45723127829E+03  0.54143949799E+03  0.00000000000E+00 0. -1.
        -13    1    3    3    0    0 -0.87948828757E+02 -0.17768636499E+03 -0.26153575432E+03  0.32818956652E+03  0.00000000000E+00 0.  1.
         22    1    1    2    0    0  0.29868402724E+03  0.37690223848E+03 -0.38567187192E+03  0.61644970459E+03  0.00000000000E+00 0.  1.
<mgrwt>
<rscale>  0 0.99430620E+03</rscale>
<asrwt>0</asrwt>
<pdfrwt beam="1">  1        2 0.19927059E+00 0.99430620E+03</pdfrwt>
<pdfrwt beam="2">  1       -2 0.29356912E-01 0.99430620E+03</pdfrwt>
<totfact> 0.17715418E+02</totfact>
</mgrwt>
</event>
<event>
 6    1  0.3017327E-006  0.3455870E+04  0.7818608E-02  0.8124329E-01
         -2   -1    0    0    0  501 -0.00000000000E+00  0.00000000000E+00  0.10003201049E+04  0.10003201049E+04  0.00000000000E+00 0.  1.
          2   -1    0    0  501    0  0.00000000000E+00 -0.00000000000E+00 -0.29848030665E+04  0.29848030665E+04  0.00000000000E+00 0. -1.
         23    2    1    2    0    0  0.12036833325E+04 -0.12350888856E+04 -0.10890151131E+04  0.20418885515E+04  0.95167327155E+02 0.  0.
         13    1    3    3    0    0  0.43731301395E+03 -0.41606750105E+03 -0.42778732350E+03  0.73983567888E+03  0.00000000000E+00 0. -1.
        -13    1    3    3    0    0  0.76637031853E+03 -0.81902138452E+03 -0.66122778955E+03  0.13020528726E+04  0.00000000000E+00 0.  1.
         22    1    1    2    0    0 -0.12036833325E+04  0.12350888856E+04 -0.89546784857E+03  0.19432346199E+04  0.00000000000E+00 0.  1.
<mgrwt>
<rscale>  0 0.34558695E+04</rscale>
<asrwt>0</asrwt>
<pdfrwt beam="1">  1        2 0.45920046E+00 0.34558695E+04</pdfrwt>
<pdfrwt beam="2">  1       -2 0.15389540E+00 0.34558695E+04</pdfrwt>
<totfact> 0.41042940E-01</totfact>
</mgrwt>
</event>
<event>
 6    1  0.3017327E-006  0.3143978E+04  0.7818608E-02  0.8203771E-01
         -2   -1    0    0    0  501 -0.00000000000E+00  0.00000000000E+00  0.24395361226E+04  0.24395361226E+04  0.00000000000E+00 0.  1.
          2   -1    0    0  501    0  0.00000000000E+00 -0.00000000000E+00 -0.10129585711E+04  0.10129585711E+04  0.00000000000E+00 0. -1.
         23    2    1    2    0    0  0.32006971371E+03  0.15303579642E+04  0.54771084476E+03  0.16589376669E+04  0.87446515279E+02 0.  0.
         11    1    3    3    0    0  0.29793149237E+03  0.13878093792E+04  0.52221869618E+03  0.15124451771E+04  0.00000000000E+00 0. -1.
        -11    1    3    3    0    0  0.22138221342E+02  0.14254858503E+03  0.25492148583E+02  0.14649248983E+03  0.00000000000E+00 0.  1.
         22    1    1    2    0    0 -0.32006971371E+03 -0.15303579642E+04  0.87886670672E+03  0.17935570268E+04  0.00000000000E+00 0. -1.
<mgrwt>
<rscale>  0 0.31439778E+04</rscale>
<asrwt>0</asrwt>
<pdfrwt beam="1">  1        2 0.15583978E+00 0.31439778E+04</pdfrwt>
<pdfrwt beam="2">  1       -2 0.37531325E+00 0.31439778E+04</pdfrwt>
<totfact> 0.22423804E-01</totfact>
</mgrwt>
</event>
<event>
 6    1  0.3017327E-006  0.1920545E+04  0.7818608E-02  0.8644697E-01
         -2   -1    0    0    0  501 -0.00000000000E+00  0.00000000000E+00  0.44489517660E+03  0.44489517660E+03  0.00000000000E+00 0.  1.
          2   -1    0    0  501    0  0.00000000000E+00 -0.00000000000E+00 -0.20726763302E+04  0.20726763302E+04  0.00000000000E+00 0. -1.
         23    2    1    2    0    0  0.17503825416E+03 -0.19758234465E+03 -0.20230473722E+04  0.20422689117E+04  0.92002522343E+02 0.  0.
         11    1    3    3    0    0  0.33740837714E+02 -0.72361578367E+02 -0.37261761076E+03  0.38107548596E+03  0.00000000000E+00 0. -1.
        -11    1    3    3    0    0  0.14129741645E+03 -0.12522076629E+03 -0.16504297614E+04  0.16611934257E+04  0.00000000000E+00 0.  1.
         22    1    1    2    0    0 -0.17503825416E+03  0.19758234465E+03  0.39526621861E+03  0.47530259511E+03  0.00000000000E+00 0.  1.
<mgrwt>
<rscale>  0 0.19205454E+04</rscale>
<asrwt>0</asrwt>
<pdfrwt beam="1">  1        2 0.31887328E+00 0.19205454E+04</pdfrwt>
<pdfrwt beam="2">  1       -2 0.68445412E-01 0.19205454E+04</pdfrwt>
<totfact> 0.11109386E+01</totfact>
</mgrwt>
</event>
<event>
 6    1  0.3017327E-006  0.3497314E+04  0.7818608E-02  0.8114427E-01
          1   -1    0    0  501    0  0.00000000000E+00  0.00000000000E+00  0.31942691116E+04  0.31942691116E+04  0.00000000000E+00 0. -1.
         -1   -1    0    0    0  501 -0.00000000000E+00 -0.00000000000E+00 -0.95727749055E+03  0.95727749055E+03  0.00000000000E+00 0.  1.
         23    2    1    2    0    0 -0.88828949002E+03 -0.14920244323E+04  0.88678870994E+03  0.19519459507E+04  0.92215259207E+02 0.  0.
         11    1    3    3    0    0 -0.86324607819E+02 -0.17976153931E+03  0.76101897003E+02  0.21344237550E+03  0.00000000000E+00 0.  1.
        -11    1    3    3    0    0 -0.80196488220E+03 -0.13122628929E+04  0.81068681294E+03  0.17385035752E+04  0.00000000000E+00 0. -1.
         22    1    1    2    0    0  0.88828949002E+03  0.14920244323E+04  0.13502029111E+04  0.21996006514E+04  0.00000000000E+00 0. -1.
<mgrwt>
<rscale>  0 0.34973144E+04</rscale>
<asrwt>0</asrwt>
<pdfrwt beam="1">  1        1 0.49142601E+00 0.34973144E+04</pdfrwt>
<pdfrwt beam="2">  1       -1 0.14727346E+00 0.34973144E+04</pdfrwt>
<totfact> 0.12827465E-01</totfact>
</mgrwt>
</event>
<event>
 6    1  0.3017327E-006  0.2150595E+04  0.7818608E-02  0.8539278E-01
          2   -1    0    0  501    0  0.00000000000E+00  0.00000000000E+00  0.28936319414E+04  0.28936319414E+04  0.00000000000E+00 0. -1.
         -2   -1    0    0    0  501 -0.00000000000E+00 -0.00000000000E+00 -0.39958929139E+03  0.39958929139E+03  0.00000000000E+00 0.  1.
         23    2    1    2    0    0 -0.28296836826E+03  0.10199143873E+04  0.97626294231E+03  0.14428289241E+04  0.91485064553E+02 0.  0.
         11    1    3    3    0    0 -0.13914439183E+03  0.66252446536E+03  0.60994525015E+03  0.91122611747E+03  0.00000000000E+00 0.  1.
        -11    1    3    3    0    0 -0.14382397643E+03  0.35738992190E+03  0.36631769216E+03  0.53160280667E+03  0.00000000000E+00 0. -1.
         22    1    1    2    0    0  0.28296836826E+03 -0.10199143873E+04  0.15177797077E+04  0.18503923087E+04  0.00000000000E+00 0. -1.
<mgrwt>
<rscale>  0 0.21505946E+04</rscale>
<asrwt>0</asrwt>
<pdfrwt beam="1">  1        2 0.44517413E+00 0.21505946E+04</pdfrwt>
<pdfrwt beam="2">  1       -2 0.61475278E-01 0.21505946E+04</pdfrwt>
<totfact> 0.45817230E+00</totfact>
</mgrwt>
</event>
<event>
 6    1  0.3017327E-006  0.1180839E+04  0.7818608E-02  0.9129796E-01
         -2   -1    0    0    0  501 -0.00000000000E+00  0.00000000000E+00  0.22295688172E+03  0.22295688172E+03  0.00000000000E+00 0.  1.
          2   -1    0    0  501    0  0.00000000000E+00 -0.00000000000E+00 -0.15635082700E+04  0.15635082700E+04  0.00000000000E+00 0. -1.
         23    2    1    2    0    0 -0.11626911464E+03  0.57192975801E+03 -0.57927303872E+03  0.82721185847E+03  0.90000279364E+02 0.  0.
         13    1    3    3    0    0 -0.54171060089E+02  0.21032133139E+03 -0.27593174080E+03  0.35115223447E+03  0.00000000000E+00 0.  1.
        -13    1    3    3    0    0 -0.62098054553E+02  0.36160842662E+03 -0.30334129792E+03  0.47605962400E+03  0.00000000000E+00 0. -1.
         22    1    1    2    0    0  0.11626911464E+03 -0.57192975801E+03 -0.76127834956E+03  0.95925329326E+03  0.00000000000E+00 0.  1.
<mgrwt>
<rscale>  0 0.11808386E+04</rscale>
<asrwt>0</asrwt>
<pdfrwt beam="1">  1        2 0.24053974E+00 0.11808386E+04</pdfrwt>
<pdfrwt beam="2">  1       -2 0.34301058E-01 0.11808386E+04</pdfrwt>
<totfact> 0.91909116E+01</totfact>
</mgrwt>
</event>
<event>
 6    1  0.3017327E-006  0.7533087E+03  0.7818608E-02  0.9630174E-01
          2   -1    0    0  501    0  0.00000000000E+00  0.00000000000E+00  0.12953769626E+04  0.12953769626E+04  0.00000000000E+00 0. -1.
         -2   -1    0    0    0  501 -0.00000000000E+00 -0.00000000000E+00 -0.10951909218E+03  0.10951909218E+03  0.00000000000E+00 0.  1.
         23    2    1    2    0    0 -0.69398913098E+02  0.22893590254E+03  0.72707981290E+02  0.26633093488E+03  0.91748894927E+02 0.  0.
         11    1    3    3    0    0 -0.36912303939E+01  0.12811478085E+03  0.50376249737E+01  0.12826690890E+03  0.00000000000E+00 0.  1.
        -11    1    3    3    0    0 -0.65707682704E+02  0.10082112168E+03  0.67670356316E+02  0.13806402597E+03  0.00000000000E+00 0. -1.
         22    1    1    2    0    0  0.69398913098E+02 -0.22893590254E+03  0.11131498892E+04  0.11385651199E+04  0.00000000000E+00 0. -1.
<mgrwt>
<rscale>  0 0.75330873E+03</rscale>
<asrwt>0</asrwt>
<pdfrwt beam="1">  1        2 0.19928875E+00 0.75330873E+03</pdfrwt>
<pdfrwt beam="2">  1       -2 0.16849092E-01 0.75330873E+03</pdfrwt>
<totfact> 0.48228271E+02</totfact>
</mgrwt>
</event>
<event>
 6    1  0.3017327E-006  0.2873336E+04  0.7818608E-02  0.8280855E-01
         -2   -1    0    0    0  501 -0.00000000000E+00  0.00000000000E+00  0.52371741622E+03  0.52371741622E+03  0.00000000000E+00 0. -1.
          2   -1    0    0  501    0  0.00000000000E+00 -0.00000000000E+00 -0.39410844119E+04  0.39410844119E+04  0.00000000000E+00 0.  1.
         23    2    1    2    0    0  0.24942321589E+03  0.10126487930E+04 -0.32425245312E+04  0.34073334333E+04  0.91028960687E+02 0.  0.
         13    1    3    3    0    0  0.11417758860E+03  0.32823364266E+03 -0.11714837574E+04  0.12219443686E+04  0.00000000000E+00 0. -1.
        -13    1    3    3    0    0  0.13524562728E+03  0.68441515036E+03 -0.20710407737E+04  0.21853890647E+04  0.00000000000E+00 0.  1.
         22    1    1    2    0    0 -0.24942321589E+03 -0.10126487930E+04 -0.17484246447E+03  0.10574683948E+04  0.00000000000E+00 0. -1.
<mgrwt>
<rscale>  0 0.28733357E+04</rscale>
<asrwt>0</asrwt>
<pdfrwt beam="1">  1        2 0.60632068E+00 0.28733357E+04</pdfrwt>
<pdfrwt beam="2">  1       -2 0.80571910E-01 0.28733357E+04</pdfrwt>
<totfact> 0.44888836E-01</totfact>
</mgrwt>
</event>
<event>
 6    1  0.3017327E-006  0.1136095E+04  0.7818608E-02  0.9170708E-01
          2   -1    0    0  501    0  0.00000000000E+00  0.00000000000E+00  0.11683364420E+04  0.11683364420E+04  0.00000000000E+00 0. -1.
         -2   -1    0    0    0  501 -0.00000000000E+00 -0.00000000000E+00 -0.27618606498E+03  0.27618606498E+03  0.00000000000E+00 0.  1.
         23    2    1    2    0    0  0.22661647064E+03 -0.36420470973E+03  0.91533586107E+03  0.10149440368E+04  0.90948138990E+02 0.  0.
         11    1    3    3    0    0  0.21390358774E+03 -0.29615526973E+03  0.81398078603E+03  0.89220368115E+03  0.00000000000E+00 0. -1.
        -11    1    3    3    0    0  0.12712882896E+02 -0.68049439997E+02  0.10135507504E+03  0.12274035568E+03  0.00000000000E+00 0.  1.
         22    1    1    2    0    0 -0.22661647064E+03  0.36420470973E+03 -0.23185484036E+02  0.42957847016E+03  0.00000000000E+00 0.  1.
<mgrwt>
<rscale>  0 0.11360955E+04</rscale>
<asrwt>0</asrwt>
<pdfrwt beam="1">  1        2 0.17974406E+00 0.11360955E+04</pdfrwt>
<pdfrwt beam="2">  1       -2 0.42490165E-01 0.11360955E+04</pdfrwt>
<totfact> 0.10287655E+02</totfact>
</mgrwt>
</event>
<event>
 6    1  0.3017327E-006  0.1416711E+04  0.7818608E-02  0.8941810E-01
          2   -1    0    0  501    0  0.00000000000E+00  0.00000000000E+00  0.21549586115E+04  0.21549586115E+04  0.00000000000E+00 0. -1.
         -2   -1    0    0    0  501 -0.00000000000E+00 -0.00000000000E+00 -0.23284316085E+03  0.23284316085E+03  0.00000000000E+00 0.  1.
         23    2    1    2    0    0 -0.21129585934E+03  0.51392305258E+03  0.23175880688E+03  0.60845682903E+03  0.88004113996E+02 0.  0.
         11    1    3    3    0    0 -0.89751344032E+02  0.18293297426E+03  0.12908572772E+03  0.24121132214E+03  0.00000000000E+00 0. -1.
        -11    1    3    3    0    0 -0.12154451531E+03  0.33099007832E+03  0.10267307916E+03  0.36724550689E+03  0.00000000000E+00 0.  1.
         22    1    1    2    0    0  0.21129585934E+03 -0.51392305258E+03  0.16903566437E+04  0.17793449433E+04  0.00000000000E+00 0. -1.
<mgrwt>
<rscale>  0 0.14167108E+04</rscale>
<asrwt>0</asrwt>
<pdfrwt beam="1">  1        2 0.33153208E+00 0.14167108E+04</pdfrwt>
<pdfrwt beam="2">  1       -2 0.35822026E-01 0.14167108E+04</pdfrwt>
<totfact> 0.39036264E+01</totfact>
</mgrwt>
</event>
<event>
 6    1  0.3017327E-006  0.2829365E+04  0.7818608E-02  0.8294209E-01
         -2   -1    0    0    0  501 -0.00000000000E+00  0.00000000000E+00  0.10766074757E+04  0.10766074757E+04  0.00000000000E+00 0.  1.
          2   -1    0    0  501    0  0.00000000000E+00 -0.00000000000E+00 -0.18589190688E+04  0.18589190688E+04  0.00000000000E+00 0. -1.
         23    2    1    2    0    0  0.13128673851E+04  0.46196080371E+03 -0.64617079302E+03  0.15371121308E+04  0.90268787605E+02 0.  0.
         13    1    3    3    0    0  0.69742488934E+03  0.27307623030E+03 -0.30701667112E+03  0.80946361263E+03  0.00000000000E+00 0.  1.
        -13    1    3    3    0    0  0.61544249573E+03  0.18888457341E+03 -0.33915412190E+03  0.72764851819E+03  0.00000000000E+00 0. -1.
         22    1    1    2    0    0 -0.13128673851E+04 -0.46196080371E+03 -0.13614080007E+03  0.13984144137E+04  0.00000000000E+00 0. -1.
<mgrwt>
<rscale>  0 0.28293647E+04</rscale>
<asrwt>0</asrwt>
<pdfrwt beam="1">  1        2 0.28598755E+00 0.28293647E+04</pdfrwt>
<pdfrwt beam="2">  1       -2 0.16563192E+00 0.28293647E+04</pdfrwt>
<totfact> 0.15916952E+00</totfact>
</mgrwt>
</event>
<event>
 6    1  0.3017327E-006  0.2459586E+04  0.7818608E-02  0.8417526E-01
          2   -1    0    0  501    0  0.00000000000E+00  0.00000000000E+00  0.22324756476E+04  0.22324756476E+04  0.00000000000E+00 0. -1.
         -2   -1    0    0    0  501 -0.00000000000E+00 -0.00000000000E+00 -0.67744997837E+03  0.67744997837E+03  0.00000000000E+00 0.  1.
         23    2    1    2    0    0  0.18226470070E+03  0.99896919270E+03 -0.38401155686E+02  0.10204365640E+04  0.93039041391E+02 0.  0.
         13    1    3    3    0    0  0.12415379023E+03  0.48388806268E+03 -0.49172824764E+02  0.50197588341E+03  0.00000000000E+00 0.  1.
        -13    1    3    3    0    0  0.58110910466E+02  0.51508113002E+03  0.10771669078E+02  0.51846068055E+03  0.00000000000E+00 0. -1.
         22    1    1    2    0    0 -0.18226470070E+03 -0.99896919270E+03  0.15934268250E+04  0.18894890620E+04  0.00000000000E+00 0. -1.
<mgrwt>
<rscale>  0 0.24595858E+04</rscale>
<asrwt>0</asrwt>
<pdfrwt beam="1">  1        2 0.34345779E+00 0.24595858E+04</pdfrwt>
<pdfrwt beam="2">  1       -2 0.10422307E+00 0.24595858E+04</pdfrwt>
<totfact> 0.33146318E+00</totfact>
</mgrwt>
</event>
<event>
 6    1  0.3017327E-006  0.4307096E+04  0.7818608E-02  0.7945307E-01
          2   -1    0    0  501    0  0.00000000000E+00  0.00000000000E+00  0.40368795048E+04  0.40368795048E+04  0.00000000000E+00 0. -1.
         -2   -1    0    0    0  501 -0.00000000000E+00 -0.00000000000E+00 -0.11488499472E+04  0.11488499472E+04  0.00000000000E+00 0.  1.
         23    2    1    2    0    0 -0.63643355733E+03 -0.15620833915E+04 -0.16536117954E+03  0.16974136423E+04  0.93362511326E+02 0.  0.
         13    1    3    3    0    0 -0.45646139931E+03 -0.10511887963E+04 -0.77150346822E+02  0.11486109309E+04  0.00000000000E+00 0. -1.
        -13    1    3    3    0    0 -0.17997215802E+03 -0.51089459520E+03 -0.88210832720E+02  0.54880271144E+03  0.00000000000E+00 0.  1.
         22    1    1    2    0    0  0.63643355733E+03  0.15620833915E+04  0.30533907371E+04  0.34883158097E+04  0.00000000000E+00 0. -1.
<mgrwt>
<rscale>  0 0.43070959E+04</rscale>
<asrwt>0</asrwt>
<pdfrwt beam="1">  1        2 0.62105838E+00 0.43070959E+04</pdfrwt>
<pdfrwt beam="2">  1       -2 0.17674615E+00 0.43070959E+04</pdfrwt>
<totfact> 0.46731973E-02</totfact>
</mgrwt>
</event>
<event>
 6    1  0.3017327E-006  0.3902424E+04  0.7818608E-02  0.8024525E-01
         -2   -1    0    0    0  501 -0.00000000000E+00  0.00000000000E+00  0.16809736096E+04  0.16809736096E+04  0.00000000000E+00 0.  1.
          2   -1    0    0  501    0  0.00000000000E+00 -0.00000000000E+00 -0.22648948463E+04  0.22648948463E+04  0.00000000000E+00 0. -1.
         23    2    1    2    0    0 -0.40640460573E+03 -0.79436129638E+03  0.14612266818E+04  0.17145449515E+04  0.91139467138E+02 0.  0.
         11    1    3    3    0    0 -0.31602592708E+03 -0.64849636118E+03  0.12398606105E+04  0.14344595674E+04  0.00000000000E+00 0.  1.
        -11    1    3    3    0    0 -0.90378678652E+02 -0.14586493520E+03  0.22136607124E+03  0.28008538407E+03  0.00000000000E+00 0. -1.
         22    1    1    2    0    0  0.40640460573E+03  0.79436129638E+03 -0.20451479185E+04  0.22313235044E+04  0.00000000000E+00 0. -1.
<mgrwt>
<rscale>  0 0.39024241E+04</rscale>
<asrwt>0</asrwt>
<pdfrwt beam="1">  1        2 0.34844536E+00 0.39024241E+04</pdfrwt>
<pdfrwt beam="2">  1       -2 0.25861132E+00 0.39024241E+04</pdfrwt>
<totfact> 0.21472679E-01</totfact>
</mgrwt>
</event>
<event>
 6    1  0.3017327E-006  0.1983794E+04  0.7818608E-02  0.8614235E-01
          2   -1    0    0  501    0  0.00000000000E+00  0.00000000000E+00  0.10068206594E+04  0.10068206594E+04  0.00000000000E+00 0. -1.
         -2   -1    0    0    0  501 -0.00000000000E+00 -0.00000000000E+00 -0.97719467727E+03  0.97719467727E+03  0.00000000000E+00 0.  1.
         23    2    1    2    0    0 -0.21637770206E+03  0.93738077548E+03  0.24789364124E+03  0.99753533226E+03  0.90130203287E+02 0.  0.
         11    1    3    3    0    0 -0.24449278021E+02  0.28534783515E+03  0.65318593885E+02  0.29374763476E+03  0.00000000000E+00 0. -1.
        -11    1    3    3    0    0 -0.19192842404E+03  0.65203294033E+03  0.18257504735E+03  0.70378769749E+03  0.00000000000E+00 0.  1.
         22    1    1    2    0    0  0.21637770206E+03 -0.93738077548E+03 -0.21826765907E+03  0.98648000445E+03  0.00000000000E+00 0.  1.
<mgrwt>
<rscale>  0 0.19837941E+04</rscale>
<asrwt>0</asrwt>
<pdfrwt beam="1">  1        2 0.15489549E+00 0.19837941E+04</pdfrwt>
<pdfrwt beam="2">  1       -2 0.15033764E+00 0.19837941E+04</pdfrwt>
<totfact> 0.69081670E+00</totfact>
</mgrwt>
</event>
<event>
 6    1  0.3017327E-006  0.4731539E+04  0.7818608E-02  0.7871309E-01
          2   -1    0    0  501    0  0.00000000000E+00  0.00000000000E+00  0.27478091939E+04  0.27478091939E+04  0.00000000000E+00 0. -1.
         -2   -1    0    0    0  501 -0.00000000000E+00 -0.00000000000E+00 -0.20368466220E+04  0.20368466220E+04  0.00000000000E+00 0.  1.
         23    2    1    2    0    0  0.22137345536E+04 -0.83176939607E+03  0.34345634994E+03  0.23914316674E+04  0.92315510239E+02 0.  0.
         11    1    3    3    0    0  0.15085835505E+04 -0.60673590852E+03  0.21490322073E+03  0.16401634632E+04  0.00000000000E+00 0. -1.
        -11    1    3    3    0    0  0.70515100303E+03 -0.22503348755E+03  0.12855312921E+03  0.75126820419E+03  0.00000000000E+00 0.  1.
         22    1    1    2    0    0 -0.22137345536E+04  0.83176939607E+03  0.36750622189E+03  0.23932241485E+04  0.00000000000E+00 0. -1.
<mgrwt>
<rscale>  0 0.47315392E+04</rscale>
<asrwt>0</asrwt>
<pdfrwt beam="1">  1        2 0.42273988E+00 0.47315392E+04</pdfrwt>
<pdfrwt beam="2">  1       -2 0.31336102E+00 0.47315392E+04</pdfrwt>
<totfact> 0.48643369E-02</totfact>
</mgrwt>
</event>
<event>
 6    1  0.3017327E-006  0.6427070E+03  0.7818608E-02  0.9820561E-01
         -2   -1    0    0    0  501 -0.00000000000E+00  0.00000000000E+00  0.83656989300E+02  0.83656989300E+02  0.00000000000E+00 0.  1.
          2   -1    0    0  501    0  0.00000000000E+00 -0.00000000000E+00 -0.12344223476E+04  0.12344223476E+04  0.00000000000E+00 0. -1.
         23    2    1    2    0    0 -0.10159253668E+03 -0.17674787802E+02 -0.11972429773E+04  0.12049704924E+04  0.89048858852E+02 0.  0.
         13    1    3    3    0    0 -0.22689016406E+02 -0.41322708386E+02 -0.63218934667E+03  0.63394457781E+03  0.00000000000E+00 0. -1.
        -13    1    3    3    0    0 -0.78903520276E+02  0.23647920584E+02 -0.56505363059E+03  0.57102591457E+03  0.00000000000E+00 0.  1.
         22    1    1    2    0    0  0.10159253668E+03  0.17674787802E+02  0.46477618998E+02  0.11310884449E+03  0.00000000000E+00 0.  1.
<mgrwt>
<rscale>  0 0.64270695E+03</rscale>
<asrwt>0</asrwt>
<pdfrwt beam="1">  1        2 0.18991112E+00 0.64270695E+03</pdfrwt>
<pdfrwt beam="2">  1       -2 0.12870307E-01 0.64270695E+03</pdfrwt>
<totfact> 0.82816139E+02</totfact>
</mgrwt>
</event>
<event>
 6    1  0.3017327E-006  0.1741938E+04  0.7818608E-02  0.8737800E-01
          2   -1    0    0  501    0  0.00000000000E+00  0.00000000000E+00  0.29473799105E+04  0.29473799105E+04  0.00000000000E+00 0. -1.
         -2   -1    0    0    0  501 -0.00000000000E+00 -0.00000000000E+00 -0.25737677694E+03  0.25737677694E+03  0.00000000000E+00 0.  1.
         23    2    1    2    0    0  0.83145235382E+03 -0.23637072299E+03  0.11909065603E+04  0.14743016399E+04  0.90126327312E+02 0.  0.
         13    1    3    3    0    0  0.38380104582E+03 -0.14908203206E+03  0.52543911464E+03  0.66754397477E+03  0.00000000000E+00 0. -1.
        -13    1    3    3    0    0  0.44765130799E+03 -0.87288690921E+02  0.66546744562E+03  0.80675766516E+03  0.00000000000E+00 0.  1.
         22    1    1    2    0    0 -0.83145235382E+03  0.23637072299E+03  0.14990965733E+04  0.17304550475E+04  0.00000000000E+00 0.  1.
<mgrwt>
<rscale>  0 0.17419382E+04</rscale>
<asrwt>0</asrwt>
<pdfrwt beam="1">  1        2 0.45344304E+00 0.17419382E+04</pdfrwt>
<pdfrwt beam="2">  1       -2 0.39596429E-01 0.17419382E+04</pdfrwt>
<totfact> 0.10788544E+01</totfact>
</mgrwt>
</event>
<event>
 6    1  0.3017327E-006  0.1287163E+04  0.7818608E-02  0.9039807E-01
         -2   -1    0    0    0  501 -0.00000000000E+00  0.00000000000E+00  0.39783685023E+03  0.39783685023E+03  0.00000000000E+00 0.  1.
          2   -1    0    0  501    0  0.00000000000E+00 -0.00000000000E+00 -0.10411236302E+04  0.10411236302E+04  0.00000000000E+00 0. -1.
         23    2    1    2    0    0  0.11070669866E+03 -0.54894261355E+03  0.24810539417E+02  0.56721051955E+03  0.86707811206E+02 0.  0.
         13    1    3    3    0    0  0.61199580135E+02 -0.14874981232E+03 -0.17296157331E+02  0.16177469620E+03  0.00000000000E+00 0.  1.
        -13    1    3    3    0    0  0.49507118528E+02 -0.40019280124E+03  0.42106696748E+02  0.40543582335E+03  0.00000000000E+00 0. -1.
         22    1    1    2    0    0 -0.11070669866E+03  0.54894261355E+03 -0.66809731938E+03  0.87174996087E+03  0.00000000000E+00 0. -1.
<mgrwt>
<rscale>  0 0.12871633E+04</rscale>
<asrwt>0</asrwt>
<pdfrwt beam="1">  1        2 0.16017286E+00 0.12871633E+04</pdfrwt>
<pdfrwt beam="2">  1       -2 0.61205670E-01 0.12871633E+04</pdfrwt>
<totfact> 0.57764982E+01</totfact>
</mgrwt>
</event>
<event>
 6    1  0.3017327E-006  0.3627283E+04  0.7818608E-02  0.8084271E-01
          2   -1    0    0  501    0  0.00000000000E+00  0.00000000000E+00  0.22583779191E+04  0.22583779191E+04  0.00000000000E+00 0. -1.
         -2   -1    0    0    0  501 -0.00000000000E+00 -0.00000000000E+00 -0.14564860523E+04  0.14564860523E+04  0.00000000000E+00 0.  1.
         23    2    1    2    0    0  0.33151728617E+03 -0.14563486998E+04 -0.65036923431E+03  0.16316170940E+04  0.91317872307E+02 0.  0.
         13    1    3    3    0    0  0.13927142034E+03 -0.80014952091E+03 -0.33351528309E+03  0.87799101839E+03  0.00000000000E+00 0. -1.
        -13    1    3    3    0    0  0.19224586583E+03 -0.65619917893E+03 -0.31685395122E+03  0.75362607556E+03  0.00000000000E+00 0.  1.
         22    1    1    2    0    0 -0.33151728617E+03  0.14563486998E+04  0.14522611011E+04  0.20832468775E+04  0.00000000000E+00 0. -1.
<mgrwt>
<rscale>  0 0.36272832E+04</rscale>
<asrwt>0</asrwt>
<pdfrwt beam="1">  1        2 0.34744276E+00 0.36272832E+04</pdfrwt>
<pdfrwt beam="2">  1       -2 0.22407478E+00 0.36272832E+04</pdfrwt>
<totfact> 0.36258618E-01</totfact>
</mgrwt>
</event>
<event>
 6    1  0.3017327E-006  0.2849644E+04  0.7818608E-02  0.8288020E-01
         -2   -1    0    0    0  501 -0.00000000000E+00  0.00000000000E+00  0.10803528595E+04  0.10803528595E+04  0.00000000000E+00 0.  1.
          2   -1    0    0  501    0  0.00000000000E+00 -0.00000000000E+00 -0.18791243364E+04  0.18791243364E+04  0.00000000000E+00 0. -1.
         23    2    1    2    0    0  0.25685880126E+03 -0.13492732406E+04 -0.11973893551E+02  0.13765794863E+04  0.91175580042E+02 0.  0.
         13    1    3    3    0    0  0.22244784535E+03 -0.12277126454E+04 -0.34844246229E+02  0.12481888900E+04  0.00000000000E+00 0. -1.
        -13    1    3    3    0    0  0.34410955909E+02 -0.12156059520E+03  0.22870352679E+02  0.12839059632E+03  0.00000000000E+00 0.  1.
         22    1    1    2    0    0 -0.25685880126E+03  0.13492732406E+04 -0.78679758336E+03  0.15828977095E+04  0.00000000000E+00 0. -1.
<mgrwt>
<rscale>  0 0.28496437E+04</rscale>
<asrwt>0</asrwt>
<pdfrwt beam="1">  1        2 0.28909605E+00 0.28496437E+04</pdfrwt>
<pdfrwt beam="2">  1       -2 0.16620813E+00 0.28496437E+04</pdfrwt>
<totfact> 0.15337542E+00</totfact>
</mgrwt>
</event>
<event>
 6    1  0.3017327E-006  0.3113157E+04  0.7818608E-02  0.8212136E-01
          2   -1    0    0  501    0  0.00000000000E+00  0.00000000000E+00  0.26230391227E+04  0.26230391227E+04  0.00000000000E+00 0. -1.
         -2   -1    0    0    0  501 -0.00000000000E+00 -0.00000000000E+00 -0.92371322741E+03  0.92371322741E+03  0.00000000000E+00 0.  1.
         23    2    1    2    0    0  0.84520714000E+03 -0.93920757947E+01  0.23377200606E+04  0.24875024122E+04  0.90938706244E+02 0.  0.
         13    1    3    3    0    0  0.30649215786E+03 -0.43559950170E+02  0.90347289331E+03  0.95503831391E+03  0.00000000000E+00 0. -1.
        -13    1    3    3    0    0  0.53871498214E+03  0.34167874375E+02  0.14342471673E+04  0.15324640983E+04  0.00000000000E+00 0.  1.
         22    1    1    2    0    0 -0.84520714000E+03  0.93920757947E+01 -0.63839416534E+03  0.10592499379E+04  0.00000000000E+00 0.  1.
<mgrwt>
<rscale>  0 0.31131566E+04</rscale>
<asrwt>0</asrwt>
<pdfrwt beam="1">  1        2 0.40354448E+00 0.31131566E+04</pdfrwt>
<pdfrwt beam="2">  1       -2 0.14210973E+00 0.31131566E+04</pdfrwt>
<totfact> 0.86385927E-01</totfact>
</mgrwt>
</event>
<event>
 6    1  0.3017327E-006  0.7626899E+04  0.7818608E-02  0.7516026E-01
         -1   -1    0    0    0  501 -0.00000000000E+00  0.00000000000E+00  0.35717213476E+04  0.35717213476E+04  0.00000000000E+00 0.  1.
          1   -1    0    0  501    0  0.00000000000E+00 -0.00000000000E+00 -0.40715374089E+04  0.40715374089E+04  0.00000000000E+00 0. -1.
         23    2    1    2    0    0  0.36212555953E+04 -0.86396523271E+03  0.57542696203E+03  0.37682006189E+04  0.91058805048E+02 0.  0.
         13    1    3    3    0    0  0.21971861091E+04 -0.50355697526E+03  0.30817561473E+03  0.22751194770E+04  0.00000000000E+00 0. -1.
        -13    1    3    3    0    0  0.14240694862E+04 -0.36040825745E+03  0.26725134730E+03  0.14930811419E+04  0.00000000000E+00 0.  1.
         22    1    1    2    0    0 -0.36212555953E+04  0.86396523271E+03 -0.10752430233E+04  0.38750581375E+04  0.00000000000E+00 0. -1.
<mgrwt>
<rscale>  0 0.76268990E+04</rscale>
<asrwt>0</asrwt>
<pdfrwt beam="1">  1        1 0.62639037E+00 0.76268990E+04</pdfrwt>
<pdfrwt beam="2">  1       -1 0.54949560E+00 0.76268990E+04</pdfrwt>
<totfact> 0.37892725E-05</totfact>
</mgrwt>
</event>
<event>
 6    1  0.3105519E-006  0.4371851E+04  0.7818608E-02  0.7933464E-01
          2   -1    0    0  501    0  0.00000000000E+00  0.00000000000E+00  0.34941452320E+04  0.34941452320E+04  0.00000000000E+00 0.  1.
         -2   -1    0    0    0  501 -0.00000000000E+00 -0.00000000000E+00 -0.13675076210E+04  0.13675076210E+04  0.00000000000E+00 0. -1.
         23    2    1    2    0    0 -0.19124779397E+04  0.10566327202E+04  0.10614291948E+04  0.24308682996E+04  0.91892214111E+02 0.  0.
         11    1    3    3    0    0 -0.11134336359E+04  0.56324756305E+03  0.60345956262E+03  0.13860540114E+04  0.00000000000E+00 0. -1.
        -11    1    3    3    0    0 -0.79904430385E+03  0.49338515712E+03  0.45796963221E+03  0.10448142882E+04  0.00000000000E+00 0.  1.
         22    1    1    2    0    0  0.19124779397E+04 -0.10566327202E+04  0.10652084162E+04  0.24307845534E+04  0.00000000000E+00 0. -1.
<mgrwt>
<rscale>  0 0.43718510E+04</rscale>
<asrwt>0</asrwt>
<pdfrwt beam="1">  1        2 0.53756080E+00 0.43718510E+04</pdfrwt>
<pdfrwt beam="2">  1       -2 0.21038579E+00 0.43718510E+04</pdfrwt>
<totfact> 0.71403348E-02</totfact>
</mgrwt>
</event>
<event>
 6    1  0.3017327E-006  0.2105108E+04  0.7818608E-02  0.8558997E-01
          1   -1    0    0  501    0  0.00000000000E+00  0.00000000000E+00  0.74473886471E+03  0.74473886471E+03  0.00000000000E+00 0. -1.
         -1   -1    0    0    0  501 -0.00000000000E+00 -0.00000000000E+00 -0.14875944807E+04  0.14875944807E+04  0.00000000000E+00 0.  1.
         23    2    1    2    0    0  0.44803718532E+03  0.85757536546E+03 -0.80626822932E+03  0.12626973383E+04  0.90350891679E+02 0.  0.
         13    1    3    3    0    0  0.11682939456E+03  0.31580535733E+03 -0.27294828979E+03  0.43345461129E+03  0.00000000000E+00 0.  1.
        -13    1    3    3    0    0  0.33120779076E+03  0.54177000813E+03 -0.53331993954E+03  0.82924272700E+03  0.00000000000E+00 0. -1.
         22    1    1    2    0    0 -0.44803718532E+03 -0.85757536546E+03  0.63412613285E+02  0.96963600717E+03  0.00000000000E+00 0. -1.
<mgrwt>
<rscale>  0 0.21051075E+04</rscale>
<asrwt>0</asrwt>
<pdfrwt beam="1">  1        1 0.11457521E+00 0.21051075E+04</pdfrwt>
<pdfrwt beam="2">  1       -1 0.22886069E+00 0.21051075E+04</pdfrwt>
<totfact> 0.21862917E+00</totfact>
</mgrwt>
</event>
<event>
 6    1  0.3017327E-006  0.1401434E+04  0.7818608E-02  0.8952781E-01
         -2   -1    0    0    0  501 -0.00000000000E+00  0.00000000000E+00  0.49051014363E+03  0.49051014363E+03  0.00000000000E+00 0.  1.
          2   -1    0    0  501    0  0.00000000000E+00 -0.00000000000E+00 -0.10010077492E+04  0.10010077492E+04  0.00000000000E+00 0. -1.
         23    2    1    2    0    0  0.21899589709E+03 -0.41075231097E+03 -0.80955632212E+03  0.93824329569E+03  0.90787550445E+02 0.  0.
         13    1    3    3    0    0  0.11959886347E+03 -0.13606065979E+03 -0.28093601560E+03  0.33427748376E+03  0.00000000000E+00 0.  1.
        -13    1    3    3    0    0  0.99397033623E+02 -0.27469165118E+03 -0.52862030652E+03  0.60396581193E+03  0.00000000000E+00 0. -1.
         22    1    1    2    0    0 -0.21899589709E+03  0.41075231097E+03  0.29905871653E+03  0.55327459715E+03  0.00000000000E+00 0.  1.
<mgrwt>
<rscale>  0 0.14014342E+04</rscale>
<asrwt>0</asrwt>
<pdfrwt beam="1">  1        2 0.15400119E+00 0.14014342E+04</pdfrwt>
<pdfrwt beam="2">  1       -2 0.75463099E-01 0.14014342E+04</pdfrwt>
<totfact> 0.38564158E+01</totfact>
</mgrwt>
</event>
<event>
 6    1  0.3017327E-006  0.6378147E+04  0.7818608E-02  0.7645206E-01
         -2   -1    0    0    0  501 -0.00000000000E+00  0.00000000000E+00  0.41691581331E+04  0.41691581331E+04  0.00000000000E+00 0.  1.
          2   -1    0    0  501    0  0.00000000000E+00 -0.00000000000E+00 -0.24393868922E+04  0.24393868922E+04  0.00000000000E+00 0. -1.
         23    2    1    2    0    0 -0.16358861416E+04 -0.60155977021E+03  0.36313497321E+04  0.40290104968E+04  0.90703257481E+02 0.  0.
         11    1    3    3    0    0 -0.14472868580E+04 -0.56231819637E+03  0.32249587677E+04  0.35792736772E+04  0.00000000000E+00 0. -1.
        -11    1    3    3    0    0 -0.18859928360E+03 -0.39241573846E+02  0.40639096444E+03  0.44973681956E+03  0.00000000000E+00 0.  1.
         22    1    1    2    0    0  0.16358861416E+04  0.60155977021E+03 -0.19015784912E+04  0.25795345285E+04  0.00000000000E+00 0. -1.
<mgrwt>
<rscale>  0 0.63781470E+04</rscale>
<asrwt>0</asrwt>
<pdfrwt beam="1">  1        2 0.37529029E+00 0.63781470E+04</pdfrwt>
<pdfrwt beam="2">  1       -2 0.64140894E+00 0.63781470E+04</pdfrwt>
<totfact> 0.90833244E-04</totfact>
</mgrwt>
</event>
<event>
 6    1  0.3017327E-006  0.2737860E+04  0.7818608E-02  0.8322824E-01
         -2   -1    0    0    0  501 -0.00000000000E+00  0.00000000000E+00  0.46865551945E+03  0.46865551945E+03  0.00000000000E+00 0.  1.
          2   -1    0    0  501    0  0.00000000000E+00 -0.00000000000E+00 -0.39986072936E+04  0.39986072936E+04  0.00000000000E+00 0. -1.
         23    2    1    2    0    0  0.35930916690E+03 -0.72730196657E+03  0.29039927920E+02  0.81698978717E+03  0.92508199297E+02 0.  0.
         13    1    3    3    0    0  0.24883580461E+03 -0.49536025373E+03  0.62720078918E+02  0.55788425944E+03  0.00000000000E+00 0.  1.
        -13    1    3    3    0    0  0.11047336229E+03 -0.23194171283E+03 -0.33680150998E+02  0.25910552773E+03  0.00000000000E+00 0. -1.
         22    1    1    2    0    0 -0.35930916690E+03  0.72730196657E+03 -0.35589917021E+04  0.36502730259E+04  0.00000000000E+00 0. -1.
<mgrwt>
<rscale>  0 0.27378600E+04</rscale>
<asrwt>0</asrwt>
<pdfrwt beam="1">  1        2 0.61517036E+00 0.27378600E+04</pdfrwt>
<pdfrwt beam="2">  1       -2 0.72100848E-01 0.27378600E+04</pdfrwt>
<totfact> 0.52324907E-01</totfact>
</mgrwt>
</event>
<event>
 6    1  0.3983952E-006  0.3497779E+04  0.7818608E-02  0.8114316E-01
          2   -1    0    0  501    0  0.00000000000E+00  0.00000000000E+00  0.18498707576E+04  0.18498707576E+04  0.00000000000E+00 0. -1.
         -2   -1    0    0    0  501 -0.00000000000E+00 -0.00000000000E+00 -0.16534209467E+04  0.16534209467E+04  0.00000000000E+00 0.  1.
         23    2    1    2    0    0  0.73022442347E+03  0.14728280148E+04  0.69242955440E+03  0.17861877540E+04  0.92509107235E+02 0.  0.
         11    1    3    3    0    0  0.23114285079E+03  0.50375456921E+03  0.18984609954E+03  0.58586451077E+03  0.00000000000E+00 0. -1.
        -11    1    3    3    0    0  0.49908157268E+03  0.96907344562E+03  0.50258345486E+03  0.12003232432E+04  0.00000000000E+00 0.  1.
         22    1    1    2    0    0 -0.73022442347E+03 -0.14728280148E+04 -0.49597974348E+03  0.17171039502E+04  0.00000000000E+00 0. -1.
<mgrwt>
<rscale>  0 0.34977793E+04</rscale>
<asrwt>0</asrwt>
<pdfrwt beam="1">  1        2 0.28459550E+00 0.34977793E+04</pdfrwt>
<pdfrwt beam="2">  1       -2 0.25437246E+00 0.34977793E+04</pdfrwt>
<totfact> 0.40193924E-01</totfact>
</mgrwt>
</event>
<event>
 6    1  0.3017327E-006  0.2236482E+04  0.7818608E-02  0.8503395E-01
          2   -1    0    0  501    0  0.00000000000E+00  0.00000000000E+00  0.16109569441E+04  0.16109569441E+04  0.00000000000E+00 0. -1.
         -2   -1    0    0    0  501 -0.00000000000E+00 -0.00000000000E+00 -0.77622358699E+03  0.77622358699E+03  0.00000000000E+00 0.  1.
         23    2    1    2    0    0  0.46614093598E+03  0.13610665167E+03  0.14910260475E+04  0.15707661215E+04  0.91296994051E+02 0.  0.
         13    1    3    3    0    0  0.20862982346E+03  0.84109245547E+02  0.81547901577E+03  0.84593545474E+03  0.00000000000E+00 0.  1.
        -13    1    3    3    0    0  0.25751111252E+03  0.51997406120E+02  0.67554703174E+03  0.72483066671E+03  0.00000000000E+00 0. -1.
         22    1    1    2    0    0 -0.46614093598E+03 -0.13610665167E+03 -0.65629269039E+03  0.81641440965E+03  0.00000000000E+00 0.  1.
<mgrwt>
<rscale>  0 0.22364819E+04</rscale>
<asrwt>0</asrwt>
<pdfrwt beam="1">  1        2 0.24783953E+00 0.22364819E+04</pdfrwt>
<pdfrwt beam="2">  1       -2 0.11941901E+00 0.22364819E+04</pdfrwt>
<totfact> 0.53862083E+00</totfact>
</mgrwt>
</event>
<event>
 6    1  0.3017327E-006  0.1308650E+04  0.7818608E-02  0.9022734E-01
          2   -1    0    0  501    0  0.00000000000E+00  0.00000000000E+00  0.90176049971E+03  0.90176049971E+03  0.00000000000E+00 0. -1.
         -2   -1    0    0    0  501 -0.00000000000E+00 -0.00000000000E+00 -0.47478353291E+03  0.47478353291E+03  0.00000000000E+00 0.  1.
         23    2    1    2    0    0  0.55305306229E+03 -0.21063876112E+03  0.50003025633E+03  0.78024447660E+03  0.92275720703E+02 0.  0.
         11    1    3    3    0    0  0.30083131609E+03 -0.15217310546E+03  0.32065066466E+03  0.46526657253E+03  0.00000000000E+00 0. -1.
        -11    1    3    3    0    0  0.25222174620E+03 -0.58465655657E+02  0.17937959167E+03  0.31497790407E+03  0.00000000000E+00 0.  1.
         22    1    1    2    0    0 -0.55305306229E+03  0.21063876112E+03 -0.73053289525E+02  0.59629955601E+03  0.00000000000E+00 0.  1.
<mgrwt>
<rscale>  0 0.13086497E+04</rscale>
<asrwt>0</asrwt>
<pdfrwt beam="1">  1        2 0.13873238E+00 0.13086497E+04</pdfrwt>
<pdfrwt beam="2">  1       -2 0.73043620E-01 0.13086497E+04</pdfrwt>
<totfact> 0.48511536E+01</totfact>
</mgrwt>
</event>
<event>
 6    1  0.3017327E-006  0.2559432E+04  0.7818608E-02  0.8382113E-01
         -2   -1    0    0    0  501 -0.00000000000E+00  0.00000000000E+00  0.12812668239E+04  0.12812668239E+04  0.00000000000E+00 0.  1.
          2   -1    0    0  501    0  0.00000000000E+00 -0.00000000000E+00 -0.12781669789E+04  0.12781669789E+04  0.00000000000E+00 0. -1.
         23    2    1    2    0    0 -0.92937838040E+03  0.66804156591E+01 -0.87583631748E+03  0.12802475070E+04  0.90308483226E+02 0.  0.
         11    1    3    3    0    0 -0.37691895955E+03  0.47012457670E+02 -0.35330252239E+03  0.51874921260E+03  0.00000000000E+00 0. -1.
        -11    1    3    3    0    0 -0.55245942084E+03 -0.40332042011E+02 -0.52253379509E+03  0.76149829435E+03  0.00000000000E+00 0.  1.
         22    1    1    2    0    0  0.92937838040E+03 -0.66804156591E+01  0.87893616249E+03  0.12791862959E+04  0.00000000000E+00 0.  1.
<mgrwt>
<rscale>  0 0.25594319E+04</rscale>
<asrwt>0</asrwt>
<pdfrwt beam="1">  1        2 0.19664107E+00 0.25594319E+04</pdfrwt>
<pdfrwt beam="2">  1       -2 0.19711797E+00 0.25594319E+04</pdfrwt>
<totfact> 0.20996130E+00</totfact>
</mgrwt>
</event>
<event>
 6    1  0.3017327E-006  0.1949387E+04  0.7818608E-02  0.8630656E-01
          2   -1    0    0  501    0  0.00000000000E+00  0.00000000000E+00  0.23382905677E+04  0.23382905677E+04  0.00000000000E+00 0. -1.
         -2   -1    0    0    0  501 -0.00000000000E+00 -0.00000000000E+00 -0.40629137934E+03  0.40629137934E+03  0.00000000000E+00 0.  1.
         23    2    1    2    0    0  0.96092412281E+03  0.28642259291E+02  0.11747921299E+04  0.15208343921E+04  0.92763952687E+02 0.  0.
         11    1    3    3    0    0  0.43089172075E+03  0.49835272451E+02  0.57216626319E+03  0.71800101819E+03  0.00000000000E+00 0.  1.
        -11    1    3    3    0    0  0.53003240206E+03 -0.21193013160E+02  0.60262586669E+03  0.80283337389E+03  0.00000000000E+00 0. -1.
         22    1    1    2    0    0 -0.96092412281E+03 -0.28642259291E+02  0.75720705844E+03  0.12237475549E+04  0.00000000000E+00 0. -1.
<mgrwt>
<rscale>  0 0.19493869E+04</rscale>
<asrwt>0</asrwt>
<pdfrwt beam="1">  1        2 0.35973700E+00 0.19493869E+04</pdfrwt>
<pdfrwt beam="2">  1       -2 0.62506367E-01 0.19493869E+04</pdfrwt>
<totfact> 0.95524955E+00</totfact>
</mgrwt>
</event>
<event>
 6    1  0.3017327E-006  0.1897978E+04  0.7818608E-02  0.8655863E-01
         -2   -1    0    0    0  501 -0.00000000000E+00  0.00000000000E+00  0.60673635302E+03  0.60673635302E+03  0.00000000000E+00 0.  1.
          2   -1    0    0  501    0  0.00000000000E+00 -0.00000000000E+00 -0.14843028261E+04  0.14843028261E+04  0.00000000000E+00 0. -1.
         23    2    1    2    0    0 -0.19576027362E+03  0.90669532635E+03 -0.64873922019E+03  0.11356437578E+04  0.91682436710E+02 0.  0.
         13    1    3    3    0    0 -0.17165704109E+03  0.64246188268E+03 -0.49485707522E+03  0.82891913679E+03  0.00000000000E+00 0. -1.
        -13    1    3    3    0    0 -0.24103232532E+02  0.26423344367E+03 -0.15388214497E+03  0.30672462098E+03  0.00000000000E+00 0.  1.
         22    1    1    2    0    0  0.19576027362E+03 -0.90669532635E+03 -0.22882725293E+03  0.95539542140E+03  0.00000000000E+00 0. -1.
<mgrwt>
<rscale>  0 0.18979784E+04</rscale>
<asrwt>0</asrwt>
<pdfrwt beam="1">  1        2 0.22835428E+00 0.18979784E+04</pdfrwt>
<pdfrwt beam="2">  1       -2 0.93344056E-01 0.18979784E+04</pdfrwt>
<totfact> 0.11785848E+01</totfact>
</mgrwt>
</event>
<event>
 6    1  0.3017327E-006  0.3626868E+04  0.7818608E-02  0.8084365E-01
          1   -1    0    0  501    0  0.00000000000E+00  0.00000000000E+00  0.18225240835E+04  0.18225240835E+04  0.00000000000E+00 0. -1.
         -1   -1    0    0    0  501 -0.00000000000E+00 -0.00000000000E+00 -0.18043894147E+04  0.18043894147E+04  0.00000000000E+00 0.  1.
         23    2    1    2    0    0  0.13187266309E+04 -0.92561338074E+03  0.83892960058E+03  0.18187364113E+04  0.90549440477E+02 0.  0.
         13    1    3    3    0    0  0.97304275593E+03 -0.73059275670E+03  0.63221523151E+03  0.13712308631E+04  0.00000000000E+00 0. -1.
        -13    1    3    3    0    0  0.34568387500E+03 -0.19502062404E+03  0.20671436906E+03  0.44750554814E+03  0.00000000000E+00 0.  1.
         22    1    1    2    0    0 -0.13187266309E+04  0.92561338074E+03 -0.82079493173E+03  0.18081770869E+04  0.00000000000E+00 0.  1.
<mgrwt>
<rscale>  0 0.36268682E+04</rscale>
<asrwt>0</asrwt>
<pdfrwt beam="1">  1        1 0.28038832E+00 0.36268682E+04</pdfrwt>
<pdfrwt beam="2">  1       -1 0.27759837E+00 0.36268682E+04</pdfrwt>
<totfact> 0.14645078E-01</totfact>
</mgrwt>
</event>
<event>
 6    1  0.3017327E-006  0.2462832E+04  0.7818608E-02  0.8416348E-01
          2   -1    0    0  501    0  0.00000000000E+00  0.00000000000E+00  0.20102233426E+04  0.20102233426E+04  0.00000000000E+00 0. -1.
         -2   -1    0    0    0  501 -0.00000000000E+00 -0.00000000000E+00 -0.75433676830E+03  0.75433676830E+03  0.00000000000E+00 0.  1.
         23    2    1    2    0    0  0.85195366085E+03 -0.65054417514E+03  0.13051769238E+04  0.16914979959E+04  0.92983351621E+02 0.  0.
         13    1    3    3    0    0  0.37465469825E+03 -0.32593250293E+03  0.65700168408E+03  0.82355895494E+03  0.00000000000E+00 0. -1.
        -13    1    3    3    0    0  0.47729896260E+03 -0.32461167221E+03  0.64817523977E+03  0.86793904099E+03  0.00000000000E+00 0.  1.
         22    1    1    2    0    0 -0.85195366085E+03  0.65054417514E+03 -0.49290349524E+02  0.10730621150E+04  0.00000000000E+00 0.  1.
<mgrwt>
<rscale>  0 0.24628320E+04</rscale>
<asrwt>0</asrwt>
<pdfrwt beam="1">  1        2 0.30926513E+00 0.24628320E+04</pdfrwt>
<pdfrwt beam="2">  1       -2 0.11605181E+00 0.24628320E+04</pdfrwt>
<totfact> 0.34018222E+00</totfact>
</mgrwt>
</event>
<event>
 6    1  0.3017327E-006  0.4177761E+04  0.7818608E-02  0.7969616E-01
         -2   -1    0    0    0  501 -0.00000000000E+00  0.00000000000E+00  0.13015619537E+04  0.13015619537E+04  0.00000000000E+00 0.  1.
          2   -1    0    0  501    0  0.00000000000E+00 -0.00000000000E+00 -0.33524502985E+04  0.33524502985E+04  0.00000000000E+00 0. -1.
         23    2    1    2    0    0  0.14877226565E+04 -0.49893486183E+03  0.50842096234E+03  0.16519598161E+04  0.90689911348E+02 0.  0.
         13    1    3    3    0    0  0.12457256665E+04 -0.44673666527E+03  0.40883633315E+03  0.13851184901E+04  0.00000000000E+00 0. -1.
        -13    1    3    3    0    0  0.24199699004E+03 -0.52198196558E+02  0.99584629193E+02  0.26684132604E+03  0.00000000000E+00 0.  1.
         22    1    1    2    0    0 -0.14877226565E+04  0.49893486183E+03 -0.25593093071E+04  0.30020524360E+04  0.00000000000E+00 0. -1.
<mgrwt>
<rscale>  0 0.41777610E+04</rscale>
<asrwt>0</asrwt>
<pdfrwt beam="1">  1        2 0.51576158E+00 0.41777610E+04</pdfrwt>
<pdfrwt beam="2">  1       -2 0.20024030E+00 0.41777610E+04</pdfrwt>
<totfact> 0.10569357E-01</totfact>
</mgrwt>
</event>
<event>
 6    1  0.3017327E-006  0.4465538E+04  0.7818608E-02  0.7916698E-01
         -2   -1    0    0    0  501 -0.00000000000E+00  0.00000000000E+00  0.18907894414E+04  0.18907894414E+04  0.00000000000E+00 0.  1.
          2   -1    0    0  501    0  0.00000000000E+00 -0.00000000000E+00 -0.26366009507E+04  0.26366009507E+04  0.00000000000E+00 0. -1.
         23    2    1    2    0    0 -0.19065393476E+04  0.99584093244E+03 -0.97676212282E+03  0.23640758905E+04  0.90549017312E+02 0.  0.
         13    1    3    3    0    0 -0.12886925584E+04  0.64616260612E+03 -0.61556592110E+03  0.15675382059E+04  0.00000000000E+00 0.  1.
        -13    1    3    3    0    0 -0.61784678925E+03  0.34967832633E+03 -0.36119620172E+03  0.79653768462E+03  0.00000000000E+00 0. -1.
         22    1    1    2    0    0  0.19065393476E+04 -0.99584093244E+03  0.23095061348E+03  0.21633145016E+04  0.00000000000E+00 0.  1.
<mgrwt>
<rscale>  0 0.44655379E+04</rscale>
<asrwt>0</asrwt>
<pdfrwt beam="1">  1        2 0.40563092E+00 0.44655379E+04</pdfrwt>
<pdfrwt beam="2">  1       -2 0.29089068E+00 0.44655379E+04</pdfrwt>
<totfact> 0.79500569E-02</totfact>
</mgrwt>
</event>
<event>
 6    1  0.3017327E-006  0.3753387E+04  0.7818608E-02  0.8056232E-01
         -2   -1    0    0    0  501 -0.00000000000E+00  0.00000000000E+00  0.30980772310E+04  0.30980772310E+04  0.00000000000E+00 0. -1.
          2   -1    0    0  501    0  0.00000000000E+00 -0.00000000000E+00 -0.11368274938E+04  0.11368274938E+04  0.00000000000E+00 0.  1.
         23    2    1    2    0    0  0.11337166876E+02  0.10983140476E+04  0.26965896450E+04  0.29131078197E+04  0.90438801724E+02 0.  0.
         13    1    3    3    0    0 -0.20633157578E+02  0.75148369553E+03  0.17589212712E+04  0.19128401685E+04  0.00000000000E+00 0.  1.
        -13    1    3    3    0    0  0.31970324453E+02  0.34683035206E+03  0.93766837378E+03  0.10002676512E+04  0.00000000000E+00 0. -1.
         22    1    1    2    0    0 -0.11337166876E+02 -0.10983140476E+04 -0.73533990779E+03  0.13217969052E+04  0.00000000000E+00 0.  1.
<mgrwt>
<rscale>  0 0.37533875E+04</rscale>
<asrwt>0</asrwt>
<pdfrwt beam="1">  1        2 0.17489654E+00 0.37533875E+04</pdfrwt>
<pdfrwt beam="2">  1       -2 0.47662726E+00 0.37533875E+04</pdfrwt>
<totfact> 0.38636259E-02</totfact>
</mgrwt>
</event>
<event>
 6    1  0.3017327E-006  0.2030352E+04  0.7818608E-02  0.8592560E-01
          2   -1    0    0  501    0  0.00000000000E+00  0.00000000000E+00  0.22061808199E+04  0.22061808199E+04  0.00000000000E+00 0. -1.
         -2   -1    0    0    0  501 -0.00000000000E+00 -0.00000000000E+00 -0.46713405880E+03  0.46713405880E+03  0.00000000000E+00 0.  1.
         23    2    1    2    0    0  0.40822930629E+03  0.54030847744E+03 -0.12002495532E+03  0.69474669335E+03  0.98400003614E+02 0.  0.
         13    1    3    3    0    0  0.52888704373E+02  0.89377144518E+02 -0.53408028216E+02  0.11678144754E+03  0.00000000000E+00 0.  1.
        -13    1    3    3    0    0  0.35534060192E+03  0.45093133292E+03 -0.66616927106E+02  0.57796524581E+03  0.00000000000E+00 0. -1.
         22    1    1    2    0    0 -0.40822930629E+03 -0.54030847744E+03  0.18590717164E+04  0.19785681853E+04  0.00000000000E+00 0. -1.
<mgrwt>
<rscale>  0 0.20303519E+04</rscale>
<asrwt>0</asrwt>
<pdfrwt beam="1">  1        2 0.33941243E+00 0.20303519E+04</pdfrwt>
<pdfrwt beam="2">  1       -2 0.71866780E-01 0.20303519E+04</pdfrwt>
<totfact> 0.83304022E+00</totfact>
</mgrwt>
</event>
<event>
 6    1  0.3017327E-006  0.2156678E+04  0.7818608E-02  0.8536679E-01
         -2   -1    0    0    0  501 -0.00000000000E+00  0.00000000000E+00  0.29036937040E+03  0.29036937040E+03  0.00000000000E+00 0. -1.
          2   -1    0    0  501    0  0.00000000000E+00 -0.00000000000E+00 -0.40046052731E+04  0.40046052731E+04  0.00000000000E+00 0.  1.
         23    2    1    2    0    0  0.82842355390E+03 -0.55626596143E+03 -0.26643758945E+04  0.28465536269E+04  0.90836331041E+02 0.  0.
         13    1    3    3    0    0  0.56316905478E+02 -0.52176865474E+02 -0.27201897731E+03  0.28264526026E+03  0.00000000000E+00 0.  1.
        -13    1    3    3    0    0  0.77210664842E+03 -0.50408909595E+03 -0.23923569172E+04  0.25639083666E+04  0.00000000000E+00 0. -1.
         22    1    1    2    0    0 -0.82842355390E+03  0.55626596143E+03 -0.10498600081E+04  0.14484210165E+04  0.00000000000E+00 0. -1.
<mgrwt>
<rscale>  0 0.21566777E+04</rscale>
<asrwt>0</asrwt>
<pdfrwt beam="1">  1        2 0.61609305E+00 0.21566777E+04</pdfrwt>
<pdfrwt beam="2">  1       -2 0.44672216E-01 0.21566777E+04</pdfrwt>
<totfact> 0.14903369E+00</totfact>
</mgrwt>
</event>
<event>
 6    1  0.3017327E-006  0.5897488E+04  0.7818608E-02  0.7703244E-01
         -2   -1    0    0    0  501 -0.00000000000E+00  0.00000000000E+00  0.28124678186E+04  0.28124678186E+04  0.00000000000E+00 0.  1.
          2   -1    0    0  501    0  0.00000000000E+00 -0.00000000000E+00 -0.30916229194E+04  0.30916229194E+04  0.00000000000E+00 0. -1.
         23    2    1    2    0    0  0.18180128433E+04 -0.96050502199E+03  0.19753933986E+04  0.28527419328E+04  0.90646898088E+02 0.  0.
         13    1    3    3    0    0  0.11706145666E+04 -0.59570894763E+03  0.12076766357E+04  0.17842899065E+04  0.00000000000E+00 0. -1.
        -13    1    3    3    0    0  0.64739827668E+03 -0.36479607436E+03  0.76771676287E+03  0.10684520263E+04  0.00000000000E+00 0.  1.
         22    1    1    2    0    0 -0.18180128433E+04  0.96050502199E+03 -0.22545484993E+04  0.30513488053E+04  0.00000000000E+00 0. -1.
<mgrwt>
<rscale>  0 0.58974876E+04</rscale>
<asrwt>0</asrwt>
<pdfrwt beam="1">  1        2 0.47563430E+00 0.58974876E+04</pdfrwt>
<pdfrwt beam="2">  1       -2 0.43268735E+00 0.58974876E+04</pdfrwt>
<totfact> 0.46828771E-03</totfact>
</mgrwt>
</event>
<event>
 6    1  0.3017327E-006  0.3448609E+04  0.7818608E-02  0.8126078E-01
         -2   -1    0    0    0  501 -0.00000000000E+00  0.00000000000E+00  0.15823024437E+04  0.15823024437E+04  0.00000000000E+00 0.  1.
          2   -1    0    0  501    0  0.00000000000E+00 -0.00000000000E+00 -0.18790507932E+04  0.18790507932E+04  0.00000000000E+00 0. -1.
         23    2    1    2    0    0 -0.29289307689E+03 -0.33856844016E+03 -0.18185454670E+04  0.18750741285E+04  0.91544682180E+02 0.  0.
         11    1    3    3    0    0 -0.10659639909E+03 -0.76462338980E+02 -0.64903939641E+03  0.66216419389E+03  0.00000000000E+00 0. -1.
        -11    1    3    3    0    0 -0.18629667780E+03 -0.26210610118E+03 -0.11695060706E+04  0.12129099346E+04  0.00000000000E+00 0.  1.
         22    1    1    2    0    0  0.29289307689E+03  0.33856844016E+03  0.15217971174E+04  0.15862791084E+04  0.00000000000E+00 0.  1.
<mgrwt>
<rscale>  0 0.34486094E+04</rscale>
<asrwt>0</asrwt>
<pdfrwt beam="1">  1        2 0.28908474E+00 0.34486094E+04</pdfrwt>
<pdfrwt beam="2">  1       -2 0.24343114E+00 0.34486094E+04</pdfrwt>
<totfact> 0.45403084E-01</totfact>
</mgrwt>
</event>
<event>
 6    1  0.3017327E-006  0.1437535E+04  0.7818608E-02  0.8927088E-01
         -2   -1    0    0    0  501 -0.00000000000E+00  0.00000000000E+00  0.24471740911E+03  0.24471740911E+03  0.00000000000E+00 0.  1.
          2   -1    0    0  501    0  0.00000000000E+00 -0.00000000000E+00 -0.21111166917E+04  0.21111166917E+04  0.00000000000E+00 0. -1.
         23    2    1    2    0    0  0.34411326264E+03 -0.61927464790E+03 -0.11046246691E+04  0.13155381867E+04  0.92358183629E+02 0.  0.
         11    1    3    3    0    0  0.20762182677E+03 -0.29374070240E+03 -0.60356857884E+03  0.70262753473E+03  0.00000000000E+00 0. -1.
        -11    1    3    3    0    0  0.13649143587E+03 -0.32553394551E+03 -0.50105609028E+03  0.61291065202E+03  0.00000000000E+00 0.  1.
         22    1    1    2    0    0 -0.34411326264E+03  0.61927464790E+03 -0.76177461342E+03  0.10402959140E+04  0.00000000000E+00 0.  1.
<mgrwt>
<rscale>  0 0.14375354E+04</rscale>
<asrwt>0</asrwt>
<pdfrwt beam="1">  1        2 0.32478719E+00 0.14375354E+04</pdfrwt>
<pdfrwt beam="2">  1       -2 0.37648832E-01 0.14375354E+04</pdfrwt>
<totfact> 0.37457004E+01</totfact>
</mgrwt>
</event>
<event>
 6    1  0.3017327E-006  0.1289993E+04  0.7818608E-02  0.9037538E-01
         -1   -1    0    0    0  501 -0.00000000000E+00  0.00000000000E+00  0.26878875417E+03  0.26878875417E+03  0.00000000000E+00 0.  1.
          1   -1    0    0  501    0  0.00000000000E+00 -0.00000000000E+00 -0.15477606634E+04  0.15477606634E+04  0.00000000000E+00 0. -1.
         23    2    1    2    0    0  0.31208256048E+03  0.46763536734E+03 -0.20655688723E+03  0.60570163988E+03  0.90168550773E+02 0.  0.
         13    1    3    3    0    0  0.26513488795E+03  0.42077905432E+03 -0.15269333785E+03  0.52025645290E+03  0.00000000000E+00 0.  1.
        -13    1    3    3    0    0  0.46947672530E+02  0.46856313014E+02 -0.53863549377E+02  0.85445186973E+02  0.00000000000E+00 0. -1.
         22    1    1    2    0    0 -0.31208256048E+03 -0.46763536734E+03 -0.10724150220E+04  0.12108477777E+04  0.00000000000E+00 0. -1.
<mgrwt>
<rscale>  0 0.12899933E+04</rscale>
<asrwt>0</asrwt>
<pdfrwt beam="1">  1        1 0.23811703E+00 0.12899933E+04</pdfrwt>
<pdfrwt beam="2">  1       -1 0.41352115E-01 0.12899933E+04</pdfrwt>
<totfact> 0.34150146E+01</totfact>
</mgrwt>
</event>
<event>
 6    1  0.3017327E-006  0.1959879E+04  0.7818608E-02  0.8625612E-01
          1   -1    0    0  501    0  0.00000000000E+00  0.00000000000E+00  0.16776206130E+04  0.16776206130E+04  0.00000000000E+00 0. -1.
         -1   -1    0    0    0  501 -0.00000000000E+00 -0.00000000000E+00 -0.57240699398E+03  0.57240699398E+03  0.00000000000E+00 0.  1.
         23    2    1    2    0    0 -0.15751463347E+03 -0.60403496370E+03 -0.31047662198E+03  0.70282110635E+03  0.88840742944E+02 0.  0.
         13    1    3    3    0    0 -0.10662319412E+03 -0.52803707456E+03 -0.27373331316E+03  0.60425291425E+03  0.00000000000E+00 0.  1.
        -13    1    3    3    0    0 -0.50891439350E+02 -0.75997889136E+02 -0.36743308819E+02  0.98568192107E+02  0.00000000000E+00 0. -1.
         22    1    1    2    0    0  0.15751463347E+03  0.60403496370E+03  0.14156902410E+04  0.15472065006E+04  0.00000000000E+00 0. -1.
<mgrwt>
<rscale>  0 0.19598794E+04</rscale>
<asrwt>0</asrwt>
<pdfrwt beam="1">  1        1 0.25809548E+00 0.19598794E+04</pdfrwt>
<pdfrwt beam="2">  1       -1 0.88062615E-01 0.19598794E+04</pdfrwt>
<totfact> 0.58229974E+00</totfact>
</mgrwt>
</event>
<event>
 6    1  0.3017327E-006  0.1455445E+04  0.7818608E-02  0.8914634E-01
         -2   -1    0    0    0  501 -0.00000000000E+00  0.00000000000E+00  0.34671196732E+03  0.34671196732E+03  0.00000000000E+00 0.  1.
          2   -1    0    0  501    0  0.00000000000E+00 -0.00000000000E+00 -0.15274351040E+04  0.15274351040E+04  0.00000000000E+00 0. -1.
         23    2    1    2    0    0  0.72022619313E+02  0.16048126504E+03 -0.14981634046E+04  0.15112285987E+04  0.91524841716E+02 0.  0.
         13    1    3    3    0    0  0.23444713994E+02  0.12623957250E+03 -0.76884990787E+03  0.77949744394E+03  0.00000000000E+00 0.  1.
        -13    1    3    3    0    0  0.48577905319E+02  0.34241692535E+02 -0.72931349669E+03  0.73173115476E+03  0.00000000000E+00 0. -1.
         22    1    1    2    0    0 -0.72022619313E+02 -0.16048126504E+03  0.31744026786E+03  0.36291847263E+03  0.00000000000E+00 0.  1.
<mgrwt>
<rscale>  0 0.14554450E+04</rscale>
<asrwt>0</asrwt>
<pdfrwt beam="1">  1        2 0.23499002E+00 0.14554450E+04</pdfrwt>
<pdfrwt beam="2">  1       -2 0.53340303E-01 0.14554450E+04</pdfrwt>
<totfact> 0.39333378E+01</totfact>
</mgrwt>
</event>
<event>
 6    1  0.3017327E-006  0.4771928E+04  0.7818608E-02  0.7864686E-01
          2   -1    0    0  501    0  0.00000000000E+00  0.00000000000E+00  0.28049579857E+04  0.28049579857E+04  0.00000000000E+00 0. -1.
         -2   -1    0    0    0  501 -0.00000000000E+00 -0.00000000000E+00 -0.20295580172E+04  0.20295580172E+04  0.00000000000E+00 0.  1.
         23    2    1    2    0    0  0.22057161333E+04 -0.68377892588E+03 -0.21657698958E+03  0.23212003511E+04  0.91258957438E+02 0.  0.
         11    1    3    3    0    0  0.23132030692E+03 -0.67389657544E+02 -0.50473191917E+02  0.24616659692E+03  0.00000000000E+00 0.  1.
        -11    1    3    3    0    0  0.19743958263E+04 -0.61638926834E+03 -0.16610379766E+03  0.20750337541E+04  0.00000000000E+00 0. -1.
         22    1    1    2    0    0 -0.22057161333E+04  0.68377892588E+03  0.99197695807E+03  0.25133156518E+04  0.00000000000E+00 0. -1.
<mgrwt>
<rscale>  0 0.47719283E+04</rscale>
<asrwt>0</asrwt>
<pdfrwt beam="1">  1        2 0.43153200E+00 0.47719283E+04</pdfrwt>
<pdfrwt beam="2">  1       -2 0.31223970E+00 0.47719283E+04</pdfrwt>
<totfact> 0.45501873E-02</totfact>
</mgrwt>
</event>
<event>
 6    1  0.3017327E-006  0.4557987E+04  0.7818608E-02  0.7900563E-01
         -2   -1    0    0    0  501 -0.00000000000E+00  0.00000000000E+00  0.15601745451E+04  0.15601745451E+04  0.00000000000E+00 0.  1.
          2   -1    0    0  501    0  0.00000000000E+00 -0.00000000000E+00 -0.33289932013E+04  0.33289932013E+04  0.00000000000E+00 0. -1.
         23    2    1    2    0    0 -0.49629073750E+03  0.31326630345E+03  0.14763542689E+04  0.15913521684E+04  0.91320992414E+02 0.  0.
         13    1    3    3    0    0 -0.16521183294E+03  0.15441000566E+03  0.52829553660E+03  0.57465952840E+03  0.00000000000E+00 0.  1.
        -13    1    3    3    0    0 -0.33107890456E+03  0.15885629778E+03  0.94805873227E+03  0.10166926400E+04  0.00000000000E+00 0. -1.
         22    1    1    2    0    0  0.49629073750E+03 -0.31326630345E+03 -0.32451729250E+04  0.32978155780E+04  0.00000000000E+00 0. -1.
<mgrwt>
<rscale>  0 0.45579866E+04</rscale>
<asrwt>0</asrwt>
<pdfrwt beam="1">  1        2 0.51215279E+00 0.45579866E+04</pdfrwt>
<pdfrwt beam="2">  1       -2 0.24002686E+00 0.45579866E+04</pdfrwt>
<totfact> 0.59401690E-02</totfact>
</mgrwt>
</event>
<event>
 6    1  0.3017327E-006  0.2779123E+04  0.7818608E-02  0.8309779E-01
         -2   -1    0    0    0  501 -0.00000000000E+00  0.00000000000E+00  0.55352012717E+03  0.55352012717E+03  0.00000000000E+00 0.  1.
          2   -1    0    0  501    0  0.00000000000E+00 -0.00000000000E+00 -0.34883659903E+04  0.34883659903E+04  0.00000000000E+00 0. -1.
         23    2    1    2    0    0  0.96063166421E+02 -0.13134161297E+04 -0.83057137562E+03  0.15594959023E+04  0.88817778123E+02 0.  0.
         13    1    3    3    0    0  0.15575185591E+02 -0.34406193433E+03 -0.26276956079E+03  0.43320785212E+03  0.00000000000E+00 0. -1.
        -13    1    3    3    0    0  0.80487980830E+02 -0.96935419533E+03 -0.56780181483E+03  0.11262880502E+04  0.00000000000E+00 0.  1.
         22    1    1    2    0    0 -0.96063166421E+02  0.13134161297E+04 -0.21042744875E+04  0.24823902152E+04  0.00000000000E+00 0. -1.
<mgrwt>
<rscale>  0 0.27791227E+04</rscale>
<asrwt>0</asrwt>
<pdfrwt beam="1">  1        2 0.53667169E+00 0.27791227E+04</pdfrwt>
<pdfrwt beam="2">  1       -2 0.85156943E-01 0.27791227E+04</pdfrwt>
<totfact> 0.86624117E-01</totfact>
</mgrwt>
</event>
<event>
 6    1  0.3017327E-006  0.2764794E+04  0.7818608E-02  0.8314283E-01
         -2   -1    0    0    0  501 -0.00000000000E+00  0.00000000000E+00  0.85137105303E+03  0.85137105303E+03  0.00000000000E+00 0.  1.
          2   -1    0    0  501    0  0.00000000000E+00 -0.00000000000E+00 -0.22446397515E+04  0.22446397515E+04  0.00000000000E+00 0. -1.
         23    2    1    2    0    0  0.12819418261E+04 -0.51314931298E+03 -0.68551758659E+03  0.15443637122E+04  0.91803327639E+02 0.  0.
         11    1    3    3    0    0  0.40873290771E+03 -0.13508546088E+03 -0.25099583655E+03  0.49830671434E+03  0.00000000000E+00 0. -1.
        -11    1    3    3    0    0  0.87320891839E+03 -0.37806385209E+03 -0.43452175004E+03  0.10460569978E+04  0.00000000000E+00 0.  1.
         22    1    1    2    0    0 -0.12819418261E+04  0.51314931298E+03 -0.70775111189E+03  0.15516470924E+04  0.00000000000E+00 0.  1.
<mgrwt>
<rscale>  0 0.27647939E+04</rscale>
<asrwt>0</asrwt>
<pdfrwt beam="1">  1        2 0.34532919E+00 0.27647939E+04</pdfrwt>
<pdfrwt beam="2">  1       -2 0.13098016E+00 0.27647939E+04</pdfrwt>
<totfact> 0.18118497E+00</totfact>
</mgrwt>
</event>
<event>
 6    1  0.3017327E-006  0.1331620E+04  0.7818608E-02  0.9004860E-01
         -2   -1    0    0    0  501 -0.00000000000E+00  0.00000000000E+00  0.83035885622E+03  0.83035885622E+03  0.00000000000E+00 0.  1.
          2   -1    0    0  501    0  0.00000000000E+00 -0.00000000000E+00 -0.53386872541E+03  0.53386872541E+03  0.00000000000E+00 0. -1.
         23    2    1    2    0    0 -0.59871933020E+03  0.13165024671E+02  0.43970998527E+03  0.74847594262E+03  0.90737044827E+02 0.  0.
         13    1    3    3    0    0 -0.45295193442E+03  0.44875667908E+02  0.35224921639E+03  0.57555085867E+03  0.00000000000E+00 0.  1.
        -13    1    3    3    0    0 -0.14576739578E+03 -0.31710643236E+02  0.87460768881E+02  0.17292508395E+03  0.00000000000E+00 0. -1.
         22    1    1    2    0    0  0.59871933020E+03 -0.13165024671E+02 -0.14321985446E+03  0.61575163901E+03  0.00000000000E+00 0. -1.
<mgrwt>
<rscale>  0 0.13316195E+04</rscale>
<asrwt>0</asrwt>
<pdfrwt beam="1">  1        2 0.82133651E-01 0.13316195E+04</pdfrwt>
<pdfrwt beam="2">  1       -2 0.12774752E+00 0.13316195E+04</pdfrwt>
<totfact> 0.25306188E+01</totfact>
</mgrwt>
</event>
<event>
 6    1  0.3017327E-006  0.2973746E+04  0.7818608E-02  0.8251268E-01
          2   -1    0    0  501    0  0.00000000000E+00  0.00000000000E+00  0.24321928883E+04  0.24321928883E+04  0.00000000000E+00 0. -1.
         -2   -1    0    0    0  501 -0.00000000000E+00 -0.00000000000E+00 -0.90897044755E+03  0.90897044755E+03  0.00000000000E+00 0.  1.
         23    2    1    2    0    0 -0.11452615670E+03 -0.10899923916E+04  0.18889303879E+04  0.21857664529E+04  0.91199352165E+02 0.  0.
         11    1    3    3    0    0 -0.79818020381E+01 -0.49083762151E+03  0.81709388655E+03  0.95321964903E+03  0.00000000000E+00 0. -1.
        -11    1    3    3    0    0 -0.10654435466E+03 -0.59915477011E+03  0.10718365014E+04  0.12325468039E+04  0.00000000000E+00 0.  1.
         22    1    1    2    0    0  0.11452615670E+03  0.10899923916E+04 -0.36570794723E+03  0.11553968829E+04  0.00000000000E+00 0.  1.
<mgrwt>
<rscale>  0 0.29737461E+04</rscale>
<asrwt>0</asrwt>
<pdfrwt beam="1">  1        2 0.37418352E+00 0.29737461E+04</pdfrwt>
<pdfrwt beam="2">  1       -2 0.13984161E+00 0.29737461E+04</pdfrwt>
<totfact> 0.11770880E+00</totfact>
</mgrwt>
</event>
<event>
 6    1  0.3017327E-006  0.3627665E+04  0.7818608E-02  0.8084184E-01
          2   -1    0    0  501    0  0.00000000000E+00  0.00000000000E+00  0.12068935129E+04  0.12068935129E+04  0.00000000000E+00 0. -1.
         -2   -1    0    0    0  501 -0.00000000000E+00 -0.00000000000E+00 -0.27259979241E+04  0.27259979241E+04  0.00000000000E+00 0.  1.
         23    2    1    2    0    0 -0.41222510045E+03  0.16837067717E+04 -0.13347726572E+04  0.21896828373E+04  0.91076093998E+02 0.  0.
         13    1    3    3    0    0 -0.23314812568E+03  0.90376497960E+03 -0.66310554364E+03  0.11449271369E+04  0.00000000000E+00 0. -1.
        -13    1    3    3    0    0 -0.17907697477E+03  0.77994179213E+03 -0.67166711359E+03  0.10447557004E+04  0.00000000000E+00 0.  1.
         22    1    1    2    0    0  0.41222510045E+03 -0.16837067717E+04 -0.18433175389E+03  0.17432085997E+04  0.00000000000E+00 0. -1.
<mgrwt>
<rscale>  0 0.36276655E+04</rscale>
<asrwt>0</asrwt>
<pdfrwt beam="1">  1        2 0.18567592E+00 0.36276655E+04</pdfrwt>
<pdfrwt beam="2">  1       -2 0.41938430E+00 0.36276655E+04</pdfrwt>
<totfact> 0.84367123E-02</totfact>
</mgrwt>
</event>
<event>
 6    1  0.3017327E-006  0.2712507E+04  0.7818608E-02  0.8330958E-01
         -2   -1    0    0    0  501 -0.00000000000E+00  0.00000000000E+00  0.14997340945E+04  0.14997340945E+04  0.00000000000E+00 0.  1.
          2   -1    0    0  501    0  0.00000000000E+00 -0.00000000000E+00 -0.12265000344E+04  0.12265000344E+04  0.00000000000E+00 0. -1.
         23    2    1    2    0    0 -0.94566382192E+03 -0.53823437912E+03  0.94800594914E+03  0.14458851869E+04  0.88839084866E+02 0.  0.
         13    1    3    3    0    0 -0.13192260472E+03 -0.46959357049E+02  0.10018578011E+03  0.17217997963E+03  0.00000000000E+00 0. -1.
        -13    1    3    3    0    0 -0.81374121720E+03 -0.49127502207E+03  0.84782016903E+03  0.12737052072E+04  0.00000000000E+00 0.  1.
         22    1    1    2    0    0  0.94566382192E+03  0.53823437912E+03 -0.67477188905E+03  0.12803489420E+04  0.00000000000E+00 0. -1.
<mgrwt>
<rscale>  0 0.27125073E+04</rscale>
<asrwt>0</asrwt>
<pdfrwt beam="1">  1        2 0.18869232E+00 0.27125073E+04</pdfrwt>
<pdfrwt beam="2">  1       -2 0.23072832E+00 0.27125073E+04</pdfrwt>
<totfact> 0.13542298E+00</totfact>
</mgrwt>
</event>
<event>
 6    1  0.3017327E-006  0.2859069E+04  0.7818608E-02  0.8285161E-01
         -2   -1    0    0    0  501 -0.00000000000E+00  0.00000000000E+00  0.76010623936E+03  0.76010623936E+03  0.00000000000E+00 0.  1.
          2   -1    0    0  501    0  0.00000000000E+00 -0.00000000000E+00 -0.26885308714E+04  0.26885308714E+04  0.00000000000E+00 0. -1.
         23    2    1    2    0    0  0.23864299695E+03 -0.63564506335E+03  0.55017549117E+03  0.87872394154E+03  0.92019388155E+02 0.  0.
         13    1    3    3    0    0  0.62362759187E+02 -0.26439343182E+03  0.25641703997E+03  0.37355414455E+03  0.00000000000E+00 0. -1.
        -13    1    3    3    0    0  0.17628023776E+03 -0.37125163153E+03  0.29375845119E+03  0.50516979698E+03  0.00000000000E+00 0.  1.
         22    1    1    2    0    0 -0.23864299695E+03  0.63564506335E+03 -0.24786001232E+04  0.25699131692E+04  0.00000000000E+00 0. -1.
<mgrwt>
<rscale>  0 0.28590691E+04</rscale>
<asrwt>0</asrwt>
<pdfrwt beam="1">  1        2 0.41362014E+00 0.28590691E+04</pdfrwt>
<pdfrwt beam="2">  1       -2 0.11693942E+00 0.28590691E+04</pdfrwt>
<totfact> 0.13217366E+00</totfact>
</mgrwt>
</event>
<event>
 6    1  0.3017327E-006  0.2105217E+04  0.7818608E-02  0.8558949E-01
          2   -1    0    0  501    0  0.00000000000E+00  0.00000000000E+00  0.14982699955E+04  0.14982699955E+04  0.00000000000E+00 0. -1.
         -2   -1    0    0    0  501 -0.00000000000E+00 -0.00000000000E+00 -0.73950904300E+03  0.73950904300E+03  0.00000000000E+00 0.  1.
         23    2    1    2    0    0  0.19120949997E+03  0.11739707516E+03  0.14710651221E+04  0.14909722521E+04  0.92857508027E+02 0.  0.
         13    1    3    3    0    0  0.54040980654E+02  0.33127485323E+02  0.72340347860E+03  0.72617522040E+03  0.00000000000E+00 0. -1.
        -13    1    3    3    0    0  0.13716851931E+03  0.84269589839E+02  0.74766164352E+03  0.76479703167E+03  0.00000000000E+00 0.  1.
         22    1    1    2    0    0 -0.19120949997E+03 -0.11739707516E+03 -0.71230416965E+03  0.74680678641E+03  0.00000000000E+00 0.  1.
<mgrwt>
<rscale>  0 0.21052166E+04</rscale>
<asrwt>0</asrwt>
<pdfrwt beam="1">  1        2 0.23050308E+00 0.21052166E+04</pdfrwt>
<pdfrwt beam="2">  1       -2 0.11377062E+00 0.21052166E+04</pdfrwt>
<totfact> 0.70951209E+00</totfact>
</mgrwt>
</event>
<event>
 6    1  0.3017327E-006  0.1164895E+04  0.7818608E-02  0.9144151E-01
          1   -1    0    0  501    0  0.00000000000E+00  0.00000000000E+00  0.14641158728E+04  0.14641158728E+04  0.00000000000E+00 0. -1.
         -1   -1    0    0    0  501 -0.00000000000E+00 -0.00000000000E+00 -0.23170656264E+03  0.23170656264E+03  0.00000000000E+00 0.  1.
         23    2    1    2    0    0  0.86254458757E+02 -0.39535882247E+03  0.17277615250E+02  0.41508301381E+03  0.90812786569E+02 0.  0.
         11    1    3    3    0    0  0.15688347751E+02 -0.18697115295E+03  0.46054403815E+02  0.19319768218E+03  0.00000000000E+00 0. -1.
        -11    1    3    3    0    0  0.70566111006E+02 -0.20838766952E+03 -0.28776788565E+02  0.22188533162E+03  0.00000000000E+00 0.  1.
         22    1    1    2    0    0 -0.86254458757E+02  0.39535882247E+03  0.12151316949E+04  0.12807394216E+04  0.00000000000E+00 0. -1.
<mgrwt>
<rscale>  0 0.11648953E+04</rscale>
<asrwt>0</asrwt>
<pdfrwt beam="1">  1        1 0.22524859E+00 0.11648953E+04</pdfrwt>
<pdfrwt beam="2">  1       -1 0.35647164E-01 0.11648953E+04</pdfrwt>
<totfact> 0.51597713E+01</totfact>
</mgrwt>
</event>
<event>
 6    1  0.3017327E-006  0.1831249E+04  0.7818608E-02  0.8689856E-01
         -2   -1    0    0    0  501 -0.00000000000E+00  0.00000000000E+00  0.27715287156E+04  0.27715287156E+04  0.00000000000E+00 0.  1.
          2   -1    0    0  501    0  0.00000000000E+00 -0.00000000000E+00 -0.30249321655E+03  0.30249321655E+03  0.00000000000E+00 0. -1.
         23    2    1    2    0    0 -0.10102981494E+03  0.75909956139E+03  0.40170667818E+03  0.86941593080E+03  0.89870116430E+02 0.  0.
         11    1    3    3    0    0 -0.63444682360E+02  0.54071399190E+03  0.32941309203E+03  0.63632525799E+03  0.00000000000E+00 0. -1.
        -11    1    3    3    0    0 -0.37585132579E+02  0.21838556949E+03  0.72293586147E+02  0.23309067281E+03  0.00000000000E+00 0.  1.
         22    1    1    2    0    0  0.10102981494E+03 -0.75909956139E+03  0.20673288209E+04  0.22046060014E+04  0.00000000000E+00 0.  1.
<mgrwt>
<rscale>  0 0.18312494E+04</rscale>
<asrwt>0</asrwt>
<pdfrwt beam="1">  1        2 0.46537420E-01 0.18312494E+04</pdfrwt>
<pdfrwt beam="2">  1       -2 0.42638902E+00 0.18312494E+04</pdfrwt>
<totfact> 0.51172874E-01</totfact>
</mgrwt>
</event>
<event>
 6    1  0.3017327E-006  0.1915610E+04  0.7818608E-02  0.8647125E-01
         -2   -1    0    0    0  501 -0.00000000000E+00  0.00000000000E+00  0.68748482631E+03  0.68748482631E+03  0.00000000000E+00 0.  1.
          2   -1    0    0  501    0  0.00000000000E+00 -0.00000000000E+00 -0.13344157045E+04  0.13344157045E+04  0.00000000000E+00 0. -1.
         23    2    1    2    0    0 -0.15681551608E+03  0.44886209209E+03  0.55067038233E+03  0.73336761971E+03  0.92314201897E+02 0.  0.
         11    1    3    3    0    0 -0.76181692011E+02  0.10369945982E+03  0.12435099993E+03  0.17894244703E+03  0.00000000000E+00 0. -1.
        -11    1    3    3    0    0 -0.80633824069E+02  0.34516263227E+03  0.42631938239E+03  0.55442517268E+03  0.00000000000E+00 0.  1.
         22    1    1    2    0    0  0.15681551608E+03 -0.44886209209E+03 -0.11976012605E+04  0.12885329111E+04  0.00000000000E+00 0. -1.
<mgrwt>
<rscale>  0 0.19156101E+04</rscale>
<asrwt>0</asrwt>
<pdfrwt beam="1">  1        2 0.20529472E+00 0.19156101E+04</pdfrwt>
<pdfrwt beam="2">  1       -2 0.10576690E+00 0.19156101E+04</pdfrwt>
<totfact> 0.10668177E+01</totfact>
</mgrwt>
</event>
<event>
 6    1  0.3017327E-006  0.4406724E+04  0.7818608E-02  0.7927173E-01
          2   -1    0    0  501    0  0.00000000000E+00  0.00000000000E+00  0.35215795860E+04  0.35215795860E+04  0.00000000000E+00 0. -1.
         -2   -1    0    0    0  501 -0.00000000000E+00 -0.00000000000E+00 -0.13785872598E+04  0.13785872598E+04  0.00000000000E+00 0.  1.
         23    2    1    2    0    0  0.14362078568E+04  0.14070205783E+04  0.20715663775E+04  0.28883264987E+04  0.92966613240E+02 0.  0.
         11    1    3    3    0    0  0.28767399306E+03  0.23547165444E+03  0.36241637950E+03  0.51918094963E+03  0.00000000000E+00 0.  1.
        -11    1    3    3    0    0  0.11485338637E+04  0.11715489239E+04  0.17091499980E+04  0.23691455491E+04  0.00000000000E+00 0. -1.
         22    1    1    2    0    0 -0.14362078568E+04 -0.14070205783E+04  0.71425948686E+02  0.20118403470E+04  0.00000000000E+00 0.  1.
<mgrwt>
<rscale>  0 0.44067243E+04</rscale>
<asrwt>0</asrwt>
<pdfrwt beam="1">  1        2 0.54178147E+00 0.44067243E+04</pdfrwt>
<pdfrwt beam="2">  1       -2 0.21209035E+00 0.44067243E+04</pdfrwt>
<totfact> 0.66408235E-02</totfact>
</mgrwt>
</event>
<event>
 6    1  0.3017327E-006  0.2133962E+04  0.7818608E-02  0.8546429E-01
          2   -1    0    0  501    0  0.00000000000E+00  0.00000000000E+00  0.23105986983E+04  0.23105986983E+04  0.00000000000E+00 0. -1.
         -2   -1    0    0    0  501 -0.00000000000E+00 -0.00000000000E+00 -0.49270719274E+03  0.49270719274E+03  0.00000000000E+00 0.  1.
         23    2    1    2    0    0 -0.20455054485E+03 -0.80104694753E+03  0.28625820513E+02  0.83226839033E+03  0.91291283270E+02 0.  0.
         13    1    3    3    0    0 -0.64447842865E+02 -0.39687190270E+03 -0.14493030746E+02  0.40233180280E+03  0.00000000000E+00 0.  1.
        -13    1    3    3    0    0 -0.14010270198E+03 -0.40417504483E+03  0.43118851259E+02  0.42993658753E+03  0.00000000000E+00 0. -1.
         22    1    1    2    0    0  0.20455054485E+03  0.80104694753E+03  0.17892656851E+04  0.19710375007E+04  0.00000000000E+00 0. -1.
<mgrwt>
<rscale>  0 0.21339621E+04</rscale>
<asrwt>0</asrwt>
<pdfrwt beam="1">  1        2 0.35547672E+00 0.21339621E+04</pdfrwt>
<pdfrwt beam="2">  1       -2 0.75801108E-01 0.21339621E+04</pdfrwt>
<totfact> 0.64081686E+00</totfact>
</mgrwt>
</event>
<event>
 6    1  0.3017327E-006  0.2497025E+04  0.7818608E-02  0.8404046E-01
         -2   -1    0    0    0  501 -0.00000000000E+00  0.00000000000E+00  0.78496739816E+03  0.78496739816E+03  0.00000000000E+00 0.  1.
          2   -1    0    0  501    0  0.00000000000E+00 -0.00000000000E+00 -0.19857934679E+04  0.19857934679E+04  0.00000000000E+00 0. -1.
         23    2    1    2    0    0 -0.48585882168E+03  0.55246113332E+03  0.51579580773E+03  0.90312525689E+03  0.91202060979E+02 0.  0.
         13    1    3    3    0    0 -0.35844373978E+03  0.45199962312E+03  0.37281400004E+03  0.68685941247E+03  0.00000000000E+00 0. -1.
        -13    1    3    3    0    0 -0.12741508190E+03  0.10046151020E+03  0.14298180770E+03  0.21626584442E+03  0.00000000000E+00 0.  1.
         22    1    1    2    0    0  0.48585882168E+03 -0.55246113332E+03 -0.17166218775E+04  0.18676356092E+04  0.00000000000E+00 0. -1.
<mgrwt>
<rscale>  0 0.24970247E+04</rscale>
<asrwt>0</asrwt>
<pdfrwt beam="1">  1        2 0.30550668E+00 0.24970247E+04</pdfrwt>
<pdfrwt beam="2">  1       -2 0.12076422E+00 0.24970247E+04</pdfrwt>
<totfact> 0.31725605E+00</totfact>
</mgrwt>
</event>
<event>
 6    1  0.3017327E-006  0.1664590E+04  0.7818608E-02  0.8781821E-01
         -2   -1    0    0    0  501 -0.00000000000E+00  0.00000000000E+00  0.31547525314E+03  0.31547525314E+03  0.00000000000E+00 0.  1.
          2   -1    0    0  501    0  0.00000000000E+00 -0.00000000000E+00 -0.21957833101E+04  0.21957833101E+04  0.00000000000E+00 0. -1.
         23    2    1    2    0    0  0.82084977679E+03 -0.40838213735E+02 -0.11163025415E+04  0.13891326597E+04  0.89978143428E+02 0.  0.
         13    1    3    3    0    0  0.35852793826E+03 -0.37306462533E+02 -0.42218550289E+03  0.55513480662E+03  0.00000000000E+00 0.  1.
        -13    1    3    3    0    0  0.46232183852E+03 -0.35317512020E+01 -0.69411703862E+03  0.83399785308E+03  0.00000000000E+00 0. -1.
         22    1    1    2    0    0 -0.82084977679E+03  0.40838213735E+02 -0.76400551541E+03  0.11221259035E+04  0.00000000000E+00 0. -1.
<mgrwt>
<rscale>  0 0.16645904E+04</rscale>
<asrwt>0</asrwt>
<pdfrwt beam="1">  1        2 0.33781281E+00 0.16645904E+04</pdfrwt>
<pdfrwt beam="2">  1       -2 0.48534655E-01 0.16645904E+04</pdfrwt>
<totfact> 0.19930971E+01</totfact>
</mgrwt>
</event>
<event>
 6    1  0.3017327E-006  0.3943391E+04  0.7818608E-02  0.8016065E-01
         -2   -1    0    0    0  501 -0.00000000000E+00  0.00000000000E+00  0.16052114602E+04  0.16052114602E+04  0.00000000000E+00 0.  1.
          2   -1    0    0  501    0  0.00000000000E+00 -0.00000000000E+00 -0.24218509783E+04  0.24218509783E+04  0.00000000000E+00 0. -1.
         23    2    1    2    0    0 -0.81772627865E+02 -0.14258455502E+04  0.97824805416E+03  0.17333005300E+04  0.87402380825E+02 0.  0.
         11    1    3    3    0    0 -0.47674913157E+02 -0.12868087796E+04  0.88249203646E+03  0.15610707630E+04  0.00000000000E+00 0. -1.
        -11    1    3    3    0    0 -0.34097714708E+02 -0.13903677058E+03  0.95756017701E+02  0.17222976702E+03  0.00000000000E+00 0.  1.
         22    1    1    2    0    0  0.81772627865E+02  0.14258455502E+04 -0.17948875723E+04  0.22937619085E+04  0.00000000000E+00 0. -1.
<mgrwt>
<rscale>  0 0.39433909E+04</rscale>
<asrwt>0</asrwt>
<pdfrwt beam="1">  1        2 0.37259245E+00 0.39433909E+04</pdfrwt>
<pdfrwt beam="2">  1       -2 0.24695561E+00 0.39433909E+04</pdfrwt>
<totfact> 0.20538382E-01</totfact>
</mgrwt>
</event>
<event>
 6    1  0.3017327E-006  0.2770530E+04  0.7818608E-02  0.8312476E-01
         -2   -1    0    0    0  501 -0.00000000000E+00  0.00000000000E+00  0.13284652626E+04  0.13284652626E+04  0.00000000000E+00 0.  1.
          2   -1    0    0  501    0  0.00000000000E+00 -0.00000000000E+00 -0.14444932296E+04  0.14444932296E+04  0.00000000000E+00 0. -1.
         23    2    1    2    0    0 -0.26149686336E+03 -0.51298570937E+03 -0.13175193121E+04  0.14406235493E+04  0.89465778412E+02 0.  0.
         13    1    3    3    0    0  0.59021915437E+01 -0.28585612650E+02 -0.74828596706E+02  0.80319935262E+02  0.00000000000E+00 0. -1.
        -13    1    3    3    0    0 -0.26739905490E+03 -0.48440009672E+03 -0.12426907154E+04  0.13603036140E+04  0.00000000000E+00 0.  1.
         22    1    1    2    0    0  0.26149686336E+03  0.51298570937E+03  0.12014913452E+04  0.13323349429E+04  0.00000000000E+00 0.  1.
<mgrwt>
<rscale>  0 0.27705300E+04</rscale>
<asrwt>0</asrwt>
<pdfrwt beam="1">  1        2 0.22222973E+00 0.27705300E+04</pdfrwt>
<pdfrwt beam="2">  1       -2 0.20437927E+00 0.27705300E+04</pdfrwt>
<totfact> 0.14824149E+00</totfact>
</mgrwt>
</event>
<event>
 6    1  0.3017327E-006  0.4831878E+04  0.7818608E-02  0.7854978E-01
          2   -1    0    0  501    0  0.00000000000E+00  0.00000000000E+00  0.23895701537E+04  0.23895701537E+04  0.00000000000E+00 0. -1.
         -2   -1    0    0    0  501 -0.00000000000E+00 -0.00000000000E+00 -0.24425988268E+04  0.24425988268E+04  0.00000000000E+00 0.  1.
         23    2    1    2    0    0  0.17250662989E+04  0.15193308039E+04 -0.76737033364E+03  0.24249914143E+04  0.86638921765E+02 0.  0.
         11    1    3    3    0    0  0.14348575546E+04  0.12459825439E+04 -0.66561560186E+03  0.20135373926E+04  0.00000000000E+00 0.  1.
        -11    1    3    3    0    0  0.29020874432E+03  0.27334826002E+03 -0.10175473178E+03  0.41145402171E+03  0.00000000000E+00 0. -1.
         22    1    1    2    0    0 -0.17250662989E+04 -0.15193308039E+04  0.71434166046E+03  0.24071775662E+04  0.00000000000E+00 0. -1.
<mgrwt>
<rscale>  0 0.48318780E+04</rscale>
<asrwt>0</asrwt>
<pdfrwt beam="1">  1        2 0.36762618E+00 0.48318780E+04</pdfrwt>
<pdfrwt beam="2">  1       -2 0.37578443E+00 0.48318780E+04</pdfrwt>
<totfact> 0.31703336E-02</totfact>
</mgrwt>
</event>
<event>
 6    1  0.3017327E-006  0.2450946E+04  0.7818608E-02  0.8420673E-01
          1   -1    0    0  501    0  0.00000000000E+00  0.00000000000E+00  0.15309053166E+04  0.15309053166E+04  0.00000000000E+00 0. -1.
         -1   -1    0    0    0  501 -0.00000000000E+00 -0.00000000000E+00 -0.98097758731E+03  0.98097758731E+03  0.00000000000E+00 0.  1.
         23    2    1    2    0    0  0.97287770391E+03  0.51049214810E+03 -0.27812785330E+03  0.11361033766E+04  0.79262345407E+02 0.  0.
         11    1    3    3    0    0  0.69453183949E+03  0.39246710540E+03 -0.22753770352E+03  0.82956513391E+03  0.00000000000E+00 0.  1.
        -11    1    3    3    0    0  0.27834586443E+03  0.11802504270E+03 -0.50590149777E+02  0.30653824264E+03  0.00000000000E+00 0. -1.
         22    1    1    2    0    0 -0.97287770391E+03 -0.51049214810E+03  0.82805558261E+03  0.13757795274E+04  0.00000000000E+00 0. -1.
<mgrwt>
<rscale>  0 0.24509458E+04</rscale>
<asrwt>0</asrwt>
<pdfrwt beam="1">  1        1 0.23552389E+00 0.24509458E+04</pdfrwt>
<pdfrwt beam="2">  1       -1 0.15091963E+00 0.24509458E+04</pdfrwt>
<totfact> 0.19066506E+00</totfact>
</mgrwt>
</event>
<event>
 6    1  0.4509134E-006  0.3152758E+04  0.7818608E-02  0.8201406E-01
         -2   -1    0    0    0  501 -0.00000000000E+00  0.00000000000E+00  0.12338077441E+04  0.12338077441E+04  0.00000000000E+00 0.  1.
          2   -1    0    0  501    0  0.00000000000E+00 -0.00000000000E+00 -0.20140665468E+04  0.20140665468E+04  0.00000000000E+00 0. -1.
         23    2    1    2    0    0 -0.86625820090E+03  0.11424574557E+04 -0.10622720401E+04  0.17866611735E+04  0.90132973440E+02 0.  0.
         11    1    3    3    0    0 -0.61112511256E+03  0.74027135060E+03 -0.69129771356E+03  0.11829489019E+04  0.00000000000E+00 0.  1.
        -11    1    3    3    0    0 -0.25513308835E+03  0.40218610506E+03 -0.37097432659E+03  0.60371227158E+03  0.00000000000E+00 0. -1.
         22    1    1    2    0    0  0.86625820090E+03 -0.11424574557E+04  0.28201323746E+03  0.14612131175E+04  0.00000000000E+00 0. -1.
<mgrwt>
<rscale>  0 0.31527581E+04</rscale>
<asrwt>0</asrwt>
<pdfrwt beam="1">  1        2 0.30985639E+00 0.31527581E+04</pdfrwt>
<pdfrwt beam="2">  1       -2 0.18981658E+00 0.31527581E+04</pdfrwt>
<totfact> 0.86229372E-01</totfact>
</mgrwt>
</event>
<event>
 6    1  0.3017327E-006  0.2147420E+04  0.7818608E-02  0.8540638E-01
         -2   -1    0    0    0  501 -0.00000000000E+00  0.00000000000E+00  0.53373837397E+03  0.53373837397E+03  0.00000000000E+00 0.  1.
          2   -1    0    0  501    0  0.00000000000E+00 -0.00000000000E+00 -0.21599584003E+04  0.21599584003E+04  0.00000000000E+00 0. -1.
         23    2    1    2    0    0  0.27752850175E+03  0.33332888198E+03 -0.20439877408E+04  0.20914841240E+04  0.91048029300E+02 0.  0.
         11    1    3    3    0    0  0.13334175903E+03  0.96752262018E+02 -0.84402074931E+03  0.85994886486E+03  0.00000000000E+00 0. -1.
        -11    1    3    3    0    0  0.14418674271E+03  0.23657661996E+03 -0.11999669915E+04  0.12315352591E+04  0.00000000000E+00 0.  1.
         22    1    1    2    0    0 -0.27752850175E+03 -0.33332888198E+03  0.41776771449E+03  0.60221265024E+03  0.00000000000E+00 0.  1.
<mgrwt>
<rscale>  0 0.21474196E+04</rscale>
<asrwt>0</asrwt>
<pdfrwt beam="1">  1        2 0.33230129E+00 0.21474196E+04</pdfrwt>
<pdfrwt beam="2">  1       -2 0.82113595E-01 0.21474196E+04</pdfrwt>
<totfact> 0.65059153E+00</totfact>
</mgrwt>
</event>
<event>
 6    1  0.3017327E-006  0.3508350E+04  0.7818608E-02  0.8111814E-01
         -2   -1    0    0    0  501 -0.00000000000E+00  0.00000000000E+00  0.10087435887E+04  0.10087435887E+04  0.00000000000E+00 0.  1.
          2   -1    0    0  501    0  0.00000000000E+00 -0.00000000000E+00 -0.30504584790E+04  0.30504584790E+04  0.00000000000E+00 0. -1.
         23    2    1    2    0    0 -0.49119174671E+03  0.16751774929E+04 -0.12034719651E+04  0.21226742041E+04  0.99559235042E+02 0.  0.
         11    1    3    3    0    0 -0.19287924406E+03  0.51675676691E+03 -0.40885521113E+03  0.68658760738E+03  0.00000000000E+00 0. -1.
        -11    1    3    3    0    0 -0.29831250265E+03  0.11584207260E+04 -0.79461675395E+03  0.14360865967E+04  0.00000000000E+00 0.  1.
         22    1    1    2    0    0  0.49119174671E+03 -0.16751774929E+04 -0.83824292521E+03  0.19365278636E+04  0.00000000000E+00 0.  1.
<mgrwt>
<rscale>  0 0.35083503E+04</rscale>
<asrwt>0</asrwt>
<pdfrwt beam="1">  1        2 0.46930130E+00 0.35083503E+04</pdfrwt>
<pdfrwt beam="2">  1       -2 0.15519132E+00 0.35083503E+04</pdfrwt>
<totfact> 0.36328809E-01</totfact>
</mgrwt>
</event>
<event>
 6    1  0.3017327E-006  0.9231318E+03  0.7818608E-02  0.9397119E-01
         -2   -1    0    0    0  501 -0.00000000000E+00  0.00000000000E+00  0.27857577577E+03  0.27857577577E+03  0.00000000000E+00 0.  1.
          2   -1    0    0  501    0  0.00000000000E+00 -0.00000000000E+00 -0.76475811153E+03  0.76475811153E+03  0.00000000000E+00 0. -1.
         23    2    1    2    0    0 -0.37890332615E+03  0.19496013266E+03 -0.58477888917E+02  0.43958867800E+03  0.90781927943E+02 0.  0.
         13    1    3    3    0    0 -0.48876980105E+02  0.17755621500E+01  0.12881981694E+02  0.50577240508E+02  0.00000000000E+00 0.  1.
        -13    1    3    3    0    0 -0.33002634604E+03  0.19318457051E+03 -0.71359870611E+02  0.38901143749E+03  0.00000000000E+00 0. -1.
         22    1    1    2    0    0  0.37890332615E+03 -0.19496013266E+03 -0.42770444684E+03  0.60374520929E+03  0.00000000000E+00 0. -1.
<mgrwt>
<rscale>  0 0.92313181E+03</rscale>
<asrwt>0</asrwt>
<pdfrwt beam="1">  1        2 0.11765509E+00 0.92313181E+03</pdfrwt>
<pdfrwt beam="2">  1       -2 0.42857812E-01 0.92313181E+03</pdfrwt>
<totfact> 0.18899743E+02</totfact>
</mgrwt>
</event>
<event>
 6    1  0.3017327E-006  0.1689126E+04  0.7818608E-02  0.8767591E-01
         -2   -1    0    0    0  501 -0.00000000000E+00  0.00000000000E+00  0.24756360537E+03  0.24756360537E+03  0.00000000000E+00 0.  1.
          2   -1    0    0  501    0  0.00000000000E+00 -0.00000000000E+00 -0.28812244328E+04  0.28812244328E+04  0.00000000000E+00 0. -1.
         23    2    1    2    0    0 -0.46597440653E+03 -0.65461561065E+03 -0.85397742546E+03  0.11761163411E+04  0.91205588630E+02 0.  0.
         11    1    3    3    0    0 -0.13026709068E+03 -0.22887590874E+03 -0.32909172979E+03  0.42149147457E+03  0.00000000000E+00 0.  1.
        -11    1    3    3    0    0 -0.33570731584E+03 -0.42573970191E+03 -0.52488569567E+03  0.75462486654E+03  0.00000000000E+00 0. -1.
         22    1    1    2    0    0  0.46597440653E+03  0.65461561065E+03 -0.17796834020E+04  0.19526716971E+04  0.00000000000E+00 0. -1.
<mgrwt>
<rscale>  0 0.16891256E+04</rscale>
<asrwt>0</asrwt>
<pdfrwt beam="1">  1        2 0.44326529E+00 0.16891256E+04</pdfrwt>
<pdfrwt beam="2">  1       -2 0.38086709E-01 0.16891256E+04</pdfrwt>
<totfact> 0.12839224E+01</totfact>
</mgrwt>
</event>
<event>
 6    1  0.3017327E-006  0.2924524E+04  0.7818608E-02  0.8265618E-01
          2   -1    0    0  501    0  0.00000000000E+00  0.00000000000E+00  0.17940845246E+04  0.17940845246E+04  0.00000000000E+00 0. -1.
         -2   -1    0    0    0  501 -0.00000000000E+00 -0.00000000000E+00 -0.11918113311E+04  0.11918113311E+04  0.00000000000E+00 0.  1.
         23    2    1    2    0    0 -0.60735061101E+03  0.23052837685E+03  0.16372595903E+04  0.17639241135E+04  0.93761478464E+02 0.  0.
         11    1    3    3    0    0 -0.31063893834E+03  0.79514816817E+02  0.88439258109E+03  0.94072811885E+03  0.00000000000E+00 0. -1.
        -11    1    3    3    0    0 -0.29671167267E+03  0.15101356003E+03  0.75286700923E+03  0.82319599464E+03  0.00000000000E+00 0.  1.
         22    1    1    2    0    0  0.60735061101E+03 -0.23052837685E+03 -0.10349863968E+04  0.12219717423E+04  0.00000000000E+00 0.  1.
<mgrwt>
<rscale>  0 0.29245241E+04</rscale>
<asrwt>0</asrwt>
<pdfrwt beam="1">  1        2 0.27601300E+00 0.29245241E+04</pdfrwt>
<pdfrwt beam="2">  1       -2 0.18335559E+00 0.29245241E+04</pdfrwt>
<totfact> 0.12877732E+00</totfact>
</mgrwt>
</event>
<event>
 6    1  0.3017327E-006  0.3376537E+04  0.7818608E-02  0.8143689E-01
          2   -1    0    0  501    0  0.00000000000E+00  0.00000000000E+00  0.36996377913E+04  0.36996377913E+04  0.00000000000E+00 0. -1.
         -2   -1    0    0    0  501 -0.00000000000E+00 -0.00000000000E+00 -0.77041353303E+03  0.77041353303E+03  0.00000000000E+00 0.  1.
         23    2    1    2    0    0  0.11535446146E+04 -0.29656968521E+03 -0.11625933344E+03  0.11999459647E+04  0.87950722361E+02 0.  0.
         13    1    3    3    0    0  0.70428679753E+03 -0.22491711563E+03 -0.76471049085E+02  0.74327345131E+03  0.00000000000E+00 0. -1.
        -13    1    3    3    0    0  0.44925781702E+03 -0.71652569585E+02 -0.39788284357E+02  0.45667251336E+03  0.00000000000E+00 0.  1.
         22    1    1    2    0    0 -0.11535446146E+04  0.29656968521E+03  0.30454835917E+04  0.32701053597E+04  0.00000000000E+00 0. -1.
<mgrwt>
<rscale>  0 0.33765373E+04</rscale>
<asrwt>0</asrwt>
<pdfrwt beam="1">  1        2 0.56917503E+00 0.33765373E+04</pdfrwt>
<pdfrwt beam="2">  1       -2 0.11852516E+00 0.33765373E+04</pdfrwt>
<totfact> 0.26496987E-01</totfact>
</mgrwt>
</event>
<event>
 6    1  0.3017327E-006  0.1306611E+04  0.7818608E-02  0.9024339E-01
          2   -1    0    0  501    0  0.00000000000E+00  0.00000000000E+00  0.80816567595E+03  0.80816567595E+03  0.00000000000E+00 0.  1.
         -2   -1    0    0    0  501 -0.00000000000E+00 -0.00000000000E+00 -0.52811924958E+03  0.52811924958E+03  0.00000000000E+00 0. -1.
         23    2    1    2    0    0  0.45214274749E+03  0.18473302418E+03  0.57954316561E+03  0.76334718794E+03  0.90935659663E+02 0.  0.
         13    1    3    3    0    0  0.23729216435E+03  0.10589226565E+03  0.23899625044E+03  0.35304383709E+03  0.00000000000E+00 0. -1.
        -13    1    3    3    0    0  0.21485058314E+03  0.78840758530E+02  0.34054691518E+03  0.41030335085E+03  0.00000000000E+00 0.  1.
         22    1    1    2    0    0 -0.45214274749E+03 -0.18473302418E+03 -0.29949673924E+03  0.57293773758E+03  0.00000000000E+00 0. -1.
<mgrwt>
<rscale>  0 0.13066107E+04</rscale>
<asrwt>0</asrwt>
<pdfrwt beam="1">  1        2 0.12433318E+00 0.13066107E+04</pdfrwt>
<pdfrwt beam="2">  1       -2 0.81249115E-01 0.13066107E+04</pdfrwt>
<totfact> 0.44459013E+01</totfact>
</mgrwt>
</event>
<event>
 6    1  0.3017327E-006  0.2368055E+04  0.7818608E-02  0.8451561E-01
         -2   -1    0    0    0  501 -0.00000000000E+00  0.00000000000E+00  0.73665815550E+03  0.73665815550E+03  0.00000000000E+00 0.  1.
          2   -1    0    0  501    0  0.00000000000E+00 -0.00000000000E+00 -0.19030817236E+04  0.19030817236E+04  0.00000000000E+00 0. -1.
         23    2    1    2    0    0  0.51089296501E+03 -0.90433274843E+03 -0.12136596440E+04  0.15999992440E+04  0.90545610756E+02 0.  0.
         13    1    3    3    0    0  0.19042794491E+03 -0.30626672055E+03 -0.48437385685E+03  0.60388752224E+03  0.00000000000E+00 0.  1.
        -13    1    3    3    0    0  0.32046502010E+03 -0.59806602788E+03 -0.72928578714E+03  0.99611172172E+03  0.00000000000E+00 0. -1.
         22    1    1    2    0    0 -0.51089296501E+03  0.90433274843E+03  0.47236075861E+02  0.10397406352E+04  0.00000000000E+00 0.  1.
<mgrwt>
<rscale>  0 0.23680546E+04</rscale>
<asrwt>0</asrwt>
<pdfrwt beam="1">  1        2 0.29278180E+00 0.23680546E+04</pdfrwt>
<pdfrwt beam="2">  1       -2 0.11333202E+00 0.23680546E+04</pdfrwt>
<totfact> 0.41669789E+00</totfact>
</mgrwt>
</event>
<event>
 6    1  0.3017327E-006  0.3185434E+04  0.7818608E-02  0.8192675E-01
          1   -1    0    0  501    0  0.00000000000E+00  0.00000000000E+00  0.20542156049E+04  0.20542156049E+04  0.00000000000E+00 0.  1.
         -1   -1    0    0    0  501 -0.00000000000E+00 -0.00000000000E+00 -0.12348986287E+04  0.12348986287E+04  0.00000000000E+00 0. -1.
         23    2    1    2    0    0  0.67289528594E+02 -0.13406648889E+04 -0.47253458942E+03  0.14261084117E+04  0.92660881191E+02 0.  0.
         11    1    3    3    0    0  0.73177047159E+02 -0.54868601621E+03 -0.19323828156E+03  0.58630389566E+03  0.00000000000E+00 0. -1.
        -11    1    3    3    0    0 -0.58875185650E+01 -0.79197887267E+03 -0.27929630786E+03  0.83980451607E+03  0.00000000000E+00 0.  1.
         22    1    1    2    0    0 -0.67289528594E+02  0.13406648889E+04  0.12918515656E+04  0.18630058219E+04  0.00000000000E+00 0.  1.
<mgrwt>
<rscale>  0 0.31854344E+04</rscale>
<asrwt>0</asrwt>
<pdfrwt beam="1">  1        1 0.31603317E+00 0.31854344E+04</pdfrwt>
<pdfrwt beam="2">  1       -1 0.18998440E+00 0.31854344E+04</pdfrwt>
<totfact> 0.40535121E-01</totfact>
</mgrwt>
</event>
<event>
 6    1  0.3017327E-006  0.1705298E+04  0.7818608E-02  0.8758348E-01
         -2   -1    0    0    0  501 -0.00000000000E+00  0.00000000000E+00  0.35902300441E+03  0.35902300441E+03  0.00000000000E+00 0.  1.
          2   -1    0    0  501    0  0.00000000000E+00 -0.00000000000E+00 -0.20249687961E+04  0.20249687961E+04  0.00000000000E+00 0. -1.
         23    2    1    2    0    0 -0.37337477400E+03 -0.75910470312E+03 -0.71712098839E+03  0.11128044896E+04  0.91774984880E+02 0.  0.
         11    1    3    3    0    0 -0.32868816599E+03 -0.61889120849E+03 -0.55554025426E+03  0.89425232038E+03  0.00000000000E+00 0.  1.
        -11    1    3    3    0    0 -0.44686608009E+02 -0.14021349462E+03 -0.16158073414E+03  0.21855216918E+03  0.00000000000E+00 0. -1.
         22    1    1    2    0    0  0.37337477400E+03  0.75910470312E+03 -0.94882480330E+03  0.12711873109E+04  0.00000000000E+00 0.  1.
<mgrwt>
<rscale>  0 0.17052981E+04</rscale>
<asrwt>0</asrwt>
<pdfrwt beam="1">  1        2 0.31153366E+00 0.17052981E+04</pdfrwt>
<pdfrwt beam="2">  1       -2 0.55234309E-01 0.17052981E+04</pdfrwt>
<totfact> 0.18968546E+01</totfact>
</mgrwt>
</event>
<event>
 6    1  0.3017327E-006  0.2617659E+04  0.7818608E-02  0.8362227E-01
          1   -1    0    0  501    0  0.00000000000E+00  0.00000000000E+00  0.99611650250E+03  0.99611650250E+03  0.00000000000E+00 0. -1.
         -1   -1    0    0    0  501 -0.00000000000E+00 -0.00000000000E+00 -0.17197137541E+04  0.17197137541E+04  0.00000000000E+00 0.  1.
         23    2    1    2    0    0 -0.92143544973E+03  0.40215218690E+03  0.50435936949E+03  0.11288056403E+04  0.95153194983E+02 0.  0.
         11    1    3    3    0    0 -0.48788160193E+03  0.16464905599E+03  0.27681506124E+03  0.58460614714E+03  0.00000000000E+00 0. -1.
        -11    1    3    3    0    0 -0.43355384780E+03  0.23750313091E+03  0.22754430824E+03  0.54419949316E+03  0.00000000000E+00 0.  1.
         22    1    1    2    0    0  0.92143544973E+03 -0.40215218690E+03 -0.12279566210E+04  0.15870246163E+04  0.00000000000E+00 0.  1.
<mgrwt>
<rscale>  0 0.26176595E+04</rscale>
<asrwt>0</asrwt>
<pdfrwt beam="1">  1        1 0.15324869E+00 0.26176595E+04</pdfrwt>
<pdfrwt beam="2">  1       -1 0.26457135E+00 0.26176595E+04</pdfrwt>
<totfact> 0.75083007E-01</totfact>
</mgrwt>
</event>
<event>
 6    1  0.3017327E-006  0.1504208E+04  0.7818608E-02  0.8881660E-01
         -2   -1    0    0    0  501 -0.00000000000E+00  0.00000000000E+00  0.71174574643E+03  0.71174574643E+03  0.00000000000E+00 0.  1.
          2   -1    0    0  501    0  0.00000000000E+00 -0.00000000000E+00 -0.79475021386E+03  0.79475021386E+03  0.00000000000E+00 0. -1.
         23    2    1    2    0    0  0.44807593021E+03  0.11415982465E+03 -0.63192586947E+03  0.78877790254E+03  0.95056668548E+02 0.  0.
         13    1    3    3    0    0  0.40175708453E+03  0.95555864884E+02 -0.50476642894E+03  0.65217238984E+03  0.00000000000E+00 0. -1.
        -13    1    3    3    0    0  0.46318845673E+02  0.18603959766E+02 -0.12715944054E+03  0.13660551270E+03  0.00000000000E+00 0.  1.
         22    1    1    2    0    0 -0.44807593021E+03 -0.11415982465E+03  0.54892140204E+03  0.71771805774E+03  0.00000000000E+00 0.  1.
<mgrwt>
<rscale>  0 0.15042075E+04</rscale>
<asrwt>0</asrwt>
<pdfrwt beam="1">  1        2 0.12226926E+00 0.15042075E+04</pdfrwt>
<pdfrwt beam="2">  1       -2 0.10949935E+00 0.15042075E+04</pdfrwt>
<totfact> 0.22299522E+01</totfact>
</mgrwt>
</event>
<event>
 6    1  0.3017327E-006  0.1661899E+04  0.7818608E-02  0.8783398E-01
         -2   -1    0    0    0  501 -0.00000000000E+00  0.00000000000E+00  0.62748534784E+03  0.62748534784E+03  0.00000000000E+00 0.  1.
          2   -1    0    0  501    0  0.00000000000E+00 -0.00000000000E+00 -0.11003874456E+04  0.11003874456E+04  0.00000000000E+00 0. -1.
         23    2    1    2    0    0  0.45096363025E+03 -0.12178902617E+03  0.47199721033E+03  0.67381612269E+03  0.11421925378E+03 0.  0.
         13    1    3    3    0    0  0.31972954039E+03 -0.11336928363E+03  0.27371435017E+03  0.43588888373E+03  0.00000000000E+00 0. -1.
        -13    1    3    3    0    0  0.13123408985E+03 -0.84197425418E+01  0.19828286016E+03  0.23792723896E+03  0.00000000000E+00 0.  1.
         22    1    1    2    0    0 -0.45096363025E+03  0.12178902617E+03 -0.94489930814E+03  0.10540566708E+04  0.00000000000E+00 0. -1.
<mgrwt>
<rscale>  0 0.16618989E+04</rscale>
<asrwt>0</asrwt>
<pdfrwt beam="1">  1        2 0.16929038E+00 0.16618989E+04</pdfrwt>
<pdfrwt beam="2">  1       -2 0.96536207E-01 0.16618989E+04</pdfrwt>
<totfact> 0.18656709E+01</totfact>
</mgrwt>
</event>
<event>
 6    1  0.3017327E-006  0.2271889E+04  0.7818608E-02  0.8489088E-01
          2   -1    0    0  501    0  0.00000000000E+00  0.00000000000E+00  0.14039584211E+04  0.14039584211E+04  0.00000000000E+00 0. -1.
         -2   -1    0    0    0  501 -0.00000000000E+00 -0.00000000000E+00 -0.91909447238E+03  0.91909447238E+03  0.00000000000E+00 0.  1.
         23    2    1    2    0    0  0.10334849834E+04 -0.69792706425E+02 -0.22933739524E+03  0.10648614166E+04  0.91498430547E+02 0.  0.
         13    1    3    3    0    0  0.42025331494E+03 -0.37845214722E+02 -0.48548041560E+02  0.42473759115E+03  0.00000000000E+00 0. -1.
        -13    1    3    3    0    0  0.61323166851E+03 -0.31947491703E+02 -0.18078935368E+03  0.64012382543E+03  0.00000000000E+00 0.  1.
         22    1    1    2    0    0 -0.10334849834E+04  0.69792706425E+02  0.71420134399E+03  0.12581914769E+04  0.00000000000E+00 0.  1.
<mgrwt>
<rscale>  0 0.22718895E+04</rscale>
<asrwt>0</asrwt>
<pdfrwt beam="1">  1        2 0.21599360E+00 0.22718895E+04</pdfrwt>
<pdfrwt beam="2">  1       -2 0.14139915E+00 0.22718895E+04</pdfrwt>
<totfact> 0.45787972E+00</totfact>
</mgrwt>
</event>
<event>
 6    1  0.3017327E-006  0.3368471E+04  0.7818608E-02  0.8145688E-01
          2   -1    0    0  501    0  0.00000000000E+00  0.00000000000E+00  0.74355170814E+03  0.74355170814E+03  0.00000000000E+00 0. -1.
         -2   -1    0    0    0  501 -0.00000000000E+00 -0.00000000000E+00 -0.38149982570E+04  0.38149982570E+04  0.00000000000E+00 0.  1.
         23    2    1    2    0    0 -0.17100302208E+03  0.45131683168E+02 -0.38018819936E+04  0.38070083220E+04  0.87902036348E+02 0.  0.
         11    1    3    3    0    0 -0.43529750264E+02  0.32625617482E+02 -0.19210401782E+04  0.19218102498E+04  0.00000000000E+00 0. -1.
        -11    1    3    3    0    0 -0.12747327182E+03  0.12506065687E+02 -0.18808418154E+04  0.18851980721E+04  0.00000000000E+00 0.  1.
         22    1    1    2    0    0  0.17100302208E+03 -0.45131683168E+02  0.73043544476E+03  0.75154164313E+03  0.00000000000E+00 0. -1.
<mgrwt>
<rscale>  0 0.33684706E+04</rscale>
<asrwt>0</asrwt>
<pdfrwt beam="1">  1        2 0.11439257E+00 0.33684706E+04</pdfrwt>
<pdfrwt beam="2">  1       -2 0.58692281E+00 0.33684706E+04</pdfrwt>
<totfact> 0.17934340E-02</totfact>
</mgrwt>
</event>
<event>
 6    1  0.3017327E-006  0.3235308E+04  0.7818608E-02  0.8179554E-01
          2   -1    0    0  501    0  0.00000000000E+00  0.00000000000E+00  0.29331052229E+04  0.29331052229E+04  0.00000000000E+00 0. -1.
         -2   -1    0    0    0  501 -0.00000000000E+00 -0.00000000000E+00 -0.89216177318E+03  0.89216177318E+03  0.00000000000E+00 0.  1.
         23    2    1    2    0    0  0.10481918692E+04 -0.30048494966E+03  0.24320542775E+04  0.26668348318E+04  0.90125531408E+02 0.  0.
         13    1    3    3    0    0  0.78914467099E+03 -0.19175201864E+03  0.18575881211E+04  0.20273509258E+04  0.00000000000E+00 0. -1.
        -13    1    3    3    0    0  0.25904719822E+03 -0.10873293102E+03  0.57446615639E+03  0.63948390600E+03  0.00000000000E+00 0.  1.
         22    1    1    2    0    0 -0.10481918692E+04  0.30048494966E+03 -0.39111082782E+03  0.11584321643E+04  0.00000000000E+00 0.  1.
<mgrwt>
<rscale>  0 0.32353079E+04</rscale>
<asrwt>0</asrwt>
<pdfrwt beam="1">  1        2 0.45124695E+00 0.32353079E+04</pdfrwt>
<pdfrwt beam="2">  1       -2 0.13725566E+00 0.32353079E+04</pdfrwt>
<totfact> 0.60803911E-01</totfact>
</mgrwt>
</event>
<event>
 6    1  0.3017327E-006  0.2692710E+04  0.7818608E-02  0.8337374E-01
         -2   -1    0    0    0  501 -0.00000000000E+00  0.00000000000E+00  0.14641110494E+04  0.14641110494E+04  0.00000000000E+00 0.  1.
          2   -1    0    0  501    0  0.00000000000E+00 -0.00000000000E+00 -0.12380696736E+04  0.12380696736E+04  0.00000000000E+00 0. -1.
         23    2    1    2    0    0  0.78160879073E+03  0.29053074905E+03 -0.94581887088E+03  0.12639259279E+04  0.87263949041E+02 0.  0.
         13    1    3    3    0    0  0.60648908661E+02  0.36992362518E+02 -0.52675803314E+02  0.88439048283E+02  0.00000000000E+00 0. -1.
        -13    1    3    3    0    0  0.72095988206E+03  0.25353838653E+03 -0.89314306757E+03  0.11754868796E+04  0.00000000000E+00 0.  1.
         22    1    1    2    0    0 -0.78160879073E+03 -0.29053074905E+03  0.11718602467E+04  0.14382547951E+04  0.00000000000E+00 0.  1.
<mgrwt>
<rscale>  0 0.26927098E+04</rscale>
<asrwt>0</asrwt>
<pdfrwt beam="1">  1        2 0.19047226E+00 0.26927098E+04</pdfrwt>
<pdfrwt beam="2">  1       -2 0.22524785E+00 0.26927098E+04</pdfrwt>
<totfact> 0.14451284E+00</totfact>
</mgrwt>
</event>
<event>
 6    1  0.3017327E-006  0.1019898E+04  0.7818608E-02  0.9286986E-01
          2   -1    0    0  501    0  0.00000000000E+00  0.00000000000E+00  0.47844270757E+03  0.47844270757E+03  0.00000000000E+00 0. -1.
         -2   -1    0    0    0  501 -0.00000000000E+00 -0.00000000000E+00 -0.54353032549E+03  0.54353032549E+03  0.00000000000E+00 0.  1.
         23    2    1    2    0    0 -0.35015716079E+03 -0.31698188224E+03  0.14950149688E+03  0.50318980366E+03  0.88100681134E+02 0.  0.
         13    1    3    3    0    0 -0.18627472676E+03 -0.22647771619E+03  0.93132455606E+02  0.30767528995E+03  0.00000000000E+00 0.  1.
        -13    1    3    3    0    0 -0.16388243404E+03 -0.90504166058E+02  0.56369041270E+02  0.19551451371E+03  0.00000000000E+00 0. -1.
         22    1    1    2    0    0  0.35015716079E+03  0.31698188224E+03 -0.21458911480E+03  0.51878322941E+03  0.00000000000E+00 0.  1.
<mgrwt>
<rscale>  0 0.10198983E+04</rscale>
<asrwt>0</asrwt>
<pdfrwt beam="1">  1        2 0.73606571E-01 0.10198983E+04</pdfrwt>
<pdfrwt beam="2">  1       -2 0.83620050E-01 0.10198983E+04</pdfrwt>
<totfact> 0.80893825E+01</totfact>
</mgrwt>
</event>
<event>
 6    1  0.3017327E-006  0.1018979E+04  0.7818608E-02  0.9287971E-01
          2   -1    0    0  501    0  0.00000000000E+00  0.00000000000E+00  0.41613515051E+03  0.41613515051E+03  0.00000000000E+00 0.  1.
         -2   -1    0    0    0  501 -0.00000000000E+00 -0.00000000000E+00 -0.62378628560E+03  0.62378628560E+03  0.00000000000E+00 0. -1.
         23    2    1    2    0    0 -0.26799107989E+03 -0.38533358227E+03 -0.29605399263E+03  0.56230626282E+03  0.90769918658E+02 0.  0.
         13    1    3    3    0    0 -0.11616682956E+03 -0.10922858022E+03 -0.68032223035E+02  0.17336089063E+03  0.00000000000E+00 0.  1.
        -13    1    3    3    0    0 -0.15182425032E+03 -0.27610500206E+03 -0.22802176959E+03  0.38894537220E+03  0.00000000000E+00 0. -1.
         22    1    1    2    0    0  0.26799107989E+03  0.38533358227E+03  0.88402857537E+02  0.47761517328E+03  0.00000000000E+00 0.  1.
<mgrwt>
<rscale>  0 0.10189787E+04</rscale>
<asrwt>0</asrwt>
<pdfrwt beam="1">  1        2 0.64020793E-01 0.10189787E+04</pdfrwt>
<pdfrwt beam="2">  1       -2 0.95967121E-01 0.10189787E+04</pdfrwt>
<totfact> 0.69051088E+01</totfact>
</mgrwt>
</event>
<event>
 6    1  0.3017327E-006  0.1376806E+04  0.7818608E-02  0.8970781E-01
          2   -1    0    0  501    0  0.00000000000E+00  0.00000000000E+00  0.12973299092E+04  0.12973299092E+04  0.00000000000E+00 0. -1.
         -2   -1    0    0    0  501 -0.00000000000E+00 -0.00000000000E+00 -0.36528751781E+03  0.36528751781E+03  0.00000000000E+00 0.  1.
         23    2    1    2    0    0 -0.22676588322E+03 -0.52493669800E+03  0.92371363383E+03  0.10907339853E+04  0.97326494849E+02 0.  0.
         11    1    3    3    0    0 -0.20883855962E+03 -0.37662555545E+03  0.68769419118E+03  0.81140843820E+03  0.00000000000E+00 0. -1.
        -11    1    3    3    0    0 -0.17927323598E+02 -0.14831114255E+03  0.23601944265E+03  0.27932554707E+03  0.00000000000E+00 0.  1.
         22    1    1    2    0    0  0.22676588322E+03  0.52493669800E+03  0.83287575332E+01  0.57188344171E+03  0.00000000000E+00 0.  1.
<mgrwt>
<rscale>  0 0.13768056E+04</rscale>
<asrwt>0</asrwt>
<pdfrwt beam="1">  1        2 0.19958921E+00 0.13768056E+04</pdfrwt>
<pdfrwt beam="2">  1       -2 0.56198080E-01 0.13768056E+04</pdfrwt>
<totfact> 0.48070843E+01</totfact>
</mgrwt>
</event>
<event>
 6    1  0.3017327E-006  0.1807299E+04  0.7818608E-02  0.8702427E-01
         -2   -1    0    0    0  501 -0.00000000000E+00  0.00000000000E+00  0.55642166023E+03  0.55642166023E+03  0.00000000000E+00 0.  1.
          2   -1    0    0  501    0  0.00000000000E+00 -0.00000000000E+00 -0.14675608349E+04  0.14675608349E+04  0.00000000000E+00 0. -1.
         23    2    1    2    0    0  0.31921693158E+03  0.53848570477E+03 -0.11829821625E+04  0.13415127788E+04  0.91342405871E+02 0.  0.
         13    1    3    3    0    0  0.15060600026E+03  0.19609958770E+03 -0.53745798436E+03  0.59160654203E+03  0.00000000000E+00 0.  1.
        -13    1    3    3    0    0  0.16861093132E+03  0.34238611707E+03 -0.64552417815E+03  0.74990623673E+03  0.00000000000E+00 0. -1.
         22    1    1    2    0    0 -0.31921693158E+03 -0.53848570477E+03  0.27184298787E+03  0.68246971633E+03  0.00000000000E+00 0.  1.
<mgrwt>
<rscale>  0 0.18072992E+04</rscale>
<asrwt>0</asrwt>
<pdfrwt beam="1">  1        2 0.22577859E+00 0.18072992E+04</pdfrwt>
<pdfrwt beam="2">  1       -2 0.85603334E-01 0.18072992E+04</pdfrwt>
<totfact> 0.14814173E+01</totfact>
</mgrwt>
</event>
<event>
 6    1  0.3017327E-006  0.3322275E+04  0.7818608E-02  0.8157251E-01
          2   -1    0    0  501    0  0.00000000000E+00  0.00000000000E+00  0.21503039002E+04  0.21503039002E+04  0.00000000000E+00 0. -1.
         -2   -1    0    0    0  501 -0.00000000000E+00 -0.00000000000E+00 -0.12832499459E+04  0.12832499459E+04  0.00000000000E+00 0.  1.
         23    2    1    2    0    0 -0.87729965423E+03 -0.13189669562E+04 -0.78440456381E+02  0.15887535330E+04  0.93039607520E+02 0.  0.
         13    1    3    3    0    0 -0.16086686279E+03 -0.18178207687E+03 -0.86344449819E+01  0.24289385471E+03  0.00000000000E+00 0. -1.
        -13    1    3    3    0    0 -0.71643279144E+03 -0.11371848793E+04 -0.69806011399E+02  0.13458596783E+04  0.00000000000E+00 0.  1.
         22    1    1    2    0    0  0.87729965423E+03  0.13189669562E+04  0.94549441062E+03  0.18448003131E+04  0.00000000000E+00 0. -1.
<mgrwt>
<rscale>  0 0.33222747E+04</rscale>
<asrwt>0</asrwt>
<pdfrwt beam="1">  1        2 0.33081598E+00 0.33222747E+04</pdfrwt>
<pdfrwt beam="2">  1       -2 0.19742307E+00 0.33222747E+04</pdfrwt>
<totfact> 0.63497817E-01</totfact>
</mgrwt>
</event>
<event>
 6    1  0.3017327E-006  0.2182416E+04  0.7818608E-02  0.8525783E-01
         -2   -1    0    0    0  501 -0.00000000000E+00  0.00000000000E+00  0.67350479396E+03  0.67350479396E+03  0.00000000000E+00 0.  1.
          2   -1    0    0  501    0  0.00000000000E+00 -0.00000000000E+00 -0.17679681030E+04  0.17679681030E+04  0.00000000000E+00 0. -1.
         23    2    1    2    0    0  0.44903711337E+02  0.64726134392E+03  0.43058442775E+03  0.78414547303E+03  0.92290751545E+02 0.  0.
         11    1    3    3    0    0 -0.10160095401E+02  0.34561273416E+03  0.26519998449E+03  0.43575500149E+03  0.00000000000E+00 0.  1.
        -11    1    3    3    0    0  0.55063806738E+02  0.30164860977E+03  0.16538444326E+03  0.34839047154E+03  0.00000000000E+00 0. -1.
         22    1    1    2    0    0 -0.44903711337E+02 -0.64726134392E+03 -0.15250477368E+04  0.16573274239E+04  0.00000000000E+00 0. -1.
<mgrwt>
<rscale>  0 0.21824161E+04</rscale>
<asrwt>0</asrwt>
<pdfrwt beam="1">  1        2 0.27199509E+00 0.21824161E+04</pdfrwt>
<pdfrwt beam="2">  1       -2 0.10361612E+00 0.21824161E+04</pdfrwt>
<totfact> 0.62446369E+00</totfact>
</mgrwt>
</event>
<event>
 6    1  0.3017327E-006  0.1685981E+04  0.7818608E-02  0.8769401E-01
         -1   -1    0    0    0  501 -0.00000000000E+00  0.00000000000E+00  0.55311535078E+03  0.55311535078E+03  0.00000000000E+00 0.  1.
          1   -1    0    0  501    0  0.00000000000E+00 -0.00000000000E+00 -0.12847821604E+04  0.12847821604E+04  0.00000000000E+00 0. -1.
         23    2    1    2    0    0 -0.35170392353E+03 -0.49505311278E+02  0.46351945666E+03  0.59105484396E+03  0.91373498290E+02 0.  0.
         11    1    3    3    0    0 -0.29318544360E+03 -0.80055003051E+01  0.39378113755E+03  0.49100445687E+03  0.00000000000E+00 0.  1.
        -11    1    3    3    0    0 -0.58518479936E+02 -0.41499810973E+02  0.69738319112E+02  0.10005038709E+03  0.00000000000E+00 0. -1.
         22    1    1    2    0    0  0.35170392353E+03  0.49505311278E+02 -0.11951862663E+04  0.12468426672E+04  0.00000000000E+00 0. -1.
<mgrwt>
<rscale>  0 0.16859807E+04</rscale>
<asrwt>0</asrwt>
<pdfrwt beam="1">  1        1 0.19765879E+00 0.16859807E+04</pdfrwt>
<pdfrwt beam="2">  1       -1 0.85094670E-01 0.16859807E+04</pdfrwt>
<totfact> 0.12070404E+01</totfact>
</mgrwt>
</event>
<event>
 6    1  0.3017327E-006  0.1303812E+04  0.7818608E-02  0.9026548E-01
         -2   -1    0    0    0  501 -0.00000000000E+00  0.00000000000E+00  0.20471385278E+03  0.20471385278E+03  0.00000000000E+00 0.  1.
          2   -1    0    0  501    0  0.00000000000E+00 -0.00000000000E+00 -0.20759763065E+04  0.20759763065E+04  0.00000000000E+00 0. -1.
         23    2    1    2    0    0  0.53961351000E+03 -0.30806627138E+03 -0.61458778478E+03  0.87879187791E+03  0.92029624312E+02 0.  0.
         13    1    3    3    0    0  0.29519753517E+03 -0.20252693622E+03 -0.40037069976E+03  0.53708047990E+03  0.00000000000E+00 0.  1.
        -13    1    3    3    0    0  0.24441597482E+03 -0.10553933516E+03 -0.21421708502E+03  0.34171139801E+03  0.00000000000E+00 0. -1.
         22    1    1    2    0    0 -0.53961351000E+03  0.30806627138E+03 -0.12566746690E+04  0.14018982814E+04  0.00000000000E+00 0. -1.
<mgrwt>
<rscale>  0 0.13038115E+04</rscale>
<asrwt>0</asrwt>
<pdfrwt beam="1">  1        2 0.31938095E+00 0.13038115E+04</pdfrwt>
<pdfrwt beam="2">  1       -2 0.31494441E-01 0.13038115E+04</pdfrwt>
<totfact> 0.55662733E+01</totfact>
</mgrwt>
</event>
<event>
 6    1  0.3017327E-006  0.2360858E+04  0.7818608E-02  0.8454305E-01
         -2   -1    0    0    0  501 -0.00000000000E+00  0.00000000000E+00  0.57055719572E+03  0.57055719572E+03  0.00000000000E+00 0.  1.
          2   -1    0    0  501    0  0.00000000000E+00 -0.00000000000E+00 -0.24421953477E+04  0.24421953477E+04  0.00000000000E+00 0. -1.
         23    2    1    2    0    0  0.85182137872E+03 -0.47069064667E+03 -0.17858623114E+04  0.20357638838E+04  0.88775273408E+02 0.  0.
         11    1    3    3    0    0  0.53790852243E+03 -0.24775105147E+03 -0.10870448883E+04  0.12378985222E+04  0.00000000000E+00 0.  1.
        -11    1    3    3    0    0  0.31391285629E+03 -0.22293959520E+03 -0.69881742315E+03  0.79786536167E+03  0.00000000000E+00 0. -1.
         22    1    1    2    0    0 -0.85182137872E+03  0.47069064667E+03 -0.85775840502E+02  0.97698865956E+03  0.00000000000E+00 0.  1.
<mgrwt>
<rscale>  0 0.23608576E+04</rscale>
<asrwt>0</asrwt>
<pdfrwt beam="1">  1        2 0.37572236E+00 0.23608576E+04</pdfrwt>
<pdfrwt beam="2">  1       -2 0.87778031E-01 0.23608576E+04</pdfrwt>
<totfact> 0.37962193E+00</totfact>
</mgrwt>
</event>
<event>
 6    1  0.3017327E-006  0.3882426E+04  0.7818608E-02  0.8028694E-01
         -2   -1    0    0    0  501 -0.00000000000E+00  0.00000000000E+00  0.15629065733E+04  0.15629065733E+04  0.00000000000E+00 0.  1.
          2   -1    0    0  501    0  0.00000000000E+00 -0.00000000000E+00 -0.24110897637E+04  0.24110897637E+04  0.00000000000E+00 0. -1.
         23    2    1    2    0    0 -0.24752522514E+03  0.13978522158E+04 -0.17779872688E+04  0.22770004094E+04  0.90733576939E+02 0.  0.
         11    1    3    3    0    0 -0.20313163154E+03  0.10306822568E+04 -0.13685835765E+04  0.17252795078E+04  0.00000000000E+00 0. -1.
        -11    1    3    3    0    0 -0.44393593594E+02  0.36716995906E+03 -0.40940369224E+03  0.55172090155E+03  0.00000000000E+00 0.  1.
         22    1    1    2    0    0  0.24752522514E+03 -0.13978522158E+04  0.92980407835E+03  0.16969959277E+04  0.00000000000E+00 0.  1.
<mgrwt>
<rscale>  0 0.38824261E+04</rscale>
<asrwt>0</asrwt>
<pdfrwt beam="1">  1        2 0.37093689E+00 0.38824261E+04</pdfrwt>
<pdfrwt beam="2">  1       -2 0.24044717E+00 0.38824261E+04</pdfrwt>
<totfact> 0.22966104E-01</totfact>
</mgrwt>
</event>
<event>
 6    1  0.3017327E-006  0.1764964E+04  0.7818608E-02  0.8725157E-01
         -2   -1    0    0    0  501 -0.00000000000E+00  0.00000000000E+00  0.35387260620E+03  0.35387260620E+03  0.00000000000E+00 0.  1.
          2   -1    0    0  501    0  0.00000000000E+00 -0.00000000000E+00 -0.22007189136E+04  0.22007189136E+04  0.00000000000E+00 0. -1.
         23    2    1    2    0    0 -0.38920520016E+03 -0.71416001298E+03 -0.14123881539E+04  0.16324965686E+04  0.93271308671E+02 0.  0.
         13    1    3    3    0    0 -0.13958628325E+03 -0.17849265673E+03 -0.35449486099E+03  0.42072623575E+03  0.00000000000E+00 0.  1.
        -13    1    3    3    0    0 -0.24961891690E+03 -0.53566735625E+03 -0.10578932929E+04  0.12117703328E+04  0.00000000000E+00 0. -1.
         22    1    1    2    0    0  0.38920520016E+03  0.71416001298E+03 -0.43445815344E+03  0.92209495122E+03  0.00000000000E+00 0. -1.
<mgrwt>
<rscale>  0 0.17649636E+04</rscale>
<asrwt>0</asrwt>
<pdfrwt beam="1">  1        2 0.33857214E+00 0.17649636E+04</pdfrwt>
<pdfrwt beam="2">  1       -2 0.54441940E-01 0.17649636E+04</pdfrwt>
<totfact> 0.15515525E+01</totfact>
</mgrwt>
</event>
<event>
 6    1  0.3017327E-006  0.3361110E+04  0.7818608E-02  0.8147518E-01
          2   -1    0    0  501    0  0.00000000000E+00  0.00000000000E+00  0.18450900560E+04  0.18450900560E+04  0.00000000000E+00 0. -1.
         -2   -1    0    0    0  501 -0.00000000000E+00 -0.00000000000E+00 -0.15306923002E+04  0.15306923002E+04  0.00000000000E+00 0.  1.
         23    2    1    2    0    0  0.17003985432E+03 -0.60290938693E+03  0.17222688652E+04  0.18348364319E+04  0.89450583732E+02 0.  0.
         13    1    3    3    0    0  0.89791822468E+02 -0.46162243288E+03  0.12731567192E+04  0.13572346421E+04  0.00000000000E+00 0.  1.
        -13    1    3    3    0    0  0.80248031853E+02 -0.14128695405E+03  0.44911214600E+03  0.47760178987E+03  0.00000000000E+00 0. -1.
         22    1    1    2    0    0 -0.17003985432E+03  0.60290938693E+03 -0.14078711094E+04  0.15409459243E+04  0.00000000000E+00 0.  1.
<mgrwt>
<rscale>  0 0.33611100E+04</rscale>
<asrwt>0</asrwt>
<pdfrwt beam="1">  1        2 0.28386001E+00 0.33611100E+04</pdfrwt>
<pdfrwt beam="2">  1       -2 0.23549112E+00 0.33611100E+04</pdfrwt>
<totfact> 0.53488242E-01</totfact>
</mgrwt>
</event>
<event>
 6    1  0.3017327E-006  0.3168454E+04  0.7818608E-02  0.8197198E-01
         -2   -1    0    0    0  501 -0.00000000000E+00  0.00000000000E+00  0.11185859164E+04  0.11185859164E+04  0.00000000000E+00 0.  1.
          2   -1    0    0  501    0  0.00000000000E+00 -0.00000000000E+00 -0.22437035229E+04  0.22437035229E+04  0.00000000000E+00 0. -1.
         23    2    1    2    0    0 -0.26770757781E+03 -0.39512061133E+03 -0.21645889829E+04  0.22184850911E+04  0.91885743163E+02 0.  0.
         13    1    3    3    0    0 -0.18076087510E+03 -0.32766670075E+03 -0.17478461245E+04  0.17874579815E+04  0.00000000000E+00 0.  1.
        -13    1    3    3    0    0 -0.86946702713E+02 -0.67453910578E+02 -0.41674285837E+03  0.43102710955E+03  0.00000000000E+00 0. -1.
         22    1    1    2    0    0  0.26770757781E+03  0.39512061133E+03  0.10394713764E+04  0.11438043482E+04  0.00000000000E+00 0.  1.
<mgrwt>
<rscale>  0 0.31684540E+04</rscale>
<asrwt>0</asrwt>
<pdfrwt beam="1">  1        2 0.34518515E+00 0.31684540E+04</pdfrwt>
<pdfrwt beam="2">  1       -2 0.17209014E+00 0.31684540E+04</pdfrwt>
<totfact> 0.84841789E-01</totfact>
</mgrwt>
</event>
<event>
 6    1  0.3017327E-006  0.1327340E+04  0.7818608E-02  0.9008161E-01
         -2   -1    0    0    0  501 -0.00000000000E+00  0.00000000000E+00  0.34671453569E+03  0.34671453569E+03  0.00000000000E+00 0.  1.
          2   -1    0    0  501    0  0.00000000000E+00 -0.00000000000E+00 -0.12703756584E+04  0.12703756584E+04  0.00000000000E+00 0. -1.
         23    2    1    2    0    0  0.40818927398E+03  0.51683918373E+03 -0.52484842324E+03  0.84715981118E+03  0.92047015594E+02 0.  0.
         11    1    3    3    0    0  0.18772203173E+03  0.20687105818E+03 -0.27546321767E+03  0.39232025208E+03  0.00000000000E+00 0. -1.
        -11    1    3    3    0    0  0.22046724225E+03  0.30996812556E+03 -0.24938520557E+03  0.45483955910E+03  0.00000000000E+00 0.  1.
         22    1    1    2    0    0 -0.40818927398E+03 -0.51683918373E+03 -0.39881269943E+03  0.76993038287E+03  0.00000000000E+00 0.  1.
<mgrwt>
<rscale>  0 0.13273398E+04</rscale>
<asrwt>0</asrwt>
<pdfrwt beam="1">  1        2 0.19544241E+00 0.13273398E+04</pdfrwt>
<pdfrwt beam="2">  1       -2 0.53340698E-01 0.13273398E+04</pdfrwt>
<totfact> 0.55757171E+01</totfact>
</mgrwt>
</event>
<event>
 6    1  0.3017327E-006  0.2025283E+04  0.7818608E-02  0.8594890E-01
          2   -1    0    0  501    0  0.00000000000E+00  0.00000000000E+00  0.16802426924E+04  0.16802426924E+04  0.00000000000E+00 0.  1.
         -2   -1    0    0    0  501 -0.00000000000E+00 -0.00000000000E+00 -0.61029440589E+03  0.61029440589E+03  0.00000000000E+00 0. -1.
         23    2    1    2    0    0  0.37236694534E+03 -0.79370029112E+02 -0.52038358940E+03  0.65526579999E+03  0.11669380882E+03 0.  0.
         13    1    3    3    0    0  0.11448565215E+03 -0.80228026566E+02 -0.16695591638E+03  0.21775623713E+03  0.00000000000E+00 0. -1.
        -13    1    3    3    0    0  0.25788129319E+03  0.85799745384E+00 -0.35342767303E+03  0.43750956286E+03  0.00000000000E+00 0.  1.
         22    1    1    2    0    0 -0.37236694534E+03  0.79370029112E+02  0.15903318759E+04  0.16352712983E+04  0.00000000000E+00 0.  1.
<mgrwt>
<rscale>  0 0.20252829E+04</rscale>
<asrwt>0</asrwt>
<pdfrwt beam="1">  1        2 0.25849887E+00 0.20252829E+04</pdfrwt>
<pdfrwt beam="2">  1       -2 0.93891448E-01 0.20252829E+04</pdfrwt>
<totfact> 0.89336192E+00</totfact>
</mgrwt>
</event>
<event>
 6    1  0.3017327E-006  0.3160638E+04  0.7818608E-02  0.8199291E-01
         -2   -1    0    0    0  501 -0.00000000000E+00  0.00000000000E+00  0.11555637983E+04  0.11555637983E+04  0.00000000000E+00 0. -1.
          2   -1    0    0  501    0  0.00000000000E+00 -0.00000000000E+00 -0.21612033189E+04  0.21612033189E+04  0.00000000000E+00 0.  1.
         23    2    1    2    0    0 -0.61731723828E+03  0.96795792347E+01 -0.20283338032E+04  0.21221634747E+04  0.90914955913E+02 0.  0.
         11    1    3    3    0    0 -0.14942811386E+03 -0.30873803117E+02 -0.43059172191E+03  0.45682730206E+03  0.00000000000E+00 0. -1.
        -11    1    3    3    0    0 -0.46788912442E+03  0.40553382352E+02 -0.15977420813E+04  0.16653361726E+04  0.00000000000E+00 0.  1.
         22    1    1    2    0    0  0.61731723828E+03 -0.96795792347E+01  0.10226942826E+04  0.11946036424E+04  0.00000000000E+00 0. -1.
<mgrwt>
<rscale>  0 0.31606381E+04</rscale>
<asrwt>0</asrwt>
<pdfrwt beam="1">  1        2 0.33249282E+00 0.31606381E+04</pdfrwt>
<pdfrwt beam="2">  1       -2 0.17777905E+00 0.31606381E+04</pdfrwt>
<totfact> 0.86182080E-01</totfact>
</mgrwt>
</event>
<event>
 6    1  0.3017327E-006  0.3170595E+04  0.7818608E-02  0.8196626E-01
          2   -1    0    0  501    0  0.00000000000E+00  0.00000000000E+00  0.96402574222E+03  0.96402574222E+03  0.00000000000E+00 0. -1.
         -2   -1    0    0    0  501 -0.00000000000E+00 -0.00000000000E+00 -0.26069513463E+04  0.26069513463E+04  0.00000000000E+00 0.  1.
         23    2    1    2    0    0 -0.12407820107E+04  0.29480289141E+03  0.23579952262E+03  0.13002818548E+04  0.93181244040E+02 0.  0.
         11    1    3    3    0    0 -0.66970546944E+03  0.20673718871E+03  0.13130038778E+03  0.71308167332E+03  0.00000000000E+00 0. -1.
        -11    1    3    3    0    0 -0.57107654122E+03  0.88065702698E+02  0.10449913484E+03  0.58720018146E+03  0.00000000000E+00 0.  1.
         22    1    1    2    0    0  0.12407820107E+04 -0.29480289141E+03 -0.18787251267E+04  0.22706952337E+04  0.00000000000E+00 0.  1.
<mgrwt>
<rscale>  0 0.31705950E+04</rscale>
<asrwt>0</asrwt>
<pdfrwt beam="1">  1        2 0.14831165E+00 0.31705950E+04</pdfrwt>
<pdfrwt beam="2">  1       -2 0.40106944E+00 0.31705950E+04</pdfrwt>
<totfact> 0.16372274E-01</totfact>
</mgrwt>
</event>
<event>
 6    1  0.3017327E-006  0.2084594E+04  0.7818608E-02  0.8568060E-01
          2   -1    0    0  501    0  0.00000000000E+00  0.00000000000E+00  0.32409727859E+04  0.32409727859E+04  0.00000000000E+00 0. -1.
         -2   -1    0    0    0  501 -0.00000000000E+00 -0.00000000000E+00 -0.33520274928E+03  0.33520274928E+03  0.00000000000E+00 0.  1.
         23    2    1    2    0    0  0.83667984851E+03  0.61426214167E+03  0.15745690847E+04  0.18881449899E+04  0.92046469455E+02 0.  0.
         13    1    3    3    0    0  0.36055856268E+03  0.29802737609E+03  0.64186073831E+03  0.79423422326E+03  0.00000000000E+00 0. -1.
        -13    1    3    3    0    0  0.47612128583E+03  0.31623476558E+03  0.93270834644E+03  0.10939107666E+04  0.00000000000E+00 0.  1.
         22    1    1    2    0    0 -0.83667984851E+03 -0.61426214167E+03  0.13312009518E+04  0.16880305453E+04  0.00000000000E+00 0.  1.
<mgrwt>
<rscale>  0 0.20845940E+04</rscale>
<asrwt>0</asrwt>
<pdfrwt beam="1">  1        2 0.49861118E+00 0.20845940E+04</pdfrwt>
<pdfrwt beam="2">  1       -2 0.51569656E-01 0.20845940E+04</pdfrwt>
<totfact> 0.40072451E+00</totfact>
</mgrwt>
</event>
<event>
 6    1  0.3017327E-006  0.2164009E+04  0.7818608E-02  0.8533560E-01
         -1   -1    0    0    0  501 -0.00000000000E+00  0.00000000000E+00  0.87100377034E+03  0.87100377034E+03  0.00000000000E+00 0.  1.
          1   -1    0    0  501    0  0.00000000000E+00 -0.00000000000E+00 -0.13441196759E+04  0.13441196759E+04  0.00000000000E+00 0. -1.
         23    2    1    2    0    0  0.15544170827E+03  0.22303548494E+03 -0.13067724576E+04  0.13382596034E+04  0.96837792709E+02 0.  0.
         11    1    3    3    0    0  0.15231283637E+03  0.19771619508E+03 -0.10095130905E+04  0.10399074833E+04  0.00000000000E+00 0.  1.
        -11    1    3    3    0    0  0.31288718929E+01  0.25319289869E+02 -0.29725936710E+03  0.29835212016E+03  0.00000000000E+00 0. -1.
         22    1    1    2    0    0 -0.15544170827E+03 -0.22303548494E+03  0.83365655198E+03  0.87686384284E+03  0.00000000000E+00 0.  1.
<mgrwt>
<rscale>  0 0.21640086E+04</rscale>
<asrwt>0</asrwt>
<pdfrwt beam="1">  1        1 0.20678764E+00 0.21640086E+04</pdfrwt>
<pdfrwt beam="2">  1       -1 0.13400058E+00 0.21640086E+04</pdfrwt>
<totfact> 0.36131137E+00</totfact>
</mgrwt>
</event>
<event>
 6    1  0.3017327E-006  0.1651138E+04  0.7818608E-02  0.8789733E-01
          2   -1    0    0  501    0  0.00000000000E+00  0.00000000000E+00  0.64858006208E+03  0.64858006208E+03  0.00000000000E+00 0. -1.
         -2   -1    0    0    0  501 -0.00000000000E+00 -0.00000000000E+00 -0.10508564275E+04  0.10508564275E+04  0.00000000000E+00 0.  1.
         23    2    1    2    0    0  0.15879650278E+03  0.76142305100E+03  0.75303416439E+02  0.78671317997E+03  0.90915516403E+02 0.  0.
         13    1    3    3    0    0  0.95891021401E+02  0.34637829163E+03 -0.43771760045E+01  0.35943312113E+03  0.00000000000E+00 0. -1.
        -13    1    3    3    0    0  0.62905481382E+02  0.41504475937E+03  0.79680592444E+02  0.42728005884E+03  0.00000000000E+00 0.  1.
         22    1    1    2    0    0 -0.15879650278E+03 -0.76142305100E+03 -0.47757978189E+03  0.91272330964E+03  0.00000000000E+00 0. -1.
<mgrwt>
<rscale>  0 0.16511384E+04</rscale>
<asrwt>0</asrwt>
<pdfrwt beam="1">  1        2 0.99781549E-01 0.16511384E+04</pdfrwt>
<pdfrwt beam="2">  1       -2 0.16167022E+00 0.16511384E+04</pdfrwt>
<totfact> 0.10536088E+01</totfact>
</mgrwt>
</event>
<event>
 6    1  0.3017327E-006  0.1521049E+04  0.7818608E-02  0.8870575E-01
          2   -1    0    0  501    0  0.00000000000E+00  0.00000000000E+00  0.13885872195E+04  0.13885872195E+04  0.00000000000E+00 0. -1.
         -2   -1    0    0    0  501 -0.00000000000E+00 -0.00000000000E+00 -0.41653668403E+03  0.41653668403E+03  0.00000000000E+00 0.  1.
         23    2    1    2    0    0  0.54284257762E+03 -0.24487873508E+02  0.11146075129E+04  0.12433408388E+04  0.90933016260E+02 0.  0.
         11    1    3    3    0    0  0.39204737696E+03 -0.43976742420E+02  0.87097071873E+03  0.95615118707E+03  0.00000000000E+00 0.  1.
        -11    1    3    3    0    0  0.15079520066E+03  0.19488868912E+02  0.24363679418E+03  0.28718965168E+03  0.00000000000E+00 0. -1.
         22    1    1    2    0    0 -0.54284257762E+03  0.24487873508E+02 -0.14255697747E+03  0.56178306475E+03  0.00000000000E+00 0.  1.
<mgrwt>
<rscale>  0 0.15210490E+04</rscale>
<asrwt>0</asrwt>
<pdfrwt beam="1">  1        2 0.21362880E+00 0.15210490E+04</pdfrwt>
<pdfrwt beam="2">  1       -2 0.64082568E-01 0.15210490E+04</pdfrwt>
<totfact> 0.31895903E+01</totfact>
</mgrwt>
</event>
<event>
 6    1  0.3017327E-006  0.3244301E+04  0.7818608E-02  0.8177214E-01
         -1   -1    0    0    0  501 -0.00000000000E+00  0.00000000000E+00  0.20640748855E+04  0.20640748855E+04  0.00000000000E+00 0.  1.
          1   -1    0    0  501    0  0.00000000000E+00 -0.00000000000E+00 -0.12748434387E+04  0.12748434387E+04  0.00000000000E+00 0. -1.
         23    2    1    2    0    0  0.56364933055E+03  0.41547922179E+03 -0.11096996189E+04  0.13149957111E+04  0.86353486146E+02 0.  0.
         13    1    3    3    0    0  0.38623201569E+03  0.31081675634E+03 -0.84351203056E+03  0.97841441714E+03  0.00000000000E+00 0.  1.
        -13    1    3    3    0    0  0.17741731486E+03  0.10466246545E+03 -0.26618758831E+03  0.33658129398E+03  0.00000000000E+00 0. -1.
         22    1    1    2    0    0 -0.56364933055E+03 -0.41547922179E+03  0.18989310657E+04  0.20239226131E+04  0.00000000000E+00 0.  1.
<mgrwt>
<rscale>  0 0.32443010E+04</rscale>
<asrwt>0</asrwt>
<pdfrwt beam="1">  1        1 0.19612976E+00 0.32443010E+04</pdfrwt>
<pdfrwt beam="2">  1       -1 0.31754998E+00 0.32443010E+04</pdfrwt>
<totfact> 0.19953056E-01</totfact>
</mgrwt>
</event>
<event>
 6    1  0.3017327E-006  0.2324498E+04  0.7818608E-02  0.8468324E-01
          2   -1    0    0  501    0  0.00000000000E+00  0.00000000000E+00  0.71297758770E+03  0.71297758770E+03  0.00000000000E+00 0. -1.
         -2   -1    0    0    0  501 -0.00000000000E+00 -0.00000000000E+00 -0.18946220239E+04  0.18946220239E+04  0.00000000000E+00 0.  1.
         23    2    1    2    0    0 -0.85779745929E+03  0.73984412820E+03 -0.87422865050E+03  0.14338490928E+04  0.91987348202E+02 0.  0.
         11    1    3    3    0    0 -0.41395348353E+03  0.40379915897E+03 -0.48240943346E+03  0.75308041324E+03  0.00000000000E+00 0.  1.
        -11    1    3    3    0    0 -0.44384397576E+03  0.33604496924E+03 -0.39181921703E+03  0.68076867951E+03  0.00000000000E+00 0. -1.
         22    1    1    2    0    0  0.85779745929E+03 -0.73984412820E+03 -0.30741578570E+03  0.11737505188E+04  0.00000000000E+00 0. -1.
<mgrwt>
<rscale>  0 0.23244983E+04</rscale>
<asrwt>0</asrwt>
<pdfrwt beam="1">  1        2 0.10968886E+00 0.23244983E+04</pdfrwt>
<pdfrwt beam="2">  1       -2 0.29148031E+00 0.23244983E+04</pdfrwt>
<totfact> 0.12981451E+00</totfact>
</mgrwt>
</event>
<event>
 6    1  0.3017327E-006  0.4760921E+03  0.7818608E-02  0.1020215E+00
         -2   -1    0    0    0  501 -0.00000000000E+00  0.00000000000E+00  0.11757500401E+03  0.11757500401E+03  0.00000000000E+00 0.  1.
          2   -1    0    0  501    0  0.00000000000E+00 -0.00000000000E+00 -0.48195560050E+03  0.48195560050E+03  0.00000000000E+00 0. -1.
         23    2    1    2    0    0 -0.14496523228E+02  0.17037486743E+03  0.60658070162E+01  0.19152535638E+03  0.86066389994E+02 0.  0.
         13    1    3    3    0    0 -0.20733232816E+02  0.77575779757E+02 -0.37730509987E+02  0.88721248480E+02  0.00000000000E+00 0.  1.
        -13    1    3    3    0    0  0.62367095873E+01  0.92799087669E+02  0.43796317003E+02  0.10280410790E+03  0.00000000000E+00 0. -1.
         22    1    1    2    0    0  0.14496523228E+02 -0.17037486743E+03 -0.37044640350E+03  0.40800524813E+03  0.00000000000E+00 0. -1.
<mgrwt>
<rscale>  0 0.47609214E+03</rscale>
<asrwt>0</asrwt>
<pdfrwt beam="1">  1        2 0.74147015E-01 0.47609214E+03</pdfrwt>
<pdfrwt beam="2">  1       -2 0.18088462E-01 0.47609214E+03</pdfrwt>
<totfact> 0.16296163E+03</totfact>
</mgrwt>
</event>
<event>
 6    1  0.3017327E-006  0.1771605E+04  0.7818608E-02  0.8721547E-01
         -2   -1    0    0    0  501 -0.00000000000E+00  0.00000000000E+00  0.68525804229E+03  0.68525804229E+03  0.00000000000E+00 0.  1.
          2   -1    0    0  501    0  0.00000000000E+00 -0.00000000000E+00 -0.11450373789E+04  0.11450373789E+04  0.00000000000E+00 0. -1.
         23    2    1    2    0    0  0.28085312384E+03 -0.14644398944E+03  0.62155286684E+03  0.70352851830E+03  0.91104832856E+02 0.  0.
         11    1    3    3    0    0  0.27365223393E+03 -0.15573838557E+03  0.57555194648E+03  0.65604880380E+03  0.00000000000E+00 0. -1.
        -11    1    3    3    0    0  0.72008899135E+01  0.92943961256E+01  0.46000920362E+02  0.47479714501E+02  0.00000000000E+00 0.  1.
         22    1    1    2    0    0 -0.28085312384E+03  0.14644398944E+03 -0.10813322035E+04  0.11267669029E+04  0.00000000000E+00 0. -1.
<mgrwt>
<rscale>  0 0.17716050E+04</rscale>
<asrwt>0</asrwt>
<pdfrwt beam="1">  1        2 0.17615960E+00 0.17716050E+04</pdfrwt>
<pdfrwt beam="2">  1       -2 0.10542431E+00 0.17716050E+04</pdfrwt>
<totfact> 0.14084823E+01</totfact>
</mgrwt>
</event>
<event>
 6    1  0.3017327E-006  0.1351019E+04  0.7818608E-02  0.8990057E-01
          2   -1    0    0  501    0  0.00000000000E+00  0.00000000000E+00  0.26328095474E+04  0.26328095474E+04  0.00000000000E+00 0. -1.
         -2   -1    0    0    0  501 -0.00000000000E+00 -0.00000000000E+00 -0.17331787612E+03  0.17331787612E+03  0.00000000000E+00 0.  1.
         23    2    1    2    0    0 -0.35212582536E+03  0.51579245218E+03  0.71551798248E+03  0.95370234330E+03  0.86877648214E+02 0.  0.
         11    1    3    3    0    0 -0.16747825692E+03  0.30658437090E+03  0.43666585241E+03  0.55921374239E+03  0.00000000000E+00 0.  1.
        -11    1    3    3    0    0 -0.18464756844E+03  0.20920808128E+03  0.27885213007E+03  0.39448860091E+03  0.00000000000E+00 0. -1.
         22    1    1    2    0    0  0.35212582536E+03 -0.51579245218E+03  0.17439736888E+04  0.18524250803E+04  0.00000000000E+00 0. -1.
<mgrwt>
<rscale>  0 0.13510188E+04</rscale>
<asrwt>0</asrwt>
<pdfrwt beam="1">  1        2 0.40504759E+00 0.13510188E+04</pdfrwt>
<pdfrwt beam="2">  1       -2 0.26664291E-01 0.13510188E+04</pdfrwt>
<totfact> 0.36461879E+01</totfact>
</mgrwt>
</event>
<event>
 6    1  0.3017327E-006  0.2668422E+04  0.7818608E-02  0.8345324E-01
         -2   -1    0    0    0  501 -0.00000000000E+00  0.00000000000E+00  0.73837464003E+03  0.73837464003E+03  0.00000000000E+00 0.  1.
          2   -1    0    0  501    0  0.00000000000E+00 -0.00000000000E+00 -0.24108617161E+04  0.24108617161E+04  0.00000000000E+00 0. -1.
         23    2    1    2    0    0 -0.22368586424E+02  0.68824461267E+03  0.50931342570E+03  0.86134771590E+03  0.91316600681E+02 0.  0.
         11    1    3    3    0    0 -0.10317142297E+02  0.57065930201E+03  0.37749960949E+03  0.68429850034E+03  0.00000000000E+00 0.  1.
        -11    1    3    3    0    0 -0.12051444127E+02  0.11758531066E+03  0.13181381620E+03  0.17704921556E+03  0.00000000000E+00 0. -1.
         22    1    1    2    0    0  0.22368586424E+02 -0.68824461267E+03 -0.21818005018E+04  0.22878886402E+04  0.00000000000E+00 0. -1.
<mgrwt>
<rscale>  0 0.26684221E+04</rscale>
<asrwt>0</asrwt>
<pdfrwt beam="1">  1        2 0.37090181E+00 0.26684221E+04</pdfrwt>
<pdfrwt beam="2">  1       -2 0.11359610E+00 0.26684221E+04</pdfrwt>
<totfact> 0.20939162E+00</totfact>
</mgrwt>
</event>
<event>
 6    1  0.3017327E-006  0.2903061E+04  0.7818608E-02  0.8271967E-01
         -2   -1    0    0    0  501 -0.00000000000E+00  0.00000000000E+00  0.60022094628E+03  0.60022094628E+03  0.00000000000E+00 0. -1.
          2   -1    0    0  501    0  0.00000000000E+00 -0.00000000000E+00 -0.35102751476E+04  0.35102751476E+04  0.00000000000E+00 0.  1.
         23    2    1    2    0    0  0.55654234237E+03  0.81350666561E+03  0.49551526303E+02  0.99107330484E+03  0.90766006692E+02 0.  0.
         11    1    3    3    0    0  0.29813472331E+03  0.51423786947E+03  0.33443155587E+02  0.59535144604E+03  0.00000000000E+00 0. -1.
        -11    1    3    3    0    0  0.25840761906E+03  0.29926879614E+03  0.16108370716E+02  0.39572185880E+03  0.00000000000E+00 0.  1.
         22    1    1    2    0    0 -0.55654234237E+03 -0.81350666561E+03 -0.29596057276E+04  0.31194227890E+04  0.00000000000E+00 0.  1.
<mgrwt>
<rscale>  0 0.29030609E+04</rscale>
<asrwt>0</asrwt>
<pdfrwt beam="1">  1        2 0.54004234E+00 0.29030609E+04</pdfrwt>
<pdfrwt beam="2">  1       -2 0.92341683E-01 0.29030609E+04</pdfrwt>
<totfact> 0.68665541E-01</totfact>
</mgrwt>
</event>
<event>
 6    1  0.3017327E-006  0.4010506E+04  0.7818608E-02  0.8002430E-01
          2   -1    0    0  501    0  0.00000000000E+00  0.00000000000E+00  0.27088288503E+04  0.27088288503E+04  0.00000000000E+00 0. -1.
         -2   -1    0    0    0  501 -0.00000000000E+00 -0.00000000000E+00 -0.14844201713E+04  0.14844201713E+04  0.00000000000E+00 0.  1.
         23    2    1    2    0    0  0.16373896942E+04 -0.57400244989E+03 -0.43624041157E+03  0.17915248023E+04  0.93443018129E+02 0.  0.
         11    1    3    3    0    0  0.11140929319E+04 -0.34406756441E+03 -0.29125904338E+03  0.12018391657E+04  0.00000000000E+00 0. -1.
        -11    1    3    3    0    0  0.52329676223E+03 -0.22993488548E+03 -0.14498136819E+03  0.58968563663E+03  0.00000000000E+00 0.  1.
         22    1    1    2    0    0 -0.16373896942E+04  0.57400244989E+03  0.16606490906E+04  0.24017242192E+04  0.00000000000E+00 0. -1.
<mgrwt>
<rscale>  0 0.40105063E+04</rscale>
<asrwt>0</asrwt>
<pdfrwt beam="1">  1        2 0.41674290E+00 0.40105063E+04</pdfrwt>
<pdfrwt beam="2">  1       -2 0.22837233E+00 0.40105063E+04</pdfrwt>
<totfact> 0.18097339E-01</totfact>
</mgrwt>
</event>
<event>
 6    1  0.3017327E-006  0.1276673E+04  0.7818608E-02  0.9048271E-01
         -2   -1    0    0    0  501 -0.00000000000E+00  0.00000000000E+00  0.61010482842E+03  0.61010482842E+03  0.00000000000E+00 0. -1.
          2   -1    0    0  501    0  0.00000000000E+00 -0.00000000000E+00 -0.66787479514E+03  0.66787479514E+03  0.00000000000E+00 0.  1.
         23    2    1    2    0    0  0.31629056473E+03 -0.52641348681E+03 -0.19070361328E+03  0.64963080736E+03  0.92203239227E+02 0.  0.
         11    1    3    3    0    0  0.15904308525E+03 -0.18003764626E+03 -0.62698733019E+02  0.24827280994E+03  0.00000000000E+00 0.  1.
        -11    1    3    3    0    0  0.15724747948E+03 -0.34637584055E+03 -0.12800488026E+03  0.40135799742E+03  0.00000000000E+00 0. -1.
         22    1    1    2    0    0 -0.31629056473E+03  0.52641348681E+03  0.13293364655E+03  0.62834881620E+03  0.00000000000E+00 0. -1.
<mgrwt>
<rscale>  0 0.12766732E+04</rscale>
<asrwt>0</asrwt>
<pdfrwt beam="1">  1        2 0.10274997E+00 0.12766732E+04</pdfrwt>
<pdfrwt beam="2">  1       -2 0.93862282E-01 0.12766732E+04</pdfrwt>
<totfact> 0.40923670E+01</totfact>
</mgrwt>
</event>
<event>
 6    1  0.3017327E-006  0.2016138E+04  0.7818608E-02  0.8599113E-01
          2   -1    0    0  501    0  0.00000000000E+00  0.00000000000E+00  0.19347678126E+04  0.19347678126E+04  0.00000000000E+00 0. -1.
         -2   -1    0    0    0  501 -0.00000000000E+00 -0.00000000000E+00 -0.52523266129E+03  0.52523266129E+03  0.00000000000E+00 0.  1.
         23    2    1    2    0    0 -0.94406515415E+02 -0.52811242736E+03  0.17446540130E+04  0.18274500984E+04  0.89111789301E+02 0.  0.
         11    1    3    3    0    0 -0.41311772897E+01 -0.27302100426E+03  0.90030457240E+03  0.94080064758E+03  0.00000000000E+00 0. -1.
        -11    1    3    3    0    0 -0.90275338125E+02 -0.25509142309E+03  0.84434944061E+03  0.88664945083E+03  0.00000000000E+00 0.  1.
         22    1    1    2    0    0  0.94406515415E+02  0.52811242736E+03 -0.33511886168E+03  0.63255037549E+03  0.00000000000E+00 0.  1.
<mgrwt>
<rscale>  0 0.20161381E+04</rscale>
<asrwt>0</asrwt>
<pdfrwt beam="1">  1        2 0.29765658E+00 0.20161381E+04</pdfrwt>
<pdfrwt beam="2">  1       -2 0.80805026E-01 0.20161381E+04</pdfrwt>
<totfact> 0.91069056E+00</totfact>
</mgrwt>
</event>
<event>
 6    1  0.3017327E-006  0.2970803E+04  0.7818608E-02  0.8252118E-01
          2   -1    0    0  501    0  0.00000000000E+00  0.00000000000E+00  0.16877708343E+04  0.16877708343E+04  0.00000000000E+00 0. -1.
         -2   -1    0    0    0  501 -0.00000000000E+00 -0.00000000000E+00 -0.13072969728E+04  0.13072969728E+04  0.00000000000E+00 0.  1.
         23    2    1    2    0    0  0.14188383006E+04 -0.43152222266E+03  0.24466790044E+03  0.15058543196E+04  0.91767633134E+02 0.  0.
         11    1    3    3    0    0  0.33334593146E+03 -0.14240186330E+03  0.56314664686E+02  0.36683666958E+03  0.00000000000E+00 0.  1.
        -11    1    3    3    0    0  0.10854923692E+04 -0.28912035936E+03  0.18835323575E+03  0.11390176501E+04  0.00000000000E+00 0. -1.
         22    1    1    2    0    0 -0.14188383006E+04  0.43152222266E+03  0.13580596110E+03  0.14892134874E+04  0.00000000000E+00 0. -1.
<mgrwt>
<rscale>  0 0.29708031E+04</rscale>
<asrwt>0</asrwt>
<pdfrwt beam="1">  1        2 0.25965705E+00 0.29708031E+04</pdfrwt>
<pdfrwt beam="2">  1       -2 0.20112261E+00 0.29708031E+04</pdfrwt>
<totfact> 0.11178843E+00</totfact>
</mgrwt>
</event>
<event>
 6    1  0.3017327E-006  0.6713439E+03  0.7818608E-02  0.9767533E-01
         -2   -1    0    0    0  501 -0.00000000000E+00  0.00000000000E+00  0.14257380189E+03  0.14257380189E+03  0.00000000000E+00 0.  1.
          2   -1    0    0  501    0  0.00000000000E+00 -0.00000000000E+00 -0.79029710062E+03  0.79029710062E+03  0.00000000000E+00 0. -1.
         23    2    1    2    0    0  0.48408284923E+02  0.12417382314E+03 -0.74776387000E+03  0.76622572166E+03  0.10093835178E+03 0.  0.
         13    1    3    3    0    0  0.12787823522E+02  0.50751859375E+02 -0.54716963354E+03  0.54966706971E+03  0.00000000000E+00 0.  1.
        -13    1    3    3    0    0  0.35620461401E+02  0.73421963761E+02 -0.20059423646E+03  0.21655865195E+03  0.00000000000E+00 0. -1.
         22    1    1    2    0    0 -0.48408284923E+02 -0.12417382314E+03  0.10004057127E+03  0.16664518085E+03  0.00000000000E+00 0.  1.
<mgrwt>
<rscale>  0 0.67134391E+03</rscale>
<asrwt>0</asrwt>
<pdfrwt beam="1">  1        2 0.12158417E+00 0.67134391E+03</pdfrwt>
<pdfrwt beam="2">  1       -2 0.21934430E-01 0.67134391E+03</pdfrwt>
<totfact> 0.63840000E+02</totfact>
</mgrwt>
</event>
<event>
 6    1  0.3017327E-006  0.1620678E+04  0.7818608E-02  0.8807944E-01
         -1   -1    0    0    0  501 -0.00000000000E+00  0.00000000000E+00  0.42377943010E+03  0.42377943010E+03  0.00000000000E+00 0.  1.
          1   -1    0    0  501    0  0.00000000000E+00 -0.00000000000E+00 -0.15495077264E+04  0.15495077264E+04  0.00000000000E+00 0. -1.
         23    2    1    2    0    0 -0.30927560377E+03  0.38103662930E+03  0.21214202294E+03  0.54824775247E+03  0.12137152977E+03 0.  0.
         11    1    3    3    0    0 -0.97496286256E+02  0.21612366142E+03  0.10240161648E+03  0.25826547179E+03  0.00000000000E+00 0. -1.
        -11    1    3    3    0    0 -0.21177931751E+03  0.16491296788E+03  0.10974040646E+03  0.28998228068E+03  0.00000000000E+00 0.  1.
         22    1    1    2    0    0  0.30927560377E+03 -0.38103662930E+03 -0.13378703192E+04  0.14250394040E+04  0.00000000000E+00 0. -1.
<mgrwt>
<rscale>  0 0.16206783E+04</rscale>
<asrwt>0</asrwt>
<pdfrwt beam="1">  1        1 0.23838580E+00 0.16206783E+04</pdfrwt>
<pdfrwt beam="2">  1       -1 0.65196836E-01 0.16206783E+04</pdfrwt>
<totfact> 0.13811033E+01</totfact>
</mgrwt>
</event>
<event>
 6    1  0.3017327E-006  0.3702223E+04  0.7818608E-02  0.8067469E-01
          2   -1    0    0  501    0  0.00000000000E+00  0.00000000000E+00  0.20935996808E+04  0.20935996808E+04  0.00000000000E+00 0.  1.
         -2   -1    0    0    0  501 -0.00000000000E+00 -0.00000000000E+00 -0.16367094780E+04  0.16367094780E+04  0.00000000000E+00 0. -1.
         23    2    1    2    0    0 -0.86172648805E+03  0.15594427292E+04  0.73060545335E+03  0.19277126416E+04  0.88642734119E+02 0.  0.
         13    1    3    3    0    0 -0.36086201487E+03  0.56461873989E+03  0.27842496057E+03  0.72562812369E+03  0.00000000000E+00 0. -1.
        -13    1    3    3    0    0 -0.50086447318E+03  0.99482398929E+03  0.45218049277E+03  0.12020845179E+04  0.00000000000E+00 0.  1.
         22    1    1    2    0    0  0.86172648805E+03 -0.15594427292E+04 -0.27371525055E+03  0.18025965173E+04  0.00000000000E+00 0. -1.
<mgrwt>
<rscale>  0 0.37022234E+04</rscale>
<asrwt>0</asrwt>
<pdfrwt beam="1">  1        2 0.32209226E+00 0.37022234E+04</pdfrwt>
<pdfrwt beam="2">  1       -2 0.25180146E+00 0.37022234E+04</pdfrwt>
<totfact> 0.29998319E-01</totfact>
</mgrwt>
</event>
<event>
 6    1  0.3017327E-006  0.2634094E+04  0.7818608E-02  0.8356712E-01
         -2   -1    0    0    0  501 -0.00000000000E+00  0.00000000000E+00  0.13651123221E+04  0.13651123221E+04  0.00000000000E+00 0.  1.
          2   -1    0    0  501    0  0.00000000000E+00 -0.00000000000E+00 -0.12706740802E+04  0.12706740802E+04  0.00000000000E+00 0. -1.
         23    2    1    2    0    0 -0.52490680911E+03 -0.69848820651E+03 -0.93673391089E+03  0.12842210352E+04  0.91325323208E+02 0.  0.
         13    1    3    3    0    0 -0.33883013089E+03 -0.45034602974E+03 -0.66665515329E+03  0.87295274644E+03  0.00000000000E+00 0. -1.
        -13    1    3    3    0    0 -0.18607667823E+03 -0.24814217676E+03 -0.27007875760E+03  0.41126828880E+03  0.00000000000E+00 0.  1.
         22    1    1    2    0    0  0.52490680911E+03  0.69848820651E+03  0.10311721528E+04  0.13515653671E+04  0.00000000000E+00 0.  1.
<mgrwt>
<rscale>  0 0.26340940E+04</rscale>
<asrwt>0</asrwt>
<pdfrwt beam="1">  1        2 0.19548832E+00 0.26340940E+04</pdfrwt>
<pdfrwt beam="2">  1       -2 0.21001728E+00 0.26340940E+04</pdfrwt>
<totfact> 0.17367279E+00</totfact>
</mgrwt>
</event>
<event>
 6    1  0.3017327E-006  0.2052957E+04  0.7818608E-02  0.8582254E-01
         -2   -1    0    0    0  501 -0.00000000000E+00  0.00000000000E+00  0.17036968628E+04  0.17036968628E+04  0.00000000000E+00 0.  1.
          2   -1    0    0  501    0  0.00000000000E+00 -0.00000000000E+00 -0.61845397804E+03  0.61845397804E+03  0.00000000000E+00 0. -1.
         23    2    1    2    0    0 -0.88678228793E+03 -0.34508623083E+03  0.11423694133E+03  0.96262155648E+03  0.90126851381E+02 0.  0.
         13    1    3    3    0    0 -0.36693462382E+03 -0.14088911798E+03  0.26114171326E+01  0.39306180331E+03  0.00000000000E+00 0. -1.
        -13    1    3    3    0    0 -0.51984766411E+03 -0.20419711285E+03  0.11162552419E+03  0.56955975316E+03  0.00000000000E+00 0.  1.
         22    1    1    2    0    0  0.88678228793E+03  0.34508623083E+03  0.97100594345E+03  0.13595292844E+04  0.00000000000E+00 0.  1.
<mgrwt>
<rscale>  0 0.20529570E+04</rscale>
<asrwt>0</asrwt>
<pdfrwt beam="1">  1        2 0.95146767E-01 0.20529570E+04</pdfrwt>
<pdfrwt beam="2">  1       -2 0.26210721E+00 0.20529570E+04</pdfrwt>
<totfact> 0.23950237E+00</totfact>
</mgrwt>
</event>
<event>
 6    1  0.3017327E-006  0.1820215E+04  0.7818608E-02  0.8695623E-01
         -2   -1    0    0    0  501 -0.00000000000E+00  0.00000000000E+00  0.67894559641E+03  0.67894559641E+03  0.00000000000E+00 0.  1.
          2   -1    0    0  501    0  0.00000000000E+00 -0.00000000000E+00 -0.12199735545E+04  0.12199735545E+04  0.00000000000E+00 0. -1.
         23    2    1    2    0    0 -0.13111732045E+03  0.31113828005E+03  0.60782081373E+03  0.70148344009E+03  0.92919826117E+02 0.  0.
         11    1    3    3    0    0 -0.18282034162E+02  0.13308626879E+03  0.29648587511E+03  0.32549971099E+03  0.00000000000E+00 0. -1.
        -11    1    3    3    0    0 -0.11283528629E+03  0.17805201126E+03  0.31133493862E+03  0.37598372910E+03  0.00000000000E+00 0.  1.
         22    1    1    2    0    0  0.13111732045E+03 -0.31113828005E+03 -0.11488487718E+04  0.11974357108E+04  0.00000000000E+00 0. -1.
<mgrwt>
<rscale>  0 0.18202150E+04</rscale>
<asrwt>0</asrwt>
<pdfrwt beam="1">  1        2 0.18768824E+00 0.18202150E+04</pdfrwt>
<pdfrwt beam="2">  1       -2 0.10445317E+00 0.18202150E+04</pdfrwt>
<totfact> 0.12931195E+01</totfact>
</mgrwt>
</event>
<event>
 6    1  0.3017327E-006  0.1162917E+04  0.7818608E-02  0.9145949E-01
          2   -1    0    0  501    0  0.00000000000E+00  0.00000000000E+00  0.11459357774E+04  0.11459357774E+04  0.00000000000E+00 0. -1.
         -2   -1    0    0    0  501 -0.00000000000E+00 -0.00000000000E+00 -0.29503751335E+03  0.29503751335E+03  0.00000000000E+00 0.  1.
         23    2    1    2    0    0 -0.13432196921E+03  0.46692509974E+03  0.81571215937E+03  0.95383932341E+03  0.91442264657E+02 0.  0.
         13    1    3    3    0    0 -0.53674719044E+02  0.32515024708E+03  0.50711201786E+03  0.60478612525E+03  0.00000000000E+00 0. -1.
        -13    1    3    3    0    0 -0.80647250163E+02  0.14177485266E+03  0.30860014151E+03  0.34905319816E+03  0.00000000000E+00 0.  1.
         22    1    1    2    0    0  0.13432196921E+03 -0.46692509974E+03  0.35186104691E+02  0.48713396734E+03  0.00000000000E+00 0.  1.
<mgrwt>
<rscale>  0 0.11629171E+04</rscale>
<asrwt>0</asrwt>
<pdfrwt beam="1">  1        2 0.17629781E+00 0.11629171E+04</pdfrwt>
<pdfrwt beam="2">  1       -2 0.45390387E-01 0.11629171E+04</pdfrwt>
<totfact> 0.92911150E+01</totfact>
</mgrwt>
</event>
<event>
 6    1  0.3017327E-006  0.3374433E+04  0.7818608E-02  0.8144210E-01
          2   -1    0    0  501    0  0.00000000000E+00  0.00000000000E+00  0.14113751637E+04  0.14113751637E+04  0.00000000000E+00 0. -1.
         -2   -1    0    0    0  501 -0.00000000000E+00 -0.00000000000E+00 -0.20169683994E+04  0.20169683994E+04  0.00000000000E+00 0.  1.
         23    2    1    2    0    0 -0.15991825434E+04 -0.52987554889E+03 -0.23590805091E+03  0.17035769005E+04  0.91480834189E+02 0.  0.
         13    1    3    3    0    0 -0.33569302440E+03 -0.11733200921E+03 -0.12725929665E+02  0.35583501276E+03  0.00000000000E+00 0. -1.
        -13    1    3    3    0    0 -0.12634895190E+04 -0.41254353968E+03 -0.22318212124E+03  0.13477418877E+04  0.00000000000E+00 0.  1.
         22    1    1    2    0    0  0.15991825434E+04  0.52987554889E+03 -0.36968518485E+03  0.17247666626E+04  0.00000000000E+00 0.  1.
<mgrwt>
<rscale>  0 0.33744328E+04</rscale>
<asrwt>0</asrwt>
<pdfrwt beam="1">  1        2 0.21713464E+00 0.33744328E+04</pdfrwt>
<pdfrwt beam="2">  1       -2 0.31030283E+00 0.33744328E+04</pdfrwt>
<totfact> 0.32511672E-01</totfact>
</mgrwt>
</event>
<event>
 6    1  0.3017327E-006  0.2616599E+04  0.7818608E-02  0.8362585E-01
          2   -1    0    0  501    0  0.00000000000E+00  0.00000000000E+00  0.14981741786E+04  0.14981741786E+04  0.00000000000E+00 0. -1.
         -2   -1    0    0    0  501 -0.00000000000E+00 -0.00000000000E+00 -0.11424887871E+04  0.11424887871E+04  0.00000000000E+00 0.  1.
         23    2    1    2    0    0  0.10356887520E+04  0.79685485402E+03  0.18425902250E+03  0.13227039946E+04  0.89250324897E+02 0.  0.
         11    1    3    3    0    0  0.25117553889E+03  0.23941546396E+03  0.63543578685E+02  0.35277004140E+03  0.00000000000E+00 0. -1.
        -11    1    3    3    0    0  0.78451321314E+03  0.55743939006E+03  0.12071544381E+03  0.96993395319E+03  0.00000000000E+00 0.  1.
         22    1    1    2    0    0 -0.10356887520E+04 -0.79685485402E+03  0.17142636907E+03  0.13179589711E+04  0.00000000000E+00 0.  1.
<mgrwt>
<rscale>  0 0.26165987E+04</rscale>
<asrwt>0</asrwt>
<pdfrwt beam="1">  1        2 0.23048833E+00 0.26165987E+04</pdfrwt>
<pdfrwt beam="2">  1       -2 0.17576751E+00 0.26165987E+04</pdfrwt>
<totfact> 0.21814750E+00</totfact>
</mgrwt>
</event>
<event>
 6    1  0.3017327E-006  0.1109029E+04  0.7818608E-02  0.9196436E-01
          2   -1    0    0  501    0  0.00000000000E+00  0.00000000000E+00  0.16686756013E+03  0.16686756013E+03  0.00000000000E+00 0. -1.
         -2   -1    0    0    0  501 -0.00000000000E+00 -0.00000000000E+00 -0.18426956001E+04  0.18426956001E+04  0.00000000000E+00 0.  1.
         23    2    1    2    0    0  0.42579677248E+03 -0.28364521501E+02 -0.21282163069E+03  0.48558967255E+03  0.91634306153E+02 0.  0.
         13    1    3    3    0    0  0.33448177921E+03 -0.55689157557E+02 -0.14598667525E+03  0.36917672224E+03  0.00000000000E+00 0.  1.
        -13    1    3    3    0    0  0.91314993267E+02  0.27324636056E+02 -0.66834955439E+02  0.11641295031E+03  0.00000000000E+00 0. -1.
         22    1    1    2    0    0 -0.42579677248E+03  0.28364521501E+02 -0.14630064093E+04  0.15239734877E+04  0.00000000000E+00 0.  1.
<mgrwt>
<rscale>  0 0.11090286E+04</rscale>
<asrwt>0</asrwt>
<pdfrwt beam="1">  1        2 0.25671934E-01 0.11090286E+04</pdfrwt>
<pdfrwt beam="2">  1       -2 0.28349162E+00 0.11090286E+04</pdfrwt>
<totfact> 0.85392683E+00</totfact>
</mgrwt>
</event>
<event>
 6    1  0.3017327E-006  0.2967277E+04  0.7818608E-02  0.8253137E-01
          2   -1    0    0  501    0  0.00000000000E+00  0.00000000000E+00  0.14954228783E+04  0.14954228783E+04  0.00000000000E+00 0. -1.
         -2   -1    0    0    0  501 -0.00000000000E+00 -0.00000000000E+00 -0.14719468473E+04  0.14719468473E+04  0.00000000000E+00 0.  1.
         23    2    1    2    0    0 -0.10451421981E+04  0.72129935879E+03 -0.75275081095E+03  0.14790407668E+04  0.91284321390E+02 0.  0.
         11    1    3    3    0    0 -0.39199210900E+03  0.31524992716E+03 -0.26846205259E+03  0.57018611328E+03  0.00000000000E+00 0.  1.
        -11    1    3    3    0    0 -0.65315008912E+03  0.40604943163E+03 -0.48428875836E+03  0.90885465357E+03  0.00000000000E+00 0. -1.
         22    1    1    2    0    0  0.10451421981E+04 -0.72129935879E+03  0.77622684191E+03  0.14883289587E+04  0.00000000000E+00 0. -1.
<mgrwt>
<rscale>  0 0.29672769E+04</rscale>
<asrwt>0</asrwt>
<pdfrwt beam="1">  1        2 0.23006506E+00 0.29672769E+04</pdfrwt>
<pdfrwt beam="2">  1       -2 0.22645336E+00 0.29672769E+04</pdfrwt>
<totfact> 0.98639937E-01</totfact>
</mgrwt>
</event>
<event>
 6    1  0.3017327E-006  0.1956751E+04  0.7818608E-02  0.8627112E-01
         -2   -1    0    0    0  501 -0.00000000000E+00  0.00000000000E+00  0.10100896600E+04  0.10100896600E+04  0.00000000000E+00 0.  1.
          2   -1    0    0  501    0  0.00000000000E+00 -0.00000000000E+00 -0.94765662780E+03  0.94765662780E+03  0.00000000000E+00 0. -1.
         23    2    1    2    0    0 -0.72370668547E+03 -0.36080756680E+03  0.57862640296E+03  0.99837719149E+03  0.89526730363E+02 0.  0.
         13    1    3    3    0    0 -0.25593709218E+03 -0.10568619931E+03  0.15249646148E+03  0.31611475550E+03  0.00000000000E+00 0.  1.
        -13    1    3    3    0    0 -0.46776959329E+03 -0.25512136748E+03  0.42612994148E+03  0.68226243600E+03  0.00000000000E+00 0. -1.
         22    1    1    2    0    0  0.72370668547E+03  0.36080756680E+03 -0.51619337079E+03  0.95936909628E+03  0.00000000000E+00 0. -1.
<mgrwt>
<rscale>  0 0.19567505E+04</rscale>
<asrwt>0</asrwt>
<pdfrwt beam="1">  1        2 0.14579333E+00 0.19567505E+04</pdfrwt>
<pdfrwt beam="2">  1       -2 0.15539841E+00 0.19567505E+04</pdfrwt>
<totfact> 0.69241324E+00</totfact>
</mgrwt>
</event>
<event>
 6    1  0.3017327E-006  0.5632339E+04  0.7818608E-02  0.7737737E-01
         -2   -1    0    0    0  501 -0.00000000000E+00  0.00000000000E+00  0.30830142819E+04  0.30830142819E+04  0.00000000000E+00 0.  1.
          2   -1    0    0  501    0  0.00000000000E+00 -0.00000000000E+00 -0.25724207697E+04  0.25724207697E+04  0.00000000000E+00 0. -1.
         23    2    1    2    0    0 -0.14809766339E+04  0.12212838169E+04  0.23234066411E+04  0.30151476824E+04  0.89839719820E+02 0.  0.
         11    1    3    3    0    0 -0.69428536776E+03  0.63007314395E+03  0.11442754851E+04  0.14793210349E+04  0.00000000000E+00 0. -1.
        -11    1    3    3    0    0 -0.78669126617E+03  0.59121067295E+03  0.11791311560E+04  0.15358266475E+04  0.00000000000E+00 0.  1.
         22    1    1    2    0    0  0.14809766339E+04 -0.12212838169E+04 -0.18128131289E+04  0.26402873692E+04  0.00000000000E+00 0. -1.
<mgrwt>
<rscale>  0 0.56323388E+04</rscale>
<asrwt>0</asrwt>
<pdfrwt beam="1">  1        2 0.39575704E+00 0.56323388E+04</pdfrwt>
<pdfrwt beam="2">  1       -2 0.47430989E+00 0.56323388E+04</pdfrwt>
<totfact> 0.52932906E-03</totfact>
</mgrwt>
</event>
<event>
 6    1  0.3017327E-006  0.6430999E+03  0.7818608E-02  0.9819814E-01
         -2   -1    0    0    0  501 -0.00000000000E+00  0.00000000000E+00  0.24313569024E+03  0.24313569024E+03  0.00000000000E+00 0.  1.
          2   -1    0    0  501    0  0.00000000000E+00 -0.00000000000E+00 -0.42525375147E+03  0.42525375147E+03  0.00000000000E+00 0. -1.
         23    2    1    2    0    0 -0.23427017235E+03  0.17536428284E+03 -0.21354752782E+03  0.37407165985E+03  0.93230438790E+02 0.  0.
         11    1    3    3    0    0 -0.15175676043E+03  0.61837915507E+02 -0.89264388379E+02  0.18660700191E+03  0.00000000000E+00 0.  1.
        -11    1    3    3    0    0 -0.82513411920E+02  0.11352636733E+03 -0.12428313944E+03  0.18746465794E+03  0.00000000000E+00 0. -1.
         22    1    1    2    0    0  0.23427017235E+03 -0.17536428284E+03  0.31429466595E+02  0.29431778186E+03  0.00000000000E+00 0.  1.
<mgrwt>
<rscale>  0 0.64309988E+03</rscale>
<asrwt>0</asrwt>
<pdfrwt beam="1">  1        2 0.65423654E-01 0.64309988E+03</pdfrwt>
<pdfrwt beam="2">  1       -2 0.37405491E-01 0.64309988E+03</pdfrwt>
<totfact> 0.50383000E+02</totfact>
</mgrwt>
</event>
<event>
 6    1  0.3017327E-006  0.2835490E+04  0.7818608E-02  0.8292334E-01
         -2   -1    0    0    0  501 -0.00000000000E+00  0.00000000000E+00  0.27088560502E+04  0.27088560502E+04  0.00000000000E+00 0.  1.
          2   -1    0    0  501    0  0.00000000000E+00 -0.00000000000E+00 -0.74201097233E+03  0.74201097233E+03  0.00000000000E+00 0. -1.
         23    2    1    2    0    0  0.86109334250E+02 -0.53972142093E+03 -0.60575874944E+03  0.82084715912E+03  0.90179634432E+02 0.  0.
         11    1    3    3    0    0  0.37053360819E+02 -0.39925508207E+03 -0.39491793648E+03  0.56279458834E+03  0.00000000000E+00 0.  1.
        -11    1    3    3    0    0  0.49055973431E+02 -0.14046633886E+03 -0.21084081295E+03  0.25805257078E+03  0.00000000000E+00 0. -1.
         22    1    1    2    0    0 -0.86109334250E+02  0.53972142093E+03  0.25726038273E+04  0.26300198634E+04  0.00000000000E+00 0.  1.
<mgrwt>
<rscale>  0 0.28354900E+04</rscale>
<asrwt>0</asrwt>
<pdfrwt beam="1">  1        2 0.11415554E+00 0.28354900E+04</pdfrwt>
<pdfrwt beam="2">  1       -2 0.41674708E+00 0.28354900E+04</pdfrwt>
<totfact> 0.18992297E-01</totfact>
</mgrwt>
</event>
<event>
 6    1  0.3017327E-006  0.1931340E+04  0.7818608E-02  0.8639412E-01
          2   -1    0    0  501    0  0.00000000000E+00  0.00000000000E+00  0.19066523047E+04  0.19066523047E+04  0.00000000000E+00 0. -1.
         -2   -1    0    0    0  501 -0.00000000000E+00 -0.00000000000E+00 -0.48908674137E+03  0.48908674137E+03  0.00000000000E+00 0.  1.
         23    2    1    2    0    0 -0.79285959095E+03  0.47126740360E+03  0.36493442510E+03  0.99618497071E+03  0.92130692993E+02 0.  0.
         11    1    3    3    0    0 -0.24903803541E+03  0.99509179156E+02  0.10717686482E+03  0.28880599054E+03  0.00000000000E+00 0. -1.
        -11    1    3    3    0    0 -0.54382155554E+03  0.37175822444E+03  0.25775756028E+03  0.70737898018E+03  0.00000000000E+00 0.  1.
         22    1    1    2    0    0  0.79285959095E+03 -0.47126740360E+03  0.10526311383E+04  0.13995540754E+04  0.00000000000E+00 0.  1.
<mgrwt>
<rscale>  0 0.19313398E+04</rscale>
<asrwt>0</asrwt>
<pdfrwt beam="1">  1        2 0.29333112E+00 0.19313398E+04</pdfrwt>
<pdfrwt beam="2">  1       -2 0.75244115E-01 0.19313398E+04</pdfrwt>
<totfact> 0.11149911E+01</totfact>
</mgrwt>
</event>
<event>
 6    1  0.3017327E-006  0.1080211E+04  0.7818608E-02  0.9224697E-01
          2   -1    0    0  501    0  0.00000000000E+00  0.00000000000E+00  0.23926209448E+03  0.23926209448E+03  0.00000000000E+00 0. -1.
         -2   -1    0    0    0  501 -0.00000000000E+00 -0.00000000000E+00 -0.12192225729E+04  0.12192225729E+04  0.00000000000E+00 0.  1.
         23    2    1    2    0    0 -0.12356926382E+03  0.28124598438E+03 -0.10868853396E+04  0.11332130999E+04  0.92106035095E+02 0.  0.
         13    1    3    3    0    0 -0.33926070375E+02  0.60892364142E+02 -0.40663148109E+03  0.41256274635E+03  0.00000000000E+00 0.  1.
        -13    1    3    3    0    0 -0.89643193447E+02  0.22035362023E+03 -0.68025385849E+03  0.72065035355E+03  0.00000000000E+00 0. -1.
         22    1    1    2    0    0  0.12356926382E+03 -0.28124598438E+03  0.10692486115E+03  0.32527156750E+03  0.00000000000E+00 0. -1.
<mgrwt>
<rscale>  0 0.10802106E+04</rscale>
<asrwt>0</asrwt>
<pdfrwt beam="1">  1        2 0.36809554E-01 0.10802106E+04</pdfrwt>
<pdfrwt beam="2">  1       -2 0.18757270E+00 0.10802106E+04</pdfrwt>
<totfact> 0.22608182E+01</totfact>
</mgrwt>
</event>
<event>
 6    1  0.3017327E-006  0.4909128E+04  0.7818608E-02  0.7842680E-01
          2   -1    0    0  501    0  0.00000000000E+00  0.00000000000E+00  0.21958137212E+04  0.21958137212E+04  0.00000000000E+00 0. -1.
         -2   -1    0    0    0  501 -0.00000000000E+00 -0.00000000000E+00 -0.27438045684E+04  0.27438045684E+04  0.00000000000E+00 0.  1.
         23    2    1    2    0    0  0.22421925464E+03 -0.15218302423E+04 -0.21976185552E+04  0.26840666640E+04  0.91896583168E+02 0.  0.
         11    1    3    3    0    0  0.20946692795E+03 -0.13806956695E+04 -0.19466001787E+04  0.23957147538E+04  0.00000000000E+00 0.  1.
        -11    1    3    3    0    0  0.14752326688E+02 -0.14113457277E+03 -0.25101837655E+03  0.28835191024E+03  0.00000000000E+00 0. -1.
         22    1    1    2    0    0 -0.22421925464E+03  0.15218302423E+04  0.16496277081E+04  0.22555516256E+04  0.00000000000E+00 0. -1.
<mgrwt>
<rscale>  0 0.49091277E+04</rscale>
<asrwt>0</asrwt>
<pdfrwt beam="1">  1        2 0.33781749E+00 0.49091277E+04</pdfrwt>
<pdfrwt beam="2">  1       -2 0.42212378E+00 0.49091277E+04</pdfrwt>
<totfact> 0.20235567E-02</totfact>
</mgrwt>
</event>
<event>
 6    1  0.3017327E-006  0.3122110E+04  0.7818608E-02  0.8209696E-01
          1   -1    0    0  501    0  0.00000000000E+00  0.00000000000E+00  0.45900374287E+04  0.45900374287E+04  0.00000000000E+00 0. -1.
         -1   -1    0    0    0  501 -0.00000000000E+00 -0.00000000000E+00 -0.53090927891E+03  0.53090927891E+03  0.00000000000E+00 0.  1.
         23    2    1    2    0    0  0.14003686890E+04 -0.60487285248E+03  0.25645725469E+04  0.29853905546E+04  0.92848166536E+02 0.  0.
         11    1    3    3    0    0  0.89879157760E+03 -0.36809996580E+03  0.17107383711E+04  0.19672187624E+04  0.00000000000E+00 0. -1.
        -11    1    3    3    0    0  0.50157711138E+03 -0.23677288668E+03  0.85383417581E+03  0.10181717921E+04  0.00000000000E+00 0.  1.
         22    1    1    2    0    0 -0.14003686890E+04  0.60487285248E+03  0.14945556028E+04  0.21355561530E+04  0.00000000000E+00 0. -1.
<mgrwt>
<rscale>  0 0.31221105E+04</rscale>
<asrwt>0</asrwt>
<pdfrwt beam="1">  1        1 0.70615958E+00 0.31221105E+04</pdfrwt>
<pdfrwt beam="2">  1       -1 0.81678354E-01 0.31221105E+04</pdfrwt>
<totfact> 0.32549210E-02</totfact>
</mgrwt>
</event>
<event>
 6    1  0.3017327E-006  0.1538977E+04  0.7818608E-02  0.8858940E-01
          2   -1    0    0  501    0  0.00000000000E+00  0.00000000000E+00  0.25362167014E+04  0.25362167014E+04  0.00000000000E+00 0. -1.
         -2   -1    0    0    0  501 -0.00000000000E+00 -0.00000000000E+00 -0.23346287883E+03  0.23346287883E+03  0.00000000000E+00 0.  1.
         23    2    1    2    0    0 -0.12002279226E+03 -0.75485218783E+03  0.12648237866E+04  0.14806853771E+04  0.91884050242E+02 0.  0.
         11    1    3    3    0    0 -0.66649074423E+02 -0.21596455263E+03  0.32185614044E+03  0.39328636164E+03  0.00000000000E+00 0.  1.
        -11    1    3    3    0    0 -0.53373717840E+02 -0.53888763520E+03  0.94296764613E+03  0.10873990154E+04  0.00000000000E+00 0. -1.
         22    1    1    2    0    0  0.12002279226E+03  0.75485218783E+03  0.10379300360E+04  0.12889942032E+04  0.00000000000E+00 0.  1.
<mgrwt>
<rscale>  0 0.15389769E+04</rscale>
<asrwt>0</asrwt>
<pdfrwt beam="1">  1        2 0.39018717E+00 0.15389769E+04</pdfrwt>
<pdfrwt beam="2">  1       -2 0.35917368E-01 0.15389769E+04</pdfrwt>
<totfact> 0.23353451E+01</totfact>
</mgrwt>
</event>
<event>
 6    1  0.3017327E-006  0.1315455E+04  0.7818608E-02  0.9017398E-01
         -1   -1    0    0    0  501 -0.00000000000E+00  0.00000000000E+00  0.15030259768E+04  0.15030259768E+04  0.00000000000E+00 0.  1.
          1   -1    0    0  501    0  0.00000000000E+00 -0.00000000000E+00 -0.28782302874E+03  0.28782302874E+03  0.00000000000E+00 0. -1.
         23    2    1    2    0    0 -0.34176241970E+03 -0.23233334667E+03  0.13015454197E+04  0.13686697096E+04  0.91956287099E+02 0.  0.
         13    1    3    3    0    0 -0.19212088597E+03 -0.15481431450E+03  0.63775379098E+03  0.68381854663E+03  0.00000000000E+00 0.  1.
        -13    1    3    3    0    0 -0.14964153373E+03 -0.77519032171E+02  0.66379162876E+03  0.68485116294E+03  0.00000000000E+00 0. -1.
         22    1    1    2    0    0  0.34176241970E+03  0.23233334667E+03 -0.86342471721E+02  0.42217929594E+03  0.00000000000E+00 0. -1.
<mgrwt>
<rscale>  0 0.13154550E+04</rscale>
<asrwt>0</asrwt>
<pdfrwt beam="1">  1        1 0.44280467E-01 0.13154550E+04</pdfrwt>
<pdfrwt beam="2">  1       -1 0.23123476E+00 0.13154550E+04</pdfrwt>
<totfact> 0.84194674E+00</totfact>
</mgrwt>
</event>
<event>
 6    1  0.3017327E-006  0.2552559E+04  0.7818608E-02  0.8384497E-01
          2   -1    0    0  501    0  0.00000000000E+00  0.00000000000E+00  0.13434015583E+04  0.13434015583E+04  0.00000000000E+00 0. -1.
         -2   -1    0    0    0  501 -0.00000000000E+00 -0.00000000000E+00 -0.12125113001E+04  0.12125113001E+04  0.00000000000E+00 0.  1.
         23    2    1    2    0    0  0.99412798082E+03 -0.27881276553E+03  0.81396049490E+03  0.13179258032E+04  0.91486255860E+02 0.  0.
         11    1    3    3    0    0  0.21878249323E+03 -0.34802787571E+02  0.21023834977E+03  0.30541312526E+03  0.00000000000E+00 0.  1.
        -11    1    3    3    0    0  0.77534548760E+03 -0.24400997796E+03  0.60372214513E+03  0.10125126779E+04  0.00000000000E+00 0. -1.
         22    1    1    2    0    0 -0.99412798082E+03  0.27881276553E+03 -0.68307023667E+03  0.12379870551E+04  0.00000000000E+00 0.  1.
<mgrwt>
<rscale>  0 0.25525592E+04</rscale>
<asrwt>0</asrwt>
<pdfrwt beam="1">  1        2 0.20667716E+00 0.25525592E+04</pdfrwt>
<pdfrwt beam="2">  1       -2 0.18654020E+00 0.25525592E+04</pdfrwt>
<totfact> 0.22658058E+00</totfact>
</mgrwt>
</event>
<event>
 6    1  0.3017327E-006  0.2151507E+04  0.7818608E-02  0.8538887E-01
         -2   -1    0    0    0  501 -0.00000000000E+00  0.00000000000E+00  0.25562948302E+03  0.25562948302E+03  0.00000000000E+00 0.  1.
          2   -1    0    0  501    0  0.00000000000E+00 -0.00000000000E+00 -0.45270440033E+04  0.45270440033E+04  0.00000000000E+00 0. -1.
         23    2    1    2    0    0 -0.32214708780E+03 -0.95883913686E+03 -0.29407817276E+04  0.31112265486E+04  0.91554524836E+02 0.  0.
         11    1    3    3    0    0 -0.18056457567E+03 -0.44103258507E+03 -0.14870403127E+04  0.15615384077E+04  0.00000000000E+00 0. -1.
        -11    1    3    3    0    0 -0.14158251213E+03 -0.51780655179E+03 -0.14537414149E+04  0.15496881409E+04  0.00000000000E+00 0.  1.
         22    1    1    2    0    0  0.32214708780E+03  0.95883913686E+03 -0.13306327927E+04  0.16714469377E+04  0.00000000000E+00 0.  1.
<mgrwt>
<rscale>  0 0.21515073E+04</rscale>
<asrwt>0</asrwt>
<pdfrwt beam="1">  1        2 0.69646829E+00 0.21515073E+04</pdfrwt>
<pdfrwt beam="2">  1       -2 0.39327614E-01 0.21515073E+04</pdfrwt>
<totfact> 0.65798450E-01</totfact>
</mgrwt>
</event>
<event>
 6    1  0.3017327E-006  0.2186568E+04  0.7818608E-02  0.8524040E-01
         -2   -1    0    0    0  501 -0.00000000000E+00  0.00000000000E+00  0.11293811640E+04  0.11293811640E+04  0.00000000000E+00 0.  1.
          2   -1    0    0  501    0  0.00000000000E+00 -0.00000000000E+00 -0.10583402229E+04  0.10583402229E+04  0.00000000000E+00 0. -1.
         23    2    1    2    0    0 -0.45256846543E+03  0.78014145440E+03  0.65030213422E+03  0.11158154046E+04  0.93339416419E+02 0.  0.
         13    1    3    3    0    0 -0.39042331230E+02  0.12328850096E+03  0.11377422564E+03  0.17224671990E+03  0.00000000000E+00 0. -1.
        -13    1    3    3    0    0 -0.41352613420E+03  0.65685295344E+03  0.53652790858E+03  0.94356868473E+03  0.00000000000E+00 0.  1.
         22    1    1    2    0    0  0.45256846543E+03 -0.78014145440E+03 -0.57926119314E+03  0.10719059822E+04  0.00000000000E+00 0. -1.
<mgrwt>
<rscale>  0 0.21865676E+04</rscale>
<asrwt>0</asrwt>
<pdfrwt beam="1">  1        2 0.16282157E+00 0.21865676E+04</pdfrwt>
<pdfrwt beam="2">  1       -2 0.17375095E+00 0.21865676E+04</pdfrwt>
<totfact> 0.42425589E+00</totfact>
</mgrwt>
</event>
<event>
 6    1  0.3017327E-006  0.1099555E+04  0.7818608E-02  0.9205626E-01
          2   -1    0    0  501    0  0.00000000000E+00  0.00000000000E+00  0.79487393720E+03  0.79487393720E+03  0.00000000000E+00 0. -1.
         -2   -1    0    0    0  501 -0.00000000000E+00 -0.00000000000E+00 -0.38025529915E+03  0.38025529915E+03  0.00000000000E+00 0.  1.
         23    2    1    2    0    0  0.30519730438E+03 -0.45086991335E+03  0.24863450637E+03  0.60593699700E+03  0.94400493705E+02 0.  0.
         11    1    3    3    0    0  0.24174601070E+03 -0.40093872217E+03  0.23570830534E+03  0.52416733762E+03  0.00000000000E+00 0.  1.
        -11    1    3    3    0    0  0.63451293675E+02 -0.49931191184E+02  0.12926201035E+02  0.81769659381E+02  0.00000000000E+00 0. -1.
         22    1    1    2    0    0 -0.30519730438E+03  0.45086991335E+03  0.16598413167E+03  0.56919223935E+03  0.00000000000E+00 0.  1.
<mgrwt>
<rscale>  0 0.10995545E+04</rscale>
<asrwt>0</asrwt>
<pdfrwt beam="1">  1        2 0.12228830E+00 0.10995545E+04</pdfrwt>
<pdfrwt beam="2">  1       -2 0.58500815E-01 0.10995545E+04</pdfrwt>
<totfact> 0.94274085E+01</totfact>
</mgrwt>
</event>
<event>
 6    1  0.3017327E-006  0.1797199E+04  0.7818608E-02  0.8707791E-01
          1   -1    0    0  501    0  0.00000000000E+00  0.00000000000E+00  0.34671174028E+04  0.34671174028E+04  0.00000000000E+00 0. -1.
         -1   -1    0    0    0  501 -0.00000000000E+00 -0.00000000000E+00 -0.23289683761E+03  0.23289683761E+03  0.00000000000E+00 0.  1.
         23    2    1    2    0    0  0.47469678681E+03 -0.72549919178E+03  0.11534063012E+04  0.14458017132E+04  0.91161293913E+02 0.  0.
         13    1    3    3    0    0  0.39717647572E+03 -0.64102090868E+03  0.10391582477E+04  0.12839419076E+04  0.00000000000E+00 0. -1.
        -13    1    3    3    0    0  0.77520311094E+02 -0.84478283103E+02  0.11424805352E+03  0.16185980564E+03  0.00000000000E+00 0.  1.
         22    1    1    2    0    0 -0.47469678681E+03  0.72549919178E+03  0.20808142640E+04  0.22542125272E+04  0.00000000000E+00 0. -1.
<mgrwt>
<rscale>  0 0.17971986E+04</rscale>
<asrwt>0</asrwt>
<pdfrwt beam="1">  1        1 0.53340264E+00 0.17971986E+04</pdfrwt>
<pdfrwt beam="2">  1       -1 0.35830285E-01 0.17971986E+04</pdfrwt>
<totfact> 0.18741799E+00</totfact>
</mgrwt>
</event>
<event>
 6    1  0.3017327E-006  0.3348198E+04  0.7818608E-02  0.8150739E-01
          2   -1    0    0  501    0  0.00000000000E+00  0.00000000000E+00  0.15278493727E+04  0.15278493727E+04  0.00000000000E+00 0. -1.
         -2   -1    0    0    0  501 -0.00000000000E+00 -0.00000000000E+00 -0.18343478771E+04  0.18343478771E+04  0.00000000000E+00 0.  1.
         23    2    1    2    0    0  0.87103112130E+03  0.67891429667E+03 -0.14150957273E+04  0.17973945022E+04  0.92256395313E+02 0.  0.
         13    1    3    3    0    0  0.33982028857E+03  0.21002330354E+03 -0.49486627641E+03  0.63598761630E+03  0.00000000000E+00 0. -1.
        -13    1    3    3    0    0  0.53121083273E+03  0.46889099312E+03 -0.92022945090E+03  0.11614068859E+04  0.00000000000E+00 0.  1.
         22    1    1    2    0    0 -0.87103112130E+03 -0.67891429667E+03  0.11085972229E+04  0.15648027476E+04  0.00000000000E+00 0. -1.
<mgrwt>
<rscale>  0 0.33481979E+04</rscale>
<asrwt>0</asrwt>
<pdfrwt beam="1">  1        2 0.23505375E+00 0.33481979E+04</pdfrwt>
<pdfrwt beam="2">  1       -2 0.28220736E+00 0.33481979E+04</pdfrwt>
<totfact> 0.41580809E-01</totfact>
</mgrwt>
</event>
<event>
 6    1  0.3017327E-006  0.1782451E+04  0.7818608E-02  0.8715688E-01
         -2   -1    0    0    0  501 -0.00000000000E+00  0.00000000000E+00  0.40466416576E+03  0.40466416576E+03  0.00000000000E+00 0. -1.
          2   -1    0    0  501    0  0.00000000000E+00 -0.00000000000E+00 -0.19628203773E+04  0.19628203773E+04  0.00000000000E+00 0.  1.
         23    2    1    2    0    0 -0.56214545290E+03  0.20003030624E+03  0.94085977596E+02  0.61080475290E+03  0.90612589378E+02 0.  0.
         11    1    3    3    0    0 -0.47887969696E+03  0.13626902285E+03  0.66090780567E+02  0.50225790389E+03  0.00000000000E+00 0. -1.
        -11    1    3    3    0    0 -0.83265755940E+02  0.63761283395E+02  0.27995197029E+02  0.10854684901E+03  0.00000000000E+00 0.  1.
         22    1    1    2    0    0  0.56214545290E+03 -0.20003030624E+03 -0.16522421891E+04  0.17566797902E+04  0.00000000000E+00 0.  1.
<mgrwt>
<rscale>  0 0.17824512E+04</rscale>
<asrwt>0</asrwt>
<pdfrwt beam="1">  1        2 0.30197237E+00 0.17824512E+04</pdfrwt>
<pdfrwt beam="2">  1       -2 0.62256025E-01 0.17824512E+04</pdfrwt>
<totfact> 0.15862112E+01</totfact>
</mgrwt>
</event>
<event>
 6    1  0.3017327E-006  0.2737186E+04  0.7818608E-02  0.8323039E-01
         -2   -1    0    0    0  501 -0.00000000000E+00  0.00000000000E+00  0.63030530990E+03  0.63030530990E+03  0.00000000000E+00 0. -1.
          2   -1    0    0  501    0  0.00000000000E+00 -0.00000000000E+00 -0.29716490189E+04  0.29716490189E+04  0.00000000000E+00 0.  1.
         23    2    1    2    0    0  0.48592440815E+03 -0.17618275973E+03  0.49343541806E+03  0.72043813164E+03  0.91595275302E+02 0.  0.
         11    1    3    3    0    0  0.25958924312E+03 -0.45899695180E+02  0.23894403050E+03  0.35579152164E+03  0.00000000000E+00 0. -1.
        -11    1    3    3    0    0  0.22633516504E+03 -0.13028306455E+03  0.25449138756E+03  0.36464661000E+03  0.00000000000E+00 0.  1.
         22    1    1    2    0    0 -0.48592440815E+03  0.17618275973E+03 -0.28347791271E+04  0.28815161972E+04  0.00000000000E+00 0.  1.
<mgrwt>
<rscale>  0 0.27371855E+04</rscale>
<asrwt>0</asrwt>
<pdfrwt beam="1">  1        2 0.45717678E+00 0.27371855E+04</pdfrwt>
<pdfrwt beam="2">  1       -2 0.96970047E-01 0.27371855E+04</pdfrwt>
<totfact> 0.14085506E+00</totfact>
</mgrwt>
</event>
<event>
 6    1  0.3017327E-006  0.2711792E+04  0.7818608E-02  0.8331189E-01
          2   -1    0    0  501    0  0.00000000000E+00  0.00000000000E+00  0.23579942720E+04  0.23579942720E+04  0.00000000000E+00 0.  1.
         -2   -1    0    0    0  501 -0.00000000000E+00 -0.00000000000E+00 -0.77966845711E+03  0.77966845711E+03  0.00000000000E+00 0. -1.
         23    2    1    2    0    0  0.25700958151E+03 -0.48277065574E+03  0.22236658596E+04  0.22917400350E+04  0.90890603832E+02 0.  0.
         13    1    3    3    0    0  0.25054701549E+03 -0.40486782648E+03  0.18924942986E+04  0.19514677641E+04  0.00000000000E+00 0. -1.
        -13    1    3    3    0    0  0.64625660126E+01 -0.77902829254E+02  0.33117156097E+03  0.34027227092E+03  0.00000000000E+00 0.  1.
         22    1    1    2    0    0 -0.25700958151E+03  0.48277065574E+03 -0.64534004473E+03  0.84592269408E+03  0.00000000000E+00 0. -1.
<mgrwt>
<rscale>  0 0.27117918E+04</rscale>
<asrwt>0</asrwt>
<pdfrwt beam="1">  1        2 0.36276835E+00 0.27117918E+04</pdfrwt>
<pdfrwt beam="2">  1       -2 0.11994899E+00 0.27117918E+04</pdfrwt>
<totfact> 0.19572226E+00</totfact>
</mgrwt>
</event>
<event>
 6    1  0.3017327E-006  0.1896720E+04  0.7818608E-02  0.8656491E-01
          2   -1    0    0  501    0  0.00000000000E+00  0.00000000000E+00  0.19729307811E+04  0.19729307811E+04  0.00000000000E+00 0. -1.
         -2   -1    0    0    0  501 -0.00000000000E+00 -0.00000000000E+00 -0.45586327667E+03  0.45586327667E+03  0.00000000000E+00 0.  1.
         23    2    1    2    0    0 -0.43800568368E+03 -0.59506573083E+03  0.39323449524E+01  0.74489079043E+03  0.94311310966E+02 0.  0.
         11    1    3    3    0    0 -0.21776907834E+03 -0.29994512877E+03 -0.45121223976E+02  0.37339841538E+03  0.00000000000E+00 0. -1.
        -11    1    3    3    0    0 -0.22023660534E+03 -0.29512060207E+03  0.49053568928E+02  0.37149237505E+03  0.00000000000E+00 0.  1.
         22    1    1    2    0    0  0.43800568368E+03  0.59506573083E+03  0.15131351595E+04  0.16839032674E+04  0.00000000000E+00 0. -1.
<mgrwt>
<rscale>  0 0.18967200E+04</rscale>
<asrwt>0</asrwt>
<pdfrwt beam="1">  1        2 0.30352781E+00 0.18967200E+04</pdfrwt>
<pdfrwt beam="2">  1       -2 0.70132813E-01 0.18967200E+04</pdfrwt>
<totfact> 0.11994870E+01</totfact>
</mgrwt>
</event>
<event>
 6    1  0.4912384E-006  0.3700627E+04  0.7818608E-02  0.8067823E-01
          2   -1    0    0  501    0  0.00000000000E+00  0.00000000000E+00  0.20965279531E+04  0.20965279531E+04  0.00000000000E+00 0. -1.
         -2   -1    0    0    0  501 -0.00000000000E+00 -0.00000000000E+00 -0.16330142544E+04  0.16330142544E+04  0.00000000000E+00 0.  1.
         23    2    1    2    0    0  0.61051717766E+02  0.16776730197E+04  0.10134935386E+04  0.19629658866E+04  0.88044566113E+02 0.  0.
         13    1    3    3    0    0 -0.11627623005E+02  0.87966578840E+03  0.52379772151E+03  0.10238706725E+04  0.00000000000E+00 0.  1.
        -13    1    3    3    0    0  0.72679340770E+02  0.79800723133E+03  0.48969581708E+03  0.93909521408E+03  0.00000000000E+00 0. -1.
         22    1    1    2    0    0 -0.61051717766E+02 -0.16776730197E+04 -0.54997983985E+03  0.17665763209E+04  0.00000000000E+00 0.  1.
<mgrwt>
<rscale>  0 0.37006270E+04</rscale>
<asrwt>0</asrwt>
<pdfrwt beam="1">  1        2 0.32254276E+00 0.37006270E+04</pdfrwt>
<pdfrwt beam="2">  1       -2 0.25123296E+00 0.37006270E+04</pdfrwt>
<totfact> 0.30130934E-01</totfact>
</mgrwt>
</event>
<event>
 6    1  0.3017327E-006  0.2288669E+04  0.7818608E-02  0.8482402E-01
         -2   -1    0    0    0  501 -0.00000000000E+00  0.00000000000E+00  0.10925217141E+04  0.10925217141E+04  0.00000000000E+00 0.  1.
          2   -1    0    0  501    0  0.00000000000E+00 -0.00000000000E+00 -0.11986045018E+04  0.11986045018E+04  0.00000000000E+00 0. -1.
         23    2    1    2    0    0  0.32853963984E+03  0.51272059613E+03  0.91305608683E+03  0.11039174094E+04  0.11891814189E+03 0.  0.
         11    1    3    3    0    0  0.36003434327E+02  0.12325519666E+03  0.25150763650E+03  0.28239012377E+03  0.00000000000E+00 0. -1.
        -11    1    3    3    0    0  0.29253620551E+03  0.38946539948E+03  0.66154845033E+03  0.82152728565E+03  0.00000000000E+00 0.  1.
         22    1    1    2    0    0 -0.32853963984E+03 -0.51272059613E+03 -0.10191388745E+04  0.11872088065E+04  0.00000000000E+00 0. -1.
<mgrwt>
<rscale>  0 0.22886690E+04</rscale>
<asrwt>0</asrwt>
<pdfrwt beam="1">  1        2 0.18440069E+00 0.22886690E+04</pdfrwt>
<pdfrwt beam="2">  1       -2 0.16808026E+00 0.22886690E+04</pdfrwt>
<totfact> 0.37882623E+00</totfact>
</mgrwt>
</event>
<event>
 6    1  0.3017327E-006  0.4807823E+04  0.7818608E-02  0.7858856E-01
          2   -1    0    0  501    0  0.00000000000E+00  0.00000000000E+00  0.36184060972E+04  0.36184060972E+04  0.00000000000E+00 0.  1.
         -2   -1    0    0    0  501 -0.00000000000E+00 -0.00000000000E+00 -0.15970539866E+04  0.15970539866E+04  0.00000000000E+00 0. -1.
         23    2    1    2    0    0 -0.23530831833E+03 -0.11319683411E+04  0.32962874895E+04  0.34943608566E+04  0.91237343501E+02 0.  0.
         13    1    3    3    0    0 -0.52202189378E+02 -0.15439060412E+03  0.54367667223E+03  0.56757893825E+03  0.00000000000E+00 0. -1.
        -13    1    3    3    0    0 -0.18310612895E+03 -0.97757773694E+03  0.27526108172E+04  0.29267819183E+04  0.00000000000E+00 0.  1.
         22    1    1    2    0    0  0.23530831833E+03  0.11319683411E+04 -0.12749353788E+04  0.17210992272E+04  0.00000000000E+00 0. -1.
<mgrwt>
<rscale>  0 0.48078227E+04</rscale>
<asrwt>0</asrwt>
<pdfrwt beam="1">  1        2 0.55667786E+00 0.48078227E+04</pdfrwt>
<pdfrwt beam="2">  1       -2 0.24570061E+00 0.48078227E+04</pdfrwt>
<totfact> 0.33726755E-02</totfact>
</mgrwt>
</event>
<event>
 6    1  0.3017327E-006  0.9265934E+03  0.7818608E-02  0.9392936E-01
         -2   -1    0    0    0  501 -0.00000000000E+00  0.00000000000E+00  0.61341041692E+03  0.61341041692E+03  0.00000000000E+00 0.  1.
          2   -1    0    0  501    0  0.00000000000E+00 -0.00000000000E+00 -0.34991877532E+03  0.34991877532E+03  0.00000000000E+00 0. -1.
         23    2    1    2    0    0  0.38985255353E+03 -0.50173536114E+02 -0.11309805863E+03  0.41897434516E+03  0.90807124282E+02 0.  0.
         13    1    3    3    0    0  0.14259273191E+03 -0.21810733144E+02 -0.87657033373E+02  0.16879618116E+03  0.00000000000E+00 0.  1.
        -13    1    3    3    0    0  0.24725982162E+03 -0.28362802971E+02 -0.25441025260E+02  0.25017816401E+03  0.00000000000E+00 0. -1.
         22    1    1    2    0    0 -0.38985255353E+03  0.50173536114E+02  0.37658970024E+03  0.54435484708E+03  0.00000000000E+00 0.  1.
<mgrwt>
<rscale>  0 0.92659338E+03</rscale>
<asrwt>0</asrwt>
<pdfrwt beam="1">  1        2 0.53833658E-01 0.92659338E+03</pdfrwt>
<pdfrwt beam="2">  1       -2 0.94370833E-01 0.92659338E+03</pdfrwt>
<totfact> 0.87706619E+01</totfact>
</mgrwt>
</event>
<event>
 6    1  0.3017327E-006  0.1989785E+04  0.7818608E-02  0.8611412E-01
         -2   -1    0    0    0  501 -0.00000000000E+00  0.00000000000E+00  0.11884331833E+04  0.11884331833E+04  0.00000000000E+00 0.  1.
          2   -1    0    0  501    0  0.00000000000E+00 -0.00000000000E+00 -0.83287024992E+03  0.83287024992E+03  0.00000000000E+00 0. -1.
         23    2    1    2    0    0  0.90404436282E+03 -0.59582851001E+02  0.59039604782E+03  0.10853585002E+04  0.92678231196E+02 0.  0.
         13    1    3    3    0    0  0.37955740776E+03 -0.32655005017E+02  0.19492306029E+03  0.42793127319E+03  0.00000000000E+00 0.  1.
        -13    1    3    3    0    0  0.52448695506E+03 -0.26927845984E+02  0.39547298753E+03  0.65742722699E+03  0.00000000000E+00 0. -1.
         22    1    1    2    0    0 -0.90404436282E+03  0.59582851001E+02 -0.23483311444E+03  0.93594493306E+03  0.00000000000E+00 0. -1.
<mgrwt>
<rscale>  0 0.19897846E+04</rscale>
<asrwt>0</asrwt>
<pdfrwt beam="1">  1        2 0.12813388E+00 0.19897846E+04</pdfrwt>
<pdfrwt beam="2">  1       -2 0.18283587E+00 0.19897846E+04</pdfrwt>
<totfact> 0.52573715E+00</totfact>
</mgrwt>
</event>
<event>
 6    1  0.3017327E-006  0.4186289E+04  0.7818608E-02  0.7967986E-01
         -2   -1    0    0    0  501 -0.00000000000E+00  0.00000000000E+00  0.36187705271E+04  0.36187705271E+04  0.00000000000E+00 0.  1.
          2   -1    0    0  501    0  0.00000000000E+00 -0.00000000000E+00 -0.12107021628E+04  0.12107021628E+04  0.00000000000E+00 0. -1.
         23    2    1    2    0    0 -0.16197277032E+04 -0.45220014510E+03 -0.23119543391E+03  0.16999813255E+04  0.92099807566E+02 0.  0.
         13    1    3    3    0    0 -0.95480093696E+03 -0.24165673233E+03 -0.96431498415E+02  0.98961701652E+03  0.00000000000E+00 0. -1.
        -13    1    3    3    0    0 -0.66492676622E+03 -0.21054341277E+03 -0.13476393549E+03  0.71036430894E+03  0.00000000000E+00 0.  1.
         22    1    1    2    0    0  0.16197277032E+04  0.45220014510E+03  0.26392637982E+04  0.31294913645E+04  0.00000000000E+00 0.  1.
<mgrwt>
<rscale>  0 0.41862887E+04</rscale>
<asrwt>0</asrwt>
<pdfrwt beam="1">  1        2 0.18626187E+00 0.41862887E+04</pdfrwt>
<pdfrwt beam="2">  1       -2 0.55673392E+00 0.41862887E+04</pdfrwt>
<totfact> 0.11475915E-02</totfact>
</mgrwt>
</event>
<event>
 6    1  0.3017327E-006  0.1852568E+04  0.7818608E-02  0.8678833E-01
         -2   -1    0    0    0  501 -0.00000000000E+00  0.00000000000E+00  0.19973037727E+04  0.19973037727E+04  0.00000000000E+00 0.  1.
          2   -1    0    0  501    0  0.00000000000E+00 -0.00000000000E+00 -0.42957999913E+03  0.42957999913E+03  0.00000000000E+00 0. -1.
         23    2    1    2    0    0 -0.70527072169E+03 -0.39886502235E+03  0.20351558554E+03  0.84020041426E+03  0.89543540446E+02 0.  0.
         11    1    3    3    0    0 -0.53330564153E+03 -0.28661307487E+03  0.11355319540E+03  0.61600023552E+03  0.00000000000E+00 0.  1.
        -11    1    3    3    0    0 -0.17196508016E+03 -0.11225194748E+03  0.89962390134E+02  0.22420017873E+03  0.00000000000E+00 0. -1.
         22    1    1    2    0    0  0.70527072169E+03  0.39886502235E+03  0.13642081880E+04  0.15866833576E+04  0.00000000000E+00 0. -1.
<mgrwt>
<rscale>  0 0.18525677E+04</rscale>
<asrwt>0</asrwt>
<pdfrwt beam="1">  1        2 0.66089232E-01 0.18525677E+04</pdfrwt>
<pdfrwt beam="2">  1       -2 0.30727750E+00 0.18525677E+04</pdfrwt>
<totfact> 0.19807866E+00</totfact>
</mgrwt>
</event>
<event>
 6    1  0.3017327E-006  0.1798864E+04  0.7818608E-02  0.8706904E-01
          2   -1    0    0  501    0  0.00000000000E+00  0.00000000000E+00  0.76412978847E+03  0.76412978847E+03  0.00000000000E+00 0. -1.
         -2   -1    0    0    0  501 -0.00000000000E+00 -0.00000000000E+00 -0.10586922674E+04  0.10586922674E+04  0.00000000000E+00 0.  1.
         23    2    1    2    0    0  0.47960987992E+03 -0.88128659810E+02  0.61556317151E+03  0.79029070178E+03  0.88595020184E+02 0.  0.
         13    1    3    3    0    0  0.18984246119E+03 -0.58074965931E+02  0.30990248221E+03  0.36803859881E+03  0.00000000000E+00 0. -1.
        -13    1    3    3    0    0  0.28976741873E+03 -0.30053693879E+02  0.30566068931E+03  0.42225210297E+03  0.00000000000E+00 0.  1.
         22    1    1    2    0    0 -0.47960987992E+03  0.88128659810E+02 -0.91012565041E+03  0.10325313541E+04  0.00000000000E+00 0.  1.
<mgrwt>
<rscale>  0 0.17988644E+04</rscale>
<asrwt>0</asrwt>
<pdfrwt beam="1">  1        2 0.11755843E+00 0.17988644E+04</pdfrwt>
<pdfrwt beam="2">  1       -2 0.16287573E+00 0.17988644E+04</pdfrwt>
<totfact> 0.82856805E+00</totfact>
</mgrwt>
</event>
<event>
 6    1  0.3017327E-006  0.1539926E+04  0.7818608E-02  0.8858328E-01
         -2   -1    0    0    0  501 -0.00000000000E+00  0.00000000000E+00  0.11952064467E+04  0.11952064467E+04  0.00000000000E+00 0.  1.
          2   -1    0    0  501    0  0.00000000000E+00 -0.00000000000E+00 -0.49601752196E+03  0.49601752196E+03  0.00000000000E+00 0. -1.
         23    2    1    2    0    0  0.93867803455E+02  0.39958221141E+03 -0.36092053143E+03  0.55442619981E+03  0.92992864405E+02 0.  0.
         13    1    3    3    0    0  0.14906948043E+02  0.25714413788E+03 -0.23318123761E+03  0.34744613153E+03  0.00000000000E+00 0. -1.
        -13    1    3    3    0    0  0.78960855412E+02  0.14243807353E+03 -0.12773929382E+03  0.20698006828E+03  0.00000000000E+00 0.  1.
         22    1    1    2    0    0 -0.93867803455E+02 -0.39958221141E+03  0.10601094561E+04  0.11367977688E+04  0.00000000000E+00 0.  1.
<mgrwt>
<rscale>  0 0.15399264E+04</rscale>
<asrwt>0</asrwt>
<pdfrwt beam="1">  1        2 0.76310388E-01 0.15399264E+04</pdfrwt>
<pdfrwt beam="2">  1       -2 0.18387791E+00 0.15399264E+04</pdfrwt>
<totfact> 0.10199513E+01</totfact>
</mgrwt>
</event>
<event>
 6    1  0.3017327E-006  0.3748068E+04  0.7818608E-02  0.8057392E-01
          2   -1    0    0  501    0  0.00000000000E+00  0.00000000000E+00  0.36079850893E+04  0.36079850893E+04  0.00000000000E+00 0.  1.
         -2   -1    0    0    0  501 -0.00000000000E+00 -0.00000000000E+00 -0.97339741101E+03  0.97339741101E+03  0.00000000000E+00 0. -1.
         23    2    1    2    0    0 -0.16331656301E+04  0.61736759121E+02  0.24362672590E+04  0.29350616350E+04  0.90262070804E+02 0.  0.
         13    1    3    3    0    0 -0.91244562332E+03  0.38498750509E+02  0.12808810204E+04  0.15731164476E+04  0.00000000000E+00 0. -1.
        -13    1    3    3    0    0 -0.72072000675E+03  0.23238008612E+02  0.11553862386E+04  0.13619451874E+04  0.00000000000E+00 0.  1.
         22    1    1    2    0    0  0.16331656301E+04 -0.61736759121E+02  0.19832041922E+03  0.16463208652E+04  0.00000000000E+00 0.  1.
<mgrwt>
<rscale>  0 0.37480680E+04</rscale>
<asrwt>0</asrwt>
<pdfrwt beam="1">  1        2 0.55507462E+00 0.37480680E+04</pdfrwt>
<pdfrwt beam="2">  1       -2 0.14975345E+00 0.37480680E+04</pdfrwt>
<totfact> 0.16475712E-01</totfact>
</mgrwt>
</event>
<event>
 6    1  0.3017327E-006  0.2440754E+04  0.7818608E-02  0.8424402E-01
          4   -1    0    0  501    0  0.00000000000E+00  0.00000000000E+00  0.14495590698E+04  0.14495590698E+04  0.00000000000E+00 0. -1.
         -4   -1    0    0    0  501 -0.00000000000E+00 -0.00000000000E+00 -0.10274295600E+04  0.10274295600E+04  0.00000000000E+00 0.  1.
         23    2    1    2    0    0 -0.97410280019E+03 -0.18840338876E+03 -0.50625227879E+03  0.11182153420E+04  0.98701971353E+02 0.  0.
         13    1    3    3    0    0 -0.28133684294E+03 -0.10040783670E+03 -0.15041488789E+03  0.33444998336E+03  0.00000000000E+00 0.  1.
        -13    1    3    3    0    0 -0.69276595724E+03 -0.87995552060E+02 -0.35583739090E+03  0.78376535867E+03  0.00000000000E+00 0. -1.
         22    1    1    2    0    0  0.97410280019E+03  0.18840338876E+03  0.92838178853E+03  0.13587732877E+04  0.00000000000E+00 0. -1.
<mgrwt>
<rscale>  0 0.24407538E+04</rscale>
<asrwt>0</asrwt>
<pdfrwt beam="1">  1        4 0.22300909E+00 0.24407538E+04</pdfrwt>
<pdfrwt beam="2">  1       -4 0.15806609E+00 0.24407538E+04</pdfrwt>
<totfact> 0.43174542E-02</totfact>
</mgrwt>
</event>
<event>
 6    1  0.3017327E-006  0.3344269E+04  0.7818608E-02  0.8151722E-01
         -2   -1    0    0    0  501 -0.00000000000E+00  0.00000000000E+00  0.78726207320E+03  0.78726207320E+03  0.00000000000E+00 0.  1.
          2   -1    0    0  501    0  0.00000000000E+00 -0.00000000000E+00 -0.35515915758E+04  0.35515915758E+04  0.00000000000E+00 0. -1.
         23    2    1    2    0    0 -0.63503484144E+03 -0.88775368396E+03 -0.30245927775E+04  0.32167516815E+04  0.89185523401E+02 0.  0.
         11    1    3    3    0    0 -0.36375069092E+03 -0.46281112367E+03 -0.15240618780E+04  0.16337910849E+04  0.00000000000E+00 0.  1.
        -11    1    3    3    0    0 -0.27128415051E+03 -0.42494256029E+03 -0.15005308995E+04  0.15829605965E+04  0.00000000000E+00 0. -1.
         22    1    1    2    0    0  0.63503484144E+03  0.88775368396E+03  0.26026327489E+03  0.11221019675E+04  0.00000000000E+00 0.  1.
<mgrwt>
<rscale>  0 0.33442687E+04</rscale>
<asrwt>0</asrwt>
<pdfrwt beam="1">  1        2 0.54639870E+00 0.33442687E+04</pdfrwt>
<pdfrwt beam="2">  1       -2 0.12111724E+00 0.33442687E+04</pdfrwt>
<totfact> 0.32234534E-01</totfact>
</mgrwt>
</event>
<event>
 6    1  0.3017327E-006  0.3679847E+04  0.7818608E-02  0.8072443E-01
         -2   -1    0    0    0  501 -0.00000000000E+00  0.00000000000E+00  0.12497751281E+04  0.12497751281E+04  0.00000000000E+00 0.  1.
          2   -1    0    0  501    0  0.00000000000E+00 -0.00000000000E+00 -0.27087426109E+04  0.27087426109E+04  0.00000000000E+00 0. -1.
         23    2    1    2    0    0 -0.68457792030E+03 -0.56522324654E+03 -0.24621448226E+04  0.26189323471E+04  0.92332355034E+02 0.  0.
         13    1    3    3    0    0 -0.49106109499E+03 -0.35199820192E+03 -0.17044509901E+04  0.18083685772E+04  0.00000000000E+00 0.  1.
        -13    1    3    3    0    0 -0.19351682530E+03 -0.21322504462E+03 -0.75769383245E+03  0.81056376989E+03  0.00000000000E+00 0. -1.
         22    1    1    2    0    0  0.68457792030E+03  0.56522324654E+03  0.10031773397E+04  0.13395853920E+04  0.00000000000E+00 0.  1.
<mgrwt>
<rscale>  0 0.36798474E+04</rscale>
<asrwt>0</asrwt>
<pdfrwt beam="1">  1        2 0.41672963E+00 0.36798474E+04</pdfrwt>
<pdfrwt beam="2">  1       -2 0.19227310E+00 0.36798474E+04</pdfrwt>
<totfact> 0.31788236E-01</totfact>
</mgrwt>
</event>
<event>
 6    1  0.3017327E-006  0.3380175E+04  0.7818608E-02  0.8142789E-01
         -2   -1    0    0    0  501 -0.00000000000E+00  0.00000000000E+00  0.99836517458E+03  0.99836517458E+03  0.00000000000E+00 0.  1.
          2   -1    0    0  501    0  0.00000000000E+00 -0.00000000000E+00 -0.28610738230E+04  0.28610738230E+04  0.00000000000E+00 0. -1.
         23    2    1    2    0    0  0.52955071338E+03  0.14281559340E+04 -0.99146194091E+02  0.15291587869E+04  0.91887419031E+02 0.  0.
         13    1    3    3    0    0  0.29618154874E+03  0.77722268545E+03 -0.88946254739E+01  0.83179187719E+03  0.00000000000E+00 0. -1.
        -13    1    3    3    0    0  0.23336916463E+03  0.65093324860E+03 -0.90251568617E+02  0.69736690972E+03  0.00000000000E+00 0.  1.
         22    1    1    2    0    0 -0.52955071338E+03 -0.14281559340E+04 -0.17635624544E+04  0.23302802107E+04  0.00000000000E+00 0. -1.
<mgrwt>
<rscale>  0 0.33801754E+04</rscale>
<asrwt>0</asrwt>
<pdfrwt beam="1">  1        2 0.44016520E+00 0.33801754E+04</pdfrwt>
<pdfrwt beam="2">  1       -2 0.15359464E+00 0.33801754E+04</pdfrwt>
<totfact> 0.49521337E-01</totfact>
</mgrwt>
</event>
<event>
 6    1  0.3017327E-006  0.3284416E+04  0.7818608E-02  0.8166872E-01
         -2   -1    0    0    0  501 -0.00000000000E+00  0.00000000000E+00  0.10245639228E+04  0.10245639228E+04  0.00000000000E+00 0.  1.
          2   -1    0    0  501    0  0.00000000000E+00 -0.00000000000E+00 -0.26321901883E+04  0.26321901883E+04  0.00000000000E+00 0. -1.
         23    2    1    2    0    0  0.11137248902E+04 -0.89642603498E+03 -0.17011494512E+04  0.22240261698E+04  0.91761547221E+02 0.  0.
         13    1    3    3    0    0  0.80655675152E+03 -0.60188173786E+03 -0.12262937738E+04  0.15863769538E+04  0.00000000000E+00 0. -1.
        -13    1    3    3    0    0  0.30716813871E+03 -0.29454429712E+03 -0.47485567730E+03  0.63764921600E+03  0.00000000000E+00 0.  1.
         22    1    1    2    0    0 -0.11137248902E+04  0.89642603498E+03  0.93523185652E+02  0.14327279412E+04  0.00000000000E+00 0.  1.
<mgrwt>
<rscale>  0 0.32844160E+04</rscale>
<asrwt>0</asrwt>
<pdfrwt beam="1">  1        2 0.40495233E+00 0.32844160E+04</pdfrwt>
<pdfrwt beam="2">  1       -2 0.15762522E+00 0.32844160E+04</pdfrwt>
<totfact> 0.63894187E-01</totfact>
</mgrwt>
</event>
<event>
 6    1  0.3017327E-006  0.8248929E+03  0.7818608E-02  0.9524669E-01
          2   -1    0    0  501    0  0.00000000000E+00  0.00000000000E+00  0.22970388914E+04  0.22970388914E+04  0.00000000000E+00 0. -1.
         -2   -1    0    0    0  501 -0.00000000000E+00 -0.00000000000E+00 -0.74057116142E+02  0.74057116142E+02  0.00000000000E+00 0.  1.
         23    2    1    2    0    0 -0.20956705554E+03 -0.28437468469E+03  0.53963704311E+03  0.65108531010E+03  0.88975449812E+02 0.  0.
         13    1    3    3    0    0 -0.82444349554E+02 -0.10301683957E+03  0.28198151964E+03  0.31132477805E+03  0.00000000000E+00 0. -1.
        -13    1    3    3    0    0 -0.12712270599E+03 -0.18135784512E+03  0.25765552347E+03  0.33976053205E+03  0.00000000000E+00 0.  1.
         22    1    1    2    0    0  0.20956705554E+03  0.28437468469E+03  0.16833447322E+04  0.17200106975E+04  0.00000000000E+00 0.  1.
<mgrwt>
<rscale>  0 0.82489290E+03</rscale>
<asrwt>0</asrwt>
<pdfrwt beam="1">  1        2 0.35339054E+00 0.82489290E+03</pdfrwt>
<pdfrwt beam="2">  1       -2 0.11393404E-01 0.82489290E+03</pdfrwt>
<totfact> 0.25863742E+02</totfact>
</mgrwt>
</event>
<event>
 6    1  0.3017327E-006  0.2867025E+04  0.7818608E-02  0.8282757E-01
          2   -1    0    0  501    0  0.00000000000E+00  0.00000000000E+00  0.19882500925E+04  0.19882500925E+04  0.00000000000E+00 0. -1.
         -2   -1    0    0    0  501 -0.00000000000E+00 -0.00000000000E+00 -0.10335508569E+04  0.10335508569E+04  0.00000000000E+00 0.  1.
         23    2    1    2    0    0 -0.50396367292E+03 -0.83429300344E+03 -0.62813976974E+03  0.11629293787E+04  0.88436250014E+02 0.  0.
         13    1    3    3    0    0 -0.28438573682E+03 -0.47071100134E+03 -0.40619526797E+03  0.68369488064E+03  0.00000000000E+00 0.  1.
        -13    1    3    3    0    0 -0.21957793610E+03 -0.36358200210E+03 -0.22194450177E+03  0.47923449807E+03  0.00000000000E+00 0. -1.
         22    1    1    2    0    0  0.50396367292E+03  0.83429300344E+03  0.15828390053E+04  0.18588715706E+04  0.00000000000E+00 0. -1.
<mgrwt>
<rscale>  0 0.28670247E+04</rscale>
<asrwt>0</asrwt>
<pdfrwt beam="1">  1        2 0.30588463E+00 0.28670247E+04</pdfrwt>
<pdfrwt beam="2">  1       -2 0.15900782E+00 0.28670247E+04</pdfrwt>
<totfact> 0.15038891E+00</totfact>
</mgrwt>
</event>
<event>
 6    1  0.3017327E-006  0.2907247E+04  0.7818608E-02  0.8270724E-01
          2   -1    0    0  501    0  0.00000000000E+00  0.00000000000E+00  0.17686436799E+04  0.17686436799E+04  0.00000000000E+00 0.  1.
         -2   -1    0    0    0  501 -0.00000000000E+00 -0.00000000000E+00 -0.11947129965E+04  0.11947129965E+04  0.00000000000E+00 0. -1.
         23    2    1    2    0    0  0.73365240608E+03 -0.10233913160E+04  0.10248494067E+04  0.16258577665E+04  0.86726765352E+02 0.  0.
         13    1    3    3    0    0  0.52103243849E+03 -0.67957819410E+03  0.73397710337E+03  0.11278402866E+04  0.00000000000E+00 0. -1.
        -13    1    3    3    0    0  0.21261996758E+03 -0.34381312194E+03  0.29087230338E+03  0.49801747992E+03  0.00000000000E+00 0.  1.
         22    1    1    2    0    0 -0.73365240608E+03  0.10233913160E+04 -0.45091872339E+03  0.13374989098E+04  0.00000000000E+00 0.  1.
<mgrwt>
<rscale>  0 0.29072472E+04</rscale>
<asrwt>0</asrwt>
<pdfrwt beam="1">  1        2 0.27209903E+00 0.29072472E+04</pdfrwt>
<pdfrwt beam="2">  1       -2 0.18380200E+00 0.29072472E+04</pdfrwt>
<totfact> 0.13229124E+00</totfact>
</mgrwt>
</event>
<event>
 6    1  0.3017327E-006  0.1896831E+04  0.7818608E-02  0.8656435E-01
          2   -1    0    0  501    0  0.00000000000E+00  0.00000000000E+00  0.11681909252E+04  0.11681909252E+04  0.00000000000E+00 0. -1.
         -2   -1    0    0    0  501 -0.00000000000E+00 -0.00000000000E+00 -0.76998748822E+03  0.76998748822E+03  0.00000000000E+00 0.  1.
         23    2    1    2    0    0 -0.30157798036E+03  0.86441222208E+03  0.44416202452E+03  0.10215160112E+04  0.89762404135E+02 0.  0.
         13    1    3    3    0    0 -0.11314515507E+03  0.38925945932E+03  0.15320289377E+03  0.43335421937E+03  0.00000000000E+00 0. -1.
        -13    1    3    3    0    0 -0.18843282529E+03  0.47515276276E+03  0.29095913074E+03  0.58816179183E+03  0.00000000000E+00 0.  1.
         22    1    1    2    0    0  0.30157798036E+03 -0.86441222208E+03 -0.45958587521E+02  0.91666240224E+03  0.00000000000E+00 0. -1.
<mgrwt>
<rscale>  0 0.18968315E+04</rscale>
<asrwt>0</asrwt>
<pdfrwt beam="1">  1        2 0.17972168E+00 0.18968315E+04</pdfrwt>
<pdfrwt beam="2">  1       -2 0.11845961E+00 0.18968315E+04</pdfrwt>
<totfact> 0.10168897E+01</totfact>
</mgrwt>
</event>
<event>
 6    1  0.3017327E-006  0.1681510E+04  0.7818608E-02  0.8771981E-01
          2   -1    0    0  501    0  0.00000000000E+00  0.00000000000E+00  0.95657564592E+03  0.95657564592E+03  0.00000000000E+00 0. -1.
         -2   -1    0    0    0  501 -0.00000000000E+00 -0.00000000000E+00 -0.73895774528E+03  0.73895774528E+03  0.00000000000E+00 0.  1.
         23    2    1    2    0    0  0.30361832329E+03  0.10836315110E+03  0.89028820813E+03  0.94960309866E+03  0.72154644354E+02 0.  0.
         11    1    3    3    0    0  0.92567200535E+02  0.57226050901E+02  0.22840971601E+03  0.25301088096E+03  0.00000000000E+00 0.  1.
        -11    1    3    3    0    0  0.21105112275E+03  0.51137100202E+02  0.66187849213E+03  0.69659221771E+03  0.00000000000E+00 0. -1.
         22    1    1    2    0    0 -0.30361832329E+03 -0.10836315110E+03 -0.67267030748E+03  0.74593029254E+03  0.00000000000E+00 0.  1.
<mgrwt>
<rscale>  0 0.16815100E+04</rscale>
<asrwt>0</asrwt>
<pdfrwt beam="1">  1        2 0.14716549E+00 0.16815100E+04</pdfrwt>
<pdfrwt beam="2">  1       -2 0.11368581E+00 0.16815100E+04</pdfrwt>
<totfact> 0.15535192E+01</totfact>
</mgrwt>
</event>
<event>
 6    1  0.3017327E-006  0.1415758E+04  0.7818608E-02  0.8942490E-01
          2   -1    0    0  501    0  0.00000000000E+00  0.00000000000E+00  0.10507596695E+04  0.10507596695E+04  0.00000000000E+00 0. -1.
         -2   -1    0    0    0  501 -0.00000000000E+00 -0.00000000000E+00 -0.47688635709E+03  0.47688635709E+03  0.00000000000E+00 0.  1.
         23    2    1    2    0    0 -0.13610377255E+03 -0.20844402473E+03 -0.42351088266E+03  0.49966335119E+03  0.91262524864E+02 0.  0.
         13    1    3    3    0    0 -0.77664070748E+02 -0.58257464040E+02 -0.21687931475E+03  0.23761792266E+03  0.00000000000E+00 0. -1.
        -13    1    3    3    0    0 -0.58439701802E+02 -0.15018656069E+03 -0.20663156791E+03  0.26204542854E+03  0.00000000000E+00 0.  1.
         22    1    1    2    0    0  0.13610377255E+03  0.20844402473E+03  0.99738419508E+03  0.10279826754E+04  0.00000000000E+00 0. -1.
<mgrwt>
<rscale>  0 0.14157584E+04</rscale>
<asrwt>0</asrwt>
<pdfrwt beam="1">  1        2 0.16165533E+00 0.14157584E+04</pdfrwt>
<pdfrwt beam="2">  1       -2 0.73367132E-01 0.14157584E+04</pdfrwt>
<totfact> 0.38120631E+01</totfact>
</mgrwt>
</event>
<event>
 6    1  0.3017327E-006  0.1210997E+04  0.7818608E-02  0.9103285E-01
         -2   -1    0    0    0  501 -0.00000000000E+00  0.00000000000E+00  0.51149216155E+03  0.51149216155E+03  0.00000000000E+00 0.  1.
          2   -1    0    0  501    0  0.00000000000E+00 -0.00000000000E+00 -0.71678211373E+03  0.71678211373E+03  0.00000000000E+00 0. -1.
         23    2    1    2    0    0 -0.23870927842E+03 -0.88290834759E+02  0.45017115274E+03  0.52513371239E+03  0.91290514360E+02 0.  0.
         13    1    3    3    0    0 -0.10764885914E+03 -0.34344460263E+02  0.29013293781E+03  0.31135982468E+03  0.00000000000E+00 0.  1.
        -13    1    3    3    0    0 -0.13106041928E+03 -0.53946374496E+02  0.16003821494E+03  0.21377388770E+03  0.00000000000E+00 0. -1.
         22    1    1    2    0    0  0.23870927842E+03  0.88290834759E+02 -0.65546110492E+03  0.70314056289E+03  0.00000000000E+00 0. -1.
<mgrwt>
<rscale>  0 0.12109970E+04</rscale>
<asrwt>0</asrwt>
<pdfrwt beam="1">  1        2 0.11027417E+00 0.12109970E+04</pdfrwt>
<pdfrwt beam="2">  1       -2 0.78691102E-01 0.12109970E+04</pdfrwt>
<totfact> 0.56260871E+01</totfact>
</mgrwt>
</event>
<event>
 6    1  0.3017327E-006  0.2737325E+04  0.7818608E-02  0.8322995E-01
          2   -1    0    0  501    0  0.00000000000E+00  0.00000000000E+00  0.11571009552E+04  0.11571009552E+04  0.00000000000E+00 0. -1.
         -2   -1    0    0    0  501 -0.00000000000E+00 -0.00000000000E+00 -0.16189048732E+04  0.16189048732E+04  0.00000000000E+00 0.  1.
         23    2    1    2    0    0 -0.94265008856E+03  0.98621227177E+03 -0.14121296249E+03  0.13745842661E+04  0.91307006974E+02 0.  0.
         11    1    3    3    0    0 -0.19382207978E+03  0.17548647334E+03 -0.57959654448E+02  0.26780930245E+03  0.00000000000E+00 0.  1.
        -11    1    3    3    0    0 -0.74882800878E+03  0.81072579843E+03 -0.83253308045E+02  0.11067749637E+04  0.00000000000E+00 0. -1.
         22    1    1    2    0    0  0.94265008856E+03 -0.98621227177E+03 -0.32059095552E+03  0.14014215623E+04  0.00000000000E+00 0.  1.
<mgrwt>
<rscale>  0 0.27373245E+04</rscale>
<asrwt>0</asrwt>
<pdfrwt beam="1">  1        2 0.17801553E+00 0.27373245E+04</pdfrwt>
<pdfrwt beam="2">  1       -2 0.24906229E+00 0.27373245E+04</pdfrwt>
<totfact> 0.11449111E+00</totfact>
</mgrwt>
</event>
<event>
 6    1  0.3017327E-006  0.4091178E+04  0.7818608E-02  0.7986401E-01
          2   -1    0    0  501    0  0.00000000000E+00  0.00000000000E+00  0.42997077528E+04  0.42997077528E+04  0.00000000000E+00 0. -1.
         -2   -1    0    0    0  501 -0.00000000000E+00 -0.00000000000E+00 -0.97319045857E+03  0.97319045857E+03  0.00000000000E+00 0.  1.
         23    2    1    2    0    0  0.16566584958E+04 -0.90783617261E+03  0.26720187465E+04  0.32736352879E+04  0.91213643698E+02 0.  0.
         13    1    3    3    0    0  0.15698102818E+04 -0.88230377268E+03  0.25458216549E+04  0.31183284251E+04  0.00000000000E+00 0. -1.
        -13    1    3    3    0    0  0.86848214050E+02 -0.25532399931E+02  0.12619709161E+03  0.15530686289E+03  0.00000000000E+00 0.  1.
         22    1    1    2    0    0 -0.16566584958E+04  0.90783617261E+03  0.65449854773E+03  0.19992629234E+04  0.00000000000E+00 0.  1.
<mgrwt>
<rscale>  0 0.40911781E+04</rscale>
<asrwt>0</asrwt>
<pdfrwt beam="1">  1        2 0.66149349E+00 0.40911781E+04</pdfrwt>
<pdfrwt beam="2">  1       -2 0.14972161E+00 0.40911781E+04</pdfrwt>
<totfact> 0.44495519E-02</totfact>
</mgrwt>
</event>
<event>
 6    1  0.3017327E-006  0.6635762E+03  0.7818608E-02  0.9781633E-01
          2   -1    0    0  501    0  0.00000000000E+00  0.00000000000E+00  0.36033793710E+03  0.36033793710E+03  0.00000000000E+00 0. -1.
         -2   -1    0    0    0  501 -0.00000000000E+00 -0.00000000000E+00 -0.30550031454E+03  0.30550031454E+03  0.00000000000E+00 0.  1.
         23    2    1    2    0    0  0.24361283723E+03  0.70934369976E+02  0.23241376237E+03  0.35614132765E+03  0.91878120434E+02 0.  0.
         13    1    3    3    0    0  0.98220672435E+02  0.59400681434E+02  0.14912534172E+03  0.18818636771E+03  0.00000000000E+00 0. -1.
        -13    1    3    3    0    0  0.14539216479E+03  0.11533688542E+02  0.83288420653E+02  0.16795495994E+03  0.00000000000E+00 0.  1.
         22    1    1    2    0    0 -0.24361283723E+03 -0.70934369976E+02 -0.17757613980E+03  0.30969692399E+03  0.00000000000E+00 0.  1.
<mgrwt>
<rscale>  0 0.66357623E+03</rscale>
<asrwt>0</asrwt>
<pdfrwt beam="1">  1        2 0.55436606E-01 0.66357623E+03</pdfrwt>
<pdfrwt beam="2">  1       -2 0.47000048E-01 0.66357623E+03</pdfrwt>
<totfact> 0.38727993E+02</totfact>
</mgrwt>
</event>
<event>
 6    1  0.3017327E-006  0.7410632E+03  0.7818608E-02  0.9649476E-01
         -2   -1    0    0    0  501 -0.00000000000E+00  0.00000000000E+00  0.12724043753E+03  0.12724043753E+03  0.00000000000E+00 0. -1.
          2   -1    0    0  501    0  0.00000000000E+00 -0.00000000000E+00 -0.10790096035E+04  0.10790096035E+04  0.00000000000E+00 0.  1.
         23    2    1    2    0    0  0.27758394867E+03  0.45162159375E+02 -0.10564531733E+03  0.31461220175E+03  0.93420742992E+02 0.  0.
         11    1    3    3    0    0  0.98953859333E+02  0.61548974376E+02 -0.49917229485E+02  0.12677488838E+03  0.00000000000E+00 0. -1.
        -11    1    3    3    0    0  0.17863008933E+03 -0.16386815001E+02 -0.55728087848E+02  0.18783731338E+03  0.00000000000E+00 0.  1.
         22    1    1    2    0    0 -0.27758394867E+03 -0.45162159375E+02 -0.84612384863E+03  0.89163783927E+03  0.00000000000E+00 0.  1.
<mgrwt>
<rscale>  0 0.74106317E+03</rscale>
<asrwt>0</asrwt>
<pdfrwt beam="1">  1        2 0.16600148E+00 0.74106317E+03</pdfrwt>
<pdfrwt beam="2">  1       -2 0.19575452E-01 0.74106317E+03</pdfrwt>
<totfact> 0.50082166E+02</totfact>
</mgrwt>
</event>
<event>
 6    1  0.3017327E-006  0.9003000E+03  0.7818608E-02  0.9425206E-01
         -2   -1    0    0    0  501 -0.00000000000E+00  0.00000000000E+00  0.28439854026E+03  0.28439854026E+03  0.00000000000E+00 0.  1.
          2   -1    0    0  501    0  0.00000000000E+00 -0.00000000000E+00 -0.71250379773E+03  0.71250379773E+03  0.00000000000E+00 0. -1.
         23    2    1    2    0    0 -0.41328252079E+03  0.64062444075E+02 -0.48057379319E+02  0.43179807467E+03  0.96091762633E+02 0.  0.
         13    1    3    3    0    0 -0.72854092396E+02 -0.24515813121E+02 -0.16520627429E+02  0.78623628780E+02  0.00000000000E+00 0. -1.
        -13    1    3    3    0    0 -0.34042842840E+03  0.88578257195E+02 -0.31536751891E+02  0.35317444589E+03  0.00000000000E+00 0.  1.
         22    1    1    2    0    0  0.41328252079E+03 -0.64062444075E+02 -0.38004787815E+03  0.56510426332E+03  0.00000000000E+00 0. -1.
<mgrwt>
<rscale>  0 0.90030004E+03</rscale>
<asrwt>0</asrwt>
<pdfrwt beam="1">  1        2 0.10961597E+00 0.90030004E+03</pdfrwt>
<pdfrwt beam="2">  1       -2 0.43753621E-01 0.90030004E+03</pdfrwt>
<totfact> 0.19897482E+02</totfact>
</mgrwt>
</event>
<event>
 6    1  0.3017327E-006  0.1239866E+04  0.7818608E-02  0.9078660E-01
          2   -1    0    0  501    0  0.00000000000E+00  0.00000000000E+00  0.28030087918E+04  0.28030087918E+04  0.00000000000E+00 0. -1.
         -2   -1    0    0    0  501 -0.00000000000E+00 -0.00000000000E+00 -0.13710873400E+03  0.13710873400E+03  0.00000000000E+00 0.  1.
         23    2    1    2    0    0 -0.38687867970E+03 -0.29437772885E+03  0.22395058671E+04  0.22934759203E+04  0.91169668371E+02 0.  0.
         11    1    3    3    0    0 -0.24438196024E+03 -0.12919837344E+03  0.12383698230E+04  0.12688477374E+04  0.00000000000E+00 0. -1.
        -11    1    3    3    0    0 -0.14249671946E+03 -0.16517935542E+03  0.10011360441E+04  0.10246281829E+04  0.00000000000E+00 0.  1.
         22    1    1    2    0    0  0.38687867970E+03  0.29437772885E+03  0.42639419076E+03  0.64664160550E+03  0.00000000000E+00 0.  1.
<mgrwt>
<rscale>  0 0.12398661E+04</rscale>
<asrwt>0</asrwt>
<pdfrwt beam="1">  1        2 0.43123208E+00 0.12398661E+04</pdfrwt>
<pdfrwt beam="2">  1       -2 0.21093654E-01 0.12398661E+04</pdfrwt>
<totfact> 0.44532504E+01</totfact>
</mgrwt>
</event>
<event>
 6    1  0.3017327E-006  0.2252610E+04  0.7818608E-02  0.8496844E-01
          2   -1    0    0  501    0  0.00000000000E+00  0.00000000000E+00  0.12652674437E+04  0.12652674437E+04  0.00000000000E+00 0. -1.
         -2   -1    0    0    0  501 -0.00000000000E+00 -0.00000000000E+00 -0.10026042094E+04  0.10026042094E+04  0.00000000000E+00 0.  1.
         23    2    1    2    0    0  0.91229615127E+03 -0.51192343766E+02  0.79139365852E+03  0.12121914054E+04  0.90549196663E+02 0.  0.
         11    1    3    3    0    0  0.21574191649E+03  0.23893500874E+02  0.20538456842E+03  0.29882820292E+03  0.00000000000E+00 0. -1.
        -11    1    3    3    0    0  0.69655423478E+03 -0.75085844640E+02  0.58600909010E+03  0.91336320253E+03  0.00000000000E+00 0.  1.
         22    1    1    2    0    0 -0.91229615127E+03  0.51192343766E+02 -0.52873042425E+03  0.10556802476E+04  0.00000000000E+00 0.  1.
<mgrwt>
<rscale>  0 0.22526096E+04</rscale>
<asrwt>0</asrwt>
<pdfrwt beam="1">  1        2 0.19465653E+00 0.22526096E+04</pdfrwt>
<pdfrwt beam="2">  1       -2 0.15424680E+00 0.22526096E+04</pdfrwt>
<totfact> 0.43859718E+00</totfact>
</mgrwt>
</event>
<event>
 6    1  0.3017327E-006  0.1966589E+04  0.7818608E-02  0.8622403E-01
         -2   -1    0    0    0  501 -0.00000000000E+00  0.00000000000E+00  0.42465008736E+03  0.42465008736E+03  0.00000000000E+00 0.  1.
          2   -1    0    0  501    0  0.00000000000E+00 -0.00000000000E+00 -0.22768574120E+04  0.22768574120E+04  0.00000000000E+00 0. -1.
         23    2    1    2    0    0 -0.52571140525E+03  0.70557456910E+03 -0.15243289491E+04  0.17625121941E+04  0.93072740691E+02 0.  0.
         13    1    3    3    0    0 -0.37143575259E+03  0.44854375014E+03 -0.10694746600E+04  0.12177569800E+04  0.00000000000E+00 0. -1.
        -13    1    3    3    0    0 -0.15427565266E+03  0.25703081897E+03 -0.45485428912E+03  0.54475521404E+03  0.00000000000E+00 0.  1.
         22    1    1    2    0    0  0.52571140525E+03 -0.70557456910E+03 -0.32787837554E+03  0.93899530527E+03  0.00000000000E+00 0.  1.
<mgrwt>
<rscale>  0 0.19665886E+04</rscale>
<asrwt>0</asrwt>
<pdfrwt beam="1">  1        2 0.35028576E+00 0.19665886E+04</pdfrwt>
<pdfrwt beam="2">  1       -2 0.65330782E-01 0.19665886E+04</pdfrwt>
<totfact> 0.94013929E+00</totfact>
</mgrwt>
</event>
<event>
 6    1  0.3017327E-006  0.1200504E+04  0.7818608E-02  0.9112415E-01
          2   -1    0    0  501    0  0.00000000000E+00  0.00000000000E+00  0.32634888244E+04  0.32634888244E+04  0.00000000000E+00 0. -1.
         -2   -1    0    0    0  501 -0.00000000000E+00 -0.00000000000E+00 -0.11040415581E+03  0.11040415581E+03  0.00000000000E+00 0.  1.
         23    2    1    2    0    0  0.48733850700E+03  0.33223458946E+03  0.18395469528E+04  0.19340110497E+04  0.92666640179E+02 0.  0.
         13    1    3    3    0    0  0.20933949644E+03  0.10690943457E+03  0.84319055263E+03  0.87534162475E+03  0.00000000000E+00 0. -1.
        -13    1    3    3    0    0  0.27799901056E+03  0.22532515489E+03  0.99635640012E+03  0.10586694250E+04  0.00000000000E+00 0.  1.
         22    1    1    2    0    0 -0.48733850700E+03 -0.33223458946E+03  0.13135377158E+04  0.14398819305E+04  0.00000000000E+00 0.  1.
<mgrwt>
<rscale>  0 0.12005044E+04</rscale>
<asrwt>0</asrwt>
<pdfrwt beam="1">  1        2 0.50207513E+00 0.12005044E+04</pdfrwt>
<pdfrwt beam="2">  1       -2 0.16985257E-01 0.12005044E+04</pdfrwt>
<totfact> 0.33676671E+01</totfact>
</mgrwt>
</event>
<event>
 6    1  0.3017327E-006  0.7529283E+03  0.7818608E-02  0.9630767E-01
          2   -1    0    0  501    0  0.00000000000E+00  0.00000000000E+00  0.22217833433E+04  0.22217833433E+04  0.00000000000E+00 0. -1.
         -2   -1    0    0    0  501 -0.00000000000E+00 -0.00000000000E+00 -0.63788967218E+02  0.63788967218E+02  0.00000000000E+00 0.  1.
         23    2    1    2    0    0 -0.77717769439E+02  0.33289254170E+03  0.15330220145E+04  0.15732185018E+04  0.89456478579E+02 0.  0.
         13    1    3    3    0    0 -0.66921316858E+02  0.10141625598E+03  0.54707721359E+03  0.56040806316E+03  0.00000000000E+00 0. -1.
        -13    1    3    3    0    0 -0.10796452581E+02  0.23147628572E+03  0.98594480092E+03  0.10128104387E+04  0.00000000000E+00 0.  1.
         22    1    1    2    0    0  0.77717769439E+02 -0.33289254170E+03  0.62497236158E+03  0.71235380868E+03  0.00000000000E+00 0. -1.
<mgrwt>
<rscale>  0 0.75292832E+03</rscale>
<asrwt>0</asrwt>
<pdfrwt beam="1">  1        2 0.34181276E+00 0.75292832E+03</pdfrwt>
<pdfrwt beam="2">  1       -2 0.98136890E-02 0.75292832E+03</pdfrwt>
<totfact> 0.36568765E+02</totfact>
</mgrwt>
</event>
<event>
 6    1  0.3017327E-006  0.2120251E+04  0.7818608E-02  0.8552375E-01
         -2   -1    0    0    0  501 -0.00000000000E+00  0.00000000000E+00  0.97322672812E+03  0.97322672812E+03  0.00000000000E+00 0.  1.
          2   -1    0    0  501    0  0.00000000000E+00 -0.00000000000E+00 -0.11547833779E+04  0.11547833779E+04  0.00000000000E+00 0. -1.
         23    2    1    2    0    0 -0.18298873680E+03 -0.43919713652E+03  0.85785124388E+03  0.98487941711E+03  0.87747974943E+02 0.  0.
         11    1    3    3    0    0 -0.78479048336E+02 -0.91052624176E+02  0.20389500227E+03  0.23669117717E+03  0.00000000000E+00 0. -1.
        -11    1    3    3    0    0 -0.10450968846E+03 -0.34814451234E+03  0.65395624161E+03  0.74818823994E+03  0.00000000000E+00 0.  1.
         22    1    1    2    0    0  0.18298873680E+03  0.43919713652E+03 -0.10394078937E+04  0.11431306889E+04  0.00000000000E+00 0. -1.
<mgrwt>
<rscale>  0 0.21202510E+04</rscale>
<asrwt>0</asrwt>
<pdfrwt beam="1">  1        2 0.17765898E+00 0.21202510E+04</pdfrwt>
<pdfrwt beam="2">  1       -2 0.14972719E+00 0.21202510E+04</pdfrwt>
<totfact> 0.55863939E+00</totfact>
</mgrwt>
</event>
<event>
 6    1  0.3017327E-006  0.2257355E+04  0.7818608E-02  0.8494928E-01
          2   -1    0    0  501    0  0.00000000000E+00  0.00000000000E+00  0.38583966228E+04  0.38583966228E+04  0.00000000000E+00 0. -1.
         -2   -1    0    0    0  501 -0.00000000000E+00 -0.00000000000E+00 -0.33016639131E+03  0.33016639131E+03  0.00000000000E+00 0.  1.
         23    2    1    2    0    0  0.12688484457E+03  0.79629146797E+03  0.30607039392E+03  0.86704319863E+03  0.88909822404E+02 0.  0.
         13    1    3    3    0    0  0.10071370286E+03  0.40198631209E+03  0.18420851192E+03  0.45350746512E+03  0.00000000000E+00 0. -1.
        -13    1    3    3    0    0  0.26171141705E+02  0.39430515587E+03  0.12186188200E+03  0.41353573351E+03  0.00000000000E+00 0.  1.
         22    1    1    2    0    0 -0.12688484457E+03 -0.79629146797E+03  0.32221598376E+04  0.33215198155E+04  0.00000000000E+00 0. -1.
<mgrwt>
<rscale>  0 0.22573550E+04</rscale>
<asrwt>0</asrwt>
<pdfrwt beam="1">  1        2 0.59359945E+00 0.22573550E+04</pdfrwt>
<pdfrwt beam="2">  1       -2 0.50794832E-01 0.22573550E+04</pdfrwt>
<totfact> 0.14843735E+00</totfact>
</mgrwt>
</event>
<event>
 6    1  0.3017327E-006  0.4705389E+04  0.7818608E-02  0.7875634E-01
          2   -1    0    0  501    0  0.00000000000E+00  0.00000000000E+00  0.44406217748E+04  0.44406217748E+04  0.00000000000E+00 0. -1.
         -2   -1    0    0    0  501 -0.00000000000E+00 -0.00000000000E+00 -0.12464856082E+04  0.12464856082E+04  0.00000000000E+00 0.  1.
         23    2    1    2    0    0  0.81837644619E+03 -0.64790046479E+03  0.41448375676E+04  0.42752475551E+04  0.92456344151E+02 0.  0.
         11    1    3    3    0    0  0.37566179550E+03 -0.29993297776E+03  0.17222669225E+04  0.17880953353E+04  0.00000000000E+00 0. -1.
        -11    1    3    3    0    0  0.44271465069E+03 -0.34796748702E+03  0.24225706451E+04  0.24871522198E+04  0.00000000000E+00 0.  1.
         22    1    1    2    0    0 -0.81837644619E+03  0.64790046479E+03 -0.95070140100E+03  0.14118598280E+04  0.00000000000E+00 0.  1.
<mgrwt>
<rscale>  0 0.47053889E+04</rscale>
<asrwt>0</asrwt>
<pdfrwt beam="1">  1        2 0.68317258E+00 0.47053889E+04</pdfrwt>
<pdfrwt beam="2">  1       -2 0.19176702E+00 0.47053889E+04</pdfrwt>
<totfact> 0.15656985E-02</totfact>
</mgrwt>
</event>
<event>
 6    1  0.3017327E-006  0.1175723E+04  0.7818608E-02  0.9134376E-01
          2   -1    0    0  501    0  0.00000000000E+00  0.00000000000E+00  0.16237285441E+04  0.16237285441E+04  0.00000000000E+00 0.  1.
         -2   -1    0    0    0  501 -0.00000000000E+00 -0.00000000000E+00 -0.21283182790E+03  0.21283182790E+03  0.00000000000E+00 0. -1.
         23    2    1    2    0    0 -0.43361635263E+03  0.24287387288E+03  0.22956556158E+03  0.55493868199E+03  0.90806025747E+02 0.  0.
         13    1    3    3    0    0 -0.35991388677E+03  0.23701708590E+03  0.18855380360E+03  0.47039094565E+03  0.00000000000E+00 0.  1.
        -13    1    3    3    0    0 -0.73702465859E+02  0.58567869770E+01  0.41011757983E+02  0.84547736340E+02  0.00000000000E+00 0. -1.
         22    1    1    2    0    0  0.43361635263E+03 -0.24287387288E+03  0.11813311546E+04  0.12816216900E+04  0.00000000000E+00 0.  1.
<mgrwt>
<rscale>  0 0.11757230E+04</rscale>
<asrwt>0</asrwt>
<pdfrwt beam="1">  1        2 0.24980438E+00 0.11757230E+04</pdfrwt>
<pdfrwt beam="2">  1       -2 0.32743359E-01 0.11757230E+04</pdfrwt>
<totfact> 0.92941013E+01</totfact>
</mgrwt>
</event>
<event>
 6    1  0.3017327E-006  0.3074539E+04  0.7818608E-02  0.8222761E-01
         -2   -1    0    0    0  501 -0.00000000000E+00  0.00000000000E+00  0.69588722254E+03  0.69588722254E+03  0.00000000000E+00 0.  1.
          2   -1    0    0  501    0  0.00000000000E+00 -0.00000000000E+00 -0.33959479562E+04  0.33959479562E+04  0.00000000000E+00 0. -1.
         23    2    1    2    0    0  0.12745361545E+04 -0.85180850913E+03 -0.14780442927E+04  0.21313902478E+04  0.90494816536E+02 0.  0.
         13    1    3    3    0    0  0.26367789597E+03 -0.14725544620E+03 -0.32893108654E+03  0.44654883155E+03  0.00000000000E+00 0. -1.
        -13    1    3    3    0    0  0.10108582585E+04 -0.70455306293E+03 -0.11491132062E+04  0.16848414163E+04  0.00000000000E+00 0.  1.
         22    1    1    2    0    0 -0.12745361545E+04  0.85180850913E+03 -0.12220164409E+04  0.19604449309E+04  0.00000000000E+00 0. -1.
<mgrwt>
<rscale>  0 0.30745385E+04</rscale>
<asrwt>0</asrwt>
<pdfrwt beam="1">  1        2 0.52245353E+00 0.30745385E+04</pdfrwt>
<pdfrwt beam="2">  1       -2 0.10705957E+00 0.30745385E+04</pdfrwt>
<totfact> 0.57211811E-01</totfact>
</mgrwt>
</event>
<event>
 6    1  0.4253381E-006  0.3845797E+04  0.7818608E-02  0.8036398E-01
         -2   -1    0    0    0  501 -0.00000000000E+00  0.00000000000E+00  0.20595438170E+04  0.20595438170E+04  0.00000000000E+00 0.  1.
          2   -1    0    0  501    0  0.00000000000E+00 -0.00000000000E+00 -0.17953193977E+04  0.17953193977E+04  0.00000000000E+00 0. -1.
         23    2    1    2    0    0 -0.55753932340E+03 -0.12426004147E+04 -0.12269428090E+04  0.18353371340E+04  0.90376164504E+02 0.  0.
         11    1    3    3    0    0 -0.26739091078E+03 -0.51475293450E+03 -0.56225927533E+03  0.80783907769E+03  0.00000000000E+00 0. -1.
        -11    1    3    3    0    0 -0.29014841262E+03 -0.72784748021E+03 -0.66468353363E+03  0.10274980563E+04  0.00000000000E+00 0.  1.
         22    1    1    2    0    0  0.55753932340E+03  0.12426004147E+04  0.14911672283E+04  0.20195260807E+04  0.00000000000E+00 0.  1.
<mgrwt>
<rscale>  0 0.38457972E+04</rscale>
<asrwt>0</asrwt>
<pdfrwt beam="1">  1        2 0.27620298E+00 0.38457972E+04</pdfrwt>
<pdfrwt beam="2">  1       -2 0.31685290E+00 0.38457972E+04</pdfrwt>
<totfact> 0.17361252E-01</totfact>
</mgrwt>
</event>
<event>
 6    1  0.3017327E-006  0.1842929E+04  0.7818608E-02  0.8683798E-01
         -2   -1    0    0    0  501 -0.00000000000E+00  0.00000000000E+00  0.25213159360E+03  0.25213159360E+03  0.00000000000E+00 0.  1.
          2   -1    0    0  501    0  0.00000000000E+00 -0.00000000000E+00 -0.33676719794E+04  0.33676719794E+04  0.00000000000E+00 0. -1.
         23    2    1    2    0    0 -0.98977312977E+02  0.66972540866E+03 -0.27828915740E+04  0.28654933825E+04  0.90764426027E+02 0.  0.
         11    1    3    3    0    0 -0.72623253834E+02  0.27936211740E+03 -0.10473535199E+04  0.10864008124E+04  0.00000000000E+00 0. -1.
        -11    1    3    3    0    0 -0.26354059143E+02  0.39036329125E+03 -0.17355380542E+04  0.17790925701E+04  0.00000000000E+00 0.  1.
         22    1    1    2    0    0  0.98977312977E+02 -0.66972540866E+03 -0.33264881177E+03  0.75431019048E+03  0.00000000000E+00 0.  1.
<mgrwt>
<rscale>  0 0.18429287E+04</rscale>
<asrwt>0</asrwt>
<pdfrwt beam="1">  1        2 0.51810334E+00 0.18429287E+04</pdfrwt>
<pdfrwt beam="2">  1       -2 0.38789479E-01 0.18429287E+04</pdfrwt>
<totfact> 0.59640391E+00</totfact>
</mgrwt>
</event>
<event>
 6    1  0.3017327E-006  0.2884586E+04  0.7818608E-02  0.8277478E-01
          2   -1    0    0  501    0  0.00000000000E+00  0.00000000000E+00  0.47164437489E+04  0.47164437489E+04  0.00000000000E+00 0.  1.
         -2   -1    0    0    0  501 -0.00000000000E+00 -0.00000000000E+00 -0.44105462777E+03  0.44105462777E+03  0.00000000000E+00 0. -1.
         23    2    1    2    0    0  0.17125598276E+02  0.14409304808E+04  0.21471829569E+04  0.25873163959E+04  0.85073766311E+02 0.  0.
         11    1    3    3    0    0 -0.34714347326E+02  0.55255648823E+03  0.82825131014E+03  0.99625498309E+03  0.00000000000E+00 0. -1.
        -11    1    3    3    0    0  0.51839945602E+02  0.88837399256E+03  0.13189316468E+04  0.15910614128E+04  0.00000000000E+00 0.  1.
         22    1    1    2    0    0 -0.17125598276E+02 -0.14409304808E+04  0.21282061642E+04  0.25701819807E+04  0.00000000000E+00 0. -1.
<mgrwt>
<rscale>  0 0.28845862E+04</rscale>
<asrwt>0</asrwt>
<pdfrwt beam="1">  1        2 0.72560669E+00 0.28845862E+04</pdfrwt>
<pdfrwt beam="2">  1       -2 0.67854561E-01 0.28845862E+04</pdfrwt>
<totfact> 0.12674364E-01</totfact>
</mgrwt>
</event>
<event>
 6    1  0.3017327E-006  0.3321129E+04  0.7818608E-02  0.8157540E-01
          2   -1    0    0  501    0  0.00000000000E+00  0.00000000000E+00  0.15650312656E+04  0.15650312656E+04  0.00000000000E+00 0. -1.
         -2   -1    0    0    0  501 -0.00000000000E+00 -0.00000000000E+00 -0.17619298276E+04  0.17619298276E+04  0.00000000000E+00 0.  1.
         23    2    1    2    0    0  0.34589376747E+03 -0.64711866604E+03  0.13924063985E+04  0.15764482187E+04  0.89377521732E+02 0.  0.
         11    1    3    3    0    0  0.20726613649E+03 -0.44678234683E+03  0.86238005318E+03  0.99311281983E+03  0.00000000000E+00 0.  1.
        -11    1    3    3    0    0  0.13862763098E+03 -0.20033631921E+03  0.53002634533E+03  0.58333539890E+03  0.00000000000E+00 0. -1.
         22    1    1    2    0    0 -0.34589376747E+03  0.64711866604E+03 -0.15893049605E+04  0.17505128745E+04  0.00000000000E+00 0.  1.
<mgrwt>
<rscale>  0 0.33211295E+04</rscale>
<asrwt>0</asrwt>
<pdfrwt beam="1">  1        2 0.24077404E+00 0.33211295E+04</pdfrwt>
<pdfrwt beam="2">  1       -2 0.27106613E+00 0.33211295E+04</pdfrwt>
<totfact> 0.46444575E-01</totfact>
</mgrwt>
</event>
<event>
 6    1  0.3017327E-006  0.1807497E+04  0.7818608E-02  0.8702323E-01
         -2   -1    0    0    0  501 -0.00000000000E+00  0.00000000000E+00  0.21978791620E+03  0.21978791620E+03  0.00000000000E+00 0.  1.
          2   -1    0    0  501    0  0.00000000000E+00 -0.00000000000E+00 -0.37161321751E+04  0.37161321751E+04  0.00000000000E+00 0. -1.
         23    2    1    2    0    0 -0.38486244880E+03 -0.44110405830E+03 -0.32455253757E+04  0.32990511826E+04  0.87245894703E+02 0.  0.
         11    1    3    3    0    0 -0.75553321743E+02 -0.11224939920E+03 -0.94598302898E+03  0.95561086388E+03  0.00000000000E+00 0.  1.
        -11    1    3    3    0    0 -0.30930912705E+03 -0.32885465910E+03 -0.22995423467E+04  0.23434403187E+04  0.00000000000E+00 0. -1.
         22    1    1    2    0    0  0.38486244880E+03  0.44110405830E+03 -0.25081888320E+03  0.63686890874E+03  0.00000000000E+00 0.  1.
<mgrwt>
<rscale>  0 0.18074966E+04</rscale>
<asrwt>0</asrwt>
<pdfrwt beam="1">  1        2 0.57171259E+00 0.18074966E+04</pdfrwt>
<pdfrwt beam="2">  1       -2 0.33813529E-01 0.18074966E+04</pdfrwt>
<totfact> 0.44307197E+00</totfact>
</mgrwt>
</event>
<event>
 6    1  0.3017327E-006  0.5442987E+04  0.7818608E-02  0.7763583E-01
          2   -1    0    0  501    0  0.00000000000E+00  0.00000000000E+00  0.27995289596E+04  0.27995289596E+04  0.00000000000E+00 0. -1.
         -2   -1    0    0    0  501 -0.00000000000E+00 -0.00000000000E+00 -0.26456329143E+04  0.26456329143E+04  0.00000000000E+00 0.  1.
         23    2    1    2    0    0  0.38138114249E+03 -0.19395746334E+04 -0.17932430139E+04  0.26704993988E+04  0.91897758870E+02 0.  0.
         13    1    3    3    0    0  0.10226043193E+03 -0.75072014427E+03 -0.68141751532E+03  0.10190033175E+04  0.00000000000E+00 0. -1.
        -13    1    3    3    0    0  0.27912071056E+03 -0.11888544891E+04 -0.11118254986E+04  0.16514960813E+04  0.00000000000E+00 0.  1.
         22    1    1    2    0    0 -0.38138114249E+03  0.19395746334E+04  0.19471390592E+04  0.27746624750E+04  0.00000000000E+00 0. -1.
<mgrwt>
<rscale>  0 0.54429867E+04</rscale>
<asrwt>0</asrwt>
<pdfrwt beam="1">  1        2 0.43069676E+00 0.54429867E+04</pdfrwt>
<pdfrwt beam="2">  1       -2 0.40702045E+00 0.54429867E+04</pdfrwt>
<totfact> 0.10871361E-02</totfact>
</mgrwt>
</event>
<event>
 6    1  0.3017327E-006  0.5072751E+04  0.7818608E-02  0.7817382E-01
          2   -1    0    0  501    0  0.00000000000E+00  0.00000000000E+00  0.15118010527E+04  0.15118010527E+04  0.00000000000E+00 0. -1.
         -2   -1    0    0    0  501 -0.00000000000E+00 -0.00000000000E+00 -0.42553216266E+04  0.42553216266E+04  0.00000000000E+00 0.  1.
         23    2    1    2    0    0 -0.31422066008E+03  0.11048208358E+04  0.11976970440E+04  0.16619357147E+04  0.90489823897E+02 0.  0.
         11    1    3    3    0    0 -0.16795455255E+03  0.72156928281E+03  0.80565640867E+03  0.10945104890E+04  0.00000000000E+00 0.  1.
        -11    1    3    3    0    0 -0.14626610753E+03  0.38325155296E+03  0.39204063533E+03  0.56742522574E+03  0.00000000000E+00 0. -1.
         22    1    1    2    0    0  0.31422066008E+03 -0.11048208358E+04 -0.39412176179E+04  0.41051869646E+04  0.00000000000E+00 0.  1.
<mgrwt>
<rscale>  0 0.50727506E+04</rscale>
<asrwt>0</asrwt>
<pdfrwt beam="1">  1        2 0.23258478E+00 0.50727506E+04</pdfrwt>
<pdfrwt beam="2">  1       -2 0.65466487E+00 0.50727506E+04</pdfrwt>
<totfact> 0.29653144E-03</totfact>
</mgrwt>
</event>
<event>
 6    1  0.3017327E-006  0.1828023E+04  0.7818608E-02  0.8691538E-01
          2   -1    0    0  501    0  0.00000000000E+00  0.00000000000E+00  0.99315562974E+03  0.99315562974E+03  0.00000000000E+00 0. -1.
         -2   -1    0    0    0  501 -0.00000000000E+00 -0.00000000000E+00 -0.84117433475E+03  0.84117433475E+03  0.00000000000E+00 0.  1.
         23    2    1    2    0    0 -0.69838745067E+03  0.95493449282E+02 -0.50403591787E+03  0.87140597284E+03  0.91826645847E+02 0.  0.
         11    1    3    3    0    0 -0.14398879416E+03  0.14070646509E+02 -0.60714167128E+02  0.15689794781E+03  0.00000000000E+00 0. -1.
        -11    1    3    3    0    0 -0.55439865652E+03  0.81422802773E+02 -0.44332175074E+03  0.71450802504E+03  0.00000000000E+00 0.  1.
         22    1    1    2    0    0  0.69838745067E+03 -0.95493449282E+02  0.65601721287E+03  0.96292399165E+03  0.00000000000E+00 0. -1.
<mgrwt>
<rscale>  0 0.18280230E+04</rscale>
<asrwt>0</asrwt>
<pdfrwt beam="1">  1        2 0.15279317E+00 0.18280230E+04</pdfrwt>
<pdfrwt beam="2">  1       -2 0.12941144E+00 0.18280230E+04</pdfrwt>
<totfact> 0.10530074E+01</totfact>
</mgrwt>
</event>
<event>
 6    1  0.3017327E-006  0.6519523E+03  0.7818608E-02  0.9803123E-01
         -2   -1    0    0    0  501 -0.00000000000E+00  0.00000000000E+00  0.12937562125E+03  0.12937562125E+03  0.00000000000E+00 0.  1.
          2   -1    0    0  501    0  0.00000000000E+00 -0.00000000000E+00 -0.82133295503E+03  0.82133295503E+03  0.00000000000E+00 0. -1.
         23    2    1    2    0    0  0.14127705016E+03 -0.80046128415E+00 -0.77085976706E+03  0.78888941914E+03  0.90343176372E+02 0.  0.
         11    1    3    3    0    0  0.30247477329E+02 -0.29412587212E+02 -0.35550945422E+03  0.35800416508E+03  0.00000000000E+00 0. -1.
        -11    1    3    3    0    0  0.11102957283E+03  0.28612125928E+02 -0.41535031284E+03  0.43088525406E+03  0.00000000000E+00 0.  1.
         22    1    1    2    0    0 -0.14127705016E+03  0.80046128415E+00  0.78902433279E+02  0.16181915714E+03  0.00000000000E+00 0.  1.
<mgrwt>
<rscale>  0 0.65195233E+03</rscale>
<asrwt>0</asrwt>
<pdfrwt beam="1">  1        2 0.12635892E+00 0.65195233E+03</pdfrwt>
<pdfrwt beam="2">  1       -2 0.19903942E-01 0.65195233E+03</pdfrwt>
<totfact> 0.71992635E+02</totfact>
</mgrwt>
</event>
<event>
 6    1  0.3017327E-006  0.2860541E+04  0.7818608E-02  0.8284715E-01
          2   -1    0    0  501    0  0.00000000000E+00  0.00000000000E+00  0.10933106287E+04  0.10933106287E+04  0.00000000000E+00 0.  1.
         -2   -1    0    0    0  501 -0.00000000000E+00 -0.00000000000E+00 -0.18710819744E+04  0.18710819744E+04  0.00000000000E+00 0. -1.
         23    2    1    2    0    0  0.11990370503E+04  0.12172180017E+03 -0.11846459878E+04  0.16923654733E+04  0.90602064652E+02 0.  0.
         11    1    3    3    0    0  0.82061070192E+03  0.96489955702E+02 -0.75483782229E+03  0.11191480571E+04  0.00000000000E+00 0. -1.
        -11    1    3    3    0    0  0.37842634836E+03  0.25231844468E+02 -0.42980816550E+03  0.57321741621E+03  0.00000000000E+00 0.  1.
         22    1    1    2    0    0 -0.11990370503E+04 -0.12172180017E+03  0.40687464207E+03  0.12720271298E+04  0.00000000000E+00 0.  1.
<mgrwt>
<rscale>  0 0.28605411E+04</rscale>
<asrwt>0</asrwt>
<pdfrwt beam="1">  1        2 0.16820164E+00 0.28605411E+04</pdfrwt>
<pdfrwt beam="2">  1       -2 0.28785876E+00 0.28605411E+04</pdfrwt>
<totfact> 0.71811391E-01</totfact>
</mgrwt>
</event>
<event>
 6    1  0.3017327E-006  0.1134852E+04  0.7818608E-02  0.9171873E-01
         -2   -1    0    0    0  501 -0.00000000000E+00  0.00000000000E+00  0.13457131889E+03  0.13457131889E+03  0.00000000000E+00 0.  1.
          2   -1    0    0  501    0  0.00000000000E+00 -0.00000000000E+00 -0.23925780534E+04  0.23925780534E+04  0.00000000000E+00 0. -1.
         23    2    1    2    0    0  0.19329885351E+03  0.36912940919E+03 -0.29076229256E+03  0.51626109545E+03  0.91443099274E+02 0.  0.
         11    1    3    3    0    0  0.15243297557E+03  0.20706512687E+03 -0.20224423490E+03  0.32713072212E+03  0.00000000000E+00 0.  1.
        -11    1    3    3    0    0  0.40865877942E+02  0.16206428232E+03 -0.88518057661E+02  0.18913037333E+03  0.00000000000E+00 0. -1.
         22    1    1    2    0    0 -0.19329885351E+03 -0.36912940919E+03 -0.19672444420E+04  0.20108882769E+04  0.00000000000E+00 0. -1.
<mgrwt>
<rscale>  0 0.11348522E+04</rscale>
<asrwt>0</asrwt>
<pdfrwt beam="1">  1        2 0.36808894E+00 0.11348522E+04</pdfrwt>
<pdfrwt beam="2">  1       -2 0.20703279E-01 0.11348522E+04</pdfrwt>
<totfact> 0.80500091E+01</totfact>
</mgrwt>
</event>
<event>
 6    1  0.3017327E-006  0.2511422E+04  0.7818608E-02  0.8398928E-01
         -1   -1    0    0    0  501 -0.00000000000E+00  0.00000000000E+00  0.11954961700E+04  0.11954961700E+04  0.00000000000E+00 0.  1.
          1   -1    0    0  501    0  0.00000000000E+00 -0.00000000000E+00 -0.13189590295E+04  0.13189590295E+04  0.00000000000E+00 0. -1.
         23    2    1    2    0    0 -0.90296803259E+03 -0.15970112253E+03  0.79475988501E+03  0.12167692880E+04  0.89601946999E+02 0.  0.
         13    1    3    3    0    0 -0.34993352783E+03 -0.10284083674E+03  0.33760658280E+03  0.49699890981E+03  0.00000000000E+00 0. -1.
        -13    1    3    3    0    0 -0.55303450476E+03 -0.56860285785E+02  0.45715330221E+03  0.71977037816E+03  0.00000000000E+00 0.  1.
         22    1    1    2    0    0  0.90296803259E+03  0.15970112253E+03 -0.91822274447E+03  0.12976859115E+04  0.00000000000E+00 0. -1.
<mgrwt>
<rscale>  0 0.25114223E+04</rscale>
<asrwt>0</asrwt>
<pdfrwt beam="1">  1        1 0.20291677E+00 0.25114223E+04</pdfrwt>
<pdfrwt beam="2">  1       -1 0.18392249E+00 0.25114223E+04</pdfrwt>
<totfact> 0.15181814E+00</totfact>
</mgrwt>
</event>
<event>
 6    1  0.3017327E-006  0.4927877E+03  0.7818608E-02  0.1015679E+00
          2   -1    0    0  501    0  0.00000000000E+00  0.00000000000E+00  0.81313854095E+03  0.81313854095E+03  0.00000000000E+00 0. -1.
         -2   -1    0    0    0  501 -0.00000000000E+00 -0.00000000000E+00 -0.74661252143E+02  0.74661252143E+02  0.00000000000E+00 0.  1.
         23    2    1    2    0    0  0.60900800935E+02  0.16896656295E+03  0.10781560057E+03  0.23206145201E+03  0.99848419295E+02 0.  0.
         13    1    3    3    0    0  0.36455271831E+02  0.78788999770E+02  0.10807993030E+03  0.13862887384E+03  0.00000000000E+00 0. -1.
        -13    1    3    3    0    0  0.24445529104E+02  0.90177563178E+02 -0.26432972912E+00  0.93432578174E+02  0.00000000000E+00 0.  1.
         22    1    1    2    0    0 -0.60900800935E+02 -0.16896656295E+03  0.63066168824E+03  0.65573834108E+03  0.00000000000E+00 0. -1.
<mgrwt>
<rscale>  0 0.49278775E+03</rscale>
<asrwt>0</asrwt>
<pdfrwt beam="1">  1        2 0.12509823E+00 0.49278775E+03</pdfrwt>
<pdfrwt beam="2">  1       -2 0.11486347E-01 0.49278775E+03</pdfrwt>
<totfact> 0.18479158E+03</totfact>
</mgrwt>
</event>
<event>
 6    1  0.3017327E-006  0.3979390E+04  0.7818608E-02  0.8008717E-01
         -2   -1    0    0    0  501 -0.00000000000E+00  0.00000000000E+00  0.16217093941E+04  0.16217093941E+04  0.00000000000E+00 0.  1.
          2   -1    0    0  501    0  0.00000000000E+00 -0.00000000000E+00 -0.24411809012E+04  0.24411809012E+04  0.00000000000E+00 0. -1.
         23    2    1    2    0    0  0.10460001869E+04 -0.11690793239E+04 -0.16578488648E+04  0.22841999202E+04  0.90794052807E+02 0.  0.
         11    1    3    3    0    0  0.29649905676E+03 -0.32021128272E+03 -0.40419502339E+03  0.59482818795E+03  0.00000000000E+00 0.  1.
        -11    1    3    3    0    0  0.74950113017E+03 -0.84886804122E+03 -0.12536538414E+04  0.16893717322E+04  0.00000000000E+00 0. -1.
         22    1    1    2    0    0 -0.10460001869E+04  0.11690793239E+04  0.83837735766E+03  0.17786903751E+04  0.00000000000E+00 0.  1.
<mgrwt>
<rscale>  0 0.39793899E+04</rscale>
<asrwt>0</asrwt>
<pdfrwt beam="1">  1        2 0.37556629E+00 0.39793899E+04</pdfrwt>
<pdfrwt beam="2">  1       -2 0.24949376E+00 0.39793899E+04</pdfrwt>
<totfact> 0.19254681E-01</totfact>
</mgrwt>
</event>
<event>
 6    1  0.3017327E-006  0.7793010E+03  0.7818608E-02  0.9590471E-01
          2   -1    0    0  501    0  0.00000000000E+00  0.00000000000E+00  0.32965963906E+03  0.32965963906E+03  0.00000000000E+00 0. -1.
         -2   -1    0    0    0  501 -0.00000000000E+00 -0.00000000000E+00 -0.46055835740E+03  0.46055835740E+03  0.00000000000E+00 0.  1.
         23    2    1    2    0    0 -0.81909593554E+02 -0.30123659070E+03 -0.29314050589E+03  0.43840119367E+03  0.93870044870E+02 0.  0.
         11    1    3    3    0    0 -0.66534642525E+01 -0.10183895944E+03 -0.15089057042E+03  0.18216313153E+03  0.00000000000E+00 0. -1.
        -11    1    3    3    0    0 -0.75256129302E+02 -0.19939763126E+03 -0.14224993548E+03  0.25623806214E+03  0.00000000000E+00 0.  1.
         22    1    1    2    0    0  0.81909593554E+02  0.30123659070E+03  0.16224178756E+03  0.35181680279E+03  0.00000000000E+00 0.  1.
<mgrwt>
<rscale>  0 0.77930097E+03</rscale>
<asrwt>0</asrwt>
<pdfrwt beam="1">  1        2 0.50716867E-01 0.77930097E+03</pdfrwt>
<pdfrwt beam="2">  1       -2 0.70855132E-01 0.77930097E+03</pdfrwt>
<totfact> 0.18036128E+02</totfact>
</mgrwt>
</event>
<event>
 6    1  0.3017327E-006  0.2705552E+04  0.7818608E-02  0.8333206E-01
          2   -1    0    0  501    0  0.00000000000E+00  0.00000000000E+00  0.69089065259E+03  0.69089065259E+03  0.00000000000E+00 0.  1.
         -2   -1    0    0    0  501 -0.00000000000E+00 -0.00000000000E+00 -0.26487590713E+04  0.26487590713E+04  0.00000000000E+00 0. -1.
         23    2    1    2    0    0 -0.82818768168E+03  0.53386363845E+03  0.16117964177E+03  0.10027137164E+04  0.92469992649E+02 0.  0.
         11    1    3    3    0    0 -0.82229519828E+02  0.88814869628E+02  0.18554947110E+02  0.12245023912E+03  0.00000000000E+00 0. -1.
        -11    1    3    3    0    0 -0.74595816186E+03  0.44504876883E+03  0.14262469466E+03  0.88026347726E+03  0.00000000000E+00 0.  1.
         22    1    1    2    0    0  0.82818768168E+03 -0.53386363845E+03 -0.21190480605E+04  0.23369360075E+04  0.00000000000E+00 0. -1.
<mgrwt>
<rscale>  0 0.27055520E+04</rscale>
<asrwt>0</asrwt>
<pdfrwt beam="1">  1        2 0.10629087E+00 0.27055520E+04</pdfrwt>
<pdfrwt beam="2">  1       -2 0.40750139E+00 0.27055520E+04</pdfrwt>
<totfact> 0.24202200E-01</totfact>
</mgrwt>
</event>
<event>
 6    1  0.3017327E-006  0.2505130E+04  0.7818608E-02  0.8401160E-01
         -2   -1    0    0    0  501 -0.00000000000E+00  0.00000000000E+00  0.94062300158E+03  0.94062300158E+03  0.00000000000E+00 0.  1.
          2   -1    0    0  501    0  0.00000000000E+00 -0.00000000000E+00 -0.16679572902E+04  0.16679572902E+04  0.00000000000E+00 0. -1.
         23    2    1    2    0    0  0.38045619929E+03  0.79890504027E+03  0.55650402193E+03  0.10493378505E+04  0.91744292488E+02 0.  0.
         13    1    3    3    0    0  0.30023155563E+03  0.64351318271E+03  0.48749306757E+03  0.86133483282E+03  0.00000000000E+00 0. -1.
        -13    1    3    3    0    0  0.80224643666E+02  0.15539185756E+03  0.69010954363E+02  0.18800301771E+03  0.00000000000E+00 0.  1.
         22    1    1    2    0    0 -0.38045619929E+03 -0.79890504027E+03 -0.12838383105E+04  0.15592424412E+04  0.00000000000E+00 0. -1.
<mgrwt>
<rscale>  0 0.25051299E+04</rscale>
<asrwt>0</asrwt>
<pdfrwt beam="1">  1        2 0.25660881E+00 0.25051299E+04</pdfrwt>
<pdfrwt beam="2">  1       -2 0.14471123E+00 0.25051299E+04</pdfrwt>
<totfact> 0.30012093E+00</totfact>
</mgrwt>
</event>
<event>
 6    1  0.3017327E-006  0.2664451E+04  0.7818608E-02  0.8346632E-01
          1   -1    0    0  501    0  0.00000000000E+00  0.00000000000E+00  0.22580783428E+04  0.22580783428E+04  0.00000000000E+00 0. -1.
         -1   -1    0    0    0  501 -0.00000000000E+00 -0.00000000000E+00 -0.78598879159E+03  0.78598879159E+03  0.00000000000E+00 0.  1.
         23    2    1    2    0    0  0.31945370523E+03  0.10937256397E+03  0.22073876626E+04  0.22349464141E+04  0.91717793549E+02 0.  0.
         11    1    3    3    0    0  0.10398887571E+03  0.29176322296E+02  0.10041239861E+04  0.10099158002E+04  0.00000000000E+00 0.  1.
        -11    1    3    3    0    0  0.21546482952E+03  0.80196241675E+02  0.12032636764E+04  0.12250306139E+04  0.00000000000E+00 0. -1.
         22    1    1    2    0    0 -0.31945370523E+03 -0.10937256397E+03 -0.73529811131E+03  0.80912072031E+03  0.00000000000E+00 0.  1.
<mgrwt>
<rscale>  0 0.26644506E+04</rscale>
<asrwt>0</asrwt>
<pdfrwt beam="1">  1        1 0.34739667E+00 0.26644506E+04</pdfrwt>
<pdfrwt beam="2">  1       -1 0.12092135E+00 0.26644506E+04</pdfrwt>
<totfact> 0.10577003E+00</totfact>
</mgrwt>
</event>
<event>
 6    1  0.3017327E-006  0.1002078E+04  0.7818608E-02  0.9306268E-01
         -2   -1    0    0    0  501 -0.00000000000E+00  0.00000000000E+00  0.22719856380E+03  0.22719856380E+03  0.00000000000E+00 0.  1.
          2   -1    0    0  501    0  0.00000000000E+00 -0.00000000000E+00 -0.11049374107E+04  0.11049374107E+04  0.00000000000E+00 0. -1.
         23    2    1    2    0    0  0.87361082303E+01  0.46405803624E+03 -0.67872363904E+03  0.82712782252E+03  0.89713299027E+02 0.  0.
         13    1    3    3    0    0  0.41053845226E+02  0.11608315718E+03 -0.18542796400E+03  0.22258537109E+03  0.00000000000E+00 0. -1.
        -13    1    3    3    0    0 -0.32317736996E+02  0.34797487905E+03 -0.49329567503E+03  0.60454245143E+03  0.00000000000E+00 0.  1.
         22    1    1    2    0    0 -0.87361082303E+01 -0.46405803624E+03 -0.19901520784E+03  0.50500815195E+03  0.00000000000E+00 0.  1.
<mgrwt>
<rscale>  0 0.10020782E+04</rscale>
<asrwt>0</asrwt>
<pdfrwt beam="1">  1        2 0.16999037E+00 0.10020782E+04</pdfrwt>
<pdfrwt beam="2">  1       -2 0.34953625E-01 0.10020782E+04</pdfrwt>
<totfact> 0.16565626E+02</totfact>
</mgrwt>
</event>
<event>
 6    1  0.3017327E-006  0.4570235E+04  0.7818608E-02  0.7898455E-01
          2   -1    0    0  501    0  0.00000000000E+00  0.00000000000E+00  0.41826536793E+04  0.41826536793E+04  0.00000000000E+00 0. -1.
         -2   -1    0    0    0  501 -0.00000000000E+00 -0.00000000000E+00 -0.12484328794E+04  0.12484328794E+04  0.00000000000E+00 0.  1.
         23    2    1    2    0    0 -0.87185162251E+03 -0.87564805550E+03 -0.81534237874E+03  0.14831619395E+04  0.90007641498E+02 0.  0.
         11    1    3    3    0    0 -0.44861024582E+03 -0.40286895123E+03 -0.43303199360E+03  0.74234173532E+03  0.00000000000E+00 0.  1.
        -11    1    3    3    0    0 -0.42324137669E+03 -0.47277910427E+03 -0.38231038514E+03  0.74082020421E+03  0.00000000000E+00 0. -1.
         22    1    1    2    0    0  0.87185162251E+03  0.87564805550E+03  0.37495631786E+04  0.39479246192E+04  0.00000000000E+00 0. -1.
<mgrwt>
<rscale>  0 0.45702352E+04</rscale>
<asrwt>0</asrwt>
<pdfrwt beam="1">  1        2 0.64348518E+00 0.45702352E+04</pdfrwt>
<pdfrwt beam="2">  1       -2 0.19206660E+00 0.45702352E+04</pdfrwt>
<totfact> 0.27075531E-02</totfact>
</mgrwt>
</event>
<event>
 6    1  0.3017327E-006  0.5207613E+04  0.7818608E-02  0.7797255E-01
          1   -1    0    0  501    0  0.00000000000E+00  0.00000000000E+00  0.26452225925E+04  0.26452225925E+04  0.00000000000E+00 0. -1.
         -1   -1    0    0    0  501 -0.00000000000E+00 -0.00000000000E+00 -0.25630392498E+04  0.25630392498E+04  0.00000000000E+00 0.  1.
         23    2    1    2    0    0 -0.61577685423E+03  0.25213479815E+04  0.23942300118E+03  0.26080501031E+04  0.90692826226E+02 0.  0.
         13    1    3    3    0    0 -0.25933526115E+03  0.12315927666E+04  0.95152490875E+02  0.12621923454E+04  0.00000000000E+00 0. -1.
        -13    1    3    3    0    0 -0.35644159308E+03  0.12897552150E+04  0.14427051031E+03  0.13458577577E+04  0.00000000000E+00 0.  1.
         22    1    1    2    0    0  0.61577685423E+03 -0.25213479815E+04 -0.15723965849E+03  0.26002117391E+04  0.00000000000E+00 0. -1.
<mgrwt>
<rscale>  0 0.52076134E+04</rscale>
<asrwt>0</asrwt>
<pdfrwt beam="1">  1        1 0.40695732E+00 0.52076134E+04</pdfrwt>
<pdfrwt beam="2">  1       -1 0.39431373E+00 0.52076134E+04</pdfrwt>
<totfact> 0.59625810E-03</totfact>
</mgrwt>
</event>
<event>
 6    1  0.3017327E-006  0.2538903E+04  0.7818608E-02  0.8389256E-01
         -2   -1    0    0    0  501 -0.00000000000E+00  0.00000000000E+00  0.18202558786E+04  0.18202558786E+04  0.00000000000E+00 0.  1.
          2   -1    0    0  501    0  0.00000000000E+00 -0.00000000000E+00 -0.88531905403E+03  0.88531905403E+03  0.00000000000E+00 0. -1.
         23    2    1    2    0    0 -0.56230072287E+03  0.17156622460E+03  0.16650985091E+04  0.17681565853E+04  0.90595764962E+02 0.  0.
         13    1    3    3    0    0 -0.50133302598E+03  0.15612341658E+03  0.13877199733E+04  0.14837371899E+04  0.00000000000E+00 0. -1.
        -13    1    3    3    0    0 -0.60967696886E+02  0.15442808027E+02  0.27737853579E+03  0.28441939543E+03  0.00000000000E+00 0.  1.
         22    1    1    2    0    0  0.56230072287E+03 -0.17156622460E+03 -0.73016168455E+03  0.93741834735E+03  0.00000000000E+00 0. -1.
<mgrwt>
<rscale>  0 0.25389031E+04</rscale>
<asrwt>0</asrwt>
<pdfrwt beam="1">  1        2 0.13620293E+00 0.25389031E+04</pdfrwt>
<pdfrwt beam="2">  1       -2 0.28003936E+00 0.25389031E+04</pdfrwt>
<totfact> 0.11227205E+00</totfact>
</mgrwt>
</event>
<event>
 6    1  0.3422158E-006  0.4901101E+04  0.7818608E-02  0.7843947E-01
         -2   -1    0    0    0  501 -0.00000000000E+00  0.00000000000E+00  0.25048870322E+04  0.25048870322E+04  0.00000000000E+00 0. -1.
          2   -1    0    0  501    0  0.00000000000E+00 -0.00000000000E+00 -0.23973922118E+04  0.23973922118E+04  0.00000000000E+00 0.  1.
         23    2    1    2    0    0  0.54765711816E+03 -0.18726240820E+04 -0.14278765986E+04  0.24195358690E+04  0.93128775215E+02 0.  0.
         11    1    3    3    0    0  0.45957089957E+03 -0.14650639845E+04 -0.10931291945E+04  0.18848207677E+04  0.00000000000E+00 0.  1.
        -11    1    3    3    0    0  0.88086218592E+02 -0.40756009747E+03 -0.33474740409E+03  0.53471510124E+03  0.00000000000E+00 0. -1.
         22    1    1    2    0    0 -0.54765711816E+03  0.18726240820E+04  0.15353714190E+04  0.24827433750E+04  0.00000000000E+00 0. -1.
<mgrwt>
<rscale>  0 0.49011006E+04</rscale>
<asrwt>0</asrwt>
<pdfrwt beam="1">  1        2 0.36882957E+00 0.49011006E+04</pdfrwt>
<pdfrwt beam="2">  1       -2 0.38536724E+00 0.49011006E+04</pdfrwt>
<totfact> 0.27065731E-02</totfact>
</mgrwt>
</event>
<event>
 6    1  0.3017327E-006  0.1218829E+04  0.7818608E-02  0.9096533E-01
          2   -1    0    0  501    0  0.00000000000E+00  0.00000000000E+00  0.10386276561E+04  0.10386276561E+04  0.00000000000E+00 0. -1.
         -2   -1    0    0    0  501 -0.00000000000E+00 -0.00000000000E+00 -0.35757401545E+03  0.35757401545E+03  0.00000000000E+00 0.  1.
         23    2    1    2    0    0 -0.94903114732E+02  0.56389040993E+03  0.11254267549E+03  0.58986197073E+03  0.91062039946E+02 0.  0.
         11    1    3    3    0    0 -0.23896210831E+02  0.60028497197E+02  0.39704148182E+02  0.75834482596E+02  0.00000000000E+00 0.  1.
        -11    1    3    3    0    0 -0.71006903901E+02  0.50386191273E+03  0.72838527312E+02  0.51402748814E+03  0.00000000000E+00 0. -1.
         22    1    1    2    0    0  0.94903114732E+02 -0.56389040993E+03  0.56851096515E+03  0.80633970080E+03  0.00000000000E+00 0. -1.
<mgrwt>
<rscale>  0 0.12188294E+04</rscale>
<asrwt>0</asrwt>
<pdfrwt beam="1">  1        2 0.15978887E+00 0.12188294E+04</pdfrwt>
<pdfrwt beam="2">  1       -2 0.55011387E-01 0.12188294E+04</pdfrwt>
<totfact> 0.72885302E+01</totfact>
</mgrwt>
</event>
<event>
 6    1  0.3017327E-006  0.1851669E+04  0.7818608E-02  0.8679295E-01
         -2   -1    0    0    0  501 -0.00000000000E+00  0.00000000000E+00  0.29355128490E+03  0.29355128490E+03  0.00000000000E+00 0.  1.
          2   -1    0    0  501    0  0.00000000000E+00 -0.00000000000E+00 -0.29199992920E+04  0.29199992920E+04  0.00000000000E+00 0. -1.
         23    2    1    2    0    0 -0.24569487817E+02 -0.91926250567E+03 -0.11672534538E+04  0.14887619063E+04  0.91017438089E+02 0.  0.
         13    1    3    3    0    0  0.19198945256E+02 -0.51399876023E+03 -0.60098857228E+03  0.79104398678E+03  0.00000000000E+00 0. -1.
        -13    1    3    3    0    0 -0.43768433072E+02 -0.40526374544E+03 -0.56626488156E+03  0.69771791950E+03  0.00000000000E+00 0.  1.
         22    1    1    2    0    0  0.24569487817E+02  0.91926250567E+03 -0.14591945533E+04  0.17247886706E+04  0.00000000000E+00 0. -1.
<mgrwt>
<rscale>  0 0.18516690E+04</rscale>
<asrwt>0</asrwt>
<pdfrwt beam="1">  1        2 0.44923064E+00 0.18516690E+04</pdfrwt>
<pdfrwt beam="2">  1       -2 0.45161738E-01 0.18516690E+04</pdfrwt>
<totfact> 0.85615271E+00</totfact>
</mgrwt>
</event>
<event>
 6    1  0.3017327E-006  0.1060030E+04  0.7818608E-02  0.9245049E-01
         -2   -1    0    0    0  501 -0.00000000000E+00  0.00000000000E+00  0.14834980102E+04  0.14834980102E+04  0.00000000000E+00 0. -1.
          2   -1    0    0  501    0  0.00000000000E+00 -0.00000000000E+00 -0.18936063856E+03  0.18936063856E+03  0.00000000000E+00 0.  1.
         23    2    1    2    0    0 -0.63653738454E+02  0.10225874747E+03  0.14600275422E+04  0.14678508477E+04  0.91635348884E+02 0.  0.
         11    1    3    3    0    0 -0.77205601450E+02  0.39079069257E+02  0.79854930452E+03  0.80322404739E+03  0.00000000000E+00 0.  1.
        -11    1    3    3    0    0  0.13551862996E+02  0.63179678217E+02  0.66147823767E+03  0.66462680028E+03  0.00000000000E+00 0. -1.
         22    1    1    2    0    0  0.63653738454E+02 -0.10225874747E+03 -0.16589017051E+03  0.20500780114E+03  0.00000000000E+00 0.  1.
<mgrwt>
<rscale>  0 0.10600304E+04</rscale>
<asrwt>0</asrwt>
<pdfrwt beam="1">  1        2 0.29132407E-01 0.10600304E+04</pdfrwt>
<pdfrwt beam="2">  1       -2 0.22823045E+00 0.10600304E+04</pdfrwt>
<totfact> 0.16114616E+01</totfact>
</mgrwt>
</event>
<event>
 6    1  0.3017327E-006  0.1489206E+04  0.7818608E-02  0.8891663E-01
          2   -1    0    0  501    0  0.00000000000E+00  0.00000000000E+00  0.10600656761E+04  0.10600656761E+04  0.00000000000E+00 0. -1.
         -2   -1    0    0    0  501 -0.00000000000E+00 -0.00000000000E+00 -0.52301831310E+03  0.52301831310E+03  0.00000000000E+00 0.  1.
         23    2    1    2    0    0 -0.31316173380E+03  0.66545694310E+03  0.37239859122E+03  0.82941799375E+03  0.91379882731E+02 0.  0.
         13    1    3    3    0    0 -0.77372112037E+02  0.12794423231E+03  0.39579214044E+02  0.15466959781E+03  0.00000000000E+00 0.  1.
        -13    1    3    3    0    0 -0.23578962176E+03  0.53751271080E+03  0.33281937718E+03  0.67474839594E+03  0.00000000000E+00 0. -1.
         22    1    1    2    0    0  0.31316173380E+03 -0.66545694310E+03  0.16464877176E+03  0.75366599544E+03  0.00000000000E+00 0. -1.
<mgrwt>
<rscale>  0 0.14892062E+04</rscale>
<asrwt>0</asrwt>
<pdfrwt beam="1">  1        2 0.16308703E+00 0.14892062E+04</pdfrwt>
<pdfrwt beam="2">  1       -2 0.80464356E-01 0.14892062E+04</pdfrwt>
<totfact> 0.30443218E+01</totfact>
</mgrwt>
</event>
<event>
 6    1  0.3017327E-006  0.4178553E+04  0.7818608E-02  0.7969465E-01
         -2   -1    0    0    0  501 -0.00000000000E+00  0.00000000000E+00  0.35382913315E+04  0.35382913315E+04  0.00000000000E+00 0. -1.
          2   -1    0    0  501    0  0.00000000000E+00 -0.00000000000E+00 -0.12336676331E+04  0.12336676331E+04  0.00000000000E+00 0.  1.
         23    2    1    2    0    0  0.34493780074E+03 -0.10687628209E+04  0.31635705486E+04  0.33580898952E+04  0.85750070252E+02 0.  0.
         13    1    3    3    0    0  0.34879577049E+03 -0.10394246663E+04  0.30662950842E+04  0.32564133137E+04  0.00000000000E+00 0.  1.
        -13    1    3    3    0    0 -0.38579697562E+01 -0.29338154670E+02  0.97275464395E+02  0.10167658149E+03  0.00000000000E+00 0. -1.
         22    1    1    2    0    0 -0.34493780074E+03  0.10687628209E+04 -0.85894685016E+03  0.14138690693E+04  0.00000000000E+00 0.  1.
<mgrwt>
<rscale>  0 0.41785526E+04</rscale>
<asrwt>0</asrwt>
<pdfrwt beam="1">  1        2 0.18979502E+00 0.41785526E+04</pdfrwt>
<pdfrwt beam="2">  1       -2 0.54435251E+00 0.41785526E+04</pdfrwt>
<totfact> 0.12883240E-02</totfact>
</mgrwt>
</event>
<event>
 6    1  0.3017327E-006  0.1012167E+04  0.7818608E-02  0.9295300E-01
         -2   -1    0    0    0  501 -0.00000000000E+00  0.00000000000E+00  0.72676072227E+03  0.72676072227E+03  0.00000000000E+00 0.  1.
          2   -1    0    0  501    0  0.00000000000E+00 -0.00000000000E+00 -0.35241400807E+03  0.35241400807E+03  0.00000000000E+00 0. -1.
         23    2    1    2    0    0  0.46707884833E+03 -0.14439589636E+03  0.31036080323E+03  0.58611588776E+03  0.90527234886E+02 0.  0.
         11    1    3    3    0    0  0.29328665278E+03 -0.12527096287E+03  0.16690537657E+03  0.35995455208E+03  0.00000000000E+00 0. -1.
        -11    1    3    3    0    0  0.17379219554E+03 -0.19124933492E+02  0.14345542667E+03  0.22616133567E+03  0.00000000000E+00 0.  1.
         22    1    1    2    0    0 -0.46707884833E+03  0.14439589636E+03  0.63985910966E+02  0.49305884258E+03  0.00000000000E+00 0. -1.
<mgrwt>
<rscale>  0 0.10121673E+04</rscale>
<asrwt>0</asrwt>
<pdfrwt beam="1">  1        2 0.54217540E-01 0.10121673E+04</pdfrwt>
<pdfrwt beam="2">  1       -2 0.11180934E+00 0.10121673E+04</pdfrwt>
<totfact> 0.57771836E+01</totfact>
</mgrwt>
</event>
<event>
 6    1  0.3017327E-006  0.5771161E+04  0.7818608E-02  0.7719441E-01
         -2   -1    0    0    0  501 -0.00000000000E+00  0.00000000000E+00  0.21352432895E+04  0.21352432895E+04  0.00000000000E+00 0.  1.
          2   -1    0    0  501    0  0.00000000000E+00 -0.00000000000E+00 -0.38995913048E+04  0.38995913048E+04  0.00000000000E+00 0. -1.
         23    2    1    2    0    0 -0.18888934896E+04 -0.11468616258E+04 -0.28216263553E+04  0.35851310016E+04  0.91535818218E+02 0.  0.
         13    1    3    3    0    0 -0.17181486780E+04 -0.10527559008E+04 -0.26109203285E+04  0.32980653159E+04  0.00000000000E+00 0.  1.
        -13    1    3    3    0    0 -0.17074481157E+03 -0.94105725087E+02 -0.21070602680E+03  0.28706568570E+03  0.00000000000E+00 0. -1.
         22    1    1    2    0    0  0.18888934896E+04  0.11468616258E+04  0.10572783400E+04  0.24497035927E+04  0.00000000000E+00 0.  1.
<mgrwt>
<rscale>  0 0.57711615E+04</rscale>
<asrwt>0</asrwt>
<pdfrwt beam="1">  1        2 0.59993712E+00 0.57711615E+04</pdfrwt>
<pdfrwt beam="2">  1       -2 0.32849897E+00 0.57711615E+04</pdfrwt>
<totfact> 0.59507115E-03</totfact>
</mgrwt>
</event>
<event>
 6    1  0.3017327E-006  0.1333770E+04  0.7818608E-02  0.9003206E-01
          2   -1    0    0  501    0  0.00000000000E+00  0.00000000000E+00  0.11165055505E+04  0.11165055505E+04  0.00000000000E+00 0. -1.
         -2   -1    0    0    0  501 -0.00000000000E+00 -0.00000000000E+00 -0.39832804895E+03  0.39832804895E+03  0.00000000000E+00 0.  1.
         23    2    1    2    0    0 -0.21153626282E+03  0.10943550741E+03  0.10638106866E+04  0.10950884156E+04  0.10393142059E+03 0.  0.
         11    1    3    3    0    0 -0.50826960885E+02 -0.94752207507E+01  0.12580435641E+03  0.13601432224E+03  0.00000000000E+00 0. -1.
        -11    1    3    3    0    0 -0.16070930194E+03  0.11891072816E+03  0.93800633021E+03  0.95907409334E+03  0.00000000000E+00 0.  1.
         22    1    1    2    0    0  0.21153626282E+03 -0.10943550741E+03 -0.34563318506E+03  0.41974518388E+03  0.00000000000E+00 0.  1.
<mgrwt>
<rscale>  0 0.13337698E+04</rscale>
<asrwt>0</asrwt>
<pdfrwt beam="1">  1        2 0.17177008E+00 0.13337698E+04</pdfrwt>
<pdfrwt beam="2">  1       -2 0.61281239E-01 0.13337698E+04</pdfrwt>
<totfact> 0.51539963E+01</totfact>
</mgrwt>
</event>
<event>
 6    1  0.3017327E-006  0.3470782E+04  0.7818608E-02  0.8120749E-01
         -1   -1    0    0    0  501 -0.00000000000E+00  0.00000000000E+00  0.14842851332E+04  0.14842851332E+04  0.00000000000E+00 0.  1.
          1   -1    0    0  501    0  0.00000000000E+00 -0.00000000000E+00 -0.20289785757E+04  0.20289785757E+04  0.00000000000E+00 0. -1.
         23    2    1    2    0    0  0.14846893053E+03  0.63428531560E+03 -0.18994418774E+04  0.20100324536E+04  0.89387549278E+02 0.  0.
         13    1    3    3    0    0  0.14167173080E+03  0.43547609544E+03 -0.12818495775E+04  0.13611938321E+04  0.00000000000E+00 0. -1.
        -13    1    3    3    0    0  0.67971997293E+01  0.19880922017E+03 -0.61759229990E+03  0.64883862157E+03  0.00000000000E+00 0.  1.
         22    1    1    2    0    0 -0.14846893053E+03 -0.63428531560E+03  0.13547484350E+04  0.15032312553E+04  0.00000000000E+00 0.  1.
<mgrwt>
<rscale>  0 0.34707825E+04</rscale>
<asrwt>0</asrwt>
<pdfrwt beam="1">  1        1 0.31215055E+00 0.34707825E+04</pdfrwt>
<pdfrwt beam="2">  1       -1 0.22835156E+00 0.34707825E+04</pdfrwt>
<totfact> 0.22548904E-01</totfact>
</mgrwt>
</event>
<event>
 6    1  0.3017327E-006  0.7441240E+03  0.7818608E-02  0.9644614E-01
          2   -1    0    0  501    0  0.00000000000E+00  0.00000000000E+00  0.18694500656E+03  0.18694500656E+03  0.00000000000E+00 0. -1.
         -2   -1    0    0    0  501 -0.00000000000E+00 -0.00000000000E+00 -0.74048583106E+03  0.74048583106E+03  0.00000000000E+00 0.  1.
         23    2    1    2    0    0  0.16908874369E+03  0.16069778273E+03  0.73179806025E+02  0.25870553576E+03  0.84607857836E+02 0.  0.
         11    1    3    3    0    0  0.72157610717E+02  0.15901060432E+02  0.22509049562E+02  0.77241321968E+02  0.00000000000E+00 0.  1.
        -11    1    3    3    0    0  0.96931132974E+02  0.14479672230E+03  0.50670756462E+02  0.18146421380E+03  0.00000000000E+00 0. -1.
         22    1    1    2    0    0 -0.16908874369E+03 -0.16069778273E+03 -0.62672063053E+03  0.66872530186E+03  0.00000000000E+00 0.  1.
<mgrwt>
<rscale>  0 0.74412399E+03</rscale>
<asrwt>0</asrwt>
<pdfrwt beam="1">  1        2 0.28760770E-01 0.74412399E+03</pdfrwt>
<pdfrwt beam="2">  1       -2 0.11392090E+00 0.74412399E+03</pdfrwt>
<totfact> 0.11369805E+02</totfact>
</mgrwt>
</event>
<event>
 6    1  0.3017327E-006  0.3069048E+04  0.7818608E-02  0.8224284E-01
          2   -1    0    0  501    0  0.00000000000E+00  0.00000000000E+00  0.11093167098E+04  0.11093167098E+04  0.00000000000E+00 0.  1.
         -2   -1    0    0    0  501 -0.00000000000E+00 -0.00000000000E+00 -0.21227150962E+04  0.21227150962E+04  0.00000000000E+00 0. -1.
         23    2    1    2    0    0  0.10495045391E+03  0.89572951162E+03  0.79857652069E+03  0.12080261192E+04  0.90866328273E+02 0.  0.
         11    1    3    3    0    0  0.11268558939E+03  0.61907696410E+03  0.53768927069E+03  0.82768597992E+03  0.00000000000E+00 0. -1.
        -11    1    3    3    0    0 -0.77351354817E+01  0.27665254752E+03  0.26088725000E+03  0.38034013933E+03  0.00000000000E+00 0.  1.
         22    1    1    2    0    0 -0.10495045391E+03 -0.89572951162E+03 -0.18119749072E+04  0.20240056867E+04  0.00000000000E+00 0. -1.
<mgrwt>
<rscale>  0 0.30690476E+04</rscale>
<asrwt>0</asrwt>
<pdfrwt beam="1">  1        2 0.17066411E+00 0.30690476E+04</pdfrwt>
<pdfrwt beam="2">  1       -2 0.32657155E+00 0.30690476E+04</pdfrwt>
<totfact> 0.39890530E-01</totfact>
</mgrwt>
</event>
<event>
 6    1  0.3017327E-006  0.1226741E+04  0.7818608E-02  0.9089767E-01
         -1   -1    0    0    0  501 -0.00000000000E+00  0.00000000000E+00  0.67914177519E+03  0.67914177519E+03  0.00000000000E+00 0.  1.
          1   -1    0    0  501    0  0.00000000000E+00 -0.00000000000E+00 -0.55396847885E+03  0.55396847885E+03  0.00000000000E+00 0. -1.
         23    2    1    2    0    0  0.59737675418E+03  0.94857065436E+02  0.14047794470E+03  0.62805564365E+03  0.94143450490E+02 0.  0.
         11    1    3    3    0    0  0.28809938753E+03  0.88707875423E+02  0.48430989576E+02  0.30531279863E+03  0.00000000000E+00 0. -1.
        -11    1    3    3    0    0  0.30927736665E+03  0.61491900126E+01  0.92046955126E+02  0.32274284501E+03  0.00000000000E+00 0.  1.
         22    1    1    2    0    0 -0.59737675418E+03 -0.94857065436E+02 -0.15304648363E+02  0.60505461039E+03  0.00000000000E+00 0.  1.
<mgrwt>
<rscale>  0 0.12267406E+04</rscale>
<asrwt>0</asrwt>
<pdfrwt beam="1">  1        1 0.85225920E-01 0.12267406E+04</pdfrwt>
<pdfrwt beam="2">  1       -1 0.10448335E+00 0.12267406E+04</pdfrwt>
<totfact> 0.32683317E+01</totfact>
</mgrwt>
</event>
<event>
 6    1  0.3017327E-006  0.2876378E+04  0.7818608E-02  0.8279941E-01
         -2   -1    0    0    0  501 -0.00000000000E+00  0.00000000000E+00  0.15749356189E+04  0.15749356189E+04  0.00000000000E+00 0.  1.
          2   -1    0    0  501    0  0.00000000000E+00 -0.00000000000E+00 -0.13133154403E+04  0.13133154403E+04  0.00000000000E+00 0. -1.
         23    2    1    2    0    0  0.53130457842E+03 -0.53493453824E+03 -0.10959775528E+04  0.13353469683E+04  0.11638390934E+03 0.  0.
         13    1    3    3    0    0  0.47881247865E+03 -0.43679671580E+03 -0.97703766840E+03  0.11724569784E+04  0.00000000000E+00 0.  1.
        -13    1    3    3    0    0  0.52492099772E+02 -0.98137822438E+02 -0.11893988438E+03  0.16288998996E+03  0.00000000000E+00 0. -1.
         22    1    1    2    0    0 -0.53130457842E+03  0.53493453824E+03  0.13575977314E+04  0.15529040909E+04  0.00000000000E+00 0.  1.
<mgrwt>
<rscale>  0 0.28763778E+04</rscale>
<asrwt>0</asrwt>
<pdfrwt beam="1">  1        2 0.20204853E+00 0.28763778E+04</pdfrwt>
<pdfrwt beam="2">  1       -2 0.24229779E+00 0.28763778E+04</pdfrwt>
<totfact> 0.10066685E+00</totfact>
</mgrwt>
</event>
<event>
 6    1  0.3017327E-006  0.8188973E+03  0.7818608E-02  0.9533060E-01
         -2   -1    0    0    0  501 -0.00000000000E+00  0.00000000000E+00  0.79493813558E+03  0.79493813558E+03  0.00000000000E+00 0.  1.
          2   -1    0    0  501    0  0.00000000000E+00 -0.00000000000E+00 -0.21089465785E+03  0.21089465785E+03  0.00000000000E+00 0. -1.
         23    2    1    2    0    0  0.71143338868E+02 -0.25886899370E+03  0.66699314675E+03  0.72484315278E+03  0.91886929180E+02 0.  0.
         11    1    3    3    0    0  0.38099368370E+01 -0.89670447713E+02  0.32771180106E+03  0.33977982483E+03  0.00000000000E+00 0. -1.
        -11    1    3    3    0    0  0.67333402031E+02 -0.16919854598E+03  0.33928134569E+03  0.38506332795E+03  0.00000000000E+00 0.  1.
         22    1    1    2    0    0 -0.71143338868E+02  0.25886899370E+03 -0.82949669020E+02  0.28098964065E+03  0.00000000000E+00 0. -1.
<mgrwt>
<rscale>  0 0.81889732E+03</rscale>
<asrwt>0</asrwt>
<pdfrwt beam="1">  1        2 0.32445332E-01 0.81889732E+03</pdfrwt>
<pdfrwt beam="2">  1       -2 0.12229817E+00 0.81889732E+03</pdfrwt>
<totfact> 0.83033982E+01</totfact>
</mgrwt>
</event>
<event>
 6    1  0.3017327E-006  0.2510128E+04  0.7818608E-02  0.8399386E-01
          1   -1    0    0  501    0  0.00000000000E+00  0.00000000000E+00  0.18067835365E+04  0.18067835365E+04  0.00000000000E+00 0. -1.
         -1   -1    0    0    0  501 -0.00000000000E+00 -0.00000000000E+00 -0.87181768088E+03  0.87181768088E+03  0.00000000000E+00 0.  1.
         23    2    1    2    0    0  0.59877887724E+03  0.92949647847E+02 -0.70277316806E+03  0.93235813851E+03  0.90696151249E+02 0.  0.
         13    1    3    3    0    0  0.58998269459E+02  0.40738490433E+01 -0.11554750776E+03  0.12980222877E+03  0.00000000000E+00 0. -1.
        -13    1    3    3    0    0  0.53978060778E+03  0.88875798804E+02 -0.58722566030E+03  0.80255590974E+03  0.00000000000E+00 0.  1.
         22    1    1    2    0    0 -0.59877887724E+03 -0.92949647847E+02  0.16377390237E+04  0.17462430789E+04  0.00000000000E+00 0. -1.
<mgrwt>
<rscale>  0 0.25101282E+04</rscale>
<asrwt>0</asrwt>
<pdfrwt beam="1">  1        1 0.27796670E+00 0.25101282E+04</pdfrwt>
<pdfrwt beam="2">  1       -1 0.13412580E+00 0.25101282E+04</pdfrwt>
<totfact> 0.16757403E+00</totfact>
</mgrwt>
</event>
<event>
 6    1  0.3017327E-006  0.1134179E+04  0.7818608E-02  0.9172505E-01
         -2   -1    0    0    0  501 -0.00000000000E+00  0.00000000000E+00  0.27707028327E+03  0.27707028327E+03  0.00000000000E+00 0.  1.
          2   -1    0    0  501    0  0.00000000000E+00 -0.00000000000E+00 -0.11606810981E+04  0.11606810981E+04  0.00000000000E+00 0. -1.
         23    2    1    2    0    0 -0.28848859454E+03  0.33750992823E+03 -0.50973144459E+01  0.45341170870E+03  0.91747338599E+02 0.  0.
         13    1    3    3    0    0 -0.91720697330E+02  0.17691511606E+03 -0.74275161028E+01  0.19941617940E+03  0.00000000000E+00 0.  1.
        -13    1    3    3    0    0 -0.19676789721E+03  0.16059481217E+03  0.23302016569E+01  0.25399552931E+03  0.00000000000E+00 0. -1.
         22    1    1    2    0    0  0.28848859454E+03 -0.33750992823E+03 -0.87851350039E+03  0.98433967268E+03  0.00000000000E+00 0. -1.
<mgrwt>
<rscale>  0 0.11341785E+04</rscale>
<asrwt>0</asrwt>
<pdfrwt beam="1">  1        2 0.17856632E+00 0.11341785E+04</pdfrwt>
<pdfrwt beam="2">  1       -2 0.42626198E-01 0.11341785E+04</pdfrwt>
<totfact> 0.10333509E+02</totfact>
</mgrwt>
</event>
<event>
 6    1  0.3017327E-006  0.2702757E+04  0.7818608E-02  0.8334111E-01
          2   -1    0    0  501    0  0.00000000000E+00  0.00000000000E+00  0.26405542651E+04  0.26405542651E+04  0.00000000000E+00 0.  1.
         -2   -1    0    0    0  501 -0.00000000000E+00 -0.00000000000E+00 -0.69160643459E+03  0.69160643459E+03  0.00000000000E+00 0. -1.
         23    2    1    2    0    0 -0.87239740717E+03  0.88014753355E+03  0.31608055762E+03  0.12822844967E+04  0.92788440253E+02 0.  0.
         11    1    3    3    0    0 -0.19751618153E+03  0.16691218519E+03  0.35212127192E+02  0.26098316695E+03  0.00000000000E+00 0. -1.
        -11    1    3    3    0    0 -0.67488122563E+03  0.71323534836E+03  0.28086843043E+03  0.10213013297E+04  0.00000000000E+00 0.  1.
         22    1    1    2    0    0  0.87239740717E+03 -0.88014753355E+03  0.16328672729E+04  0.20498762030E+04  0.00000000000E+00 0.  1.
<mgrwt>
<rscale>  0 0.27027573E+04</rscale>
<asrwt>0</asrwt>
<pdfrwt beam="1">  1        2 0.40623911E+00 0.27027573E+04</pdfrwt>
<pdfrwt beam="2">  1       -2 0.10640099E+00 0.27027573E+04</pdfrwt>
<totfact> 0.17982230E+00</totfact>
</mgrwt>
</event>
<event>
 6    1  0.3017327E-006  0.3308318E+04  0.7818608E-02  0.8160782E-01
          2   -1    0    0  501    0  0.00000000000E+00  0.00000000000E+00  0.18301899483E+04  0.18301899483E+04  0.00000000000E+00 0. -1.
         -2   -1    0    0    0  501 -0.00000000000E+00 -0.00000000000E+00 -0.14950590707E+04  0.14950590707E+04  0.00000000000E+00 0.  1.
         23    2    1    2    0    0  0.32221561187E+03 -0.15011476848E+04  0.78281541543E+03  0.17259714579E+04  0.94393998470E+02 0.  0.
         11    1    3    3    0    0  0.15617301106E+02 -0.12924859250E+03  0.93740240259E+02  0.16042546993E+03  0.00000000000E+00 0.  1.
        -11    1    3    3    0    0  0.30659831077E+03 -0.13718990923E+04  0.68907517517E+03  0.15655459880E+04  0.00000000000E+00 0. -1.
         22    1    1    2    0    0 -0.32221561187E+03  0.15011476848E+04 -0.44768453782E+03  0.15992775611E+04  0.00000000000E+00 0. -1.
<mgrwt>
<rscale>  0 0.33083181E+04</rscale>
<asrwt>0</asrwt>
<pdfrwt beam="1">  1        2 0.28156768E+00 0.33083181E+04</pdfrwt>
<pdfrwt beam="2">  1       -2 0.23000909E+00 0.33083181E+04</pdfrwt>
<totfact> 0.59241549E-01</totfact>
</mgrwt>
</event>
<event>
 6    1  0.3017327E-006  0.3330820E+04  0.7818608E-02  0.8155097E-01
         -2   -1    0    0    0  501 -0.00000000000E+00  0.00000000000E+00  0.24721298892E+04  0.24721298892E+04  0.00000000000E+00 0.  1.
          2   -1    0    0  501    0  0.00000000000E+00 -0.00000000000E+00 -0.11219439365E+04  0.11219439365E+04  0.00000000000E+00 0. -1.
         23    2    1    2    0    0 -0.11279183452E+04  0.22255659373E+02  0.19957162854E+04  0.22943028774E+04  0.90813509478E+02 0.  0.
         11    1    3    3    0    0 -0.42363661536E+03  0.31533315575E+02  0.67615603623E+03  0.79852947172E+03  0.00000000000E+00 0. -1.
        -11    1    3    3    0    0 -0.70428172983E+03 -0.92776562020E+01  0.13195602492E+04  0.14957734057E+04  0.00000000000E+00 0.  1.
         22    1    1    2    0    0  0.11279183452E+04 -0.22255659373E+02 -0.64553033262E+03  0.12997709483E+04  0.00000000000E+00 0. -1.
<mgrwt>
<rscale>  0 0.33308204E+04</rscale>
<asrwt>0</asrwt>
<pdfrwt beam="1">  1        2 0.17260676E+00 0.33308204E+04</pdfrwt>
<pdfrwt beam="2">  1       -2 0.38032767E+00 0.33308204E+04</pdfrwt>
<totfact> 0.17518011E-01</totfact>
</mgrwt>
</event>
<event>
 6    1  0.3017327E-006  0.1450799E+04  0.7818608E-02  0.8917847E-01
          2   -1    0    0  501    0  0.00000000000E+00  0.00000000000E+00  0.24094580635E+04  0.24094580635E+04  0.00000000000E+00 0. -1.
         -2   -1    0    0    0  501 -0.00000000000E+00 -0.00000000000E+00 -0.21839105927E+03  0.21839105927E+03  0.00000000000E+00 0.  1.
         23    2    1    2    0    0 -0.26178354628E+03 -0.67223121319E+03  0.11704074286E+04  0.13779805703E+04  0.92474180994E+02 0.  0.
         11    1    3    3    0    0 -0.20232290276E+03 -0.39766349962E+03  0.73393851108E+03  0.85891591786E+03  0.00000000000E+00 0. -1.
        -11    1    3    3    0    0 -0.59460643514E+02 -0.27456771357E+03  0.43646891755E+03  0.51906465248E+03  0.00000000000E+00 0.  1.
         22    1    1    2    0    0  0.26178354628E+03  0.67223121319E+03  0.10206595756E+04  0.12498685524E+04  0.00000000000E+00 0.  1.
<mgrwt>
<rscale>  0 0.14507985E+04</rscale>
<asrwt>0</asrwt>
<pdfrwt beam="1">  1        2 0.37068584E+00 0.14507985E+04</pdfrwt>
<pdfrwt beam="2">  1       -2 0.33598626E-01 0.14507985E+04</pdfrwt>
<totfact> 0.31613520E+01</totfact>
</mgrwt>
</event>
<event>
 6    1  0.3017327E-006  0.2983169E+04  0.7818608E-02  0.8248554E-01
         -2   -1    0    0    0  501 -0.00000000000E+00  0.00000000000E+00  0.13597945637E+04  0.13597945637E+04  0.00000000000E+00 0.  1.
          2   -1    0    0  501    0  0.00000000000E+00 -0.00000000000E+00 -0.16361471852E+04  0.16361471852E+04  0.00000000000E+00 0. -1.
         23    2    1    2    0    0 -0.56415405764E+03 -0.72258237441E+03 -0.13183203707E+04  0.16081046264E+04  0.87388792271E+02 0.  0.
         11    1    3    3    0    0 -0.93332592346E+02 -0.17102089138E+03 -0.30847543875E+03  0.36485094819E+03  0.00000000000E+00 0.  1.
        -11    1    3    3    0    0 -0.47082146529E+03 -0.55156148303E+03 -0.10098449319E+04  0.12432536782E+04  0.00000000000E+00 0. -1.
         22    1    1    2    0    0  0.56415405764E+03  0.72258237441E+03  0.10419677491E+04  0.13878371226E+04  0.00000000000E+00 0.  1.
<mgrwt>
<rscale>  0 0.29831688E+04</rscale>
<asrwt>0</asrwt>
<pdfrwt beam="1">  1        2 0.25171495E+00 0.29831688E+04</pdfrwt>
<pdfrwt beam="2">  1       -2 0.20919916E+00 0.29831688E+04</pdfrwt>
<totfact> 0.10574487E+00</totfact>
</mgrwt>
</event>
<event>
 6    1  0.3017327E-006  0.1817900E+04  0.7818608E-02  0.8696838E-01
          2   -1    0    0  501    0  0.00000000000E+00  0.00000000000E+00  0.13443184176E+04  0.13443184176E+04  0.00000000000E+00 0. -1.
         -2   -1    0    0    0  501 -0.00000000000E+00 -0.00000000000E+00 -0.61457899724E+03  0.61457899724E+03  0.00000000000E+00 0.  1.
         23    2    1    2    0    0  0.69796686957E+03  0.56057695646E+02 -0.25488601009E+03  0.75068077261E+03  0.90854432897E+02 0.  0.
         11    1    3    3    0    0  0.17692128956E+03  0.19852088545E+02 -0.24072556059E+02  0.17965170768E+03  0.00000000000E+00 0.  1.
        -11    1    3    3    0    0  0.52104558001E+03  0.36205607101E+02 -0.23081345403E+03  0.57102906493E+03  0.00000000000E+00 0. -1.
         22    1    1    2    0    0 -0.69796686957E+03 -0.56057695646E+02  0.98462543049E+03  0.12082166423E+04  0.00000000000E+00 0. -1.
<mgrwt>
<rscale>  0 0.18178997E+04</rscale>
<asrwt>0</asrwt>
<pdfrwt beam="1">  1        2 0.20681822E+00 0.18178997E+04</pdfrwt>
<pdfrwt beam="2">  1       -2 0.94550615E-01 0.18178997E+04</pdfrwt>
<totfact> 0.13842732E+01</totfact>
</mgrwt>
</event>
<event>
 6    1  0.3017327E-006  0.3446804E+04  0.7818608E-02  0.8126514E-01
          2   -1    0    0  501    0  0.00000000000E+00  0.00000000000E+00  0.14561055364E+04  0.14561055364E+04  0.00000000000E+00 0. -1.
         -2   -1    0    0    0  501 -0.00000000000E+00 -0.00000000000E+00 -0.20397664109E+04  0.20397664109E+04  0.00000000000E+00 0.  1.
         23    2    1    2    0    0 -0.95905047698E+03 -0.41935049744E+03 -0.16791263261E+04  0.19807227096E+04  0.90358044745E+02 0.  0.
         13    1    3    3    0    0 -0.66856446587E+03 -0.30413313204E+03 -0.12509052818E+04  0.14505996798E+04  0.00000000000E+00 0. -1.
        -13    1    3    3    0    0 -0.29048601111E+03 -0.11521736539E+03 -0.42822104430E+03  0.53012302980E+03  0.00000000000E+00 0.  1.
         22    1    1    2    0    0  0.95905047698E+03  0.41935049744E+03  0.10954654516E+04  0.15151492378E+04  0.00000000000E+00 0. -1.
<mgrwt>
<rscale>  0 0.34468044E+04</rscale>
<asrwt>0</asrwt>
<pdfrwt beam="1">  1        2 0.22401624E+00 0.34468044E+04</pdfrwt>
<pdfrwt beam="2">  1       -2 0.31381022E+00 0.34468044E+04</pdfrwt>
<totfact> 0.28998853E-01</totfact>
</mgrwt>
</event>
<event>
 6    1  0.3017327E-006  0.2078984E+04  0.7818608E-02  0.8570558E-01
         -2   -1    0    0    0  501 -0.00000000000E+00  0.00000000000E+00  0.81027499105E+03  0.81027499105E+03  0.00000000000E+00 0.  1.
          2   -1    0    0  501    0  0.00000000000E+00 -0.00000000000E+00 -0.13335521515E+04  0.13335521515E+04  0.00000000000E+00 0. -1.
         23    2    1    2    0    0 -0.43788254390E+03 -0.78909626728E+03 -0.79105222825E+03  0.12024889843E+04  0.76171439994E+02 0.  0.
         13    1    3    3    0    0 -0.48143304962E+02 -0.80622300037E+02 -0.53682299891E+02  0.10816433052E+03  0.00000000000E+00 0.  1.
        -13    1    3    3    0    0 -0.38973923893E+03 -0.70847396725E+03 -0.73736992836E+03  0.10943246538E+04  0.00000000000E+00 0. -1.
         22    1    1    2    0    0  0.43788254390E+03  0.78909626728E+03  0.26777506778E+03  0.94133815827E+03  0.00000000000E+00 0.  1.
<mgrwt>
<rscale>  0 0.20789843E+04</rscale>
<asrwt>0</asrwt>
<pdfrwt beam="1">  1        2 0.20516187E+00 0.20789843E+04</pdfrwt>
<pdfrwt beam="2">  1       -2 0.12465769E+00 0.20789843E+04</pdfrwt>
<totfact> 0.70451218E+00</totfact>
</mgrwt>
</event>
<event>
 6    1  0.3017327E-006  0.7474368E+03  0.7818608E-02  0.9639380E-01
          2   -1    0    0  501    0  0.00000000000E+00  0.00000000000E+00  0.11837063329E+04  0.11837063329E+04  0.00000000000E+00 0. -1.
         -2   -1    0    0    0  501 -0.00000000000E+00 -0.00000000000E+00 -0.11798994339E+03  0.11798994339E+03  0.00000000000E+00 0.  1.
         23    2    1    2    0    0  0.15976110455E+03 -0.33133694395E+03  0.62467385155E+03  0.72739121690E+03  0.59772741755E+02 0.  0.
         13    1    3    3    0    0  0.10141167877E+03 -0.26789810074E+03  0.48365610169E+03  0.56211826662E+03  0.00000000000E+00 0. -1.
        -13    1    3    3    0    0  0.58349425782E+02 -0.63438843218E+02  0.14101774986E+03  0.16527295028E+03  0.00000000000E+00 0.  1.
         22    1    1    2    0    0 -0.15976110455E+03  0.33133694395E+03  0.44104253796E+03  0.57430505940E+03  0.00000000000E+00 0.  1.
<mgrwt>
<rscale>  0 0.74743680E+03</rscale>
<asrwt>0</asrwt>
<pdfrwt beam="1">  1        2 0.18210866E+00 0.74743680E+03</pdfrwt>
<pdfrwt beam="2">  1       -2 0.18152300E-01 0.74743680E+03</pdfrwt>
<totfact> 0.49333122E+02</totfact>
</mgrwt>
</event>
<event>
 6    1  0.3017327E-006  0.1952658E+04  0.7818608E-02  0.8629080E-01
          2   -1    0    0  501    0  0.00000000000E+00  0.00000000000E+00  0.11570079330E+04  0.11570079330E+04  0.00000000000E+00 0. -1.
         -2   -1    0    0    0  501 -0.00000000000E+00 -0.00000000000E+00 -0.82386484526E+03  0.82386484526E+03  0.00000000000E+00 0.  1.
         23    2    1    2    0    0  0.52845793883E+02  0.57591283244E+03 -0.62780873249E+03  0.85931285150E+03  0.99027792379E+02 0.  0.
         13    1    3    3    0    0 -0.54513421920E+01  0.27363325391E+03 -0.23874664019E+03  0.36318704958E+03  0.00000000000E+00 0. -1.
        -13    1    3    3    0    0  0.58297136075E+02  0.30227957853E+03 -0.38906209230E+03  0.49612580193E+03  0.00000000000E+00 0.  1.
         22    1    1    2    0    0 -0.52845793883E+02 -0.57591283244E+03  0.96095182019E+03  0.11215599267E+04  0.00000000000E+00 0. -1.
<mgrwt>
<rscale>  0 0.19526578E+04</rscale>
<asrwt>0</asrwt>
<pdfrwt beam="1">  1        2 0.17800122E+00 0.19526578E+04</pdfrwt>
<pdfrwt beam="2">  1       -2 0.12674844E+00 0.19526578E+04</pdfrwt>
<totfact> 0.86825113E+00</totfact>
</mgrwt>
</event>
<event>
 6    1  0.3017327E-006  0.1162794E+04  0.7818608E-02  0.9146061E-01
          1   -1    0    0  501    0  0.00000000000E+00  0.00000000000E+00  0.74101599443E+03  0.74101599443E+03  0.00000000000E+00 0. -1.
         -1   -1    0    0    0  501 -0.00000000000E+00 -0.00000000000E+00 -0.45616102967E+03  0.45616102967E+03  0.00000000000E+00 0.  1.
         23    2    1    2    0    0 -0.28946931654E+03 -0.48344056412E+02  0.65575061121E+03  0.72421485483E+03  0.91370995633E+02 0.  0.
         13    1    3    3    0    0 -0.21257003139E+03 -0.73970791929E+02  0.45212786237E+03  0.50505177976E+03  0.00000000000E+00 0. -1.
        -13    1    3    3    0    0 -0.76899285150E+02  0.25626735517E+02  0.20362274883E+03  0.21916307507E+03  0.00000000000E+00 0.  1.
         22    1    1    2    0    0  0.28946931654E+03  0.48344056412E+02 -0.37089564645E+03  0.47296216927E+03  0.00000000000E+00 0.  1.
<mgrwt>
<rscale>  0 0.11627943E+04</rscale>
<asrwt>0</asrwt>
<pdfrwt beam="1">  1        1 0.11400246E+00 0.11627943E+04</pdfrwt>
<pdfrwt beam="2">  1       -1 0.70178620E-01 0.11627943E+04</pdfrwt>
<totfact> 0.50846672E+01</totfact>
</mgrwt>
</event>
<event>
 6    1  0.3017327E-006  0.2060090E+04  0.7818608E-02  0.8579031E-01
         -2   -1    0    0    0  501 -0.00000000000E+00  0.00000000000E+00  0.36358652190E+03  0.36358652190E+03  0.00000000000E+00 0.  1.
          2   -1    0    0  501    0  0.00000000000E+00 -0.00000000000E+00 -0.29181301750E+04  0.29181301750E+04  0.00000000000E+00 0. -1.
         23    2    1    2    0    0 -0.53032149837E+03  0.80406329202E+03 -0.70753455515E+03  0.11986417397E+04  0.91532531474E+02 0.  0.
         11    1    3    3    0    0 -0.14703897608E+03  0.30204672008E+03 -0.24535267719E+03  0.41599353096E+03  0.00000000000E+00 0.  1.
        -11    1    3    3    0    0 -0.38328252229E+03  0.50201657194E+03 -0.46218187797E+03  0.78264820879E+03  0.00000000000E+00 0. -1.
         22    1    1    2    0    0  0.53032149837E+03 -0.80406329202E+03 -0.18470090979E+04  0.20830749571E+04  0.00000000000E+00 0. -1.
<mgrwt>
<rscale>  0 0.20600901E+04</rscale>
<asrwt>0</asrwt>
<pdfrwt beam="1">  1        2 0.44894310E+00 0.20600901E+04</pdfrwt>
<pdfrwt beam="2">  1       -2 0.55936388E-01 0.20600901E+04</pdfrwt>
<totfact> 0.54424388E+00</totfact>
</mgrwt>
</event>
<event>
 6    1  0.3017327E-006  0.3279532E+04  0.7818608E-02  0.8168123E-01
         -2   -1    0    0    0  501 -0.00000000000E+00  0.00000000000E+00  0.95453672847E+03  0.95453672847E+03  0.00000000000E+00 0.  1.
          2   -1    0    0  501    0  0.00000000000E+00 -0.00000000000E+00 -0.28168985653E+04  0.28168985653E+04  0.00000000000E+00 0. -1.
         23    2    1    2    0    0 -0.94992359313E+02 -0.15772226499E+04 -0.14318113957E+04  0.21337452992E+04  0.78296190472E+02 0.  0.
         11    1    3    3    0    0 -0.22262859061E+02 -0.33375092833E+03 -0.34717682603E+03  0.48209653140E+03  0.00000000000E+00 0.  1.
        -11    1    3    3    0    0 -0.72729500253E+02 -0.12434717216E+04 -0.10846345696E+04  0.16516487678E+04  0.00000000000E+00 0. -1.
         22    1    1    2    0    0  0.94992359313E+02  0.15772226499E+04 -0.43055044116E+03  0.16376899945E+04  0.00000000000E+00 0.  1.
<mgrwt>
<rscale>  0 0.32795324E+04</rscale>
<asrwt>0</asrwt>
<pdfrwt beam="1">  1        2 0.43336901E+00 0.32795324E+04</pdfrwt>
<pdfrwt beam="2">  1       -2 0.14685180E+00 0.32795324E+04</pdfrwt>
<totfact> 0.59848831E-01</totfact>
</mgrwt>
</event>
<event>
 6    1  0.3017327E-006  0.3175390E+04  0.7818608E-02  0.8195347E-01
          2   -1    0    0  501    0  0.00000000000E+00  0.00000000000E+00  0.10649563192E+04  0.10649563192E+04  0.00000000000E+00 0. -1.
         -2   -1    0    0    0  501 -0.00000000000E+00 -0.00000000000E+00 -0.23670221832E+04  0.23670221832E+04  0.00000000000E+00 0.  1.
         23    2    1    2    0    0  0.14171376834E+04 -0.37922048019E+03 -0.13035630541E+04  0.19649782885E+04  0.98871896055E+02 0.  0.
         11    1    3    3    0    0  0.10906156473E+04 -0.28785177834E+03 -0.10562206478E+04  0.15452841788E+04  0.00000000000E+00 0.  1.
        -11    1    3    3    0    0  0.32652203608E+03 -0.91368701852E+02 -0.24734240637E+03  0.41969410969E+03  0.00000000000E+00 0. -1.
         22    1    1    2    0    0 -0.14171376834E+04  0.37922048019E+03  0.14971901822E+01  0.14670002140E+04  0.00000000000E+00 0.  1.
<mgrwt>
<rscale>  0 0.31753899E+04</rscale>
<asrwt>0</asrwt>
<pdfrwt beam="1">  1        2 0.16383944E+00 0.31753899E+04</pdfrwt>
<pdfrwt beam="2">  1       -2 0.36415725E+00 0.31753899E+04</pdfrwt>
<totfact> 0.24442986E-01</totfact>
</mgrwt>
</event>
<event>
 6    1  0.3017327E-006  0.2291181E+04  0.7818608E-02  0.8481407E-01
         -2   -1    0    0    0  501 -0.00000000000E+00  0.00000000000E+00  0.91171906497E+03  0.91171906497E+03  0.00000000000E+00 0.  1.
          2   -1    0    0  501    0  0.00000000000E+00 -0.00000000000E+00 -0.14394533658E+04  0.14394533658E+04  0.00000000000E+00 0. -1.
         23    2    1    2    0    0  0.66205494567E+03 -0.30267473568E+03  0.63921882703E+03  0.97577854197E+03  0.11668036440E+03 0.  0.
         13    1    3    3    0    0  0.25618220058E+03 -0.74366705047E+02  0.28755108196E+03  0.39223124742E+03  0.00000000000E+00 0. -1.
        -13    1    3    3    0    0  0.40587274510E+03 -0.22830803063E+03  0.35166774507E+03  0.58354729456E+03  0.00000000000E+00 0.  1.
         22    1    1    2    0    0 -0.66205494567E+03  0.30267473568E+03 -0.11669531279E+04  0.13753938888E+04  0.00000000000E+00 0. -1.
<mgrwt>
<rscale>  0 0.22911805E+04</rscale>
<asrwt>0</asrwt>
<pdfrwt beam="1">  1        2 0.22145436E+00 0.22911805E+04</pdfrwt>
<pdfrwt beam="2">  1       -2 0.14026447E+00 0.22911805E+04</pdfrwt>
<totfact> 0.44556781E+00</totfact>
</mgrwt>
</event>
<event>
 6    1  0.3017327E-006  0.8473694E+03  0.7818608E-02  0.9493874E-01
          3   -1    0    0  501    0  0.00000000000E+00  0.00000000000E+00  0.18257683412E+03  0.18257683412E+03  0.00000000000E+00 0. -1.
         -3   -1    0    0    0  501 -0.00000000000E+00 -0.00000000000E+00 -0.98319561927E+03  0.98319561927E+03  0.00000000000E+00 0.  1.
         23    2    1    2    0    0  0.17328425914E+03  0.33201393710E+03 -0.66277578622E+03  0.76669679484E+03  0.91057913071E+02 0.  0.
         13    1    3    3    0    0  0.12782989947E+03  0.24252683287E+03 -0.39577189066E+03  0.48145107466E+03  0.00000000000E+00 0.  1.
        -13    1    3    3    0    0  0.45454359668E+02  0.89487104231E+02 -0.26700389556E+03  0.28524572018E+03  0.00000000000E+00 0. -1.
         22    1    1    2    0    0 -0.17328425914E+03 -0.33201393710E+03 -0.13784299893E+03  0.39907565855E+03  0.00000000000E+00 0. -1.
<mgrwt>
<rscale>  0 0.84736944E+03</rscale>
<asrwt>0</asrwt>
<pdfrwt beam="1">  1        3 0.28088743E-01 0.84736944E+03</pdfrwt>
<pdfrwt beam="2">  1       -3 0.15126087E+00 0.84736944E+03</pdfrwt>
<totfact> 0.10210416E+01</totfact>
</mgrwt>
</event>
<event>
 6    1  0.3017327E-006  0.1608980E+04  0.7818608E-02  0.8815050E-01
          2   -1    0    0  501    0  0.00000000000E+00  0.00000000000E+00  0.12714507145E+04  0.12714507145E+04  0.00000000000E+00 0. -1.
         -2   -1    0    0    0  501 -0.00000000000E+00 -0.00000000000E+00 -0.50902824443E+03  0.50902824443E+03  0.00000000000E+00 0.  1.
         23    2    1    2    0    0  0.32308016236E+03  0.14586812232E+03 -0.41334307841E+03  0.55243868051E+03  0.93154145524E+02 0.  0.
         11    1    3    3    0    0  0.92839080480E+02  0.19202079363E+02 -0.60394371949E+02  0.11240682755E+03  0.00000000000E+00 0.  1.
        -11    1    3    3    0    0  0.23024108188E+03  0.12666604296E+03 -0.35294870647E+03  0.44003185296E+03  0.00000000000E+00 0. -1.
         22    1    1    2    0    0 -0.32308016236E+03 -0.14586812232E+03  0.11757655485E+04  0.12280402785E+04  0.00000000000E+00 0. -1.
<mgrwt>
<rscale>  0 0.16089802E+04</rscale>
<asrwt>0</asrwt>
<pdfrwt beam="1">  1        2 0.19560780E+00 0.16089802E+04</pdfrwt>
<pdfrwt beam="2">  1       -2 0.78312038E-01 0.16089802E+04</pdfrwt>
<totfact> 0.23876009E+01</totfact>
</mgrwt>
</event>
<event>
 6    1  0.3017327E-006  0.2262882E+04  0.7818608E-02  0.8492702E-01
         -2   -1    0    0    0  501 -0.00000000000E+00  0.00000000000E+00  0.19359620194E+04  0.19359620194E+04  0.00000000000E+00 0.  1.
          2   -1    0    0  501    0  0.00000000000E+00 -0.00000000000E+00 -0.66125212542E+03  0.66125212542E+03  0.00000000000E+00 0. -1.
         23    2    1    2    0    0 -0.83007927341E+03 -0.74608598607E+03  0.43820649697E+03  0.12024332187E+04  0.90248615584E+02 0.  0.
         13    1    3    3    0    0 -0.79047070855E+03 -0.68066745666E+03  0.40377214254E+03  0.11185633959E+04  0.00000000000E+00 0. -1.
        -13    1    3    3    0    0 -0.39608564858E+02 -0.65418529410E+02  0.34434354427E+02  0.83869822732E+02  0.00000000000E+00 0.  1.
         22    1    1    2    0    0  0.83007927341E+03  0.74608598607E+03  0.83650339702E+03  0.13947809262E+04  0.00000000000E+00 0.  1.
<mgrwt>
<rscale>  0 0.22628822E+04</rscale>
<asrwt>0</asrwt>
<pdfrwt beam="1">  1        2 0.10173110E+00 0.22628822E+04</pdfrwt>
<pdfrwt beam="2">  1       -2 0.29784031E+00 0.22628822E+04</pdfrwt>
<totfact> 0.13119791E+00</totfact>
</mgrwt>
</event>
<event>
 6    1  0.3017327E-006  0.4577113E+04  0.7818608E-02  0.7897274E-01
          2   -1    0    0  501    0  0.00000000000E+00  0.00000000000E+00  0.34617678349E+04  0.34617678349E+04  0.00000000000E+00 0. -1.
         -2   -1    0    0    0  501 -0.00000000000E+00 -0.00000000000E+00 -0.15129525540E+04  0.15129525540E+04  0.00000000000E+00 0.  1.
         23    2    1    2    0    0  0.42151269941E+03  0.13435901997E+04 -0.98490704239E+03  0.17205485665E+04  0.85661584260E+02 0.  0.
         13    1    3    3    0    0  0.32571489430E+03  0.90497215132E+03 -0.67131408307E+03  0.11729140570E+04  0.00000000000E+00 0.  1.
        -13    1    3    3    0    0  0.95797805111E+02  0.43861804833E+03 -0.31359295932E+03  0.54763450943E+03  0.00000000000E+00 0. -1.
         22    1    1    2    0    0 -0.42151269941E+03 -0.13435901997E+04  0.29337223233E+04  0.32541718225E+04  0.00000000000E+00 0. -1.
<mgrwt>
<rscale>  0 0.45771128E+04</rscale>
<asrwt>0</asrwt>
<pdfrwt beam="1">  1        2 0.53257966E+00 0.45771128E+04</pdfrwt>
<pdfrwt beam="2">  1       -2 0.23276193E+00 0.45771128E+04</pdfrwt>
<totfact> 0.53388782E-02</totfact>
</mgrwt>
</event>
<event>
 6    1  0.3017327E-006  0.2428742E+04  0.7818608E-02  0.8428821E-01
         -1   -1    0    0    0  501 -0.00000000000E+00  0.00000000000E+00  0.80316869082E+03  0.80316869082E+03  0.00000000000E+00 0. -1.
          1   -1    0    0  501    0  0.00000000000E+00 -0.00000000000E+00 -0.18360981700E+04  0.18360981700E+04  0.00000000000E+00 0.  1.
         23    2    1    2    0    0 -0.35751731435E+03 -0.52881071994E+03  0.60326819451E+03  0.88296328941E+03  0.90731738381E+02 0.  0.
         11    1    3    3    0    0 -0.60404639842E+02 -0.12610122200E+03  0.17710047933E+03  0.22564312195E+03  0.00000000000E+00 0. -1.
        -11    1    3    3    0    0 -0.29711267451E+03 -0.40270949794E+03  0.42616771518E+03  0.65732016746E+03  0.00000000000E+00 0.  1.
         22    1    1    2    0    0  0.35751731435E+03  0.52881071994E+03 -0.16361976737E+04  0.17563035714E+04  0.00000000000E+00 0.  1.
<mgrwt>
<rscale>  0 0.24287417E+04</rscale>
<asrwt>0</asrwt>
<pdfrwt beam="1">  1        1 0.28247664E+00 0.24287417E+04</pdfrwt>
<pdfrwt beam="2">  1       -1 0.12356441E+00 0.24287417E+04</pdfrwt>
<totfact> 0.19819973E+00</totfact>
</mgrwt>
</event>
<event>
 6    1  0.3017327E-006  0.3314504E+04  0.7818608E-02  0.8159215E-01
          2   -1    0    0  501    0  0.00000000000E+00  0.00000000000E+00  0.33769197481E+04  0.33769197481E+04  0.00000000000E+00 0. -1.
         -2   -1    0    0    0  501 -0.00000000000E+00 -0.00000000000E+00 -0.81331067557E+03  0.81331067557E+03  0.00000000000E+00 0.  1.
         23    2    1    2    0    0  0.11851941485E+04 -0.98143135405E+03  0.50925579389E+03  0.16234698065E+04  0.91760975841E+02 0.  0.
         11    1    3    3    0    0  0.40915921920E+03 -0.39630905305E+03  0.18767487950E+03  0.59974493960E+03  0.00000000000E+00 0. -1.
        -11    1    3    3    0    0  0.77603492930E+03 -0.58512230101E+03  0.32158091439E+03  0.10237248669E+04  0.00000000000E+00 0.  1.
         22    1    1    2    0    0 -0.11851941485E+04  0.98143135405E+03  0.20543532787E+04  0.25667606172E+04  0.00000000000E+00 0. -1.
<mgrwt>
<rscale>  0 0.33145044E+04</rscale>
<asrwt>0</asrwt>
<pdfrwt beam="1">  1        2 0.51952611E+00 0.33145044E+04</pdfrwt>
<pdfrwt beam="2">  1       -2 0.12512472E+00 0.33145044E+04</pdfrwt>
<totfact> 0.39393673E-01</totfact>
</mgrwt>
</event>
<event>
 6    1  0.3017327E-006  0.2618556E+04  0.7818608E-02  0.8361925E-01
          2   -1    0    0  501    0  0.00000000000E+00  0.00000000000E+00  0.24587770103E+04  0.24587770103E+04  0.00000000000E+00 0. -1.
         -2   -1    0    0    0  501 -0.00000000000E+00 -0.00000000000E+00 -0.69717954943E+03  0.69717954943E+03  0.00000000000E+00 0.  1.
         23    2    1    2    0    0 -0.50477675325E+03 -0.71202831157E+03  0.20555894023E+04  0.22349705942E+04  0.88667238241E+02 0.  0.
         11    1    3    3    0    0 -0.35583423662E+02 -0.21159364015E+02  0.78833913267E+02  0.89043161478E+02  0.00000000000E+00 0. -1.
        -11    1    3    3    0    0 -0.46919332959E+03 -0.69086894756E+03  0.19767554890E+04  0.21459274327E+04  0.00000000000E+00 0.  1.
         22    1    1    2    0    0  0.50477675325E+03  0.71202831157E+03 -0.29399194139E+03  0.92098596553E+03  0.00000000000E+00 0.  1.
<mgrwt>
<rscale>  0 0.26185561E+04</rscale>
<asrwt>0</asrwt>
<pdfrwt beam="1">  1        2 0.37827338E+00 0.26185561E+04</pdfrwt>
<pdfrwt beam="2">  1       -2 0.10725839E+00 0.26185561E+04</pdfrwt>
<totfact> 0.22679204E+00</totfact>
</mgrwt>
</event>
<event>
 6    1  0.3017327E-006  0.1287537E+04  0.7818608E-02  0.9039507E-01
         -2   -1    0    0    0  501 -0.00000000000E+00  0.00000000000E+00  0.29928186330E+03  0.29928186330E+03  0.00000000000E+00 0.  1.
          2   -1    0    0  501    0  0.00000000000E+00 -0.00000000000E+00 -0.13847744342E+04  0.13847744342E+04  0.00000000000E+00 0. -1.
         23    2    1    2    0    0  0.46457342892E+03 -0.43710965066E+03 -0.47215350182E+03  0.79913927810E+03  0.93815451564E+02 0.  0.
         13    1    3    3    0    0  0.22190120765E+03 -0.17792481700E+03 -0.26105659402E+03  0.38606726324E+03  0.00000000000E+00 0.  1.
        -13    1    3    3    0    0  0.24267222128E+03 -0.25918483366E+03 -0.21109690780E+03  0.41307201486E+03  0.00000000000E+00 0. -1.
         22    1    1    2    0    0 -0.46457342892E+03  0.43710965066E+03 -0.61333906906E+03  0.88491701939E+03  0.00000000000E+00 0. -1.
<mgrwt>
<rscale>  0 0.12875370E+04</rscale>
<asrwt>0</asrwt>
<pdfrwt beam="1">  1        2 0.21304222E+00 0.12875370E+04</pdfrwt>
<pdfrwt beam="2">  1       -2 0.46043364E-01 0.12875370E+04</pdfrwt>
<totfact> 0.64758142E+01</totfact>
</mgrwt>
</event>
<event>
 6    1  0.3017327E-006  0.1053012E+04  0.7818608E-02  0.9252240E-01
          1   -1    0    0  501    0  0.00000000000E+00  0.00000000000E+00  0.13708944676E+04  0.13708944676E+04  0.00000000000E+00 0. -1.
         -1   -1    0    0    0  501 -0.00000000000E+00 -0.00000000000E+00 -0.20220999991E+03  0.20220999991E+03  0.00000000000E+00 0.  1.
         23    2    1    2    0    0 -0.44362194743E+03  0.23659200038E+03  0.80069492044E+03  0.95005349545E+03  0.93343889521E+02 0.  0.
         11    1    3    3    0    0 -0.12645854164E+03  0.10389621788E+03  0.31513521377E+03  0.35510053478E+03  0.00000000000E+00 0.  1.
        -11    1    3    3    0    0 -0.31716340580E+03  0.13269578250E+03  0.48555970667E+03  0.59495296067E+03  0.00000000000E+00 0. -1.
         22    1    1    2    0    0  0.44362194743E+03 -0.23659200038E+03  0.36798954725E+03  0.62305097205E+03  0.00000000000E+00 0.  1.
<mgrwt>
<rscale>  0 0.10530120E+04</rscale>
<asrwt>0</asrwt>
<pdfrwt beam="1">  1        1 0.21090684E+00 0.10530120E+04</pdfrwt>
<pdfrwt beam="2">  1       -1 0.31109232E-01 0.10530120E+04</pdfrwt>
<totfact> 0.77000656E+01</totfact>
</mgrwt>
</event>
<event>
 6    1  0.3017327E-006  0.4846770E+04  0.7818608E-02  0.7852589E-01
          2   -1    0    0  501    0  0.00000000000E+00  0.00000000000E+00  0.38871127893E+04  0.38871127893E+04  0.00000000000E+00 0. -1.
         -2   -1    0    0    0  501 -0.00000000000E+00 -0.00000000000E+00 -0.15108372052E+04  0.15108372052E+04  0.00000000000E+00 0.  1.
         23    2    1    2    0    0  0.53050027232E+01  0.23633917672E+04  0.59611779174E+03  0.24391308798E+04  0.91401524484E+02 0.  0.
         13    1    3    3    0    0  0.23880919763E+02  0.16297027885E+04  0.44920946567E+03  0.16906479885E+04  0.00000000000E+00 0.  1.
        -13    1    3    3    0    0 -0.18575917040E+02  0.73368897870E+03  0.14690832606E+03  0.74848289121E+03  0.00000000000E+00 0. -1.
         22    1    1    2    0    0 -0.53050027232E+01 -0.23633917672E+04  0.17801577924E+04  0.29588191148E+04  0.00000000000E+00 0.  1.
<mgrwt>
<rscale>  0 0.48467699E+04</rscale>
<asrwt>0</asrwt>
<pdfrwt beam="1">  1        2 0.59801735E+00 0.48467699E+04</pdfrwt>
<pdfrwt beam="2">  1       -2 0.23243649E+00 0.48467699E+04</pdfrwt>
<totfact> 0.25497085E-02</totfact>
</mgrwt>
</event>
<event>
 6    1  0.3017327E-006  0.1259940E+04  0.7818608E-02  0.9061951E-01
         -2   -1    0    0    0  501 -0.00000000000E+00  0.00000000000E+00  0.79023497375E+03  0.79023497375E+03  0.00000000000E+00 0.  1.
          2   -1    0    0  501    0  0.00000000000E+00 -0.00000000000E+00 -0.50220769348E+03  0.50220769348E+03  0.00000000000E+00 0. -1.
         23    2    1    2    0    0  0.13925162465E+03 -0.46856275629E+03 -0.25873500764E+03  0.55903209256E+03  0.81430981760E+02 0.  0.
         11    1    3    3    0    0  0.34250009718E+02 -0.25436419994E+03 -0.14448348521E+03  0.29453299795E+03  0.00000000000E+00 0.  1.
        -11    1    3    3    0    0  0.10500161493E+03 -0.21419855634E+03 -0.11425152243E+03  0.26449909462E+03  0.00000000000E+00 0. -1.
         22    1    1    2    0    0 -0.13925162465E+03  0.46856275629E+03  0.54676228791E+03  0.73341057466E+03  0.00000000000E+00 0.  1.
<mgrwt>
<rscale>  0 0.12599398E+04</rscale>
<asrwt>0</asrwt>
<pdfrwt beam="1">  1        2 0.77262722E-01 0.12599398E+04</pdfrwt>
<pdfrwt beam="2">  1       -2 0.12157461E+00 0.12599398E+04</pdfrwt>
<totfact> 0.30941139E+01</totfact>
</mgrwt>
</event>
<event>
 6    1  0.3017327E-006  0.9219183E+03  0.7818608E-02  0.9398590E-01
         -2   -1    0    0    0  501 -0.00000000000E+00  0.00000000000E+00  0.51627495858E+02  0.51627495858E+02  0.00000000000E+00 0.  1.
          2   -1    0    0  501    0  0.00000000000E+00 -0.00000000000E+00 -0.41157006311E+04  0.41157006311E+04  0.00000000000E+00 0. -1.
         23    2    1    2    0    0  0.36356497762E+02 -0.13508080012E+03 -0.40156632834E+04  0.40193006591E+04  0.98272910789E+02 0.  0.
         11    1    3    3    0    0 -0.33652738762E+02 -0.39060336180E+02 -0.10701107233E+04  0.10713520322E+04  0.00000000000E+00 0.  1.
        -11    1    3    3    0    0  0.70009236524E+02 -0.96020463935E+02 -0.29455525601E+04  0.29479486269E+04  0.00000000000E+00 0. -1.
         22    1    1    2    0    0 -0.36356497762E+02  0.13508080012E+03 -0.48409851842E+02  0.14802746787E+03  0.00000000000E+00 0.  1.
<mgrwt>
<rscale>  0 0.92191826E+03</rscale>
<asrwt>0</asrwt>
<pdfrwt beam="1">  1        2 0.63318485E+00 0.92191826E+03</pdfrwt>
<pdfrwt beam="2">  1       -2 0.79426900E-02 0.92191826E+03</pdfrwt>
<totfact> 0.29450191E+01</totfact>
</mgrwt>
</event>
<event>
 6    1  0.3017327E-006  0.3965884E+04  0.7818608E-02  0.8011464E-01
         -1   -1    0    0    0  501 -0.00000000000E+00  0.00000000000E+00  0.27387817546E+04  0.27387817546E+04  0.00000000000E+00 0.  1.
          1   -1    0    0  501    0  0.00000000000E+00 -0.00000000000E+00 -0.14356961242E+04  0.14356961242E+04  0.00000000000E+00 0. -1.
         23    2    1    2    0    0 -0.13861983180E+03 -0.11852825250E+04 -0.10136848371E+04  0.15684204120E+04  0.90969873751E+02 0.  0.
         11    1    3    3    0    0  0.17544445641E+00 -0.51650236582E+02 -0.69391045700E+02  0.86503727914E+02  0.00000000000E+00 0. -1.
        -11    1    3    3    0    0 -0.13879527626E+03 -0.11336322884E+04 -0.94429379140E+03  0.14819166841E+04  0.00000000000E+00 0.  1.
         22    1    1    2    0    0  0.13861983180E+03  0.11852825250E+04  0.23167704675E+04  0.26060574669E+04  0.00000000000E+00 0.  1.
<mgrwt>
<rscale>  0 0.39658837E+04</rscale>
<asrwt>0</asrwt>
<pdfrwt beam="1">  1        1 0.22087633E+00 0.39658837E+04</pdfrwt>
<pdfrwt beam="2">  1       -1 0.42135104E+00 0.39658837E+04</pdfrwt>
<totfact> 0.29028775E-02</totfact>
</mgrwt>
</event>
<event>
 6    1  0.3017327E-006  0.3520298E+04  0.7818608E-02  0.8108996E-01
          2   -1    0    0  501    0  0.00000000000E+00  0.00000000000E+00  0.29309963784E+04  0.29309963784E+04  0.00000000000E+00 0. -1.
         -2   -1    0    0    0  501 -0.00000000000E+00 -0.00000000000E+00 -0.10570208646E+04  0.10570208646E+04  0.00000000000E+00 0.  1.
         23    2    1    2    0    0 -0.82499194980E+03 -0.15072707642E+04  0.13627539523E+04  0.21953029995E+04  0.98894142811E+02 0.  0.
         13    1    3    3    0    0 -0.31672121306E+03 -0.49031988818E+03  0.43715721979E+03  0.72926836923E+03  0.00000000000E+00 0. -1.
        -13    1    3    3    0    0 -0.50827073674E+03 -0.10169508760E+04  0.92559673254E+03  0.14660346303E+04  0.00000000000E+00 0.  1.
         22    1    1    2    0    0  0.82499194980E+03  0.15072707642E+04  0.51122156141E+03  0.17927142434E+04  0.00000000000E+00 0.  1.
<mgrwt>
<rscale>  0 0.35202979E+04</rscale>
<asrwt>0</asrwt>
<pdfrwt beam="1">  1        2 0.45092252E+00 0.35202979E+04</pdfrwt>
<pdfrwt beam="2">  1       -2 0.16261860E+00 0.35202979E+04</pdfrwt>
<totfact> 0.37977549E-01</totfact>
</mgrwt>
</event>
<event>
 6    1  0.3017327E-006  0.1351805E+04  0.7818608E-02  0.8989463E-01
         -2   -1    0    0    0  501 -0.00000000000E+00  0.00000000000E+00  0.14664092837E+03  0.14664092837E+03  0.00000000000E+00 0.  1.
          2   -1    0    0  501    0  0.00000000000E+00 -0.00000000000E+00 -0.31153928779E+04  0.31153928779E+04  0.00000000000E+00 0. -1.
         23    2    1    2    0    0  0.26560737061E+03  0.54622864600E+03 -0.79221961181E+03  0.10023422286E+04  0.90360505107E+02 0.  0.
         13    1    3    3    0    0  0.18565009221E+03  0.29460063892E+03 -0.41203215770E+03  0.53946824946E+03  0.00000000000E+00 0.  1.
        -13    1    3    3    0    0  0.79957278396E+02  0.25162800708E+03 -0.38018745411E+03  0.46287397916E+03  0.00000000000E+00 0. -1.
         22    1    1    2    0    0 -0.26560737061E+03 -0.54622864600E+03 -0.21765323377E+04  0.22596915776E+04  0.00000000000E+00 0. -1.
<mgrwt>
<rscale>  0 0.13518049E+04</rscale>
<asrwt>0</asrwt>
<pdfrwt beam="1">  1        2 0.47929118E+00 0.13518049E+04</pdfrwt>
<pdfrwt beam="2">  1       -2 0.22560144E-01 0.13518049E+04</pdfrwt>
<totfact> 0.25099773E+01</totfact>
</mgrwt>
</event>
<event>
 6    1  0.3017327E-006  0.2510654E+04  0.7818608E-02  0.8399200E-01
         -2   -1    0    0    0  501 -0.00000000000E+00  0.00000000000E+00  0.11056208491E+04  0.11056208491E+04  0.00000000000E+00 0.  1.
          2   -1    0    0  501    0  0.00000000000E+00 -0.00000000000E+00 -0.14253039651E+04  0.14253039651E+04  0.00000000000E+00 0. -1.
         23    2    1    2    0    0  0.16964755552E+03  0.60728196661E+03  0.93226008760E+03  0.11291639697E+04  0.91272774530E+02 0.  0.
         13    1    3    3    0    0  0.58245768672E+02  0.36410377126E+03  0.51064164431E+03  0.62985634451E+03  0.00000000000E+00 0. -1.
        -13    1    3    3    0    0  0.11140178685E+03  0.24317819535E+03  0.42161844329E+03  0.49930762514E+03  0.00000000000E+00 0.  1.
         22    1    1    2    0    0 -0.16964755552E+03 -0.60728196661E+03 -0.12519432037E+04  0.14017608445E+04  0.00000000000E+00 0. -1.
<mgrwt>
<rscale>  0 0.25106539E+04</rscale>
<asrwt>0</asrwt>
<pdfrwt beam="1">  1        2 0.21927753E+00 0.25106539E+04</pdfrwt>
<pdfrwt beam="2">  1       -2 0.17009552E+00 0.25106539E+04</pdfrwt>
<totfact> 0.26544231E+00</totfact>
</mgrwt>
</event>
<event>
 6    1  0.3017327E-006  0.1197473E+04  0.7818608E-02  0.9115071E-01
         -1   -1    0    0    0  501 -0.00000000000E+00  0.00000000000E+00  0.58126788359E+03  0.58126788359E+03  0.00000000000E+00 0.  1.
          1   -1    0    0  501    0  0.00000000000E+00 -0.00000000000E+00 -0.61673016642E+03  0.61673016642E+03  0.00000000000E+00 0. -1.
         23    2    1    2    0    0  0.58574752240E+03  0.81675962732E+02 -0.93400033575E+02  0.60375238882E+03  0.77603207698E+02 0.  0.
         13    1    3    3    0    0  0.21079798965E+03  0.25442956969E+02  0.37489359348E+01  0.21236099223E+03  0.00000000000E+00 0. -1.
        -13    1    3    3    0    0  0.37494953274E+03  0.56233005763E+02 -0.97148969510E+02  0.39139139658E+03  0.00000000000E+00 0.  1.
         22    1    1    2    0    0 -0.58574752240E+03 -0.81675962732E+02  0.57937750742E+02  0.59424566119E+03  0.00000000000E+00 0. -1.
<mgrwt>
<rscale>  0 0.11974731E+04</rscale>
<asrwt>0</asrwt>
<pdfrwt beam="1">  1        1 0.94881565E-01 0.11974731E+04</pdfrwt>
<pdfrwt beam="2">  1       -1 0.89425828E-01 0.11974731E+04</pdfrwt>
<totfact> 0.39929135E+01</totfact>
</mgrwt>
</event>
<event>
 6    1  0.3017327E-006  0.2433156E+04  0.7818608E-02  0.8427194E-01
         -2   -1    0    0    0  501 -0.00000000000E+00  0.00000000000E+00  0.46441608589E+03  0.46441608589E+03  0.00000000000E+00 0.  1.
          2   -1    0    0  501    0  0.00000000000E+00 -0.00000000000E+00 -0.31869305431E+04  0.31869305431E+04  0.00000000000E+00 0. -1.
         23    2    1    2    0    0 -0.13176190554E+03 -0.65629702389E+03  0.15845837993E+03  0.69362935521E+03  0.89026068700E+02 0.  0.
         13    1    3    3    0    0 -0.72859747816E+02 -0.42156354304E+03  0.58527398531E+02  0.43179835578E+03  0.00000000000E+00 0.  1.
        -13    1    3    3    0    0 -0.58902157728E+02 -0.23473348085E+03  0.99930981398E+02  0.26183099943E+03  0.00000000000E+00 0. -1.
         22    1    1    2    0    0  0.13176190554E+03  0.65629702389E+03 -0.28809728371E+04  0.29577172738E+04  0.00000000000E+00 0. -1.
<mgrwt>
<rscale>  0 0.24331558E+04</rscale>
<asrwt>0</asrwt>
<pdfrwt beam="1">  1        2 0.49029700E+00 0.24331558E+04</pdfrwt>
<pdfrwt beam="2">  1       -2 0.71448629E-01 0.24331558E+04</pdfrwt>
<totfact> 0.21094621E+00</totfact>
</mgrwt>
</event>
<event>
 6    1  0.3017327E-006  0.2289004E+04  0.7818608E-02  0.8482269E-01
         -2   -1    0    0    0  501 -0.00000000000E+00  0.00000000000E+00  0.59485302428E+03  0.59485302428E+03  0.00000000000E+00 0.  1.
          2   -1    0    0  501    0  0.00000000000E+00 -0.00000000000E+00 -0.22020305249E+04  0.22020305249E+04  0.00000000000E+00 0. -1.
         23    2    1    2    0    0 -0.39971788662E+03  0.91979715183E+03 -0.14741239805E+04  0.17851995923E+04  0.89971580214E+02 0.  0.
         13    1    3    3    0    0 -0.95058554016E+02  0.13551857095E+03 -0.24613011140E+03  0.29661666087E+03  0.00000000000E+00 0. -1.
        -13    1    3    3    0    0 -0.30465933261E+03  0.78427858088E+03 -0.12279938690E+04  0.14885829314E+04  0.00000000000E+00 0.  1.
         22    1    1    2    0    0  0.39971788662E+03 -0.91979715183E+03 -0.13305352020E+03  0.10116839569E+04  0.00000000000E+00 0.  1.
<mgrwt>
<rscale>  0 0.22890037E+04</rscale>
<asrwt>0</asrwt>
<pdfrwt beam="1">  1        2 0.33877393E+00 0.22890037E+04</pdfrwt>
<pdfrwt beam="2">  1       -2 0.91515848E-01 0.22890037E+04</pdfrwt>
<totfact> 0.47510863E+00</totfact>
</mgrwt>
</event>
<event>
 6    1  0.3017327E-006  0.7546934E+04  0.7818608E-02  0.7523517E-01
         -2   -1    0    0    0  501 -0.00000000000E+00  0.00000000000E+00  0.46626848680E+04  0.46626848680E+04  0.00000000000E+00 0.  1.
          2   -1    0    0  501    0  0.00000000000E+00 -0.00000000000E+00 -0.30538313623E+04  0.30538313623E+04  0.00000000000E+00 0. -1.
         23    2    1    2    0    0 -0.29718974423E+04 -0.26294090016E+03 -0.15567555064E+04  0.33665285589E+04  0.93351521827E+02 0.  0.
         11    1    3    3    0    0 -0.32275434845E+03 -0.52989637732E+02 -0.15268796318E+03  0.36095967261E+03  0.00000000000E+00 0. -1.
        -11    1    3    3    0    0 -0.26491430938E+04 -0.20995126243E+03 -0.14040675432E+04  0.30055688862E+04  0.00000000000E+00 0.  1.
         22    1    1    2    0    0  0.29718974423E+04  0.26294090016E+03  0.31656090121E+04  0.43499876714E+04  0.00000000000E+00 0.  1.
<mgrwt>
<rscale>  0 0.75469340E+04</rscale>
<asrwt>0</asrwt>
<pdfrwt beam="1">  1        2 0.46982021E+00 0.75469340E+04</pdfrwt>
<pdfrwt beam="2">  1       -2 0.71733613E+00 0.75469340E+04</pdfrwt>
<totfact> 0.19422460E-04</totfact>
</mgrwt>
</event>
<event>
 6    1  0.3017327E-006  0.5046159E+04  0.7818608E-02  0.7821426E-01
          1   -1    0    0  501    0  0.00000000000E+00  0.00000000000E+00  0.34333599230E+04  0.34333599230E+04  0.00000000000E+00 0. -1.
         -1   -1    0    0    0  501 -0.00000000000E+00 -0.00000000000E+00 -0.18541403489E+04  0.18541403489E+04  0.00000000000E+00 0.  1.
         23    2    1    2    0    0  0.78254027526E+03 -0.16951244377E+04  0.25667170856E+04  0.31754000192E+04  0.96501514565E+02 0.  0.
         13    1    3    3    0    0  0.15521206845E+03 -0.43262304081E+03  0.64750535871E+03  0.79405079888E+03  0.00000000000E+00 0. -1.
        -13    1    3    3    0    0  0.62732820681E+03 -0.12625013969E+04  0.19192117269E+04  0.23813492203E+04  0.00000000000E+00 0.  1.
         22    1    1    2    0    0 -0.78254027526E+03  0.16951244377E+04 -0.98749751155E+03  0.21121002526E+04  0.00000000000E+00 0.  1.
<mgrwt>
<rscale>  0 0.50461594E+04</rscale>
<asrwt>0</asrwt>
<pdfrwt beam="1">  1        1 0.52820922E+00 0.50461594E+04</pdfrwt>
<pdfrwt beam="2">  1       -1 0.28525236E+00 0.50461594E+04</pdfrwt>
<totfact> 0.83361724E-03</totfact>
</mgrwt>
</event>
<event>
 6    1  0.3017327E-006  0.1582869E+04  0.7818608E-02  0.8831142E-01
          2   -1    0    0  501    0  0.00000000000E+00  0.00000000000E+00  0.14087410097E+04  0.14087410097E+04  0.00000000000E+00 0. -1.
         -2   -1    0    0    0  501 -0.00000000000E+00 -0.00000000000E+00 -0.44462977810E+03  0.44462977810E+03  0.00000000000E+00 0.  1.
         23    2    1    2    0    0  0.50026638615E+03 -0.75977391526E+02 -0.22428260407E+03  0.56173657883E+03  0.95949342738E+02 0.  0.
         13    1    3    3    0    0  0.15673583443E+03 -0.69133205198E+02 -0.80242857276E+02  0.18916775095E+03  0.00000000000E+00 0. -1.
        -13    1    3    3    0    0  0.34353055172E+03 -0.68441863280E+01 -0.14403974679E+03  0.37256882788E+03  0.00000000000E+00 0.  1.
         22    1    1    2    0    0 -0.50026638615E+03  0.75977391526E+02  0.11883938357E+04  0.12916342090E+04  0.00000000000E+00 0. -1.
<mgrwt>
<rscale>  0 0.15828685E+04</rscale>
<asrwt>0</asrwt>
<pdfrwt beam="1">  1        2 0.21672938E+00 0.15828685E+04</pdfrwt>
<pdfrwt beam="2">  1       -2 0.68404582E-01 0.15828685E+04</pdfrwt>
<totfact> 0.26848413E+01</totfact>
</mgrwt>
</event>
<event>
 6    1  0.3017327E-006  0.3373919E+04  0.7818608E-02  0.8144337E-01
         -2   -1    0    0    0  501 -0.00000000000E+00  0.00000000000E+00  0.10284675673E+04  0.10284675673E+04  0.00000000000E+00 0. -1.
          2   -1    0    0  501    0  0.00000000000E+00 -0.00000000000E+00 -0.27670610843E+04  0.27670610843E+04  0.00000000000E+00 0.  1.
         23    2    1    2    0    0  0.13078881804E+04  0.69507270263E+03 -0.17755183001E+04  0.23139548283E+04  0.90687148256E+02 0.  0.
         11    1    3    3    0    0  0.46373883213E+03  0.28178209432E+03 -0.69799780614E+03  0.88411299645E+03  0.00000000000E+00 0. -1.
        -11    1    3    3    0    0  0.84414934829E+03  0.41329060831E+03 -0.10775204940E+04  0.14298418318E+04  0.00000000000E+00 0.  1.
         22    1    1    2    0    0 -0.13078881804E+04 -0.69507270263E+03  0.36924783089E+02  0.14815738234E+04  0.00000000000E+00 0. -1.
<mgrwt>
<rscale>  0 0.33739191E+04</rscale>
<asrwt>0</asrwt>
<pdfrwt beam="1">  1        2 0.42570170E+00 0.33739191E+04</pdfrwt>
<pdfrwt beam="2">  1       -2 0.15822578E+00 0.33739191E+04</pdfrwt>
<totfact> 0.52161377E-01</totfact>
</mgrwt>
</event>
<event>
 6    1  0.3017327E-006  0.1753441E+04  0.7818608E-02  0.8731458E-01
          2   -1    0    0  501    0  0.00000000000E+00  0.00000000000E+00  0.11594225143E+04  0.11594225143E+04  0.00000000000E+00 0.  1.
         -2   -1    0    0    0  501 -0.00000000000E+00 -0.00000000000E+00 -0.66294984073E+03  0.66294984073E+03  0.00000000000E+00 0. -1.
         23    2    1    2    0    0 -0.85068649806E+03  0.10844278637E+03  0.42610388970E+03  0.96191949653E+03  0.91089171080E+02 0.  0.
         13    1    3    3    0    0 -0.33519524437E+03  0.73730516182E+02  0.20637155425E+03  0.40047629052E+03  0.00000000000E+00 0. -1.
        -13    1    3    3    0    0 -0.51549125369E+03  0.34712270184E+02  0.21973233545E+03  0.56144320601E+03  0.00000000000E+00 0.  1.
         22    1    1    2    0    0  0.85068649806E+03 -0.10844278637E+03  0.70368783821E+02  0.86045285846E+03  0.00000000000E+00 0. -1.
<mgrwt>
<rscale>  0 0.17534412E+04</rscale>
<asrwt>0</asrwt>
<pdfrwt beam="1">  1        2 0.17837269E+00 0.17534412E+04</pdfrwt>
<pdfrwt beam="2">  1       -2 0.10199228E+00 0.17534412E+04</pdfrwt>
<totfact> 0.14965437E+01</totfact>
</mgrwt>
</event>
<event>
 6    1  0.3017327E-006  0.1687952E+04  0.7818608E-02  0.8768266E-01
          2   -1    0    0  501    0  0.00000000000E+00  0.00000000000E+00  0.14116837533E+04  0.14116837533E+04  0.00000000000E+00 0. -1.
         -2   -1    0    0    0  501 -0.00000000000E+00 -0.00000000000E+00 -0.50457170870E+03  0.50457170870E+03  0.00000000000E+00 0.  1.
         23    2    1    2    0    0  0.68494916627E+03 -0.69376598064E+02  0.10036303154E+04  0.12210689768E+04  0.98828959817E+02 0.  0.
         11    1    3    3    0    0  0.39118074754E+03 -0.85994349531E+02  0.55037395560E+03  0.68068266938E+03  0.00000000000E+00 0. -1.
        -11    1    3    3    0    0  0.29376841873E+03  0.16617751467E+02  0.45325635979E+03  0.54038630737E+03  0.00000000000E+00 0.  1.
         22    1    1    2    0    0 -0.68494916627E+03  0.69376598064E+02 -0.96518270756E+02  0.69518648528E+03  0.00000000000E+00 0.  1.
<mgrwt>
<rscale>  0 0.16879522E+04</rscale>
<asrwt>0</asrwt>
<pdfrwt beam="1">  1        2 0.21718211E+00 0.16879522E+04</pdfrwt>
<pdfrwt beam="2">  1       -2 0.77626417E-01 0.16879522E+04</pdfrwt>
<totfact> 0.20072134E+01</totfact>
</mgrwt>
</event>
<event>
 6    1  0.3017327E-006  0.7154306E+03  0.7818608E-02  0.9691202E-01
         -2   -1    0    0    0  501 -0.00000000000E+00  0.00000000000E+00  0.19645939595E+03  0.19645939595E+03  0.00000000000E+00 0.  1.
          2   -1    0    0  501    0  0.00000000000E+00 -0.00000000000E+00 -0.65133170562E+03  0.65133170562E+03  0.00000000000E+00 0. -1.
         23    2    1    2    0    0 -0.32988410460E+03  0.31950795397E+02 -0.37142094689E+03  0.50601850795E+03  0.90867127220E+02 0.  0.
         11    1    3    3    0    0 -0.16721206014E+03  0.60393118976E+02 -0.17600579713E+03  0.25017042691E+03  0.00000000000E+00 0. -1.
        -11    1    3    3    0    0 -0.16267204446E+03 -0.28442323579E+02 -0.19541514976E+03  0.25584808104E+03  0.00000000000E+00 0.  1.
         22    1    1    2    0    0  0.32988410460E+03 -0.31950795397E+02 -0.83451362787E+02  0.34177259362E+03  0.00000000000E+00 0.  1.
<mgrwt>
<rscale>  0 0.71543059E+03</rscale>
<asrwt>0</asrwt>
<pdfrwt beam="1">  1        2 0.10020488E+00 0.71543059E+03</pdfrwt>
<pdfrwt beam="2">  1       -2 0.30224522E-01 0.71543059E+03</pdfrwt>
<totfact> 0.45621285E+02</totfact>
</mgrwt>
</event>
<event>
 6    1  0.3017327E-006  0.3532704E+04  0.7818608E-02  0.8106083E-01
          1   -1    0    0  501    0  0.00000000000E+00  0.00000000000E+00  0.18994717859E+04  0.18994717859E+04  0.00000000000E+00 0. -1.
         -1   -1    0    0    0  501 -0.00000000000E+00 -0.00000000000E+00 -0.16425611696E+04  0.16425611696E+04  0.00000000000E+00 0.  1.
         23    2    1    2    0    0 -0.62117014575E+03 -0.76912314185E+03  0.15947047019E+04  0.18785739772E+04  0.92489697848E+02 0.  0.
         13    1    3    3    0    0 -0.58522891396E+03 -0.74792419584E+03  0.15040606219E+04  0.17787866198E+04  0.00000000000E+00 0. -1.
        -13    1    3    3    0    0 -0.35941231786E+02 -0.21198946014E+02  0.90644079967E+02  0.99787357353E+02  0.00000000000E+00 0.  1.
         22    1    1    2    0    0  0.62117014575E+03  0.76912314185E+03 -0.13377940855E+04  0.16634589783E+04  0.00000000000E+00 0.  1.
<mgrwt>
<rscale>  0 0.35327036E+04</rscale>
<asrwt>0</asrwt>
<pdfrwt beam="1">  1        1 0.29222643E+00 0.35327036E+04</pdfrwt>
<pdfrwt beam="2">  1       -1 0.25270172E+00 0.35327036E+04</pdfrwt>
<totfact> 0.18993138E-01</totfact>
</mgrwt>
</event>
<event>
 6    1  0.3017327E-006  0.3259631E+04  0.7818608E-02  0.8173244E-01
         -2   -1    0    0    0  501 -0.00000000000E+00  0.00000000000E+00  0.17799328271E+04  0.17799328271E+04  0.00000000000E+00 0.  1.
          2   -1    0    0  501    0  0.00000000000E+00 -0.00000000000E+00 -0.14923586110E+04  0.14923586110E+04  0.00000000000E+00 0. -1.
         23    2    1    2    0    0  0.64754035583E+03  0.14278075741E+03 -0.13492856367E+04  0.15062209314E+04  0.91841753879E+02 0.  0.
         13    1    3    3    0    0  0.32885923154E+03  0.33929114853E+02 -0.72751597202E+03  0.79911142436E+03  0.00000000000E+00 0. -1.
        -13    1    3    3    0    0  0.31868112429E+03  0.10885164255E+03 -0.62176966464E+03  0.70710950703E+03  0.00000000000E+00 0.  1.
         22    1    1    2    0    0 -0.64754035583E+03 -0.14278075741E+03  0.16368598528E+04  0.17660705067E+04  0.00000000000E+00 0.  1.
<mgrwt>
<rscale>  0 0.32596307E+04</rscale>
<asrwt>0</asrwt>
<pdfrwt beam="1">  1        2 0.22959363E+00 0.32596307E+04</pdfrwt>
<pdfrwt beam="2">  1       -2 0.27383582E+00 0.32596307E+04</pdfrwt>
<totfact> 0.49334009E-01</totfact>
</mgrwt>
</event>
<event>
 6    1  0.3017327E-006  0.3682616E+04  0.7818608E-02  0.8071825E-01
         -1   -1    0    0    0  501 -0.00000000000E+00  0.00000000000E+00  0.27263506989E+04  0.27263506989E+04  0.00000000000E+00 0.  1.
          1   -1    0    0  501    0  0.00000000000E+00 -0.00000000000E+00 -0.12435728962E+04  0.12435728962E+04  0.00000000000E+00 0. -1.
         23    2    1    2    0    0 -0.31146823955E+02 -0.17359286792E+04  0.13987828392E+04  0.22316849297E+04  0.96982937515E+02 0.  0.
         11    1    3    3    0    0 -0.59061967134E+02 -0.83146738051E+03  0.64506058116E+03  0.10540063919E+04  0.00000000000E+00 0.  1.
        -11    1    3    3    0    0  0.27915143180E+02 -0.90446129873E+03  0.75372225803E+03  0.11776785378E+04  0.00000000000E+00 0. -1.
         22    1    1    2    0    0  0.31146823955E+02  0.17359286792E+04  0.83994963568E+02  0.17382386654E+04  0.00000000000E+00 0. -1.
<mgrwt>
<rscale>  0 0.36826164E+04</rscale>
<asrwt>0</asrwt>
<pdfrwt beam="1">  1        1 0.19131891E+00 0.36826164E+04</pdfrwt>
<pdfrwt beam="2">  1       -1 0.41943857E+00 0.36826164E+04</pdfrwt>
<totfact> 0.41947604E-02</totfact>
</mgrwt>
</event>
<event>
 6    1  0.3017327E-006  0.1946003E+04  0.7818608E-02  0.8632291E-01
         -2   -1    0    0    0  501 -0.00000000000E+00  0.00000000000E+00  0.59606502478E+03  0.59606502478E+03  0.00000000000E+00 0.  1.
          2   -1    0    0  501    0  0.00000000000E+00 -0.00000000000E+00 -0.15883026424E+04  0.15883026424E+04  0.00000000000E+00 0. -1.
         23    2    1    2    0    0  0.73380272084E+03  0.90274670699E+02  0.20921074301E+03  0.77366071230E+03  0.90364890803E+02 0.  0.
         11    1    3    3    0    0  0.45776966904E+03  0.87360705947E+02  0.16334161542E+03  0.49382734449E+03  0.00000000000E+00 0. -1.
        -11    1    3    3    0    0  0.27603305180E+03  0.29139647519E+01  0.45869127583E+02  0.27983336781E+03  0.00000000000E+00 0.  1.
         22    1    1    2    0    0 -0.73380272084E+03 -0.90274670699E+02 -0.12014483606E+04  0.14107069549E+04  0.00000000000E+00 0. -1.
<mgrwt>
<rscale>  0 0.19460027E+04</rscale>
<asrwt>0</asrwt>
<pdfrwt beam="1">  1        2 0.24435425E+00 0.19460027E+04</pdfrwt>
<pdfrwt beam="2">  1       -2 0.91702313E-01 0.19460027E+04</pdfrwt>
<totfact> 0.10690868E+01</totfact>
</mgrwt>
</event>
<event>
 6    1  0.3017327E-006  0.2387645E+04  0.7818608E-02  0.8444144E-01
          2   -1    0    0  501    0  0.00000000000E+00  0.00000000000E+00  0.26683382459E+04  0.26683382459E+04  0.00000000000E+00 0. -1.
         -2   -1    0    0    0  501 -0.00000000000E+00 -0.00000000000E+00 -0.53411954412E+03  0.53411954412E+03  0.00000000000E+00 0.  1.
         23    2    1    2    0    0  0.67211518435E+03  0.20716268290E+03 -0.22245854187E+03  0.74307111262E+03  0.89507973572E+02 0.  0.
         13    1    3    3    0    0  0.37772533267E+03  0.10094144429E+03 -0.16734655084E+03  0.42528869041E+03  0.00000000000E+00 0. -1.
        -13    1    3    3    0    0  0.29438985169E+03  0.10622123861E+03 -0.55111991020E+02  0.31778242220E+03  0.00000000000E+00 0.  1.
         22    1    1    2    0    0 -0.67211518435E+03 -0.20716268290E+03  0.23566772437E+04  0.24593866774E+04  0.00000000000E+00 0. -1.
<mgrwt>
<rscale>  0 0.23876445E+04</rscale>
<asrwt>0</asrwt>
<pdfrwt beam="1">  1        2 0.41051357E+00 0.23876445E+04</pdfrwt>
<pdfrwt beam="2">  1       -2 0.82172239E-01 0.23876445E+04</pdfrwt>
<totfact> 0.32480989E+00</totfact>
</mgrwt>
</event>
<event>
 6    1  0.3911030E-006  0.4497396E+04  0.7818608E-02  0.7911093E-01
         -2   -1    0    0    0  501 -0.00000000000E+00  0.00000000000E+00  0.22459140189E+04  0.22459140189E+04  0.00000000000E+00 0.  1.
          2   -1    0    0  501    0  0.00000000000E+00 -0.00000000000E+00 -0.22514856708E+04  0.22514856708E+04  0.00000000000E+00 0. -1.
         23    2    1    2    0    0  0.14400928952E+04 -0.69280266464E+03 -0.15834968760E+04  0.22515833367E+04  0.91225471602E+02 0.  0.
         13    1    3    3    0    0  0.92341915407E+03 -0.44553477657E+03 -0.10767229377E+04  0.14867872934E+04  0.00000000000E+00 0. -1.
        -13    1    3    3    0    0  0.51667374117E+03 -0.24726788807E+03 -0.50677393830E+03  0.76479604328E+03  0.00000000000E+00 0.  1.
         22    1    1    2    0    0 -0.14400928952E+04  0.69280266464E+03  0.15779252240E+04  0.22458163531E+04  0.00000000000E+00 0.  1.
<mgrwt>
<rscale>  0 0.44973962E+04</rscale>
<asrwt>0</asrwt>
<pdfrwt beam="1">  1        2 0.34638241E+00 0.44973962E+04</pdfrwt>
<pdfrwt beam="2">  1       -2 0.34552524E+00 0.44973962E+04</pdfrwt>
<totfact> 0.60764954E-02</totfact>
</mgrwt>
</event>
<event>
 6    1  0.3017327E-006  0.2816211E+04  0.7818608E-02  0.8298253E-01
         -2   -1    0    0    0  501 -0.00000000000E+00  0.00000000000E+00  0.19449907298E+04  0.19449907298E+04  0.00000000000E+00 0.  1.
          2   -1    0    0  501    0  0.00000000000E+00 -0.00000000000E+00 -0.10194190459E+04  0.10194190459E+04  0.00000000000E+00 0. -1.
         23    2    1    2    0    0 -0.60276667181E+03  0.12654716205E+04  0.34151231936E+03  0.14459001694E+04  0.96179792895E+02 0.  0.
         11    1    3    3    0    0 -0.32055541953E+03  0.68557046468E+03  0.23334038403E+03  0.79196614438E+03  0.00000000000E+00 0. -1.
        -11    1    3    3    0    0 -0.28221125228E+03  0.57990115586E+03  0.10817193533E+03  0.65393402502E+03  0.00000000000E+00 0.  1.
         22    1    1    2    0    0  0.60276667181E+03 -0.12654716205E+04  0.58405936457E+03  0.15185096063E+04  0.00000000000E+00 0.  1.
<mgrwt>
<rscale>  0 0.28162106E+04</rscale>
<asrwt>0</asrwt>
<pdfrwt beam="1">  1        2 0.15683370E+00 0.28162106E+04</pdfrwt>
<pdfrwt beam="2">  1       -2 0.29922934E+00 0.28162106E+04</pdfrwt>
<totfact> 0.68342713E-01</totfact>
</mgrwt>
</event>
<event>
 6    1  0.3017327E-006  0.2880156E+04  0.7818608E-02  0.8278806E-01
         -1   -1    0    0    0  501 -0.00000000000E+00  0.00000000000E+00  0.49299453154E+03  0.49299453154E+03  0.00000000000E+00 0.  1.
          1   -1    0    0  501    0  0.00000000000E+00 -0.00000000000E+00 -0.42065877775E+04  0.42065877775E+04  0.00000000000E+00 0. -1.
         23    2    1    2    0    0  0.96165152079E+03 -0.93341516557E+03 -0.27099858524E+04  0.30252868395E+04  0.11090366432E+03 0.  0.
         13    1    3    3    0    0  0.31301419616E+03 -0.34027587000E+03 -0.83332332564E+03  0.95299177318E+03  0.00000000000E+00 0. -1.
        -13    1    3    3    0    0  0.64863732463E+03 -0.59313929556E+03 -0.18766625267E+04  0.20722950664E+04  0.00000000000E+00 0.  1.
         22    1    1    2    0    0 -0.96165152079E+03  0.93341516557E+03 -0.10036073936E+04  0.16742954695E+04  0.00000000000E+00 0.  1.
<mgrwt>
<rscale>  0 0.28801561E+04</rscale>
<asrwt>0</asrwt>
<pdfrwt beam="1">  1        1 0.64716733E+00 0.28801561E+04</pdfrwt>
<pdfrwt beam="2">  1       -1 0.75845315E-01 0.28801561E+04</pdfrwt>
<totfact> 0.93653252E-02</totfact>
</mgrwt>
</event>
<event>
 6    1  0.3017327E-006  0.5247932E+04  0.7818608E-02  0.7791359E-01
          2   -1    0    0  501    0  0.00000000000E+00  0.00000000000E+00  0.22217143486E+04  0.22217143486E+04  0.00000000000E+00 0. -1.
         -2   -1    0    0    0  501 -0.00000000000E+00 -0.00000000000E+00 -0.30990470738E+04  0.30990470738E+04  0.00000000000E+00 0.  1.
         23    2    1    2    0    0 -0.24218821104E+04  0.78080671825E+03 -0.10851403362E+04  0.27676542779E+04  0.84903265917E+02 0.  0.
         11    1    3    3    0    0 -0.98604291188E+03  0.35541803681E+03 -0.42323606624E+03  0.11303678042E+04  0.00000000000E+00 0. -1.
        -11    1    3    3    0    0 -0.14358391985E+04  0.42538868144E+03 -0.66190426995E+03  0.16372864737E+04  0.00000000000E+00 0.  1.
         22    1    1    2    0    0  0.24218821104E+04 -0.78080671825E+03  0.20780761093E+03  0.25531071445E+04  0.00000000000E+00 0.  1.
<mgrwt>
<rscale>  0 0.52479319E+04</rscale>
<asrwt>0</asrwt>
<pdfrwt beam="1">  1        2 0.34180221E+00 0.52479319E+04</pdfrwt>
<pdfrwt beam="2">  1       -2 0.47677647E+00 0.52479319E+04</pdfrwt>
<totfact> 0.83500936E-03</totfact>
</mgrwt>
</event>
<event>
 6    1  0.3017327E-006  0.1087527E+04  0.7818608E-02  0.9217435E-01
         -2   -1    0    0    0  501 -0.00000000000E+00  0.00000000000E+00  0.57522495287E+03  0.57522495287E+03  0.00000000000E+00 0.  1.
          2   -1    0    0  501    0  0.00000000000E+00 -0.00000000000E+00 -0.51402260586E+03  0.51402260586E+03  0.00000000000E+00 0. -1.
         23    2    1    2    0    0 -0.41648953811E+03 -0.33435437614E+03 -0.48757706206E+02  0.54395167803E+03  0.90828023828E+02 0.  0.
         11    1    3    3    0    0 -0.14838385326E+03 -0.14742461872E+03  0.19451032069E+02  0.21007172290E+03  0.00000000000E+00 0. -1.
        -11    1    3    3    0    0 -0.26810568485E+03 -0.18692975742E+03 -0.68208738275E+02  0.33387995513E+03  0.00000000000E+00 0.  1.
         22    1    1    2    0    0  0.41648953811E+03  0.33435437614E+03  0.10996005322E+03  0.54529588070E+03  0.00000000000E+00 0.  1.
<mgrwt>
<rscale>  0 0.10875268E+04</rscale>
<asrwt>0</asrwt>
<pdfrwt beam="1">  1        2 0.79080401E-01 0.10875268E+04</pdfrwt>
<pdfrwt beam="2">  1       -2 0.88496146E-01 0.10875268E+04</pdfrwt>
<totfact> 0.65119266E+01</totfact>
</mgrwt>
</event>
<event>
 6    1  0.3017327E-006  0.4329913E+04  0.7818608E-02  0.7941110E-01
         -1   -1    0    0    0  501 -0.00000000000E+00  0.00000000000E+00  0.17053691663E+04  0.17053691663E+04  0.00000000000E+00 0.  1.
          1   -1    0    0  501    0  0.00000000000E+00 -0.00000000000E+00 -0.27484004603E+04  0.27484004603E+04  0.00000000000E+00 0. -1.
         23    2    1    2    0    0  0.35763303453E+03  0.15187943797E+04  0.10206521363E+04  0.18666037921E+04  0.88550427221E+02 0.  0.
         11    1    3    3    0    0  0.22613501674E+03  0.81993380782E+03  0.59182548667E+03  0.10361881594E+04  0.00000000000E+00 0. -1.
        -11    1    3    3    0    0  0.13149801779E+03  0.69886057186E+03  0.42882664966E+03  0.83041563270E+03  0.00000000000E+00 0.  1.
         22    1    1    2    0    0 -0.35763303453E+03 -0.15187943797E+04 -0.20636834303E+04  0.25871658346E+04  0.00000000000E+00 0. -1.
<mgrwt>
<rscale>  0 0.43299133E+04</rscale>
<asrwt>0</asrwt>
<pdfrwt beam="1">  1        1 0.42283084E+00 0.43299133E+04</pdfrwt>
<pdfrwt beam="2">  1       -1 0.26236449E+00 0.43299133E+04</pdfrwt>
<totfact> 0.40015878E-02</totfact>
</mgrwt>
</event>
<event>
 6    1  0.3017327E-006  0.2964810E+04  0.7818608E-02  0.8253851E-01
          2   -1    0    0  501    0  0.00000000000E+00  0.00000000000E+00  0.12466894614E+04  0.12466894614E+04  0.00000000000E+00 0. -1.
         -2   -1    0    0    0  501 -0.00000000000E+00 -0.00000000000E+00 -0.17626884131E+04  0.17626884131E+04  0.00000000000E+00 0.  1.
         23    2    1    2    0    0 -0.30761709279E+03  0.10880970091E+04 -0.12290907472E+04  0.16725595300E+04  0.90597680546E+02 0.  0.
         11    1    3    3    0    0 -0.12024799018E+03  0.53639787462E+03 -0.64645918972E+03  0.84858219579E+03  0.00000000000E+00 0. -1.
        -11    1    3    3    0    0 -0.18736910261E+03  0.55169913453E+03 -0.58263155744E+03  0.82397733426E+03  0.00000000000E+00 0.  1.
         22    1    1    2    0    0  0.30761709279E+03 -0.10880970091E+04  0.71309179547E+03  0.13368183444E+04  0.00000000000E+00 0. -1.
<mgrwt>
<rscale>  0 0.29648103E+04</rscale>
<asrwt>0</asrwt>
<pdfrwt beam="1">  1        2 0.19179838E+00 0.29648103E+04</pdfrwt>
<pdfrwt beam="2">  1       -2 0.27118283E+00 0.29648103E+04</pdfrwt>
<totfact> 0.72706714E-01</totfact>
</mgrwt>
</event>
<event>
 6    1  0.3017327E-006  0.2623771E+04  0.7818608E-02  0.8360171E-01
         -2   -1    0    0    0  501 -0.00000000000E+00  0.00000000000E+00  0.19362660426E+04  0.19362660426E+04  0.00000000000E+00 0.  1.
          2   -1    0    0  501    0  0.00000000000E+00 -0.00000000000E+00 -0.88884641210E+03  0.88884641210E+03  0.00000000000E+00 0. -1.
         23    2    1    2    0    0  0.59374468032E+03 -0.62263795324E+03 -0.53973933448E+03  0.10197636390E+04  0.91589104104E+02 0.  0.
         13    1    3    3    0    0  0.84395486101E+02 -0.13961584409E+03 -0.10834424352E+03  0.19584089741E+03  0.00000000000E+00 0. -1.
        -13    1    3    3    0    0  0.50934919422E+03 -0.48302210915E+03 -0.43139509096E+03  0.82392274158E+03  0.00000000000E+00 0.  1.
         22    1    1    2    0    0 -0.59374468032E+03  0.62263795324E+03  0.15871589650E+04  0.18053488157E+04  0.00000000000E+00 0.  1.
<mgrwt>
<rscale>  0 0.26237707E+04</rscale>
<asrwt>0</asrwt>
<pdfrwt beam="1">  1        2 0.13674560E+00 0.26237707E+04</pdfrwt>
<pdfrwt beam="2">  1       -2 0.29788708E+00 0.26237707E+04</pdfrwt>
<totfact> 0.86260567E-01</totfact>
</mgrwt>
</event>
<event>
 6    1  0.3017327E-006  0.2322947E+04  0.7818608E-02  0.8468928E-01
          2   -1    0    0  501    0  0.00000000000E+00  0.00000000000E+00  0.11406261883E+04  0.11406261883E+04  0.00000000000E+00 0. -1.
         -2   -1    0    0    0  501 -0.00000000000E+00 -0.00000000000E+00 -0.11827022422E+04  0.11827022422E+04  0.00000000000E+00 0.  1.
         23    2    1    2    0    0 -0.70012599579E+03 -0.92275312369E+03 -0.76771259998E+02  0.11645128737E+04  0.92448198177E+02 0.  0.
         13    1    3    3    0    0 -0.45678436992E+03 -0.64356671991E+03 -0.17070848606E+02  0.78938045165E+03  0.00000000000E+00 0.  1.
        -13    1    3    3    0    0 -0.24334162587E+03 -0.27918640378E+03 -0.59700411391E+02  0.37513242203E+03  0.00000000000E+00 0. -1.
         22    1    1    2    0    0  0.70012599579E+03  0.92275312369E+03  0.34695206075E+02  0.11588155568E+04  0.00000000000E+00 0. -1.
<mgrwt>
<rscale>  0 0.23229474E+04</rscale>
<asrwt>0</asrwt>
<pdfrwt beam="1">  1        2 0.17548095E+00 0.23229474E+04</pdfrwt>
<pdfrwt beam="2">  1       -2 0.18195419E+00 0.23229474E+04</pdfrwt>
<totfact> 0.32721059E+00</totfact>
</mgrwt>
</event>
<event>
 6    1  0.3017327E-006  0.3822314E+04  0.7818608E-02  0.8041383E-01
          2   -1    0    0  501    0  0.00000000000E+00  0.00000000000E+00  0.25941504206E+04  0.25941504206E+04  0.00000000000E+00 0. -1.
         -2   -1    0    0    0  501 -0.00000000000E+00 -0.00000000000E+00 -0.14079837258E+04  0.14079837258E+04  0.00000000000E+00 0.  1.
         23    2    1    2    0    0 -0.14143449291E+04 -0.33661960428E+03  0.18905295079E+04  0.23866431036E+04  0.90989820473E+02 0.  0.
         11    1    3    3    0    0 -0.64353881698E+03 -0.17918624115E+03  0.92997785022E+03  0.11450365583E+04  0.00000000000E+00 0.  1.
        -11    1    3    3    0    0 -0.77080611214E+03 -0.15743336313E+03  0.96055165768E+03  0.12416065453E+04  0.00000000000E+00 0. -1.
         22    1    1    2    0    0  0.14143449291E+04  0.33661960428E+03 -0.70436281311E+03  0.16154910427E+04  0.00000000000E+00 0.  1.
<mgrwt>
<rscale>  0 0.38223143E+04</rscale>
<asrwt>0</asrwt>
<pdfrwt beam="1">  1        2 0.39910006E+00 0.38223143E+04</pdfrwt>
<pdfrwt beam="2">  1       -2 0.21661288E+00 0.38223143E+04</pdfrwt>
<totfact> 0.25494842E-01</totfact>
</mgrwt>
</event>
<event>
 6    1  0.3017327E-006  0.1168381E+04  0.7818608E-02  0.9140992E-01
         -2   -1    0    0    0  501 -0.00000000000E+00  0.00000000000E+00  0.33944424044E+03  0.33944424044E+03  0.00000000000E+00 0.  1.
          2   -1    0    0  501    0  0.00000000000E+00 -0.00000000000E+00 -0.10054042189E+04  0.10054042189E+04  0.00000000000E+00 0. -1.
         23    2    1    2    0    0  0.10822545727E+03  0.40416899996E+03 -0.79881110631E+03  0.90585557528E+03  0.86080250739E+02 0.  0.
         13    1    3    3    0    0  0.92806203387E+01  0.16271009568E+03 -0.36278761740E+03  0.39771291215E+03  0.00000000000E+00 0.  1.
        -13    1    3    3    0    0  0.98944836928E+02  0.24145890429E+03 -0.43602348891E+03  0.50814266313E+03  0.00000000000E+00 0. -1.
         22    1    1    2    0    0 -0.10822545727E+03 -0.40416899996E+03  0.13285112780E+03  0.43899288410E+03  0.00000000000E+00 0.  1.
<mgrwt>
<rscale>  0 0.11683812E+04</rscale>
<asrwt>0</asrwt>
<pdfrwt beam="1">  1        2 0.15467757E+00 0.11683812E+04</pdfrwt>
<pdfrwt beam="2">  1       -2 0.52222191E-01 0.11683812E+04</pdfrwt>
<totfact> 0.85505374E+01</totfact>
</mgrwt>
</event>
<event>
 6    1  0.3017327E-006  0.1205418E+04  0.7818608E-02  0.9108127E-01
         -2   -1    0    0    0  501 -0.00000000000E+00  0.00000000000E+00  0.12501725298E+03  0.12501725298E+03  0.00000000000E+00 0.  1.
          2   -1    0    0  501    0  0.00000000000E+00 -0.00000000000E+00 -0.29056659330E+04  0.29056659330E+04  0.00000000000E+00 0. -1.
         23    2    1    2    0    0  0.21918640660E+03 -0.13685683130E+03 -0.27576278570E+04  0.27712560644E+04  0.92608333671E+02 0.  0.
         11    1    3    3    0    0  0.14020875652E+03 -0.10816202505E+03 -0.14212783706E+04  0.14322673374E+04  0.00000000000E+00 0. -1.
        -11    1    3    3    0    0  0.78977650088E+02 -0.28694806249E+02 -0.13363494865E+04  0.13389887270E+04  0.00000000000E+00 0.  1.
         22    1    1    2    0    0 -0.21918640660E+03  0.13685683130E+03 -0.23020822977E+02  0.25942712157E+03  0.00000000000E+00 0.  1.
<mgrwt>
<rscale>  0 0.12054184E+04</rscale>
<asrwt>0</asrwt>
<pdfrwt beam="1">  1        2 0.44702549E+00 0.12054184E+04</pdfrwt>
<pdfrwt beam="2">  1       -2 0.19233425E-01 0.12054184E+04</pdfrwt>
<totfact> 0.45573342E+01</totfact>
</mgrwt>
</event>
<event>
 6    1  0.3017327E-006  0.4814331E+04  0.7818608E-02  0.7857805E-01
         -2   -1    0    0    0  501 -0.00000000000E+00  0.00000000000E+00  0.14849049812E+04  0.14849049812E+04  0.00000000000E+00 0.  1.
          2   -1    0    0  501    0  0.00000000000E+00 -0.00000000000E+00 -0.39022328845E+04  0.39022328845E+04  0.00000000000E+00 0. -1.
         23    2    1    2    0    0 -0.63775244815E+03  0.15591293033E+04  0.71371704479E+03  0.18317117540E+04  0.90352422491E+02 0.  0.
         13    1    3    3    0    0 -0.27698353238E+03  0.72358344949E+03  0.37328256510E+03  0.86001904572E+03  0.00000000000E+00 0. -1.
        -13    1    3    3    0    0 -0.36076891577E+03  0.83554585376E+03  0.34043447969E+03  0.97169270826E+03  0.00000000000E+00 0.  1.
         22    1    1    2    0    0  0.63775244815E+03 -0.15591293033E+04 -0.31310449480E+04  0.35554261117E+04  0.00000000000E+00 0. -1.
<mgrwt>
<rscale>  0 0.48143307E+04</rscale>
<asrwt>0</asrwt>
<pdfrwt beam="1">  1        2 0.60034351E+00 0.48143307E+04</pdfrwt>
<pdfrwt beam="2">  1       -2 0.22844692E+00 0.48143307E+04</pdfrwt>
<totfact> 0.26345605E-02</totfact>
</mgrwt>
</event>
<event>
 6    1  0.3017327E-006  0.2337595E+04  0.7818608E-02  0.8463244E-01
          2   -1    0    0  501    0  0.00000000000E+00  0.00000000000E+00  0.17858670888E+04  0.17858670888E+04  0.00000000000E+00 0. -1.
         -2   -1    0    0    0  501 -0.00000000000E+00 -0.00000000000E+00 -0.76494362922E+03  0.76494362922E+03  0.00000000000E+00 0.  1.
         23    2    1    2    0    0  0.13351267116E+03 -0.61356199158E+03 -0.56240222481E+03  0.84751856055E+03  0.87792352420E+02 0.  0.
         11    1    3    3    0    0  0.15922036139E+02 -0.26941976361E+03 -0.22366510436E+03  0.35052332186E+03  0.00000000000E+00 0.  1.
        -11    1    3    3    0    0  0.11759063502E+03 -0.34414222797E+03 -0.33873712046E+03  0.49699523870E+03  0.00000000000E+00 0. -1.
         22    1    1    2    0    0 -0.13351267116E+03  0.61356199158E+03  0.15833256844E+04  0.17032921575E+04  0.00000000000E+00 0. -1.
<mgrwt>
<rscale>  0 0.23375950E+04</rscale>
<asrwt>0</asrwt>
<pdfrwt beam="1">  1        2 0.27474878E+00 0.23375950E+04</pdfrwt>
<pdfrwt beam="2">  1       -2 0.11768364E+00 0.23375950E+04</pdfrwt>
<totfact> 0.44256284E+00</totfact>
</mgrwt>
</event>
<event>
 6    1  0.3017327E-006  0.1299379E+04  0.7818608E-02  0.9030058E-01
          2   -1    0    0  501    0  0.00000000000E+00  0.00000000000E+00  0.14345297871E+04  0.14345297871E+04  0.00000000000E+00 0. -1.
         -2   -1    0    0    0  501 -0.00000000000E+00 -0.00000000000E+00 -0.29424026625E+03  0.29424026625E+03  0.00000000000E+00 0.  1.
         23    2    1    2    0    0 -0.89842121170E+02 -0.29276293829E+03 -0.18652311154E+03  0.36707496771E+03  0.78558360502E+02 0.  0.
         11    1    3    3    0    0 -0.42704989051E+02 -0.24030666495E+03 -0.15941750192E+03  0.29152178173E+03  0.00000000000E+00 0. -1.
        -11    1    3    3    0    0 -0.47137132119E+02 -0.52456273345E+02 -0.27105609623E+02  0.75553185973E+02  0.00000000000E+00 0.  1.
         22    1    1    2    0    0  0.89842121170E+02  0.29276293829E+03  0.13268126324E+04  0.13616950856E+04  0.00000000000E+00 0. -1.
<mgrwt>
<rscale>  0 0.12993790E+04</rscale>
<asrwt>0</asrwt>
<pdfrwt beam="1">  1        2 0.22069689E+00 0.12993790E+04</pdfrwt>
<pdfrwt beam="2">  1       -2 0.45267734E-01 0.12993790E+04</pdfrwt>
<totfact> 0.62703400E+01</totfact>
</mgrwt>
</event>
<event>
 6    1  0.3017327E-006  0.1600307E+04  0.7818608E-02  0.8820359E-01
         -1   -1    0    0    0  501 -0.00000000000E+00  0.00000000000E+00  0.79187375817E+03  0.79187375817E+03  0.00000000000E+00 0.  1.
          1   -1    0    0  501    0  0.00000000000E+00 -0.00000000000E+00 -0.80852030463E+03  0.80852030463E+03  0.00000000000E+00 0. -1.
         23    2    1    2    0    0  0.59015342085E+03 -0.14281464673E+03  0.50837010248E+03  0.79769887462E+03  0.95949205311E+02 0.  0.
         11    1    3    3    0    0  0.17983271537E+03 -0.84906275054E+02  0.13949741928E+03  0.24291646928E+03  0.00000000000E+00 0. -1.
        -11    1    3    3    0    0  0.41032070548E+03 -0.57908371677E+02  0.36887268321E+03  0.55478240534E+03  0.00000000000E+00 0.  1.
         22    1    1    2    0    0 -0.59015342085E+03  0.14281464673E+03 -0.52501664894E+03  0.80269518818E+03  0.00000000000E+00 0. -1.
<mgrwt>
<rscale>  0 0.16003075E+04</rscale>
<asrwt>0</asrwt>
<pdfrwt beam="1">  1        1 0.12438774E+00 0.16003075E+04</pdfrwt>
<pdfrwt beam="2">  1       -1 0.12182673E+00 0.16003075E+04</pdfrwt>
<totfact> 0.12442769E+01</totfact>
</mgrwt>
</event>
<event>
 6    1  0.3017327E-006  0.3247081E+04  0.7818608E-02  0.8176493E-01
          2   -1    0    0  501    0  0.00000000000E+00  0.00000000000E+00  0.13141618019E+04  0.13141618019E+04  0.00000000000E+00 0.  1.
         -2   -1    0    0    0  501 -0.00000000000E+00 -0.00000000000E+00 -0.20057525519E+04  0.20057525519E+04  0.00000000000E+00 0. -1.
         23    2    1    2    0    0 -0.17731239646E+03  0.14322864810E+04 -0.11034751163E+04  0.18190702644E+04  0.92060008615E+02 0.  0.
         11    1    3    3    0    0 -0.40494657920E+02  0.65337406272E+03 -0.47186331382E+03  0.80696497451E+03  0.00000000000E+00 0. -1.
        -11    1    3    3    0    0 -0.13681773854E+03  0.77891241823E+03 -0.63161180248E+03  0.10121052899E+04  0.00000000000E+00 0.  1.
         22    1    1    2    0    0  0.17731239646E+03 -0.14322864810E+04  0.41188436635E+03  0.15008440894E+04  0.00000000000E+00 0.  1.
<mgrwt>
<rscale>  0 0.32470808E+04</rscale>
<asrwt>0</asrwt>
<pdfrwt beam="1">  1        2 0.20217874E+00 0.32470808E+04</pdfrwt>
<pdfrwt beam="2">  1       -2 0.30857731E+00 0.32470808E+04</pdfrwt>
<totfact> 0.38302818E-01</totfact>
</mgrwt>
</event>
<event>
 6    1  0.3017327E-006  0.2292289E+04  0.7818608E-02  0.8480968E-01
         -1   -1    0    0    0  501 -0.00000000000E+00  0.00000000000E+00  0.12802344605E+04  0.12802344605E+04  0.00000000000E+00 0.  1.
          1   -1    0    0  501    0  0.00000000000E+00 -0.00000000000E+00 -0.10260988829E+04  0.10260988829E+04  0.00000000000E+00 0. -1.
         23    2    1    2    0    0 -0.11008363802E+04 -0.21286511625E+03  0.35866152817E+03  0.11802436631E+04  0.84762721360E+02 0.  0.
         11    1    3    3    0    0 -0.99649825802E+03 -0.17636044408E+03  0.30233884945E+03  0.10561820697E+04  0.00000000000E+00 0.  1.
        -11    1    3    3    0    0 -0.10433812216E+03 -0.36504672176E+02  0.56322678724E+02  0.12406159343E+03  0.00000000000E+00 0. -1.
         22    1    1    2    0    0  0.11008363802E+04  0.21286511625E+03 -0.10452595058E+03  0.11260896803E+04  0.00000000000E+00 0. -1.
<mgrwt>
<rscale>  0 0.22922889E+04</rscale>
<asrwt>0</asrwt>
<pdfrwt beam="1">  1        1 0.15786137E+00 0.22922889E+04</pdfrwt>
<pdfrwt beam="2">  1       -1 0.19695915E+00 0.22922889E+04</pdfrwt>
<totfact> 0.20632119E+00</totfact>
</mgrwt>
</event>
<event>
 6    1  0.3017327E-006  0.2087168E+04  0.7818608E-02  0.8566917E-01
         -2   -1    0    0    0  501 -0.00000000000E+00  0.00000000000E+00  0.33833495453E+03  0.33833495453E+03  0.00000000000E+00 0.  1.
          2   -1    0    0  501    0  0.00000000000E+00 -0.00000000000E+00 -0.32189027100E+04  0.32189027100E+04  0.00000000000E+00 0. -1.
         23    2    1    2    0    0 -0.98850260917E+03  0.28623035661E+03 -0.11684839598E+04  0.15596651005E+04  0.90195542364E+02 0.  0.
         13    1    3    3    0    0 -0.45942754768E+03  0.90123334189E+02 -0.55684225322E+03  0.72750888785E+03  0.00000000000E+00 0. -1.
        -13    1    3    3    0    0 -0.52907506149E+03  0.19610702242E+03 -0.61164170661E+03  0.83215621262E+03  0.00000000000E+00 0.  1.
         22    1    1    2    0    0  0.98850260917E+03 -0.28623035661E+03 -0.17120837957E+04  0.19975725641E+04  0.00000000000E+00 0.  1.
<mgrwt>
<rscale>  0 0.20871677E+04</rscale>
<asrwt>0</asrwt>
<pdfrwt beam="1">  1        2 0.49521577E+00 0.20871677E+04</pdfrwt>
<pdfrwt beam="2">  1       -2 0.52051535E-01 0.20871677E+04</pdfrwt>
<totfact> 0.40634191E+00</totfact>
</mgrwt>
</event>
<event>
 6    1  0.3017327E-006  0.1126478E+04  0.7818608E-02  0.9179762E-01
          2   -1    0    0  501    0  0.00000000000E+00  0.00000000000E+00  0.13627727955E+04  0.13627727955E+04  0.00000000000E+00 0. -1.
         -2   -1    0    0    0  501 -0.00000000000E+00 -0.00000000000E+00 -0.23278886701E+03  0.23278886701E+03  0.00000000000E+00 0.  1.
         23    2    1    2    0    0  0.15551601048E+03 -0.37226263905E+03  0.11178778958E+04  0.11919389947E+04  0.91120114076E+02 0.  0.
         13    1    3    3    0    0  0.50406346457E+02 -0.21040635838E+03  0.67529780346E+03  0.70911124570E+03  0.00000000000E+00 0.  1.
        -13    1    3    3    0    0  0.10510966402E+03 -0.16185628067E+03  0.44258009235E+03  0.48282774901E+03  0.00000000000E+00 0. -1.
         22    1    1    2    0    0 -0.15551601048E+03  0.37226263905E+03  0.12106032693E+02  0.40362266782E+03  0.00000000000E+00 0.  1.
<mgrwt>
<rscale>  0 0.11264783E+04</rscale>
<asrwt>0</asrwt>
<pdfrwt beam="1">  1        2 0.20965735E+00 0.11264783E+04</pdfrwt>
<pdfrwt beam="2">  1       -2 0.35813673E-01 0.11264783E+04</pdfrwt>
<totfact> 0.11036712E+02</totfact>
</mgrwt>
</event>
<event>
 6    1  0.3017327E-006  0.2137554E+04  0.7818608E-02  0.8544879E-01
          2   -1    0    0  501    0  0.00000000000E+00  0.00000000000E+00  0.14354148962E+04  0.14354148962E+04  0.00000000000E+00 0.  1.
         -2   -1    0    0    0  501 -0.00000000000E+00 -0.00000000000E+00 -0.79578670013E+03  0.79578670013E+03  0.00000000000E+00 0. -1.
         23    2    1    2    0    0  0.99854732076E+03  0.30191974313E+03  0.55481388267E+03  0.11845661532E+04  0.84417082369E+02 0.  0.
         11    1    3    3    0    0  0.30603608422E+03  0.13347664014E+03  0.18069437753E+03  0.37963740119E+03  0.00000000000E+00 0.  1.
        -11    1    3    3    0    0  0.69251123655E+03  0.16844310298E+03  0.37411950514E+03  0.80492875201E+03  0.00000000000E+00 0. -1.
         22    1    1    2    0    0 -0.99854732076E+03 -0.30191974313E+03  0.84814313408E+02  0.10466354431E+04  0.00000000000E+00 0. -1.
<mgrwt>
<rscale>  0 0.21375538E+04</rscale>
<asrwt>0</asrwt>
<pdfrwt beam="1">  1        2 0.22083306E+00 0.21375538E+04</pdfrwt>
<pdfrwt beam="2">  1       -2 0.12242872E+00 0.21375538E+04</pdfrwt>
<totfact> 0.64106987E+00</totfact>
</mgrwt>
</event>
<event>
 6    1  0.3017327E-006  0.6139909E+04  0.7818608E-02  0.7673293E-01
         -1   -1    0    0    0  501 -0.00000000000E+00  0.00000000000E+00  0.50640225770E+04  0.50640225770E+04  0.00000000000E+00 0.  1.
          1   -1    0    0  501    0  0.00000000000E+00 -0.00000000000E+00 -0.18610936196E+04  0.18610936196E+04  0.00000000000E+00 0. -1.
         23    2    1    2    0    0  0.33917210394E+03  0.17858186471E+04 -0.11875865294E+04  0.21731889880E+04  0.90568519106E+02 0.  0.
         13    1    3    3    0    0  0.21850982749E+03  0.13271914421E+04 -0.90432493178E+03  0.16207983375E+04  0.00000000000E+00 0. -1.
        -13    1    3    3    0    0  0.12066227645E+03  0.45862720498E+03 -0.28326159759E+03  0.55239065051E+03  0.00000000000E+00 0.  1.
         22    1    1    2    0    0 -0.33917210394E+03 -0.17858186471E+04  0.43905154867E+04  0.47519272086E+04  0.00000000000E+00 0.  1.
<mgrwt>
<rscale>  0 0.61399088E+04</rscale>
<asrwt>0</asrwt>
<pdfrwt beam="1">  1        1 0.28632210E+00 0.61399088E+04</pdfrwt>
<pdfrwt beam="2">  1       -1 0.77908039E+00 0.61399088E+04</pdfrwt>
<totfact> 0.22727720E-04</totfact>
</mgrwt>
</event>
<event>
 6    1  0.3017327E-006  0.2454912E+04  0.7818608E-02  0.8419227E-01
          1   -1    0    0  501    0  0.00000000000E+00  0.00000000000E+00  0.27253090576E+04  0.27253090576E+04  0.00000000000E+00 0.  1.
         -1   -1    0    0    0  501 -0.00000000000E+00 -0.00000000000E+00 -0.55283552416E+03  0.55283552416E+03  0.00000000000E+00 0. -1.
         23    2    1    2    0    0  0.10079561103E+04 -0.60044152424E+03  0.15620944699E+04  0.19556211810E+04  0.88371525465E+02 0.  0.
         13    1    3    3    0    0  0.30478297181E+03 -0.20939561473E+03  0.54840361752E+03  0.66142702627E+03  0.00000000000E+00 0.  1.
        -13    1    3    3    0    0  0.70317313845E+03 -0.39104590951E+03  0.10136908524E+04  0.12941941548E+04  0.00000000000E+00 0. -1.
         22    1    1    2    0    0 -0.10079561103E+04  0.60044152424E+03  0.61037906348E+03  0.13225234007E+04  0.00000000000E+00 0. -1.
<mgrwt>
<rscale>  0 0.24549115E+04</rscale>
<asrwt>0</asrwt>
<pdfrwt beam="1">  1        1 0.41927831E+00 0.24549115E+04</pdfrwt>
<pdfrwt beam="2">  1       -1 0.85051621E-01 0.24549115E+04</pdfrwt>
<totfact> 0.11482203E+00</totfact>
</mgrwt>
</event>
<event>
 6    1  0.3017327E-006  0.9134957E+03  0.7818608E-02  0.9408867E-01
         -2   -1    0    0    0  501 -0.00000000000E+00  0.00000000000E+00  0.15125579230E+03  0.15125579230E+03  0.00000000000E+00 0.  1.
          2   -1    0    0  501    0  0.00000000000E+00 -0.00000000000E+00 -0.13792437067E+04  0.13792437067E+04  0.00000000000E+00 0. -1.
         23    2    1    2    0    0 -0.21641046777E+03  0.34470111622E+03 -0.95129970350E+03  0.10383524517E+04  0.86904188926E+02 0.  0.
         11    1    3    3    0    0 -0.16974716986E+03  0.19262964881E+03 -0.60816163434E+03  0.66013699848E+03  0.00000000000E+00 0.  1.
        -11    1    3    3    0    0 -0.46663297905E+02  0.15207146741E+03 -0.34313806917E+03  0.37821545326E+03  0.00000000000E+00 0. -1.
         22    1    1    2    0    0  0.21641046777E+03 -0.34470111622E+03 -0.27668821092E+03  0.49214704728E+03  0.00000000000E+00 0.  1.
<mgrwt>
<rscale>  0 0.91349570E+03</rscale>
<asrwt>0</asrwt>
<pdfrwt beam="1">  1        2 0.21219135E+00 0.91349570E+03</pdfrwt>
<pdfrwt beam="2">  1       -2 0.23270121E-01 0.91349570E+03</pdfrwt>
<totfact> 0.24315749E+02</totfact>
</mgrwt>
</event>
<event>
 6    1  0.3017327E-006  0.2797545E+04  0.7818608E-02  0.8304031E-01
          1   -1    0    0  501    0  0.00000000000E+00  0.00000000000E+00  0.88196761208E+03  0.88196761208E+03  0.00000000000E+00 0. -1.
         -1   -1    0    0    0  501 -0.00000000000E+00 -0.00000000000E+00 -0.22184093234E+04  0.22184093234E+04  0.00000000000E+00 0.  1.
         23    2    1    2    0    0 -0.50340002857E+03 -0.73215462509E+03  0.52623526464E+03  0.10366357936E+04  0.90709597347E+02 0.  0.
         13    1    3    3    0    0 -0.12610661848E+03 -0.21742590953E+03  0.10777972960E+03  0.27348377552E+03  0.00000000000E+00 0. -1.
        -13    1    3    3    0    0 -0.37729341009E+03 -0.51472871555E+03  0.41845553504E+03  0.76315201809E+03  0.00000000000E+00 0.  1.
         22    1    1    2    0    0  0.50340002857E+03  0.73215462509E+03 -0.18626769759E+04  0.20637411418E+04  0.00000000000E+00 0.  1.
<mgrwt>
<rscale>  0 0.27975455E+04</rscale>
<asrwt>0</asrwt>
<pdfrwt beam="1">  1        1 0.13568733E+00 0.27975455E+04</pdfrwt>
<pdfrwt beam="2">  1       -1 0.34129374E+00 0.27975455E+04</pdfrwt>
<totfact> 0.28926578E-01</totfact>
</mgrwt>
</event>
<event>
 6    1  0.3017327E-006  0.3386044E+04  0.7818608E-02  0.8141340E-01
         -2   -1    0    0    0  501 -0.00000000000E+00  0.00000000000E+00  0.82272792464E+03  0.82272792464E+03  0.00000000000E+00 0.  1.
          2   -1    0    0  501    0  0.00000000000E+00 -0.00000000000E+00 -0.34839257779E+04  0.34839257779E+04  0.00000000000E+00 0. -1.
         23    2    1    2    0    0 -0.16428022835E+04  0.15732217947E+03 -0.18054910707E+04  0.24476798704E+04  0.88256053198E+02 0.  0.
         11    1    3    3    0    0 -0.43576393502E+03  0.42719277157E+02 -0.53794329935E+03  0.69361238240E+03  0.00000000000E+00 0. -1.
        -11    1    3    3    0    0 -0.12070383485E+04  0.11460290232E+03 -0.12675477713E+04  0.17540674880E+04  0.00000000000E+00 0.  1.
         22    1    1    2    0    0  0.16428022835E+04 -0.15732217947E+03 -0.85570678259E+03  0.18589738321E+04  0.00000000000E+00 0. -1.
<mgrwt>
<rscale>  0 0.33860437E+04</rscale>
<asrwt>0</asrwt>
<pdfrwt beam="1">  1        2 0.53598857E+00 0.33860437E+04</pdfrwt>
<pdfrwt beam="2">  1       -2 0.12657353E+00 0.33860437E+04</pdfrwt>
<totfact> 0.32101828E-01</totfact>
</mgrwt>
</event>
<event>
 6    1  0.3017327E-006  0.1969777E+04  0.7818608E-02  0.8620883E-01
          1   -1    0    0  501    0  0.00000000000E+00  0.00000000000E+00  0.15441016567E+04  0.15441016567E+04  0.00000000000E+00 0. -1.
         -1   -1    0    0    0  501 -0.00000000000E+00 -0.00000000000E+00 -0.62820052195E+03  0.62820052195E+03  0.00000000000E+00 0.  1.
         23    2    1    2    0    0 -0.58016408059E+03  0.20184716092E+03  0.13049407028E+04  0.14451952935E+04  0.91578173920E+02 0.  0.
         13    1    3    3    0    0 -0.51469711328E+03  0.16106536892E+03  0.11931915424E+04  0.13094125508E+04  0.00000000000E+00 0. -1.
        -13    1    3    3    0    0 -0.65466967311E+02  0.40781792002E+02  0.11174916041E+03  0.13578274272E+03  0.00000000000E+00 0.  1.
         22    1    1    2    0    0  0.58016408059E+03 -0.20184716092E+03 -0.38903956808E+03  0.72710688506E+03  0.00000000000E+00 0.  1.
<mgrwt>
<rscale>  0 0.19697771E+04</rscale>
<asrwt>0</asrwt>
<pdfrwt beam="1">  1        1 0.23755410E+00 0.19697771E+04</pdfrwt>
<pdfrwt beam="2">  1       -1 0.96646235E-01 0.19697771E+04</pdfrwt>
<totfact> 0.58412283E+00</totfact>
</mgrwt>
</event>
<event>
 6    1  0.3609948E-006  0.3701590E+04  0.7818608E-02  0.8067610E-01
          2   -1    0    0  501    0  0.00000000000E+00  0.00000000000E+00  0.17729687067E+04  0.17729687067E+04  0.00000000000E+00 0. -1.
         -2   -1    0    0    0  501 -0.00000000000E+00 -0.00000000000E+00 -0.19320372124E+04  0.19320372124E+04  0.00000000000E+00 0.  1.
         23    2    1    2    0    0  0.11113774422E+04  0.20547985961E+03  0.13850543273E+04  0.17914497754E+04  0.11634008933E+03 0.  0.
         11    1    3    3    0    0  0.24097797237E+03  0.53345473994E+02  0.23164903840E+03  0.33849283560E+03  0.00000000000E+00 0. -1.
        -11    1    3    3    0    0  0.87039946981E+03  0.15213438561E+03  0.11534052889E+04  0.14529569398E+04  0.00000000000E+00 0.  1.
         22    1    1    2    0    0 -0.11113774422E+04 -0.20547985961E+03 -0.15441228331E+04  0.19135561438E+04  0.00000000000E+00 0.  1.
<mgrwt>
<rscale>  0 0.37015897E+04</rscale>
<asrwt>0</asrwt>
<pdfrwt beam="1">  1        2 0.27276442E+00 0.37015897E+04</pdfrwt>
<pdfrwt beam="2">  1       -2 0.29723649E+00 0.37015897E+04</pdfrwt>
<totfact> 0.23857940E-01</totfact>
</mgrwt>
</event>
<event>
 6    1  0.3017327E-006  0.3476452E+04  0.7818608E-02  0.8119393E-01
         -2   -1    0    0    0  501 -0.00000000000E+00  0.00000000000E+00  0.13857423491E+04  0.13857423491E+04  0.00000000000E+00 0.  1.
          2   -1    0    0  501    0  0.00000000000E+00 -0.00000000000E+00 -0.21803692513E+04  0.21803692513E+04  0.00000000000E+00 0. -1.
         23    2    1    2    0    0  0.16461723273E+04 -0.41903762324E+03 -0.25056732899E+02  0.17012485743E+04  0.90238631675E+02 0.  0.
         13    1    3    3    0    0  0.54897093488E+03 -0.15558386879E+03 -0.48192425391E+02  0.57262373111E+03  0.00000000000E+00 0. -1.
        -13    1    3    3    0    0  0.10972013924E+04 -0.26345375445E+03  0.23135692492E+02  0.11286248431E+04  0.00000000000E+00 0.  1.
         22    1    1    2    0    0 -0.16461723273E+04  0.41903762324E+03 -0.76957016931E+03  0.18648630262E+04  0.00000000000E+00 0. -1.
<mgrwt>
<rscale>  0 0.34764522E+04</rscale>
<asrwt>0</asrwt>
<pdfrwt beam="1">  1        2 0.33544142E+00 0.34764522E+04</pdfrwt>
<pdfrwt beam="2">  1       -2 0.21319113E+00 0.34764522E+04</pdfrwt>
<totfact> 0.47632777E-01</totfact>
</mgrwt>
</event>
<event>
 6    1  0.3017327E-006  0.2329921E+04  0.7818608E-02  0.8466216E-01
          2   -1    0    0  501    0  0.00000000000E+00  0.00000000000E+00  0.23840547545E+04  0.23840547545E+04  0.00000000000E+00 0. -1.
         -2   -1    0    0    0  501 -0.00000000000E+00 -0.00000000000E+00 -0.56925408931E+03  0.56925408931E+03  0.00000000000E+00 0.  1.
         23    2    1    2    0    0 -0.51293641135E+03 -0.42618333159E+03 -0.29929259111E+03  0.73652597430E+03  0.90324202246E+02 0.  0.
         11    1    3    3    0    0 -0.28026474507E+03 -0.28937810603E+03 -0.17009908119E+03  0.43728904971E+03  0.00000000000E+00 0.  1.
        -11    1    3    3    0    0 -0.23267166628E+03 -0.13680522556E+03 -0.12919350992E+03  0.29923692459E+03  0.00000000000E+00 0. -1.
         22    1    1    2    0    0  0.51293641135E+03  0.42618333159E+03  0.21140932563E+04  0.22167828695E+04  0.00000000000E+00 0. -1.
<mgrwt>
<rscale>  0 0.23299210E+04</rscale>
<asrwt>0</asrwt>
<pdfrwt beam="1">  1        2 0.36677765E+00 0.23299210E+04</pdfrwt>
<pdfrwt beam="2">  1       -2 0.87577553E-01 0.23299210E+04</pdfrwt>
<totfact> 0.41315996E+00</totfact>
</mgrwt>
</event>
<event>
 6    1  0.3017327E-006  0.1328220E+04  0.7818608E-02  0.9007481E-01
         -2   -1    0    0    0  501 -0.00000000000E+00  0.00000000000E+00  0.18467807168E+03  0.18467807168E+03  0.00000000000E+00 0.  1.
          2   -1    0    0  501    0  0.00000000000E+00 -0.00000000000E+00 -0.23881677916E+04  0.23881677916E+04  0.00000000000E+00 0. -1.
         23    2    1    2    0    0 -0.31153048995E+03 -0.30718179691E+03 -0.20663508766E+04  0.21143494458E+04  0.96206710827E+02 0.  0.
         13    1    3    3    0    0 -0.63724690059E+02 -0.34462611125E+02 -0.50105038759E+03  0.50626080096E+03  0.00000000000E+00 0. -1.
        -13    1    3    3    0    0 -0.24780579989E+03 -0.27271918579E+03 -0.15653004890E+04  0.16080886448E+04  0.00000000000E+00 0.  1.
         22    1    1    2    0    0  0.31153048995E+03  0.30718179691E+03 -0.13713884336E+03  0.45849641753E+03  0.00000000000E+00 0.  1.
<mgrwt>
<rscale>  0 0.13282202E+04</rscale>
<asrwt>0</asrwt>
<pdfrwt beam="1">  1        2 0.36741044E+00 0.13282202E+04</pdfrwt>
<pdfrwt beam="2">  1       -2 0.28412010E-01 0.13282202E+04</pdfrwt>
<totfact> 0.44973237E+01</totfact>
</mgrwt>
</event>
<event>
 6    1  0.3017327E-006  0.1563544E+04  0.7818608E-02  0.8843263E-01
          1   -1    0    0  501    0  0.00000000000E+00  0.00000000000E+00  0.15357888724E+04  0.15357888724E+04  0.00000000000E+00 0. -1.
         -1   -1    0    0    0  501 -0.00000000000E+00 -0.00000000000E+00 -0.39795012551E+03  0.39795012551E+03  0.00000000000E+00 0.  1.
         23    2    1    2    0    0 -0.22461716472E+03  0.60478522765E+03  0.11110815299E+04  0.12880347383E+04  0.91177182360E+02 0.  0.
         11    1    3    3    0    0 -0.13378364414E+03  0.36928768365E+03  0.76183294021E+03  0.85712361158E+03  0.00000000000E+00 0.  1.
        -11    1    3    3    0    0 -0.90833520583E+02  0.23549754400E+03  0.34924858974E+03  0.43091112671E+03  0.00000000000E+00 0. -1.
         22    1    1    2    0    0  0.22461716472E+03 -0.60478522765E+03  0.26757216976E+02  0.64570425965E+03  0.00000000000E+00 0.  1.
<mgrwt>
<rscale>  0 0.15635439E+04</rscale>
<asrwt>0</asrwt>
<pdfrwt beam="1">  1        1 0.23627521E+00 0.15635439E+04</pdfrwt>
<pdfrwt beam="2">  1       -1 0.61223097E-01 0.15635439E+04</pdfrwt>
<totfact> 0.16089005E+01</totfact>
</mgrwt>
</event>
<event>
 6    1  0.3017327E-006  0.2046740E+04  0.7818608E-02  0.8585075E-01
          1   -1    0    0  501    0  0.00000000000E+00  0.00000000000E+00  0.73901559509E+03  0.73901559509E+03  0.00000000000E+00 0. -1.
         -1   -1    0    0    0  501 -0.00000000000E+00 -0.00000000000E+00 -0.14171366175E+04  0.14171366175E+04  0.00000000000E+00 0.  1.
         23    2    1    2    0    0 -0.32949860149E+03  0.82138907701E+03  0.19724692801E+03  0.91135568589E+03  0.91725085815E+02 0.  0.
         13    1    3    3    0    0 -0.13274147742E+03  0.28900555675E+03  0.28929722641E+02  0.31934533112E+03  0.00000000000E+00 0.  1.
        -13    1    3    3    0    0 -0.19675712407E+03  0.53238352027E+03  0.16831720537E+03  0.59201035477E+03  0.00000000000E+00 0. -1.
         22    1    1    2    0    0  0.32949860149E+03 -0.82138907701E+03 -0.87536795041E+03  0.12447965267E+04  0.00000000000E+00 0.  1.
<mgrwt>
<rscale>  0 0.20467399E+04</rscale>
<asrwt>0</asrwt>
<pdfrwt beam="1">  1        1 0.11369471E+00 0.20467399E+04</pdfrwt>
<pdfrwt beam="2">  1       -1 0.21802102E+00 0.20467399E+04</pdfrwt>
<totfact> 0.26271382E+00</totfact>
</mgrwt>
</event>
<event>
 6    1  0.3017327E-006  0.1484446E+04  0.7818608E-02  0.8894862E-01
         -4   -1    0    0    0  501 -0.00000000000E+00  0.00000000000E+00  0.20528032077E+04  0.20528032077E+04  0.00000000000E+00 0.  1.
          4   -1    0    0  501    0  0.00000000000E+00 -0.00000000000E+00 -0.26836234862E+03  0.26836234862E+03  0.00000000000E+00 0. -1.
         23    2    1    2    0    0  0.24854706462E+03 -0.10772036345E+03  0.19714131220E+04  0.19920182533E+04  0.91036827949E+02 0.  0.
         13    1    3    3    0    0  0.19726652769E+03 -0.76256264107E+02  0.12196099805E+04  0.12378116195E+04  0.00000000000E+00 0.  1.
        -13    1    3    3    0    0  0.51280536932E+02 -0.31464099348E+02  0.75180314143E+03  0.75420663381E+03  0.00000000000E+00 0. -1.
         22    1    1    2    0    0 -0.24854706462E+03  0.10772036345E+03 -0.18697226284E+03  0.32914730305E+03  0.00000000000E+00 0. -1.
<mgrwt>
<rscale>  0 0.14844461E+04</rscale>
<asrwt>0</asrwt>
<pdfrwt beam="1">  1        4 0.41286517E-01 0.14844461E+04</pdfrwt>
<pdfrwt beam="2">  1       -4 0.31581587E+00 0.14844461E+04</pdfrwt>
<totfact> 0.27419191E-01</totfact>
</mgrwt>
</event>
<event>
 6    1  0.3017327E-006  0.3705075E+04  0.7818608E-02  0.8066838E-01
         -2   -1    0    0    0  501 -0.00000000000E+00  0.00000000000E+00  0.12829813078E+04  0.12829813078E+04  0.00000000000E+00 0.  1.
          2   -1    0    0  501    0  0.00000000000E+00 -0.00000000000E+00 -0.26749373686E+04  0.26749373686E+04  0.00000000000E+00 0. -1.
         23    2    1    2    0    0 -0.11702916887E+04 -0.14021393810E+04 -0.37212231921E+03  0.18661160230E+04  0.91304494748E+02 0.  0.
         11    1    3    3    0    0 -0.78379529433E+03 -0.97169403662E+03 -0.29189442781E+03  0.12820790620E+04  0.00000000000E+00 0. -1.
        -11    1    3    3    0    0 -0.38649639435E+03 -0.43044534433E+03 -0.80227891400E+02  0.58403696104E+03  0.00000000000E+00 0.  1.
         22    1    1    2    0    0  0.11702916887E+04  0.14021393810E+04 -0.10198337416E+04  0.20918026534E+04  0.00000000000E+00 0. -1.
<mgrwt>
<rscale>  0 0.37050747E+04</rscale>
<asrwt>0</asrwt>
<pdfrwt beam="1">  1        2 0.41152882E+00 0.37050747E+04</pdfrwt>
<pdfrwt beam="2">  1       -2 0.19738174E+00 0.37050747E+04</pdfrwt>
<totfact> 0.30727483E-01</totfact>
</mgrwt>
</event>
<event>
 6    1  0.4368914E-006  0.2054903E+04  0.7818608E-02  0.8581373E-01
         -2   -1    0    0    0  501 -0.00000000000E+00  0.00000000000E+00  0.13359200618E+04  0.13359200618E+04  0.00000000000E+00 0.  1.
          2   -1    0    0  501    0  0.00000000000E+00 -0.00000000000E+00 -0.79020939460E+03  0.79020939460E+03  0.00000000000E+00 0. -1.
         23    2    1    2    0    0 -0.98976537933E+03 -0.26725004271E+03  0.28566306365E+03  0.10684514111E+04  0.94482487369E+02 0.  0.
         11    1    3    3    0    0 -0.61309214900E+03 -0.16209505951E+03  0.22392752469E+03  0.67253277079E+03  0.00000000000E+00 0.  1.
        -11    1    3    3    0    0 -0.37667323033E+03 -0.10515498319E+03  0.61735538962E+02  0.39591864027E+03  0.00000000000E+00 0. -1.
         22    1    1    2    0    0  0.98976537933E+03  0.26725004271E+03  0.26004760353E+03  0.10576780453E+04  0.00000000000E+00 0. -1.
<mgrwt>
<rscale>  0 0.20549030E+04</rscale>
<asrwt>0</asrwt>
<pdfrwt beam="1">  1        2 0.12157068E+00 0.20549030E+04</pdfrwt>
<pdfrwt beam="2">  1       -2 0.20552616E+00 0.20549030E+04</pdfrwt>
<totfact> 0.39618920E+00</totfact>
</mgrwt>
</event>
<event>
 6    1  0.3017327E-006  0.2814805E+04  0.7818608E-02  0.8298687E-01
          2   -1    0    0  501    0  0.00000000000E+00  0.00000000000E+00  0.14393840792E+04  0.14393840792E+04  0.00000000000E+00 0. -1.
         -2   -1    0    0    0  501 -0.00000000000E+00 -0.00000000000E+00 -0.13761315766E+04  0.13761315766E+04  0.00000000000E+00 0.  1.
         23    2    1    2    0    0 -0.39610470984E+03 -0.96751748905E+02  0.13774896061E+04  0.14394782266E+04  0.91433624618E+02 0.  0.
         11    1    3    3    0    0 -0.25385966572E+03 -0.50485826158E+02  0.10117508256E+04  0.10443338937E+04  0.00000000000E+00 0. -1.
        -11    1    3    3    0    0 -0.14224504413E+03 -0.46265922747E+02  0.36573878058E+03  0.39514433288E+03  0.00000000000E+00 0.  1.
         22    1    1    2    0    0  0.39610470984E+03  0.96751748905E+02 -0.13142371036E+04  0.13760374292E+04  0.00000000000E+00 0.  1.
<mgrwt>
<rscale>  0 0.28148051E+04</rscale>
<asrwt>0</asrwt>
<pdfrwt beam="1">  1        2 0.22144370E+00 0.28148051E+04</pdfrwt>
<pdfrwt beam="2">  1       -2 0.21171255E+00 0.28148051E+04</pdfrwt>
<totfact> 0.13332337E+00</totfact>
</mgrwt>
</event>
<event>
 6    1  0.3017327E-006  0.1871565E+04  0.7818608E-02  0.8669141E-01
         -2   -1    0    0    0  501 -0.00000000000E+00  0.00000000000E+00  0.68470571254E+03  0.68470571254E+03  0.00000000000E+00 0.  1.
          2   -1    0    0  501    0  0.00000000000E+00 -0.00000000000E+00 -0.12789268481E+04  0.12789268481E+04  0.00000000000E+00 0. -1.
         23    2    1    2    0    0 -0.57049626664E+03 -0.46732598711E+03 -0.89823630081E+03  0.11659579471E+04  0.93647818273E+02 0.  0.
         11    1    3    3    0    0 -0.41449841446E+03 -0.38777001630E+03 -0.70709767509E+03  0.90673129605E+03  0.00000000000E+00 0.  1.
        -11    1    3    3    0    0 -0.15599785218E+03 -0.79555970807E+02 -0.19113862572E+03  0.25922665106E+03  0.00000000000E+00 0. -1.
         22    1    1    2    0    0  0.57049626664E+03  0.46732598711E+03  0.30401516520E+03  0.79767461358E+03  0.00000000000E+00 0.  1.
<mgrwt>
<rscale>  0 0.18715646E+04</rscale>
<asrwt>0</asrwt>
<pdfrwt beam="1">  1        2 0.19675798E+00 0.18715646E+04</pdfrwt>
<pdfrwt beam="2">  1       -2 0.10533934E+00 0.18715646E+04</pdfrwt>
<totfact> 0.11646927E+01</totfact>
</mgrwt>
</event>
<event>
 6    1  0.3017327E-006  0.3886479E+04  0.7818608E-02  0.8027847E-01
         -2   -1    0    0    0  501 -0.00000000000E+00  0.00000000000E+00  0.13766628859E+04  0.13766628859E+04  0.00000000000E+00 0.  1.
          2   -1    0    0  501    0  0.00000000000E+00 -0.00000000000E+00 -0.27429949183E+04  0.27429949183E+04  0.00000000000E+00 0. -1.
         23    2    1    2    0    0  0.33485732794E+03  0.17633626512E+04  0.10289699401E+03  0.18001295760E+04  0.91112179380E+02 0.  0.
         11    1    3    3    0    0  0.57537912713E-01  0.11958728651E+03  0.10938039500E+02  0.12008648181E+03  0.00000000000E+00 0. -1.
        -11    1    3    3    0    0  0.33479979003E+03  0.16437753647E+04  0.91958954506E+02  0.16800430942E+04  0.00000000000E+00 0.  1.
         22    1    1    2    0    0 -0.33485732794E+03 -0.17633626512E+04 -0.14692290264E+04  0.23195282283E+04  0.00000000000E+00 0. -1.
<mgrwt>
<rscale>  0 0.38864788E+04</rscale>
<asrwt>0</asrwt>
<pdfrwt beam="1">  1        2 0.42199922E+00 0.38864788E+04</pdfrwt>
<pdfrwt beam="2">  1       -2 0.21179429E+00 0.38864788E+04</pdfrwt>
<totfact> 0.22213558E-01</totfact>
</mgrwt>
</event>
<event>
 6    1  0.3017327E-006  0.1266899E+04  0.7818608E-02  0.9056234E-01
          2   -1    0    0  501    0  0.00000000000E+00  0.00000000000E+00  0.12259150437E+04  0.12259150437E+04  0.00000000000E+00 0. -1.
         -2   -1    0    0    0  501 -0.00000000000E+00 -0.00000000000E+00 -0.32731340443E+03  0.32731340443E+03  0.00000000000E+00 0.  1.
         23    2    1    2    0    0 -0.52427492670E+03  0.10487025094E+02  0.23375843681E+02  0.53293713201E+03  0.92202929210E+02 0.  0.
         11    1    3    3    0    0 -0.17702001330E+03  0.42987351815E+02  0.26942583393E+02  0.18414641002E+03  0.00000000000E+00 0. -1.
        -11    1    3    3    0    0 -0.34725491340E+03 -0.32500326721E+02 -0.35667397117E+01  0.34879072199E+03  0.00000000000E+00 0.  1.
         22    1    1    2    0    0  0.52427492670E+03 -0.10487025094E+02  0.87522579555E+03  0.10202913161E+04  0.00000000000E+00 0. -1.
<mgrwt>
<rscale>  0 0.12668992E+04</rscale>
<asrwt>0</asrwt>
<pdfrwt beam="1">  1        2 0.18860231E+00 0.12668992E+04</pdfrwt>
<pdfrwt beam="2">  1       -2 0.50355909E-01 0.12668992E+04</pdfrwt>
<totfact> 0.66956675E+01</totfact>
</mgrwt>
</event>
<event>
 6    1  0.3017327E-006  0.2920268E+04  0.7818608E-02  0.8266873E-01
          2   -1    0    0  501    0  0.00000000000E+00  0.00000000000E+00  0.17434404949E+04  0.17434404949E+04  0.00000000000E+00 0. -1.
         -2   -1    0    0    0  501 -0.00000000000E+00 -0.00000000000E+00 -0.12228644490E+04  0.12228644490E+04  0.00000000000E+00 0.  1.
         23    2    1    2    0    0 -0.12348562443E+04 -0.41765349165E+03 -0.40444850018E+03  0.13678760922E+04  0.90565066419E+02 0.  0.
         13    1    3    3    0    0 -0.92793365038E+03 -0.33751312137E+03 -0.33900464375E+03  0.10439828136E+04  0.00000000000E+00 0. -1.
        -13    1    3    3    0    0 -0.30692259389E+03 -0.80140370277E+02 -0.65443856433E+02  0.32389327861E+03  0.00000000000E+00 0.  1.
         22    1    1    2    0    0  0.12348562443E+04  0.41765349165E+03  0.92502454614E+03  0.15984288517E+04  0.00000000000E+00 0. -1.
<mgrwt>
<rscale>  0 0.29202681E+04</rscale>
<asrwt>0</asrwt>
<pdfrwt beam="1">  1        2 0.26822161E+00 0.29202681E+04</pdfrwt>
<pdfrwt beam="2">  1       -2 0.18813299E+00 0.29202681E+04</pdfrwt>
<totfact> 0.12754161E+00</totfact>
</mgrwt>
</event>
<event>
 6    1  0.3017327E-006  0.1190515E+04  0.7818608E-02  0.9121200E-01
         -1   -1    0    0    0  501 -0.00000000000E+00  0.00000000000E+00  0.38894765793E+03  0.38894765793E+03  0.00000000000E+00 0.  1.
          1   -1    0    0  501    0  0.00000000000E+00 -0.00000000000E+00 -0.91099988141E+03  0.91099988141E+03  0.00000000000E+00 0. -1.
         23    2    1    2    0    0 -0.16561749938E+03 -0.69896309142E+02 -0.87831372497E+03  0.90090254491E+03  0.88745398811E+02 0.  0.
         11    1    3    3    0    0 -0.12561340142E+03 -0.95209028715E+01 -0.61754775205E+03  0.63026549982E+03  0.00000000000E+00 0.  1.
        -11    1    3    3    0    0 -0.40004097963E+02 -0.60375406270E+02 -0.26076597292E+03  0.27063704508E+03  0.00000000000E+00 0. -1.
         22    1    1    2    0    0  0.16561749938E+03  0.69896309142E+02  0.35626150149E+03  0.39904499443E+03  0.00000000000E+00 0.  1.
<mgrwt>
<rscale>  0 0.11905146E+04</rscale>
<asrwt>0</asrwt>
<pdfrwt beam="1">  1        1 0.14015383E+00 0.11905146E+04</pdfrwt>
<pdfrwt beam="2">  1       -1 0.59838102E-01 0.11905146E+04</pdfrwt>
<totfact> 0.49984745E+01</totfact>
</mgrwt>
</event>
<event>
 6    1  0.3017327E-006  0.1610746E+04  0.7818608E-02  0.8813973E-01
         -2   -1    0    0    0  501 -0.00000000000E+00  0.00000000000E+00  0.28701520010E+03  0.28701520010E+03  0.00000000000E+00 0.  1.
          2   -1    0    0  501    0  0.00000000000E+00 -0.00000000000E+00 -0.22599001788E+04  0.22599001788E+04  0.00000000000E+00 0. -1.
         23    2    1    2    0    0 -0.48756446577E+03 -0.17614573065E+03 -0.19585055989E+04  0.20283084051E+04  0.97695335376E+02 0.  0.
         11    1    3    3    0    0 -0.32345361627E+03 -0.14409060668E+03 -0.11768173930E+04  0.12289359305E+04  0.00000000000E+00 0. -1.
        -11    1    3    3    0    0 -0.16411084950E+03 -0.32055123973E+02 -0.78168820591E+03  0.79937247460E+03  0.00000000000E+00 0.  1.
         22    1    1    2    0    0  0.48756446577E+03  0.17614573065E+03 -0.14379379799E+02  0.51860697380E+03  0.00000000000E+00 0.  1.
<mgrwt>
<rscale>  0 0.16107460E+04</rscale>
<asrwt>0</asrwt>
<pdfrwt beam="1">  1        2 0.34767695E+00 0.16107460E+04</pdfrwt>
<pdfrwt beam="2">  1       -2 0.44156184E-01 0.16107460E+04</pdfrwt>
<totfact> 0.22284035E+01</totfact>
</mgrwt>
</event>
<event>
 6    1  0.3017327E-006  0.2161295E+04  0.7818608E-02  0.8534713E-01
          2   -1    0    0  501    0  0.00000000000E+00  0.00000000000E+00  0.46376655814E+04  0.46376655814E+04  0.00000000000E+00 0. -1.
         -2   -1    0    0    0  501 -0.00000000000E+00 -0.00000000000E+00 -0.25180750091E+03  0.25180750091E+03  0.00000000000E+00 0.  1.
         23    2    1    2    0    0  0.49712307238E+03 -0.88866482822E+03  0.13909251066E+04  0.17261710032E+04  0.90206174277E+02 0.  0.
         11    1    3    3    0    0  0.43380695423E+03 -0.82505106923E+03  0.12555889227E+04  0.15637778881E+04  0.00000000000E+00 0. -1.
        -11    1    3    3    0    0  0.63316118155E+02 -0.63613758987E+02  0.13533618390E+03  0.16239311507E+03  0.00000000000E+00 0.  1.
         22    1    1    2    0    0 -0.49712307238E+03  0.88866482822E+03  0.29949329739E+04  0.31633020792E+04  0.00000000000E+00 0. -1.
<mgrwt>
<rscale>  0 0.21612950E+04</rscale>
<asrwt>0</asrwt>
<pdfrwt beam="1">  1        2 0.71348695E+00 0.21612950E+04</pdfrwt>
<pdfrwt beam="2">  1       -2 0.38739619E-01 0.21612950E+04</pdfrwt>
<totfact> 0.52315476E-01</totfact>
</mgrwt>
</event>
<event>
 6    1  0.3017327E-006  0.2367828E+04  0.7818608E-02  0.8451647E-01
          2   -1    0    0  501    0  0.00000000000E+00  0.00000000000E+00  0.18507857980E+04  0.18507857980E+04  0.00000000000E+00 0. -1.
         -2   -1    0    0    0  501 -0.00000000000E+00 -0.00000000000E+00 -0.75732823368E+03  0.75732823368E+03  0.00000000000E+00 0.  1.
         23    2    1    2    0    0  0.72612698553E+02 -0.84741622263E+03 -0.35669030480E+03  0.92694904850E+03  0.92842375047E+02 0.  0.
         11    1    3    3    0    0  0.89977688570E+02 -0.67038709356E+03 -0.30283402629E+03  0.74109600399E+03  0.00000000000E+00 0.  1.
        -11    1    3    3    0    0 -0.17364990017E+02 -0.17702912907E+03 -0.53856278512E+02  0.18585304451E+03  0.00000000000E+00 0. -1.
         22    1    1    2    0    0 -0.72612698553E+02  0.84741622263E+03  0.14501478691E+04  0.16811649832E+04  0.00000000000E+00 0. -1.
<mgrwt>
<rscale>  0 0.23678280E+04</rscale>
<asrwt>0</asrwt>
<pdfrwt beam="1">  1        2 0.28473628E+00 0.23678280E+04</pdfrwt>
<pdfrwt beam="2">  1       -2 0.11651204E+00 0.23678280E+04</pdfrwt>
<totfact> 0.41639668E+00</totfact>
</mgrwt>
</event>
<event>
 6    1  0.3017327E-006  0.1504128E+04  0.7818608E-02  0.8881712E-01
          2   -1    0    0  501    0  0.00000000000E+00  0.00000000000E+00  0.17164249297E+04  0.17164249297E+04  0.00000000000E+00 0. -1.
         -2   -1    0    0    0  501 -0.00000000000E+00 -0.00000000000E+00 -0.32952240536E+03  0.32952240536E+03  0.00000000000E+00 0.  1.
         23    2    1    2    0    0  0.49823130326E+03  0.18707971302E+03 -0.21589811244E+02  0.54026346719E+03  0.90472335305E+02 0.  0.
         11    1    3    3    0    0  0.25475706096E+03  0.14375842698E+03 -0.13648251824E+02  0.29283770286E+03  0.00000000000E+00 0. -1.
        -11    1    3    3    0    0  0.24347424231E+03  0.43321286039E+02 -0.79415594201E+01  0.24742576434E+03  0.00000000000E+00 0.  1.
         22    1    1    2    0    0 -0.49823130326E+03 -0.18707971302E+03  0.14084923356E+04  0.15056838679E+04  0.00000000000E+00 0. -1.
<mgrwt>
<rscale>  0 0.15041283E+04</rscale>
<asrwt>0</asrwt>
<pdfrwt beam="1">  1        2 0.26406537E+00 0.15041283E+04</pdfrwt>
<pdfrwt beam="2">  1       -2 0.50695756E-01 0.15041283E+04</pdfrwt>
<totfact> 0.34117126E+01</totfact>
</mgrwt>
</event>
<event>
 6    1  0.3017327E-006  0.2638048E+04  0.7818608E-02  0.8355391E-01
          2   -1    0    0  501    0  0.00000000000E+00  0.00000000000E+00  0.34538603949E+04  0.34538603949E+04  0.00000000000E+00 0. -1.
         -2   -1    0    0    0  501 -0.00000000000E+00 -0.00000000000E+00 -0.50373328439E+03  0.50373328439E+03  0.00000000000E+00 0.  1.
         23    2    1    2    0    0  0.11525761846E+04  0.14277822950E+03  0.24100176404E+04  0.26767596839E+04  0.89665457179E+02 0.  0.
         13    1    3    3    0    0  0.79351441531E+03  0.10255810909E+03  0.15626762631E+04  0.17556025736E+04  0.00000000000E+00 0.  1.
        -13    1    3    3    0    0  0.35906176930E+03  0.40220120411E+02  0.84734137724E+03  0.92115711029E+03  0.00000000000E+00 0. -1.
         22    1    1    2    0    0 -0.11525761846E+04 -0.14277822950E+03  0.54010947019E+03  0.12808339955E+04  0.00000000000E+00 0.  1.
<mgrwt>
<rscale>  0 0.26380481E+04</rscale>
<asrwt>0</asrwt>
<pdfrwt beam="1">  1        2 0.53136312E+00 0.26380481E+04</pdfrwt>
<pdfrwt beam="2">  1       -2 0.77497431E-01 0.26380481E+04</pdfrwt>
<totfact> 0.11463778E+00</totfact>
</mgrwt>
</event>
<event>
 6    1  0.3017327E-006  0.2254417E+04  0.7818608E-02  0.8496114E-01
         -2   -1    0    0    0  501 -0.00000000000E+00  0.00000000000E+00  0.53872327796E+03  0.53872327796E+03  0.00000000000E+00 0.  1.
          2   -1    0    0  501    0  0.00000000000E+00 -0.00000000000E+00 -0.23585381940E+04  0.23585381940E+04  0.00000000000E+00 0. -1.
         23    2    1    2    0    0 -0.31207964527E+03 -0.38885312606E+03 -0.22079820608E+04  0.22653800030E+04  0.90340016583E+02 0.  0.
         11    1    3    3    0    0 -0.71097476023E+02 -0.58977538400E+02 -0.55687548059E+03  0.56448516545E+03  0.00000000000E+00 0.  1.
        -11    1    3    3    0    0 -0.24098216925E+03 -0.32987558766E+03 -0.16511065802E+04  0.17008948376E+04  0.00000000000E+00 0. -1.
         22    1    1    2    0    0  0.31207964527E+03  0.38885312606E+03  0.38816714471E+03  0.63188146900E+03  0.00000000000E+00 0.  1.
<mgrwt>
<rscale>  0 0.22544174E+04</rscale>
<asrwt>0</asrwt>
<pdfrwt beam="1">  1        2 0.36285203E+00 0.22544174E+04</pdfrwt>
<pdfrwt beam="2">  1       -2 0.82880505E-01 0.22544174E+04</pdfrwt>
<totfact> 0.48752590E+00</totfact>
</mgrwt>
</event>
<event>
 6    1  0.3017327E-006  0.7544062E+03  0.7818608E-02  0.9628463E-01
          2   -1    0    0  501    0  0.00000000000E+00  0.00000000000E+00  0.61397261787E+03  0.61397261787E+03  0.00000000000E+00 0. -1.
         -2   -1    0    0    0  501 -0.00000000000E+00 -0.00000000000E+00 -0.23174025948E+03  0.23174025948E+03  0.00000000000E+00 0.  1.
         23    2    1    2    0    0 -0.31632155281E+03 -0.13886408026E+03  0.39974314894E+02  0.35941757005E+03  0.90777124038E+02 0.  0.
         11    1    3    3    0    0 -0.21435088534E+03 -0.10229895241E+03 -0.14911402295E+02  0.23797841841E+03  0.00000000000E+00 0.  1.
        -11    1    3    3    0    0 -0.10197066747E+03 -0.36565127845E+02  0.54885717189E+02  0.12143915164E+03  0.00000000000E+00 0. -1.
         22    1    1    2    0    0  0.31632155281E+03  0.13886408026E+03  0.34225804350E+03  0.48629530730E+03  0.00000000000E+00 0. -1.
<mgrwt>
<rscale>  0 0.75440619E+03</rscale>
<asrwt>0</asrwt>
<pdfrwt beam="1">  1        2 0.94457326E-01 0.75440619E+03</pdfrwt>
<pdfrwt beam="2">  1       -2 0.35652348E-01 0.75440619E+03</pdfrwt>
<totfact> 0.35886794E+02</totfact>
</mgrwt>
</event>
<event>
 6    1  0.3017327E-006  0.2938076E+04  0.7818608E-02  0.8261638E-01
         -2   -1    0    0    0  501 -0.00000000000E+00  0.00000000000E+00  0.67297066084E+03  0.67297066084E+03  0.00000000000E+00 0.  1.
          2   -1    0    0  501    0  0.00000000000E+00 -0.00000000000E+00 -0.32067862864E+04  0.32067862864E+04  0.00000000000E+00 0. -1.
         23    2    1    2    0    0 -0.94063419176E+03  0.82180735547E+03 -0.22856566752E+04  0.26062802584E+04  0.91161047777E+02 0.  0.
         13    1    3    3    0    0 -0.34393016758E+03  0.26408114601E+03 -0.86374677743E+03  0.96648088825E+03  0.00000000000E+00 0. -1.
        -13    1    3    3    0    0 -0.59670402419E+03  0.55772620946E+03 -0.14219098977E+04  0.16397993702E+04  0.00000000000E+00 0.  1.
         22    1    1    2    0    0  0.94063419176E+03 -0.82180735547E+03 -0.24815895039E+03  0.12734766888E+04  0.00000000000E+00 0.  1.
<mgrwt>
<rscale>  0 0.29380763E+04</rscale>
<asrwt>0</asrwt>
<pdfrwt beam="1">  1        2 0.49335174E+00 0.29380763E+04</pdfrwt>
<pdfrwt beam="2">  1       -2 0.10353395E+00 0.29380763E+04</pdfrwt>
<totfact> 0.83912831E-01</totfact>
</mgrwt>
</event>
<event>
 6    1  0.3017327E-006  0.1530732E+04  0.7818608E-02  0.8864270E-01
          2   -1    0    0  501    0  0.00000000000E+00  0.00000000000E+00  0.17389110177E+04  0.17389110177E+04  0.00000000000E+00 0.  1.
         -2   -1    0    0    0  501 -0.00000000000E+00 -0.00000000000E+00 -0.33686905759E+03  0.33686905759E+03  0.00000000000E+00 0. -1.
         23    2    1    2    0    0 -0.60900786108E+03 -0.52530798942E+02  0.13220197667E+04  0.14592951922E+04  0.90311320096E+02 0.  0.
         11    1    3    3    0    0 -0.21583589004E+03 -0.56499063380E+02  0.53005093813E+03  0.57509240353E+03  0.00000000000E+00 0.  1.
        -11    1    3    3    0    0 -0.39317197104E+03  0.39682644381E+01  0.79196882862E+03  0.88420278864E+03  0.00000000000E+00 0. -1.
         22    1    1    2    0    0  0.60900786108E+03  0.52530798942E+02  0.80022193361E+02  0.61648488312E+03  0.00000000000E+00 0. -1.
<mgrwt>
<rscale>  0 0.15307323E+04</rscale>
<asrwt>0</asrwt>
<pdfrwt beam="1">  1        2 0.26752477E+00 0.15307323E+04</pdfrwt>
<pdfrwt beam="2">  1       -2 0.51826010E-01 0.15307323E+04</pdfrwt>
<totfact> 0.31618763E+01</totfact>
</mgrwt>
</event>
<event>
 6    1  0.3017327E-006  0.2508297E+04  0.7818608E-02  0.8400036E-01
         -2   -1    0    0    0  501 -0.00000000000E+00  0.00000000000E+00  0.61503264633E+03  0.61503264633E+03  0.00000000000E+00 0.  1.
          2   -1    0    0  501    0  0.00000000000E+00 -0.00000000000E+00 -0.25574061397E+04  0.25574061397E+04  0.00000000000E+00 0. -1.
         23    2    1    2    0    0 -0.64278339179E+03  0.35728180369E+03 -0.22547890155E+04  0.23734242464E+04  0.90820554505E+02 0.  0.
         13    1    3    3    0    0 -0.33086381017E+03  0.20016867652E+03 -0.13219280715E+04  0.13773279153E+04  0.00000000000E+00 0.  1.
        -13    1    3    3    0    0 -0.31191958162E+03  0.15711312718E+03 -0.93286094396E+03  0.99609633114E+03  0.00000000000E+00 0. -1.
         22    1    1    2    0    0  0.64278339179E+03 -0.35728180369E+03  0.31241552214E+03  0.79901453959E+03  0.00000000000E+00 0.  1.
<mgrwt>
<rscale>  0 0.25082968E+04</rscale>
<asrwt>0</asrwt>
<pdfrwt beam="1">  1        2 0.39344710E+00 0.25082968E+04</pdfrwt>
<pdfrwt beam="2">  1       -2 0.94620406E-01 0.25082968E+04</pdfrwt>
<totfact> 0.27021902E+00</totfact>
</mgrwt>
</event>
<event>
 6    1  0.3017327E-006  0.3805952E+04  0.7818608E-02  0.8044879E-01
          2   -1    0    0  501    0  0.00000000000E+00  0.00000000000E+00  0.24073768190E+04  0.24073768190E+04  0.00000000000E+00 0. -1.
         -2   -1    0    0    0  501 -0.00000000000E+00 -0.00000000000E+00 -0.15042585957E+04  0.15042585957E+04  0.00000000000E+00 0.  1.
         23    2    1    2    0    0  0.12190735264E+04 -0.82196882132E+03 -0.78802097032E+03  0.16707148944E+04  0.92402396024E+02 0.  0.
         13    1    3    3    0    0  0.50564466732E+03 -0.29235011471E+03 -0.33587019696E+03  0.67376101725E+03  0.00000000000E+00 0. -1.
        -13    1    3    3    0    0  0.71342885905E+03 -0.52961870660E+03 -0.45215077336E+03  0.99695387715E+03  0.00000000000E+00 0.  1.
         22    1    1    2    0    0 -0.12190735264E+04  0.82196882132E+03  0.16911391937E+04  0.22409205203E+04  0.00000000000E+00 0. -1.
<mgrwt>
<rscale>  0 0.38059518E+04</rscale>
<asrwt>0</asrwt>
<pdfrwt beam="1">  1        2 0.37036566E+00 0.38059518E+04</pdfrwt>
<pdfrwt beam="2">  1       -2 0.23142440E+00 0.38059518E+04</pdfrwt>
<totfact> 0.26428557E-01</totfact>
</mgrwt>
</event>
<event>
 6    1  0.3017327E-006  0.1890326E+04  0.7818608E-02  0.8659687E-01
          2   -1    0    0  501    0  0.00000000000E+00  0.00000000000E+00  0.12952915675E+04  0.12952915675E+04  0.00000000000E+00 0. -1.
         -2   -1    0    0    0  501 -0.00000000000E+00 -0.00000000000E+00 -0.68967726952E+03  0.68967726952E+03  0.00000000000E+00 0.  1.
         23    2    1    2    0    0  0.52964192429E+03  0.48174807740E+03 -0.33970321562E+03  0.79912442077E+03  0.10295526762E+03 0.  0.
         11    1    3    3    0    0  0.42452558408E+03  0.34166170318E+03 -0.22376904193E+03  0.58909020963E+03  0.00000000000E+00 0.  1.
        -11    1    3    3    0    0  0.10511634021E+03  0.14008637422E+03 -0.11593417369E+03  0.21003421114E+03  0.00000000000E+00 0. -1.
         22    1    1    2    0    0 -0.52964192429E+03 -0.48174807740E+03  0.94531751363E+03  0.11858444163E+04  0.00000000000E+00 0. -1.
<mgrwt>
<rscale>  0 0.18903261E+04</rscale>
<asrwt>0</asrwt>
<pdfrwt beam="1">  1        2 0.19927563E+00 0.18903261E+04</pdfrwt>
<pdfrwt beam="2">  1       -2 0.10610420E+00 0.18903261E+04</pdfrwt>
<totfact> 0.11179401E+01</totfact>
</mgrwt>
</event>
<event>
 6    1  0.3017327E-006  0.3309549E+04  0.7818608E-02  0.8160470E-01
          2   -1    0    0  501    0  0.00000000000E+00  0.00000000000E+00  0.14666532901E+04  0.14666532901E+04  0.00000000000E+00 0. -1.
         -2   -1    0    0    0  501 -0.00000000000E+00 -0.00000000000E+00 -0.18670256052E+04  0.18670256052E+04  0.00000000000E+00 0.  1.
         23    2    1    2    0    0  0.69902241791E+03 -0.21284430819E+03 -0.16943126024E+04  0.18476719951E+04  0.96237033624E+02 0.  0.
         11    1    3    3    0    0  0.56371838201E+03 -0.19777161096E+03 -0.13049800876E+04  0.14352229978E+04  0.00000000000E+00 0. -1.
        -11    1    3    3    0    0  0.13530403591E+03 -0.15072697228E+02 -0.38933251473E+03  0.41244899728E+03  0.00000000000E+00 0.  1.
         22    1    1    2    0    0 -0.69902241791E+03  0.21284430819E+03  0.12939402872E+04  0.14860069001E+04  0.00000000000E+00 0. -1.
<mgrwt>
<rscale>  0 0.33095494E+04</rscale>
<asrwt>0</asrwt>
<pdfrwt beam="1">  1        2 0.22563897E+00 0.33095494E+04</pdfrwt>
<pdfrwt beam="2">  1       -2 0.28723471E+00 0.33095494E+04</pdfrwt>
<totfact> 0.42088471E-01</totfact>
</mgrwt>
</event>
<event>
 6    1  0.3017327E-006  0.3138311E+04  0.7818608E-02  0.8205302E-01
          2   -1    0    0  501    0  0.00000000000E+00  0.00000000000E+00  0.18030865880E+04  0.18030865880E+04  0.00000000000E+00 0. -1.
         -2   -1    0    0    0  501 -0.00000000000E+00 -0.00000000000E+00 -0.13655741260E+04  0.13655741260E+04  0.00000000000E+00 0.  1.
         23    2    1    2    0    0 -0.91516948581E+03 -0.36550768027E+03  0.14502083687E+04  0.17556200028E+04  0.89253735618E+02 0.  0.
         13    1    3    3    0    0 -0.65570423155E+03 -0.21962564544E+03  0.99309587208E+03  0.12101334119E+04  0.00000000000E+00 0. -1.
        -13    1    3    3    0    0 -0.25946525426E+03 -0.14588203482E+03  0.45711249664E+03  0.54548659088E+03  0.00000000000E+00 0.  1.
         22    1    1    2    0    0  0.91516948581E+03  0.36550768027E+03 -0.10126959067E+04  0.14130407112E+04  0.00000000000E+00 0.  1.
<mgrwt>
<rscale>  0 0.31383106E+04</rscale>
<asrwt>0</asrwt>
<pdfrwt beam="1">  1        2 0.27739794E+00 0.31383106E+04</pdfrwt>
<pdfrwt beam="2">  1       -2 0.21008833E+00 0.31383106E+04</pdfrwt>
<totfact> 0.83195588E-01</totfact>
</mgrwt>
</event>
<event>
 6    1  0.3017327E-006  0.2614088E+04  0.7818608E-02  0.8363432E-01
         -1   -1    0    0    0  501 -0.00000000000E+00  0.00000000000E+00  0.59156949914E+03  0.59156949914E+03  0.00000000000E+00 0.  1.
          1   -1    0    0  501    0  0.00000000000E+00 -0.00000000000E+00 -0.28878498393E+04  0.28878498393E+04  0.00000000000E+00 0. -1.
         23    2    1    2    0    0  0.12679414083E+04  0.25540142737E+03 -0.91388857159E+03  0.15862969690E+04  0.90776916553E+02 0.  0.
         11    1    3    3    0    0  0.26432206470E+03  0.91035297437E+02 -0.20223950672E+03  0.34504260222E+03  0.00000000000E+00 0. -1.
        -11    1    3    3    0    0  0.10036193436E+04  0.16436612993E+03 -0.71164906487E+03  0.12412543668E+04  0.00000000000E+00 0.  1.
         22    1    1    2    0    0 -0.12679414083E+04 -0.25540142737E+03 -0.13823917685E+04  0.18931223694E+04  0.00000000000E+00 0. -1.
<mgrwt>
<rscale>  0 0.26140879E+04</rscale>
<asrwt>0</asrwt>
<pdfrwt beam="1">  1        1 0.44428461E+00 0.26140879E+04</pdfrwt>
<pdfrwt beam="2">  1       -1 0.91010688E-01 0.26140879E+04</pdfrwt>
<totfact> 0.74702037E-01</totfact>
</mgrwt>
</event>
<event>
 6    1  0.3017327E-006  0.2579048E+04  0.7818608E-02  0.8375353E-01
         -2   -1    0    0    0  501 -0.00000000000E+00  0.00000000000E+00  0.20182210202E+04  0.20182210202E+04  0.00000000000E+00 0.  1.
          2   -1    0    0  501    0  0.00000000000E+00 -0.00000000000E+00 -0.82392962436E+03  0.82392962436E+03  0.00000000000E+00 0. -1.
         23    2    1    2    0    0  0.42764750163E+03 -0.25387525216E+03  0.19070609201E+04  0.19730272793E+04  0.92845368645E+02 0.  0.
         11    1    3    3    0    0  0.22500496323E+02 -0.26485975600E+02  0.70329250182E+02  0.78447324170E+02  0.00000000000E+00 0. -1.
        -11    1    3    3    0    0  0.40514700531E+03 -0.22738927656E+03  0.18367316699E+04  0.18945799551E+04  0.00000000000E+00 0.  1.
         22    1    1    2    0    0 -0.42764750163E+03  0.25387525216E+03 -0.71276952428E+03  0.86912336527E+03  0.00000000000E+00 0. -1.
<mgrwt>
<rscale>  0 0.25790480E+04</rscale>
<asrwt>0</asrwt>
<pdfrwt beam="1">  1        2 0.12675840E+00 0.25790480E+04</pdfrwt>
<pdfrwt beam="2">  1       -2 0.31049554E+00 0.25790480E+04</pdfrwt>
<totfact> 0.80409795E-01</totfact>
</mgrwt>
</event>
<event>
 6    1  0.3017327E-006  0.1371678E+04  0.7818608E-02  0.8974579E-01
         -2   -1    0    0    0  501 -0.00000000000E+00  0.00000000000E+00  0.17638580405E+03  0.17638580405E+03  0.00000000000E+00 0. -1.
          2   -1    0    0  501    0  0.00000000000E+00 -0.00000000000E+00 -0.26667386617E+04  0.26667386617E+04  0.00000000000E+00 0.  1.
         23    2    1    2    0    0 -0.35015849667E+03  0.58434609616E+03 -0.13503855431E+04  0.15151196423E+04  0.89303317790E+02 0.  0.
         13    1    3    3    0    0 -0.29229413596E+03  0.48931693441E+03 -0.11954467597E+04  0.13243715036E+04  0.00000000000E+00 0. -1.
        -13    1    3    3    0    0 -0.57864360710E+02  0.95029161750E+02 -0.15493878344E+03  0.19074813875E+03  0.00000000000E+00 0.  1.
         22    1    1    2    0    0  0.35015849667E+03 -0.58434609616E+03 -0.11399673145E+04  0.13280048234E+04  0.00000000000E+00 0. -1.
<mgrwt>
<rscale>  0 0.13716776E+04</rscale>
<asrwt>0</asrwt>
<pdfrwt beam="1">  1        2 0.41026743E+00 0.13716776E+04</pdfrwt>
<pdfrwt beam="2">  1       -2 0.27136281E-01 0.13716776E+04</pdfrwt>
<totfact> 0.33664343E+01</totfact>
</mgrwt>
</event>
<event>
 6    1  0.4693272E-006  0.3848672E+04  0.7818608E-02  0.8035790E-01
         -2   -1    0    0    0  501 -0.00000000000E+00  0.00000000000E+00  0.20379043368E+04  0.20379043368E+04  0.00000000000E+00 0.  1.
          2   -1    0    0  501    0  0.00000000000E+00 -0.00000000000E+00 -0.18170969240E+04  0.18170969240E+04  0.00000000000E+00 0. -1.
         23    2    1    2    0    0  0.56871199134E+02  0.52813978677E+03 -0.17409249198E+04  0.18226234140E+04  0.94713067125E+02 0.  0.
         13    1    3    3    0    0  0.20748514785E+02  0.34702628101E+03 -0.98795891013E+03  0.10473397484E+04  0.00000000000E+00 0. -1.
        -13    1    3    3    0    0  0.36122684350E+02  0.18111350576E+03 -0.75296600968E+03  0.77528366553E+03  0.00000000000E+00 0.  1.
         22    1    1    2    0    0 -0.56871199134E+02 -0.52813978677E+03  0.19617323326E+04  0.20323778468E+04  0.00000000000E+00 0.  1.
<mgrwt>
<rscale>  0 0.38486723E+04</rscale>
<asrwt>0</asrwt>
<pdfrwt beam="1">  1        2 0.27955337E+00 0.38486723E+04</pdfrwt>
<pdfrwt beam="2">  1       -2 0.31352374E+00 0.38486723E+04</pdfrwt>
<totfact> 0.17697686E-01</totfact>
</mgrwt>
</event>
<event>
 6    1  0.3017327E-006  0.2285812E+04  0.7818608E-02  0.8483536E-01
          2   -1    0    0  501    0  0.00000000000E+00  0.00000000000E+00  0.22735478869E+04  0.22735478869E+04  0.00000000000E+00 0. -1.
         -2   -1    0    0    0  501 -0.00000000000E+00 -0.00000000000E+00 -0.57453545564E+03  0.57453545564E+03  0.00000000000E+00 0.  1.
         23    2    1    2    0    0  0.40003259484E+02 -0.96026887183E+03  0.16172629666E+04  0.18835111358E+04  0.91422802588E+02 0.  0.
         13    1    3    3    0    0 -0.98659983128E+01 -0.27911467549E+03  0.54093278426E+03  0.60877797027E+03  0.00000000000E+00 0. -1.
        -13    1    3    3    0    0  0.49869257797E+02 -0.68115419635E+03  0.10763301823E+04  0.12747331656E+04  0.00000000000E+00 0.  1.
         22    1    1    2    0    0 -0.40003259484E+02  0.96026887183E+03  0.81749464702E+02  0.96457220671E+03  0.00000000000E+00 0.  1.
<mgrwt>
<rscale>  0 0.22858118E+04</rscale>
<asrwt>0</asrwt>
<pdfrwt beam="1">  1        2 0.34977659E+00 0.22858118E+04</pdfrwt>
<pdfrwt beam="2">  1       -2 0.88390071E-01 0.22858118E+04</pdfrwt>
<totfact> 0.46922085E+00</totfact>
</mgrwt>
</event>
<event>
 6    1  0.3017327E-006  0.2374027E+04  0.7818608E-02  0.8449292E-01
          2   -1    0    0  501    0  0.00000000000E+00  0.00000000000E+00  0.34590237820E+04  0.34590237820E+04  0.00000000000E+00 0. -1.
         -2   -1    0    0    0  501 -0.00000000000E+00 -0.00000000000E+00 -0.40734051659E+03  0.40734051659E+03  0.00000000000E+00 0.  1.
         23    2    1    2    0    0 -0.75605832978E+03  0.74015986867E+03  0.23980705524E+04  0.26227122541E+04  0.91740744422E+02 0.  0.
         11    1    3    3    0    0 -0.51064585809E+03  0.55761230181E+03  0.16955396593E+04  0.18564873842E+04  0.00000000000E+00 0.  1.
        -11    1    3    3    0    0 -0.24541247169E+03  0.18254756686E+03  0.70253089312E+03  0.76622486988E+03  0.00000000000E+00 0. -1.
         22    1    1    2    0    0  0.75605832978E+03 -0.74015986867E+03  0.65361271301E+03  0.12436520445E+04  0.00000000000E+00 0.  1.
<mgrwt>
<rscale>  0 0.23740266E+04</rscale>
<asrwt>0</asrwt>
<pdfrwt beam="1">  1        2 0.53215749E+00 0.23740266E+04</pdfrwt>
<pdfrwt beam="2">  1       -2 0.62667774E-01 0.23740266E+04</pdfrwt>
<totfact> 0.18509912E+00</totfact>
</mgrwt>
</event>
<event>
 6    1  0.3017327E-006  0.3405567E+04  0.7818608E-02  0.8136541E-01
         -1   -1    0    0    0  501 -0.00000000000E+00  0.00000000000E+00  0.16991248975E+04  0.16991248975E+04  0.00000000000E+00 0.  1.
          1   -1    0    0  501    0  0.00000000000E+00 -0.00000000000E+00 -0.17064502723E+04  0.17064502723E+04  0.00000000000E+00 0. -1.
         23    2    1    2    0    0 -0.12707146879E+04 -0.83321547220E+02  0.11249080438E+04  0.17015766921E+04  0.91032048961E+02 0.  0.
         13    1    3    3    0    0 -0.67787921876E+03 -0.74704606319E+01  0.56246756953E+03  0.88087786314E+03  0.00000000000E+00 0. -1.
        -13    1    3    3    0    0 -0.59283546910E+03 -0.75851086588E+02  0.56244047425E+03  0.82069882895E+03  0.00000000000E+00 0.  1.
         22    1    1    2    0    0  0.12707146879E+04  0.83321547220E+02 -0.11322334186E+04  0.17039984778E+04  0.00000000000E+00 0. -1.
<mgrwt>
<rscale>  0 0.34055673E+04</rscale>
<asrwt>0</asrwt>
<pdfrwt beam="1">  1        1 0.26253081E+00 0.34055673E+04</pdfrwt>
<pdfrwt beam="2">  1       -1 0.26140383E+00 0.34055673E+04</pdfrwt>
<totfact> 0.22794481E-01</totfact>
</mgrwt>
</event>
<event>
 6    1  0.3017327E-006  0.3716148E+04  0.7818608E-02  0.8064393E-01
         -1   -1    0    0    0  501 -0.00000000000E+00  0.00000000000E+00  0.11008729764E+04  0.11008729764E+04  0.00000000000E+00 0.  1.
          1   -1    0    0  501    0  0.00000000000E+00 -0.00000000000E+00 -0.31360914473E+04  0.31360914473E+04  0.00000000000E+00 0. -1.
         23    2    1    2    0    0  0.94803983730E+03  0.12810045179E+03  0.79630543999E+03  0.12481993080E+04  0.93326844821E+02 0.  0.
         13    1    3    3    0    0  0.11616965915E+03  0.46028729728E+02  0.92726491713E+02  0.15560281467E+03  0.00000000000E+00 0. -1.
        -13    1    3    3    0    0  0.83187017815E+03  0.82071722064E+02  0.70357894827E+03  0.10925964934E+04  0.00000000000E+00 0.  1.
         22    1    1    2    0    0 -0.94803983730E+03 -0.12810045179E+03 -0.28315239108E+04  0.29887651157E+04  0.00000000000E+00 0. -1.
<mgrwt>
<rscale>  0 0.37161476E+04</rscale>
<asrwt>0</asrwt>
<pdfrwt beam="1">  1        1 0.48247560E+00 0.37161476E+04</pdfrwt>
<pdfrwt beam="2">  1       -1 0.16936508E+00 0.37161476E+04</pdfrwt>
<totfact> 0.94477683E-02</totfact>
</mgrwt>
</event>
<event>
 6    1  0.3017327E-006  0.1794968E+04  0.7818608E-02  0.8708980E-01
         -3   -1    0    0    0  501 -0.00000000000E+00  0.00000000000E+00  0.95081686313E+03  0.95081686313E+03  0.00000000000E+00 0.  1.
          3   -1    0    0  501    0  0.00000000000E+00 -0.00000000000E+00 -0.84714245333E+03  0.84714245333E+03  0.00000000000E+00 0. -1.
         23    2    1    2    0    0  0.36533012258E+03  0.16353522864E+03 -0.74994176032E+03  0.85516006140E+03  0.93146214501E+02 0.  0.
         11    1    3    3    0    0  0.32372981703E+03  0.10978984031E+03 -0.60030134465E+03  0.69080858989E+03  0.00000000000E+00 0.  1.
        -11    1    3    3    0    0  0.41600305551E+02  0.53745388327E+02 -0.14964041567E+03  0.16435147151E+03  0.00000000000E+00 0. -1.
         22    1    1    2    0    0 -0.36533012258E+03 -0.16353522864E+03  0.85361617011E+03  0.94279925507E+03  0.00000000000E+00 0.  1.
<mgrwt>
<rscale>  0 0.17949678E+04</rscale>
<asrwt>0</asrwt>
<pdfrwt beam="1">  1        3 0.13032961E+00 0.17949678E+04</pdfrwt>
<pdfrwt beam="2">  1       -3 0.14627952E+00 0.17949678E+04</pdfrwt>
<totfact> 0.39301645E-01</totfact>
</mgrwt>
</event>
<event>
 6    1  0.3017327E-006  0.1565215E+04  0.7818608E-02  0.8842208E-01
          2   -1    0    0  501    0  0.00000000000E+00  0.00000000000E+00  0.10531252730E+04  0.10531252730E+04  0.00000000000E+00 0.  1.
         -2   -1    0    0    0  501 -0.00000000000E+00 -0.00000000000E+00 -0.58157774353E+03  0.58157774353E+03  0.00000000000E+00 0. -1.
         23    2    1    2    0    0 -0.28718859121E+02 -0.77314136567E+03  0.13481364912E+03  0.79092457980E+03  0.93886243742E+02 0.  0.
         11    1    3    3    0    0  0.18510147277E+02 -0.50722915469E+03  0.11283807742E+03  0.51995814508E+03  0.00000000000E+00 0.  1.
        -11    1    3    3    0    0 -0.47229006398E+02 -0.26591221097E+03  0.21975571707E+02  0.27096643471E+03  0.00000000000E+00 0. -1.
         22    1    1    2    0    0  0.28718859121E+02  0.77314136567E+03  0.33673388039E+03  0.84377843678E+03  0.00000000000E+00 0. -1.
<mgrwt>
<rscale>  0 0.15652146E+04</rscale>
<asrwt>0</asrwt>
<pdfrwt beam="1">  1        2 0.16201927E+00 0.15652146E+04</pdfrwt>
<pdfrwt beam="2">  1       -2 0.89473499E-01 0.15652146E+04</pdfrwt>
<totfact> 0.24005503E+01</totfact>
</mgrwt>
</event>
<event>
 6    1  0.3017327E-006  0.3881671E+04  0.7818608E-02  0.8028852E-01
         -2   -1    0    0    0  501 -0.00000000000E+00  0.00000000000E+00  0.16022461528E+04  0.16022461528E+04  0.00000000000E+00 0.  1.
          2   -1    0    0  501    0  0.00000000000E+00 -0.00000000000E+00 -0.23509766639E+04  0.23509766639E+04  0.00000000000E+00 0. -1.
         23    2    1    2    0    0 -0.25716329932E+03  0.10611534964E+04 -0.20072089564E+04  0.22871052630E+04  0.98908968261E+02 0.  0.
         13    1    3    3    0    0 -0.22535290299E+03  0.85771850892E+03 -0.16975010051E+04  0.19151957168E+04  0.00000000000E+00 0.  1.
        -13    1    3    3    0    0 -0.31810396337E+02  0.20343498750E+03 -0.30970795131E+03  0.37190954620E+03  0.00000000000E+00 0. -1.
         22    1    1    2    0    0  0.25716329932E+03 -0.10611534964E+04  0.12584784453E+04  0.16661175537E+04  0.00000000000E+00 0.  1.
<mgrwt>
<rscale>  0 0.38816715E+04</rscale>
<asrwt>0</asrwt>
<pdfrwt beam="1">  1        2 0.36168872E+00 0.38816715E+04</pdfrwt>
<pdfrwt beam="2">  1       -2 0.24649941E+00 0.38816715E+04</pdfrwt>
<totfact> 0.22811087E-01</totfact>
</mgrwt>
</event>
<event>
 6    1  0.3017327E-006  0.5389708E+03  0.7818608E-02  0.1004079E+00
         -4   -1    0    0    0  501 -0.00000000000E+00  0.00000000000E+00  0.17475554474E+03  0.17475554474E+03  0.00000000000E+00 0.  1.
          4   -1    0    0  501    0  0.00000000000E+00 -0.00000000000E+00 -0.41556560107E+03  0.41556560107E+03  0.00000000000E+00 0. -1.
         23    2    1    2    0    0 -0.13579400716E+03  0.13177139516E+03  0.74096888483E+02  0.22293837967E+03  0.91692198605E+02 0.  0.
         11    1    3    3    0    0 -0.13406321620E+03  0.10907063645E+03  0.90298554064E+02  0.19499532954E+03  0.00000000000E+00 0. -1.
        -11    1    3    3    0    0 -0.17307909552E+01  0.22700758706E+02 -0.16201665581E+02  0.27943050134E+02  0.00000000000E+00 0.  1.
         22    1    1    2    0    0  0.13579400716E+03 -0.13177139516E+03 -0.31490694481E+03  0.36738276614E+03  0.00000000000E+00 0. -1.
<mgrwt>
<rscale>  0 0.53897085E+03</rscale>
<asrwt>0</asrwt>
<pdfrwt beam="1">  1        4 0.63933169E-01 0.53897085E+03</pdfrwt>
<pdfrwt beam="2">  1       -4 0.26885469E-01 0.53897085E+03</pdfrwt>
<totfact> 0.59403369E+01</totfact>
</mgrwt>
</event>
<event>
 6    1  0.3017327E-006  0.1649585E+04  0.7818608E-02  0.8790652E-01
         -2   -1    0    0    0  501 -0.00000000000E+00  0.00000000000E+00  0.45876948079E+03  0.45876948079E+03  0.00000000000E+00 0.  1.
          2   -1    0    0  501    0  0.00000000000E+00 -0.00000000000E+00 -0.14828411635E+04  0.14828411635E+04  0.00000000000E+00 0. -1.
         23    2    1    2    0    0  0.35287298722E+03  0.44086708611E+03 -0.12171207089E+04  0.13448267141E+04  0.91065571036E+02 0.  0.
         13    1    3    3    0    0  0.28211872924E+03  0.30438291639E+03 -0.94856115572E+03  0.10353782900E+04  0.00000000000E+00 0.  1.
        -13    1    3    3    0    0  0.70754257978E+02  0.13648416972E+03 -0.26855955320E+03  0.30944842417E+03  0.00000000000E+00 0. -1.
         22    1    1    2    0    0 -0.35287298722E+03 -0.44086708611E+03  0.19304902625E+03  0.59678393013E+03  0.00000000000E+00 0.  1.
<mgrwt>
<rscale>  0 0.16495845E+04</rscale>
<asrwt>0</asrwt>
<pdfrwt beam="1">  1        2 0.22812941E+00 0.16495845E+04</pdfrwt>
<pdfrwt beam="2">  1       -2 0.70579919E-01 0.16495845E+04</pdfrwt>
<totfact> 0.22637514E+01</totfact>
</mgrwt>
</event>
<event>
 6    1  0.3017327E-006  0.4699570E+04  0.7818608E-02  0.7876600E-01
         -2   -1    0    0    0  501 -0.00000000000E+00  0.00000000000E+00  0.46772348562E+04  0.46772348562E+04  0.00000000000E+00 0.  1.
          2   -1    0    0  501    0  0.00000000000E+00 -0.00000000000E+00 -0.11805030596E+04  0.11805030596E+04  0.00000000000E+00 0. -1.
         23    2    1    2    0    0 -0.21794118594E+04  0.46792399553E+03  0.26721067586E+04  0.34810184600E+04  0.92444961275E+02 0.  0.
         13    1    3    3    0    0 -0.10918477901E+04  0.18722584104E+03  0.13226596612E+04  0.17252865535E+04  0.00000000000E+00 0.  1.
        -13    1    3    3    0    0 -0.10875640693E+04  0.28069815449E+03  0.13494470974E+04  0.17557319065E+04  0.00000000000E+00 0. -1.
         22    1    1    2    0    0  0.21794118594E+04 -0.46792399553E+03  0.82462503790E+03  0.23767194558E+04  0.00000000000E+00 0. -1.
<mgrwt>
<rscale>  0 0.46995702E+04</rscale>
<asrwt>0</asrwt>
<pdfrwt beam="1">  1        2 0.18161586E+00 0.46995702E+04</pdfrwt>
<pdfrwt beam="2">  1       -2 0.71957458E+00 0.46995702E+04</pdfrwt>
<totfact> 0.28059369E-03</totfact>
</mgrwt>
</event>
<event>
 6    1  0.3017327E-006  0.3293424E+04  0.7818608E-02  0.8164571E-01
         -2   -1    0    0    0  501 -0.00000000000E+00  0.00000000000E+00  0.82598745773E+03  0.82598745773E+03  0.00000000000E+00 0.  1.
          2   -1    0    0  501    0  0.00000000000E+00 -0.00000000000E+00 -0.32829321352E+04  0.32829321352E+04  0.00000000000E+00 0. -1.
         23    2    1    2    0    0 -0.61609764721E+03  0.13403386104E+04 -0.21394781454E+04  0.25999898727E+04  0.80602123446E+02 0.  0.
         13    1    3    3    0    0 -0.44466772010E+03  0.10066246552E+04 -0.15396662958E+04  0.18925102061E+04  0.00000000000E+00 0.  1.
        -13    1    3    3    0    0 -0.17142992711E+03  0.33371395524E+03 -0.59981184959E+03  0.70747966666E+03  0.00000000000E+00 0. -1.
         22    1    1    2    0    0  0.61609764721E+03 -0.13403386104E+04 -0.31746653207E+03  0.15089297202E+04  0.00000000000E+00 0.  1.
<mgrwt>
<rscale>  0 0.32934242E+04</rscale>
<asrwt>0</asrwt>
<pdfrwt beam="1">  1        2 0.50506649E+00 0.32934242E+04</pdfrwt>
<pdfrwt beam="2">  1       -2 0.12707499E+00 0.32934242E+04</pdfrwt>
<totfact> 0.43905744E-01</totfact>
</mgrwt>
</event>
<event>
 6    1  0.3017327E-006  0.2757594E+04  0.7818608E-02  0.8316556E-01
         -2   -1    0    0    0  501 -0.00000000000E+00  0.00000000000E+00  0.96154346251E+03  0.96154346251E+03  0.00000000000E+00 0.  1.
          2   -1    0    0  501    0  0.00000000000E+00 -0.00000000000E+00 -0.19771138957E+04  0.19771138957E+04  0.00000000000E+00 0. -1.
         23    2    1    2    0    0 -0.52666360886E+03 -0.10081749458E+04  0.31971529261E+03  0.11845823177E+04  0.85006593504E+02 0.  0.
         11    1    3    3    0    0 -0.16327004076E+03 -0.36555951155E+03  0.14616036696E+03  0.42620853530E+03  0.00000000000E+00 0.  1.
        -11    1    3    3    0    0 -0.36339356810E+03 -0.64261543422E+03  0.17355492565E+03  0.75837378241E+03  0.00000000000E+00 0. -1.
         22    1    1    2    0    0  0.52666360886E+03  0.10081749458E+04 -0.13352857258E+04  0.17540750405E+04  0.00000000000E+00 0. -1.
<mgrwt>
<rscale>  0 0.27575938E+04</rscale>
<asrwt>0</asrwt>
<pdfrwt beam="1">  1        2 0.30417137E+00 0.27575938E+04</pdfrwt>
<pdfrwt beam="2">  1       -2 0.14792976E+00 0.27575938E+04</pdfrwt>
<totfact> 0.18675777E+00</totfact>
</mgrwt>
</event>
<event>
 6    1  0.3017327E-006  0.2735077E+04  0.7818608E-02  0.8323713E-01
          2   -1    0    0  501    0  0.00000000000E+00  0.00000000000E+00  0.24292637798E+04  0.24292637798E+04  0.00000000000E+00 0. -1.
         -2   -1    0    0    0  501 -0.00000000000E+00 -0.00000000000E+00 -0.76984720866E+03  0.76984720866E+03  0.00000000000E+00 0.  1.
         23    2    1    2    0    0 -0.90066439041E+03  0.10628411265E+03  0.20254804528E+04  0.22211051488E+04  0.90798461996E+02 0.  0.
         13    1    3    3    0    0 -0.26759321574E+03 -0.39833825781E+01  0.54424141879E+03  0.60648224901E+03  0.00000000000E+00 0. -1.
        -13    1    3    3    0    0 -0.63307117467E+03  0.11026749523E+03  0.14812390340E+04  0.16146228998E+04  0.00000000000E+00 0.  1.
         22    1    1    2    0    0  0.90066439041E+03 -0.10628411265E+03 -0.36606388171E+03  0.97800583958E+03  0.00000000000E+00 0.  1.
<mgrwt>
<rscale>  0 0.27350773E+04</rscale>
<asrwt>0</asrwt>
<pdfrwt beam="1">  1        2 0.37373289E+00 0.27350773E+04</pdfrwt>
<pdfrwt beam="2">  1       -2 0.11843803E+00 0.27350773E+04</pdfrwt>
<totfact> 0.18349734E+00</totfact>
</mgrwt>
</event>
<event>
 6    1  0.3017327E-006  0.1267499E+04  0.7818608E-02  0.9055743E-01
         -4   -1    0    0    0  501 -0.00000000000E+00  0.00000000000E+00  0.24339186808E+03  0.24339186808E+03  0.00000000000E+00 0.  1.
          4   -1    0    0  501    0  0.00000000000E+00 -0.00000000000E+00 -0.16501722889E+04  0.16501722889E+04  0.00000000000E+00 0. -1.
         23    2    1    2    0    0  0.36130077392E+03  0.40003298238E+03 -0.11957470704E+04  0.13146861809E+04  0.89577127182E+02 0.  0.
         13    1    3    3    0    0  0.17255710166E+03  0.24486096197E+03 -0.72095334099E+03  0.78070901360E+03  0.00000000000E+00 0. -1.
        -13    1    3    3    0    0  0.18874367226E+03  0.15517202041E+03 -0.47479372938E+03  0.53397716730E+03  0.00000000000E+00 0.  1.
         22    1    1    2    0    0 -0.36130077392E+03 -0.40003298238E+03 -0.21103335050E+03  0.57887797613E+03  0.00000000000E+00 0.  1.
<mgrwt>
<rscale>  0 0.12674991E+04</rscale>
<asrwt>0</asrwt>
<pdfrwt beam="1">  1        4 0.25387266E+00 0.12674991E+04</pdfrwt>
<pdfrwt beam="2">  1       -4 0.37444903E-01 0.12674991E+04</pdfrwt>
<totfact> 0.82037155E-01</totfact>
</mgrwt>
</event>
<event>
 6    1  0.3017327E-006  0.1452697E+04  0.7818608E-02  0.8916533E-01
          2   -1    0    0  501    0  0.00000000000E+00  0.00000000000E+00  0.63383306839E+03  0.63383306839E+03  0.00000000000E+00 0. -1.
         -2   -1    0    0    0  501 -0.00000000000E+00 -0.00000000000E+00 -0.83236712720E+03  0.83236712720E+03  0.00000000000E+00 0.  1.
         23    2    1    2    0    0 -0.31941263891E+03  0.49939584233E+03 -0.51835150354E+03  0.79262478097E+03  0.90250323910E+02 0.  0.
         11    1    3    3    0    0 -0.25539903617E+03  0.35988616271E+03 -0.42666111757E+03  0.61382931425E+03  0.00000000000E+00 0. -1.
        -11    1    3    3    0    0 -0.64013602744E+02  0.13950967961E+03 -0.91690385969E+02  0.17879546673E+03  0.00000000000E+00 0.  1.
         22    1    1    2    0    0  0.31941263891E+03 -0.49939584233E+03  0.31981744472E+03  0.67357541462E+03  0.00000000000E+00 0. -1.
<mgrwt>
<rscale>  0 0.14526965E+04</rscale>
<asrwt>0</asrwt>
<pdfrwt beam="1">  1        2 0.97512780E-01 0.14526965E+04</pdfrwt>
<pdfrwt beam="2">  1       -2 0.12805648E+00 0.14526965E+04</pdfrwt>
<totfact> 0.20283489E+01</totfact>
</mgrwt>
</event>
<event>
 6    1  0.3017327E-006  0.1041813E+04  0.7818608E-02  0.9263837E-01
         -2   -1    0    0    0  501 -0.00000000000E+00  0.00000000000E+00  0.82359432835E+02  0.82359432835E+02  0.00000000000E+00 0.  1.
          2   -1    0    0  501    0  0.00000000000E+00 -0.00000000000E+00 -0.32946295386E+04  0.32946295386E+04  0.00000000000E+00 0. -1.
         23    2    1    2    0    0  0.25025239655E+03  0.30043619152E+03 -0.27140917678E+04  0.27436882344E+04  0.92966855591E+02 0.  0.
         13    1    3    3    0    0  0.21360187520E+03  0.24984346761E+03 -0.19960943777E+04  0.20229780731E+04  0.00000000000E+00 0.  1.
        -13    1    3    3    0    0  0.36650521352E+02  0.50592723902E+02 -0.71799739010E+03  0.72071016131E+03  0.00000000000E+00 0. -1.
         22    1    1    2    0    0 -0.25025239655E+03 -0.30043619152E+03 -0.49817833798E+03  0.63330073707E+03  0.00000000000E+00 0.  1.
<mgrwt>
<rscale>  0 0.10418135E+04</rscale>
<asrwt>0</asrwt>
<pdfrwt beam="1">  1        2 0.50686612E+00 0.10418135E+04</pdfrwt>
<pdfrwt beam="2">  1       -2 0.12670681E-01 0.10418135E+04</pdfrwt>
<totfact> 0.53726263E+01</totfact>
</mgrwt>
</event>
<event>
 6    1  0.3017327E-006  0.1332443E+04  0.7818608E-02  0.9004226E-01
          2   -1    0    0  501    0  0.00000000000E+00  0.00000000000E+00  0.30907980120E+04  0.30907980120E+04  0.00000000000E+00 0. -1.
         -2   -1    0    0    0  501 -0.00000000000E+00 -0.00000000000E+00 -0.14360407504E+03  0.14360407504E+03  0.00000000000E+00 0.  1.
         23    2    1    2    0    0  0.51263832652E+03 -0.34561221530E+03  0.20627318147E+04  0.21552732240E+04  0.89968182335E+02 0.  0.
         11    1    3    3    0    0  0.39278075086E+03 -0.21667968083E+03  0.15024744527E+04  0.15680102944E+04  0.00000000000E+00 0.  1.
        -11    1    3    3    0    0  0.11985757566E+03 -0.12893253447E+03  0.56025736201E+03  0.58726292968E+03  0.00000000000E+00 0. -1.
         22    1    1    2    0    0 -0.51263832652E+03  0.34561221530E+03  0.88446212223E+03  0.10791288629E+04  0.00000000000E+00 0.  1.
<mgrwt>
<rscale>  0 0.13324432E+04</rscale>
<asrwt>0</asrwt>
<pdfrwt beam="1">  1        2 0.47550734E+00 0.13324432E+04</pdfrwt>
<pdfrwt beam="2">  1       -2 0.22092937E-01 0.13324432E+04</pdfrwt>
<totfact> 0.27057165E+01</totfact>
</mgrwt>
</event>
<event>
 6    1  0.3017327E-006  0.3249412E+04  0.7818608E-02  0.8175888E-01
         -2   -1    0    0    0  501 -0.00000000000E+00  0.00000000000E+00  0.13975531399E+04  0.13975531399E+04  0.00000000000E+00 0.  1.
          2   -1    0    0  501    0  0.00000000000E+00 -0.00000000000E+00 -0.18887794554E+04  0.18887794554E+04  0.00000000000E+00 0. -1.
         23    2    1    2    0    0 -0.11036070788E+04 -0.10425780055E+04  0.33594982796E+03  0.15574202625E+04  0.88193567054E+02 0.  0.
         11    1    3    3    0    0 -0.73892327957E+03 -0.74284526332E+03  0.25672608873E+03  0.10787654903E+04  0.00000000000E+00 0. -1.
        -11    1    3    3    0    0 -0.36468379924E+03 -0.29973274221E+03  0.79223739227E+02  0.47865477229E+03  0.00000000000E+00 0.  1.
         22    1    1    2    0    0  0.11036070788E+04  0.10425780055E+04 -0.82717614347E+03  0.17289123327E+04  0.00000000000E+00 0. -1.
<mgrwt>
<rscale>  0 0.32494120E+04</rscale>
<asrwt>0</asrwt>
<pdfrwt beam="1">  1        2 0.29058146E+00 0.32494120E+04</pdfrwt>
<pdfrwt beam="2">  1       -2 0.21500817E+00 0.32494120E+04</pdfrwt>
<totfact> 0.68703037E-01</totfact>
</mgrwt>
</event>
<event>
 6    1  0.3017327E-006  0.1046622E+04  0.7818608E-02  0.9258839E-01
          2   -1    0    0  501    0  0.00000000000E+00  0.00000000000E+00  0.48492431735E+03  0.48492431735E+03  0.00000000000E+00 0. -1.
         -2   -1    0    0    0  501 -0.00000000000E+00 -0.00000000000E+00 -0.56473589268E+03  0.56473589268E+03  0.00000000000E+00 0.  1.
         23    2    1    2    0    0 -0.29811016735E+03 -0.20669293856E+02 -0.46611286262E+03  0.56126940734E+03  0.92006822214E+02 0.  0.
         11    1    3    3    0    0 -0.61682655928E+02 -0.10008479818E+02 -0.41065615967E+02  0.74775026081E+02  0.00000000000E+00 0. -1.
        -11    1    3    3    0    0 -0.23642751143E+03 -0.10660814038E+02 -0.42504724665E+03  0.48649438126E+03  0.00000000000E+00 0.  1.
         22    1    1    2    0    0  0.29811016735E+03  0.20669293856E+02  0.38630128728E+03  0.48839080268E+03  0.00000000000E+00 0. -1.
<mgrwt>
<rscale>  0 0.10466216E+04</rscale>
<asrwt>0</asrwt>
<pdfrwt beam="1">  1        2 0.74603742E-01 0.10466216E+04</pdfrwt>
<pdfrwt beam="2">  1       -2 0.86882444E-01 0.10466216E+04</pdfrwt>
<totfact> 0.72874005E+01</totfact>
</mgrwt>
</event>
<event>
 6    1  0.3017327E-006  0.2586924E+04  0.7818608E-02  0.8372657E-01
          1   -1    0    0  501    0  0.00000000000E+00  0.00000000000E+00  0.17953051904E+04  0.17953051904E+04  0.00000000000E+00 0. -1.
         -1   -1    0    0    0  501 -0.00000000000E+00 -0.00000000000E+00 -0.93189921727E+03  0.93189921727E+03  0.00000000000E+00 0.  1.
         23    2    1    2    0    0  0.15563091615E+03  0.50890149076E+03 -0.80884593351E+03  0.97231747438E+03  0.89262631962E+02 0.  0.
         11    1    3    3    0    0  0.16139099104E+03  0.41415306717E+03 -0.65650615128E+03  0.79282415560E+03  0.00000000000E+00 0.  1.
        -11    1    3    3    0    0 -0.57600748920E+01  0.94748423585E+02 -0.15233978223E+03  0.17949331878E+03  0.00000000000E+00 0. -1.
         22    1    1    2    0    0 -0.15563091615E+03 -0.50890149076E+03  0.16722519066E+04  0.17548869333E+04  0.00000000000E+00 0. -1.
<mgrwt>
<rscale>  0 0.25869237E+04</rscale>
<asrwt>0</asrwt>
<pdfrwt beam="1">  1        1 0.27620080E+00 0.25869237E+04</pdfrwt>
<pdfrwt beam="2">  1       -1 0.14336911E+00 0.25869237E+04</pdfrwt>
<totfact> 0.14247032E+00</totfact>
</mgrwt>
</event>
<event>
 6    1  0.3017327E-006  0.1634233E+04  0.7818608E-02  0.8799789E-01
         -2   -1    0    0    0  501 -0.00000000000E+00  0.00000000000E+00  0.20003965640E+03  0.20003965640E+03  0.00000000000E+00 0.  1.
          2   -1    0    0  501    0  0.00000000000E+00 -0.00000000000E+00 -0.33377330455E+04  0.33377330455E+04  0.00000000000E+00 0. -1.
         23    2    1    2    0    0 -0.52161086780E+03 -0.53081983579E+03 -0.22907713603E+04  0.24103311210E+04  0.90637145828E+02 0.  0.
         11    1    3    3    0    0 -0.29335446697E+03 -0.34475840640E+03 -0.14833353348E+04  0.15508703742E+04  0.00000000000E+00 0. -1.
        -11    1    3    3    0    0 -0.22825640083E+03 -0.18606142939E+03 -0.80743602547E+03  0.85946074678E+03  0.00000000000E+00 0.  1.
         22    1    1    2    0    0  0.52161086780E+03  0.53081983579E+03 -0.84692202879E+03  0.11274415809E+04  0.00000000000E+00 0.  1.
<mgrwt>
<rscale>  0 0.16342325E+04</rscale>
<asrwt>0</asrwt>
<pdfrwt beam="1">  1        2 0.51349737E+00 0.16342325E+04</pdfrwt>
<pdfrwt beam="2">  1       -2 0.30775333E-01 0.16342325E+04</pdfrwt>
<totfact> 0.99153005E+00</totfact>
</mgrwt>
</event>
<event>
 6    1  0.3017327E-006  0.5446114E+04  0.7818608E-02  0.7763148E-01
          2   -1    0    0  501    0  0.00000000000E+00  0.00000000000E+00  0.27761138974E+04  0.27761138974E+04  0.00000000000E+00 0. -1.
         -2   -1    0    0    0  501 -0.00000000000E+00 -0.00000000000E+00 -0.26710140812E+04  0.26710140812E+04  0.00000000000E+00 0.  1.
         23    2    1    2    0    0  0.23934665562E+04 -0.70533686882E+03 -0.10360997262E+04  0.27033133620E+04  0.90654488386E+02 0.  0.
         11    1    3    3    0    0  0.18164832894E+04 -0.52724904420E+03 -0.82623857519E+03  0.20640429449E+04  0.00000000000E+00 0. -1.
        -11    1    3    3    0    0  0.57698326683E+03 -0.17808782462E+03 -0.20986115103E+03  0.63927041711E+03  0.00000000000E+00 0.  1.
         22    1    1    2    0    0 -0.23934665562E+04  0.70533686882E+03  0.11411995425E+04  0.27438146166E+04  0.00000000000E+00 0. -1.
<mgrwt>
<rscale>  0 0.54461140E+04</rscale>
<asrwt>0</asrwt>
<pdfrwt beam="1">  1        2 0.42709445E+00 0.54461140E+04</pdfrwt>
<pdfrwt beam="2">  1       -2 0.41092524E+00 0.54461140E+04</pdfrwt>
<totfact> 0.10586302E-02</totfact>
</mgrwt>
</event>
<event>
 6    1  0.3017327E-006  0.5402143E+04  0.7818608E-02  0.7769300E-01
          2   -1    0    0  501    0  0.00000000000E+00  0.00000000000E+00  0.34719008841E+04  0.34719008841E+04  0.00000000000E+00 0. -1.
         -2   -1    0    0    0  501 -0.00000000000E+00 -0.00000000000E+00 -0.21013815575E+04  0.21013815575E+04  0.00000000000E+00 0.  1.
         23    2    1    2    0    0  0.17577718032E+04  0.20487419193E+04  0.61579053474E+03  0.27702981903E+04  0.90823548371E+02 0.  0.
         11    1    3    3    0    0  0.15019948232E+04  0.17000520821E+04  0.51219262928E+03  0.23256196637E+04  0.00000000000E+00 0. -1.
        -11    1    3    3    0    0  0.25577698000E+03  0.34868983717E+03  0.10359790547E+03  0.44467852665E+03  0.00000000000E+00 0.  1.
         22    1    1    2    0    0 -0.17577718032E+04 -0.20487419193E+04  0.75472879182E+03  0.28029842513E+04  0.00000000000E+00 0.  1.
<mgrwt>
<rscale>  0 0.54021435E+04</rscale>
<asrwt>0</asrwt>
<pdfrwt beam="1">  1        2 0.53413860E+00 0.54021435E+04</pdfrwt>
<pdfrwt beam="2">  1       -2 0.32328947E+00 0.54021435E+04</pdfrwt>
<totfact> 0.13678557E-02</totfact>
</mgrwt>
</event>
<event>
 6    1  0.3017327E-006  0.1289885E+04  0.7818608E-02  0.9037625E-01
         -2   -1    0    0    0  501 -0.00000000000E+00  0.00000000000E+00  0.13528150856E+04  0.13528150856E+04  0.00000000000E+00 0.  1.
          2   -1    0    0  501    0  0.00000000000E+00 -0.00000000000E+00 -0.30747053315E+03  0.30747053315E+03  0.00000000000E+00 0. -1.
         23    2    1    2    0    0 -0.14781635170E+03  0.26961024271E+03  0.12501625087E+04  0.12908404238E+04  0.93932660631E+02 0.  0.
         11    1    3    3    0    0 -0.71951786693E+02  0.46477705198E+02  0.35190932852E+03  0.36218422410E+03  0.00000000000E+00 0. -1.
        -11    1    3    3    0    0 -0.75864565002E+02  0.22313253751E+03  0.89825318023E+03  0.92865619973E+03  0.00000000000E+00 0.  1.
         22    1    1    2    0    0  0.14781635170E+03 -0.26961024271E+03 -0.20481795631E+03  0.36944519489E+03  0.00000000000E+00 0. -1.
<mgrwt>
<rscale>  0 0.12898849E+04</rscale>
<asrwt>0</asrwt>
<pdfrwt beam="1">  1        2 0.47303160E-01 0.12898849E+04</pdfrwt>
<pdfrwt beam="2">  1       -2 0.20812539E+00 0.12898849E+04</pdfrwt>
<totfact> 0.12329141E+01</totfact>
</mgrwt>
</event>
<event>
 6    1  0.3017327E-006  0.1227907E+04  0.7818608E-02  0.9088774E-01
         -2   -1    0    0    0  501 -0.00000000000E+00  0.00000000000E+00  0.39750679322E+03  0.39750679322E+03  0.00000000000E+00 0.  1.
          2   -1    0    0  501    0  0.00000000000E+00 -0.00000000000E+00 -0.94825758682E+03  0.94825758682E+03  0.00000000000E+00 0. -1.
         23    2    1    2    0    0 -0.49763862411E+03 -0.27513334284E+03 -0.52079398344E+03  0.77634365068E+03  0.90224909000E+02 0.  0.
         13    1    3    3    0    0 -0.16496409736E+03 -0.95074634600E+02 -0.11914953163E+03  0.22460843806E+03  0.00000000000E+00 0.  1.
        -13    1    3    3    0    0 -0.33267452675E+03 -0.18005870824E+03 -0.40164445182E+03  0.55173521262E+03  0.00000000000E+00 0. -1.
         22    1    1    2    0    0  0.49763862411E+03  0.27513334284E+03 -0.29956810163E+02  0.56942072936E+03  0.00000000000E+00 0.  1.
<mgrwt>
<rscale>  0 0.12279069E+04</rscale>
<asrwt>0</asrwt>
<pdfrwt beam="1">  1        2 0.14588578E+00 0.12279069E+04</pdfrwt>
<pdfrwt beam="2">  1       -2 0.61154892E-01 0.12279069E+04</pdfrwt>
<totfact> 0.66701957E+01</totfact>
</mgrwt>
</event>
<event>
 6    1  0.3017327E-006  0.5241058E+04  0.7818608E-02  0.7792361E-01
         -2   -1    0    0    0  501 -0.00000000000E+00  0.00000000000E+00  0.19086472256E+04  0.19086472256E+04  0.00000000000E+00 0.  1.
          2   -1    0    0  501    0  0.00000000000E+00 -0.00000000000E+00 -0.35979268353E+04  0.35979268353E+04  0.00000000000E+00 0. -1.
         23    2    1    2    0    0  0.14292137662E+04 -0.21677988959E+04 -0.47954961478E+03  0.26420582723E+04  0.92195653989E+02 0.  0.
         13    1    3    3    0    0  0.40414500366E+03 -0.63004871173E+03 -0.17974644217E+03  0.76980734382E+03  0.00000000000E+00 0. -1.
        -13    1    3    3    0    0  0.10250687625E+04 -0.15377501842E+04 -0.29980317261E+03  0.18722509285E+04  0.00000000000E+00 0.  1.
         22    1    1    2    0    0 -0.14292137662E+04  0.21677988959E+04 -0.12097299949E+04  0.28645157886E+04  0.00000000000E+00 0. -1.
<mgrwt>
<rscale>  0 0.52410583E+04</rscale>
<asrwt>0</asrwt>
<pdfrwt beam="1">  1        2 0.55352720E+00 0.52410583E+04</pdfrwt>
<pdfrwt beam="2">  1       -2 0.29363804E+00 0.52410583E+04</pdfrwt>
<totfact> 0.17159278E-02</totfact>
</mgrwt>
</event>
<event>
 6    1  0.3017327E-006  0.2169124E+04  0.7818608E-02  0.8531390E-01
          2   -1    0    0  501    0  0.00000000000E+00  0.00000000000E+00  0.19867245191E+04  0.19867245191E+04  0.00000000000E+00 0. -1.
         -2   -1    0    0    0  501 -0.00000000000E+00 -0.00000000000E+00 -0.59206762472E+03  0.59206762472E+03  0.00000000000E+00 0.  1.
         23    2    1    2    0    0  0.77290804943E+03  0.22215164546E+03  0.15602831930E+04  0.17577134160E+04  0.91294051847E+02 0.  0.
         11    1    3    3    0    0  0.59192865366E+03  0.19959765215E+03  0.12608352393E+04  0.14070978127E+04  0.00000000000E+00 0. -1.
        -11    1    3    3    0    0  0.18097939577E+03  0.22553993309E+02  0.29944795370E+03  0.35061560330E+03  0.00000000000E+00 0.  1.
         22    1    1    2    0    0 -0.77290804943E+03 -0.22215164546E+03 -0.16562629865E+03  0.82107872781E+03  0.00000000000E+00 0.  1.
<mgrwt>
<rscale>  0 0.21691245E+04</rscale>
<asrwt>0</asrwt>
<pdfrwt beam="1">  1        2 0.30564992E+00 0.21691245E+04</pdfrwt>
<pdfrwt beam="2">  1       -2 0.91087328E-01 0.21691245E+04</pdfrwt>
<totfact> 0.64003870E+00</totfact>
</mgrwt>
</event>
<event>
 6    1  0.3017327E-006  0.3637628E+04  0.7818608E-02  0.8081927E-01
         -1   -1    0    0    0  501 -0.00000000000E+00  0.00000000000E+00  0.20515767554E+04  0.20515767554E+04  0.00000000000E+00 0.  1.
          1   -1    0    0  501    0  0.00000000000E+00 -0.00000000000E+00 -0.16124592949E+04  0.16124592949E+04  0.00000000000E+00 0. -1.
         23    2    1    2    0    0  0.12944129230E+04 -0.41751173618E+03  0.14342982286E+04  0.19787450885E+04  0.91650706154E+02 0.  0.
         13    1    3    3    0    0  0.74986764122E+03 -0.27893087835E+03  0.80149467699E+03  0.11324741196E+04  0.00000000000E+00 0.  1.
        -13    1    3    3    0    0  0.54454528173E+03 -0.13858085783E+03  0.63280355156E+03  0.84627096895E+03  0.00000000000E+00 0. -1.
         22    1    1    2    0    0 -0.12944129230E+04  0.41751173618E+03 -0.99518076798E+03  0.16852909618E+04  0.00000000000E+00 0. -1.
<mgrwt>
<rscale>  0 0.36376278E+04</rscale>
<asrwt>0</asrwt>
<pdfrwt beam="1">  1        1 0.24807066E+00 0.36376278E+04</pdfrwt>
<pdfrwt beam="2">  1       -1 0.31562719E+00 0.36376278E+04</pdfrwt>
<totfact> 0.11530644E-01</totfact>
</mgrwt>
</event>
<event>
 6    1  0.3017327E-006  0.2314328E+04  0.7818608E-02  0.8472293E-01
         -4   -1    0    0    0  501 -0.00000000000E+00  0.00000000000E+00  0.77035187749E+03  0.77035187749E+03  0.00000000000E+00 0.  1.
          4   -1    0    0  501    0  0.00000000000E+00 -0.00000000000E+00 -0.17382037203E+04  0.17382037203E+04  0.00000000000E+00 0. -1.
         23    2    1    2    0    0  0.11225805237E+04  0.98681994443E+02 -0.75799736555E+03  0.13622728796E+04  0.10631191886E+03 0.  0.
         13    1    3    3    0    0  0.80827931578E+03  0.67547271315E+02 -0.60146788273E+03  0.10097730934E+04  0.00000000000E+00 0.  1.
        -13    1    3    3    0    0  0.31430120794E+03  0.31134723128E+02 -0.15652948282E+03  0.35249978623E+03  0.00000000000E+00 0. -1.
         22    1    1    2    0    0 -0.11225805237E+04 -0.98681994443E+02 -0.20985447721E+03  0.11462827181E+04  0.00000000000E+00 0. -1.
<mgrwt>
<rscale>  0 0.23143280E+04</rscale>
<asrwt>0</asrwt>
<pdfrwt beam="1">  1        4 0.26741595E+00 0.23143280E+04</pdfrwt>
<pdfrwt beam="2">  1       -4 0.11851568E+00 0.23143280E+04</pdfrwt>
<totfact> 0.48644866E-02</totfact>
</mgrwt>
</event>
<event>
 6    1  0.3017327E-006  0.3830303E+04  0.7818608E-02  0.8039683E-01
         -2   -1    0    0    0  501 -0.00000000000E+00  0.00000000000E+00  0.11703226062E+04  0.11703226062E+04  0.00000000000E+00 0.  1.
          2   -1    0    0  501    0  0.00000000000E+00 -0.00000000000E+00 -0.31340118994E+04  0.31340118994E+04  0.00000000000E+00 0. -1.
         23    2    1    2    0    0  0.93170652500E+03 -0.23847845468E+03 -0.28421069454E+04  0.30018113412E+04  0.91380617114E+02 0.  0.
         13    1    3    3    0    0  0.81855203773E+03 -0.21550413754E+03 -0.25826933056E+04  0.27178620610E+04  0.00000000000E+00 0. -1.
        -13    1    3    3    0    0  0.11315448727E+03 -0.22974317142E+02 -0.25941363985E+03  0.28394928029E+03  0.00000000000E+00 0.  1.
         22    1    1    2    0    0 -0.93170652500E+03  0.23847845468E+03  0.87841765219E+03  0.13025231644E+04  0.00000000000E+00 0.  1.
<mgrwt>
<rscale>  0 0.38303028E+04</rscale>
<asrwt>0</asrwt>
<pdfrwt beam="1">  1        2 0.48215568E+00 0.38303028E+04</pdfrwt>
<pdfrwt beam="2">  1       -2 0.18004963E+00 0.38303028E+04</pdfrwt>
<totfact> 0.20719932E-01</totfact>
</mgrwt>
</event>
<event>
 6    1  0.3017327E-006  0.1129452E+04  0.7818608E-02  0.9176952E-01
          2   -1    0    0  501    0  0.00000000000E+00  0.00000000000E+00  0.15302444763E+04  0.15302444763E+04  0.00000000000E+00 0. -1.
         -2   -1    0    0    0  501 -0.00000000000E+00 -0.00000000000E+00 -0.20840811518E+03  0.20840811518E+03  0.00000000000E+00 0.  1.
         23    2    1    2    0    0  0.48673184131E+03  0.17831708787E+03  0.99511635325E+03  0.11259121630E+04  0.93363660666E+02 0.  0.
         11    1    3    3    0    0  0.25967406671E+03  0.47361623120E+02  0.47166362705E+03  0.54050006600E+03  0.00000000000E+00 0. -1.
        -11    1    3    3    0    0  0.22705777460E+03  0.13095546475E+03  0.52345272620E+03  0.58541209701E+03  0.00000000000E+00 0.  1.
         22    1    1    2    0    0 -0.48673184131E+03 -0.17831708787E+03  0.32672000791E+03  0.61274042852E+03  0.00000000000E+00 0.  1.
<mgrwt>
<rscale>  0 0.11294518E+04</rscale>
<asrwt>0</asrwt>
<pdfrwt beam="1">  1        2 0.23542222E+00 0.11294518E+04</pdfrwt>
<pdfrwt beam="2">  1       -2 0.32062788E-01 0.11294518E+04</pdfrwt>
<totfact> 0.10940567E+02</totfact>
</mgrwt>
</event>
<event>
 6    1  0.3017327E-006  0.2673494E+03  0.7818608E-02  0.1102806E+00
         -2   -1    0    0    0  501 -0.00000000000E+00  0.00000000000E+00  0.70240984438E+02  0.70240984438E+02  0.00000000000E+00 0.  1.
          2   -1    0    0  501    0  0.00000000000E+00 -0.00000000000E+00 -0.25439464244E+03  0.25439464244E+03  0.00000000000E+00 0. -1.
         23    2    1    2    0    0 -0.32733463104E+02  0.95927708302E+02 -0.34172001270E+02  0.14361600865E+03  0.95834375061E+02 0.  0.
         11    1    3    3    0    0 -0.47558514163E+02  0.15390825050E+02 -0.36171775391E+02  0.61701597224E+02  0.00000000000E+00 0.  1.
        -11    1    3    3    0    0  0.14825051059E+02  0.80536883252E+02  0.19997741209E+01  0.81914411427E+02  0.00000000000E+00 0. -1.
         22    1    1    2    0    0  0.32733463104E+02 -0.95927708302E+02 -0.14998165673E+03  0.18101961823E+03  0.00000000000E+00 0. -1.
<mgrwt>
<rscale>  0 0.26734944E+03</rscale>
<asrwt>0</asrwt>
<pdfrwt beam="1">  1        2 0.39137637E-01 0.26734944E+03</pdfrwt>
<pdfrwt beam="2">  1       -2 0.10806305E-01 0.26734944E+03</pdfrwt>
<totfact> 0.75937469E+03</totfact>
</mgrwt>
</event>
<event>
 6    1  0.3017327E-006  0.2940063E+04  0.7818608E-02  0.8261056E-01
         -2   -1    0    0    0  501 -0.00000000000E+00  0.00000000000E+00  0.84709373069E+03  0.84709373069E+03  0.00000000000E+00 0.  1.
          2   -1    0    0  501    0  0.00000000000E+00 -0.00000000000E+00 -0.25510669738E+04  0.25510669738E+04  0.00000000000E+00 0. -1.
         23    2    1    2    0    0  0.12645913708E+04 -0.65969026705E+03 -0.44841549810E+03  0.14979481283E+04  0.91594502110E+02 0.  0.
         13    1    3    3    0    0  0.38488398229E+03 -0.15393704125E+03 -0.13117660398E+03  0.43478683734E+03  0.00000000000E+00 0. -1.
        -13    1    3    3    0    0  0.87970738848E+03 -0.50575322580E+03 -0.31723889412E+03  0.10631612910E+04  0.00000000000E+00 0.  1.
         22    1    1    2    0    0 -0.12645913708E+04  0.65969026705E+03 -0.12555577450E+04  0.19002125761E+04  0.00000000000E+00 0. -1.
<mgrwt>
<rscale>  0 0.29400632E+04</rscale>
<asrwt>0</asrwt>
<pdfrwt beam="1">  1        2 0.39247185E+00 0.29400632E+04</pdfrwt>
<pdfrwt beam="2">  1       -2 0.13032211E+00 0.29400632E+04</pdfrwt>
<totfact> 0.12066196E+00</totfact>
</mgrwt>
</event>
<event>
 6    1  0.4774418E-006  0.2442143E+04  0.7818608E-02  0.8423892E-01
          1   -1    0    0  501    0  0.00000000000E+00  0.00000000000E+00  0.14087019619E+04  0.14087019619E+04  0.00000000000E+00 0. -1.
         -1   -1    0    0    0  501 -0.00000000000E+00 -0.00000000000E+00 -0.10584319534E+04  0.10584319534E+04  0.00000000000E+00 0.  1.
         23    2    1    2    0    0  0.35533318745E+03  0.23264154628E+03  0.13301017584E+04  0.13992134963E+04  0.90796240871E+02 0.  0.
         13    1    3    3    0    0  0.21022314810E+03  0.18625585652E+03  0.90898308651E+03  0.95138597197E+03  0.00000000000E+00 0. -1.
        -13    1    3    3    0    0  0.14511003935E+03  0.46385689754E+02  0.42111867186E+03  0.44782752431E+03  0.00000000000E+00 0.  1.
         22    1    1    2    0    0 -0.35533318745E+03 -0.23264154628E+03 -0.97983174992E+03  0.10679204190E+04  0.00000000000E+00 0.  1.
<mgrwt>
<rscale>  0 0.24421426E+04</rscale>
<asrwt>0</asrwt>
<pdfrwt beam="1">  1        1 0.21672338E+00 0.24421426E+04</pdfrwt>
<pdfrwt beam="2">  1       -1 0.16283569E+00 0.24421426E+04</pdfrwt>
<totfact> 0.18816853E+00</totfact>
</mgrwt>
</event>
<event>
 6    1  0.3673569E-006  0.3345089E+04  0.7818608E-02  0.8151516E-01
          2   -1    0    0  501    0  0.00000000000E+00  0.00000000000E+00  0.22269952494E+04  0.22269952494E+04  0.00000000000E+00 0. -1.
         -2   -1    0    0    0  501 -0.00000000000E+00 -0.00000000000E+00 -0.12561343993E+04  0.12561343993E+04  0.00000000000E+00 0.  1.
         23    2    1    2    0    0 -0.14324689793E+04 -0.84225204474E+03  0.67152254077E+03  0.17946512488E+04  0.92058125618E+02 0.  0.
         13    1    3    3    0    0 -0.64281944916E+03 -0.35815160433E+03  0.25166391498E+03  0.77770440529E+03  0.00000000000E+00 0.  1.
        -13    1    3    3    0    0 -0.78964953015E+03 -0.48410044041E+03  0.41985862579E+03  0.10169468435E+04  0.00000000000E+00 0. -1.
         22    1    1    2    0    0  0.14324689793E+04  0.84225204474E+03  0.29933830937E+03  0.16884783999E+04  0.00000000000E+00 0. -1.
<mgrwt>
<rscale>  0 0.33450891E+04</rscale>
<asrwt>0</asrwt>
<pdfrwt beam="1">  1        2 0.34261465E+00 0.33450891E+04</pdfrwt>
<pdfrwt beam="2">  1       -2 0.19325145E+00 0.33450891E+04</pdfrwt>
<totfact> 0.61167806E-01</totfact>
</mgrwt>
</event>
<event>
 6    1  0.3495890E-006  0.2532723E+04  0.7818608E-02  0.8391420E-01
          1   -1    0    0  501    0  0.00000000000E+00  0.00000000000E+00  0.15085324325E+04  0.15085324325E+04  0.00000000000E+00 0. -1.
         -1   -1    0    0    0  501 -0.00000000000E+00 -0.00000000000E+00 -0.10630670511E+04  0.10630670511E+04  0.00000000000E+00 0.  1.
         23    2    1    2    0    0  0.72771675808E+03  0.68556948645E+03 -0.56348248292E+03  0.11511935580E+04  0.90315550419E+02 0.  0.
         11    1    3    3    0    0  0.45009738947E+03  0.37537027834E+03 -0.36022724635E+03  0.68793471702E+03  0.00000000000E+00 0. -1.
        -11    1    3    3    0    0  0.27761936861E+03  0.31019920811E+03 -0.20325523657E+03  0.46325884097E+03  0.00000000000E+00 0.  1.
         22    1    1    2    0    0 -0.72771675808E+03 -0.68556948645E+03  0.10089478642E+04  0.14204059256E+04  0.00000000000E+00 0. -1.
<mgrwt>
<rscale>  0 0.25327227E+04</rscale>
<asrwt>0</asrwt>
<pdfrwt beam="1">  1        1 0.23208191E+00 0.25327227E+04</pdfrwt>
<pdfrwt beam="2">  1       -1 0.16354878E+00 0.25327227E+04</pdfrwt>
<totfact> 0.15708876E+00</totfact>
</mgrwt>
</event>
<event>
 6    1  0.3017327E-006  0.6087924E+04  0.7818608E-02  0.7679595E-01
          2   -1    0    0  501    0  0.00000000000E+00  0.00000000000E+00  0.46458796717E+04  0.46458796717E+04  0.00000000000E+00 0. -1.
         -2   -1    0    0    0  501 -0.00000000000E+00 -0.00000000000E+00 -0.19943918303E+04  0.19943918303E+04  0.00000000000E+00 0.  1.
         23    2    1    2    0    0  0.29998933998E+04 -0.51036692700E+03  0.12804096946E+04  0.33026540741E+04  0.90775200764E+02 0.  0.
         13    1    3    3    0    0  0.81831579030E+03 -0.17031768098E+03  0.32299184286E+03  0.89608737055E+03  0.00000000000E+00 0. -1.
        -13    1    3    3    0    0  0.21815776095E+04 -0.34004924602E+03  0.95741785175E+03  0.24065667036E+04  0.00000000000E+00 0.  1.
         22    1    1    2    0    0 -0.29998933998E+04  0.51036692700E+03  0.13710781468E+04  0.33376174279E+04  0.00000000000E+00 0. -1.
<mgrwt>
<rscale>  0 0.60879239E+04</rscale>
<asrwt>0</asrwt>
<pdfrwt beam="1">  1        2 0.71475071E+00 0.60879239E+04</pdfrwt>
<pdfrwt beam="2">  1       -2 0.30682951E+00 0.60879239E+04</pdfrwt>
<totfact> 0.16659001E-03</totfact>
</mgrwt>
</event>
<event>
 6    1  0.3017327E-006  0.3462796E+04  0.7818608E-02  0.8122664E-01
          2   -1    0    0  501    0  0.00000000000E+00  0.00000000000E+00  0.16580909687E+04  0.16580909687E+04  0.00000000000E+00 0. -1.
         -2   -1    0    0    0  501 -0.00000000000E+00 -0.00000000000E+00 -0.18079456638E+04  0.18079456638E+04  0.00000000000E+00 0.  1.
         23    2    1    2    0    0  0.12861775589E+03  0.33575867091E+03  0.16190576338E+04  0.16609529115E+04  0.90224943925E+02 0.  0.
         11    1    3    3    0    0  0.21621050850E+02  0.18501865250E+02  0.24704550432E+03  0.24867905031E+03  0.00000000000E+00 0.  1.
        -11    1    3    3    0    0  0.10699670503E+03  0.31725680566E+03  0.13720121295E+04  0.14122738612E+04  0.00000000000E+00 0. -1.
         22    1    1    2    0    0 -0.12861775589E+03 -0.33575867091E+03 -0.17689123290E+04  0.18050837210E+04  0.00000000000E+00 0.  1.
<mgrwt>
<rscale>  0 0.34627956E+04</rscale>
<asrwt>0</asrwt>
<pdfrwt beam="1">  1        2 0.25509092E+00 0.34627956E+04</pdfrwt>
<pdfrwt beam="2">  1       -2 0.27814549E+00 0.34627956E+04</pdfrwt>
<totfact> 0.36867275E-01</totfact>
</mgrwt>
</event>
<event>
 6    1  0.3017327E-006  0.1565869E+04  0.7818608E-02  0.8841794E-01
          2   -1    0    0  501    0  0.00000000000E+00  0.00000000000E+00  0.87003631186E+03  0.87003631186E+03  0.00000000000E+00 0. -1.
         -2   -1    0    0    0  501 -0.00000000000E+00 -0.00000000000E+00 -0.70455313414E+03  0.70455313414E+03  0.00000000000E+00 0.  1.
         23    2    1    2    0    0  0.47492634265E+02  0.77705797337E+03  0.13223405902E+03  0.79537179464E+03  0.95161972791E+02 0.  0.
         11    1    3    3    0    0  0.42071149932E+02  0.25188651704E+03  0.71175822732E+01  0.25547496766E+03  0.00000000000E+00 0.  1.
        -11    1    3    3    0    0  0.54214843328E+01  0.52517145633E+03  0.12511647675E+03  0.53989682698E+03  0.00000000000E+00 0. -1.
         22    1    1    2    0    0 -0.47492634265E+02 -0.77705797337E+03  0.33249118700E+02  0.77921765135E+03  0.00000000000E+00 0. -1.
<mgrwt>
<rscale>  0 0.15658695E+04</rscale>
<asrwt>0</asrwt>
<pdfrwt beam="1">  1        2 0.13385174E+00 0.15658695E+04</pdfrwt>
<pdfrwt beam="2">  1       -2 0.10839279E+00 0.15658695E+04</pdfrwt>
<totfact> 0.20123119E+01</totfact>
</mgrwt>
</event>
<event>
 6    1  0.3017327E-006  0.1387757E+04  0.7818608E-02  0.8962729E-01
         -1   -1    0    0    0  501 -0.00000000000E+00  0.00000000000E+00  0.17962167590E+04  0.17962167590E+04  0.00000000000E+00 0.  1.
          1   -1    0    0  501    0  0.00000000000E+00 -0.00000000000E+00 -0.26804524560E+03  0.26804524560E+03  0.00000000000E+00 0. -1.
         23    2    1    2    0    0 -0.45063079131E+03 -0.41028564882E+03  0.28328568095E+03  0.67820891776E+03  0.91181880817E+02 0.  0.
         11    1    3    3    0    0 -0.18707090980E+03 -0.18733191312E+03  0.75550951504E+02  0.27531203614E+03  0.00000000000E+00 0. -1.
        -11    1    3    3    0    0 -0.26355988151E+03 -0.22295373570E+03  0.20773472944E+03  0.40289688162E+03  0.00000000000E+00 0.  1.
         22    1    1    2    0    0  0.45063079131E+03  0.41028564882E+03  0.12448858325E+04  0.13860530869E+04  0.00000000000E+00 0.  1.
<mgrwt>
<rscale>  0 0.13877570E+04</rscale>
<asrwt>0</asrwt>
<pdfrwt beam="1">  1        1 0.41237731E-01 0.13877570E+04</pdfrwt>
<pdfrwt beam="2">  1       -1 0.27634103E+00 0.13877570E+04</pdfrwt>
<totfact> 0.46693271E+00</totfact>
</mgrwt>
</event>
<event>
 6    1  0.3017327E-006  0.4109588E+04  0.7818608E-02  0.7982797E-01
          2   -1    0    0  501    0  0.00000000000E+00  0.00000000000E+00  0.22908882735E+04  0.22908882735E+04  0.00000000000E+00 0. -1.
         -2   -1    0    0    0  501 -0.00000000000E+00 -0.00000000000E+00 -0.18430312229E+04  0.18430312229E+04  0.00000000000E+00 0.  1.
         23    2    1    2    0    0  0.53459688526E+03 -0.15639457995E+04 -0.10023411955E+04  0.19351027132E+04  0.90633024170E+02 0.  0.
         11    1    3    3    0    0  0.37158107166E+03 -0.12028870701E+04 -0.77348560044E+03  0.14775959429E+04  0.00000000000E+00 0. -1.
        -11    1    3    3    0    0  0.16301581360E+03 -0.36105872937E+03 -0.22885559502E+03  0.45750677034E+03  0.00000000000E+00 0.  1.
         22    1    1    2    0    0 -0.53459688526E+03  0.15639457995E+04  0.14501982460E+04  0.21988167832E+04  0.00000000000E+00 0. -1.
<mgrwt>
<rscale>  0 0.41095881E+04</rscale>
<asrwt>0</asrwt>
<pdfrwt beam="1">  1        2 0.35244435E+00 0.41095881E+04</pdfrwt>
<pdfrwt beam="2">  1       -2 0.28354327E+00 0.41095881E+04</pdfrwt>
<totfact> 0.14375139E-01</totfact>
</mgrwt>
</event>
<event>
 6    1  0.3017327E-006  0.3350941E+04  0.7818608E-02  0.8150053E-01
         -2   -1    0    0    0  501 -0.00000000000E+00  0.00000000000E+00  0.14591873195E+04  0.14591873195E+04  0.00000000000E+00 0. -1.
          2   -1    0    0  501    0  0.00000000000E+00 -0.00000000000E+00 -0.19238118580E+04  0.19238118580E+04  0.00000000000E+00 0.  1.
         23    2    1    2    0    0  0.62188448082E+03  0.34352723628E+03  0.12980196945E+04  0.14825608171E+04  0.91543320072E+02 0.  0.
         11    1    3    3    0    0  0.55284812223E+03  0.29100031863E+03  0.10764524654E+04  0.12446172673E+04  0.00000000000E+00 0.  1.
        -11    1    3    3    0    0  0.69036358587E+02  0.52526917647E+02  0.22156722909E+03  0.23794354980E+03  0.00000000000E+00 0. -1.
         22    1    1    2    0    0 -0.62188448082E+03 -0.34352723628E+03 -0.17626442330E+04  0.19004383604E+04  0.00000000000E+00 0.  1.
<mgrwt>
<rscale>  0 0.33509413E+04</rscale>
<asrwt>0</asrwt>
<pdfrwt beam="1">  1        2 0.29597106E+00 0.33509413E+04</pdfrwt>
<pdfrwt beam="2">  1       -2 0.22449036E+00 0.33509413E+04</pdfrwt>
<totfact> 0.56726214E-01</totfact>
</mgrwt>
</event>
<event>
 6    1  0.3755137E-006  0.4859559E+04  0.7818608E-02  0.7850544E-01
          2   -1    0    0  501    0  0.00000000000E+00  0.00000000000E+00  0.28094587937E+04  0.28094587937E+04  0.00000000000E+00 0. -1.
         -2   -1    0    0    0  501 -0.00000000000E+00 -0.00000000000E+00 -0.21014112076E+04  0.21014112076E+04  0.00000000000E+00 0.  1.
         23    2    1    2    0    0  0.81568405707E+02  0.10911145326E+04  0.25455662442E+04  0.27722585016E+04  0.91243453595E+02 0.  0.
         11    1    3    3    0    0  0.42704291371E+02  0.50044298315E+03  0.12832005035E+04  0.13779950537E+04  0.00000000000E+00 0. -1.
        -11    1    3    3    0    0  0.38864114336E+02  0.59067154944E+03  0.12623657407E+04  0.13942634479E+04  0.00000000000E+00 0.  1.
         22    1    1    2    0    0 -0.81568405707E+02 -0.10911145326E+04 -0.18375186581E+04  0.21386114998E+04  0.00000000000E+00 0.  1.
<mgrwt>
<rscale>  0 0.48595589E+04</rscale>
<asrwt>0</asrwt>
<pdfrwt beam="1">  1        2 0.43222443E+00 0.48595589E+04</pdfrwt>
<pdfrwt beam="2">  1       -2 0.32329403E+00 0.48595589E+04</pdfrwt>
<totfact> 0.38374909E-02</totfact>
</mgrwt>
</event>
<event>
 6    1  0.3017327E-006  0.1323172E+04  0.7818608E-02  0.9011388E-01
         -2   -1    0    0    0  501 -0.00000000000E+00  0.00000000000E+00  0.11990281287E+04  0.11990281287E+04  0.00000000000E+00 0.  1.
          2   -1    0    0  501    0  0.00000000000E+00 -0.00000000000E+00 -0.36504254324E+03  0.36504254324E+03  0.00000000000E+00 0. -1.
         23    2    1    2    0    0  0.84808655894E+02 -0.32919039967E+03 -0.24764101191E+03  0.43028280664E+03  0.90875714904E+02 0.  0.
         11    1    3    3    0    0  0.46937539920E+02 -0.24171932493E+03 -0.22210223417E+03  0.33160332797E+03  0.00000000000E+00 0.  1.
        -11    1    3    3    0    0  0.37871115974E+02 -0.87471074745E+02 -0.25538777739E+02  0.98679478669E+02  0.00000000000E+00 0. -1.
         22    1    1    2    0    0 -0.84808655894E+02  0.32919039967E+03  0.10816265974E+04  0.11337878653E+04  0.00000000000E+00 0.  1.
<mgrwt>
<rscale>  0 0.13231724E+04</rscale>
<asrwt>0</asrwt>
<pdfrwt beam="1">  1        2 0.56160392E-01 0.13231724E+04</pdfrwt>
<pdfrwt beam="2">  1       -2 0.18446586E+00 0.13231724E+04</pdfrwt>
<totfact> 0.14558157E+01</totfact>
</mgrwt>
</event>
<event>
 6    1  0.3017327E-006  0.3388495E+04  0.7818608E-02  0.8140736E-01
          2   -1    0    0  501    0  0.00000000000E+00  0.00000000000E+00  0.24611714949E+04  0.24611714949E+04  0.00000000000E+00 0. -1.
         -2   -1    0    0    0  501 -0.00000000000E+00 -0.00000000000E+00 -0.11663045141E+04  0.11663045141E+04  0.00000000000E+00 0.  1.
         23    2    1    2    0    0 -0.14265923377E+04  0.38522476260E+02  0.16230763244E+04  0.21631088923E+04  0.89518969686E+02 0.  0.
         13    1    3    3    0    0 -0.10961504020E+04 -0.26860955045E+01  0.12145720470E+04  0.16360740131E+04  0.00000000000E+00 0. -1.
        -13    1    3    3    0    0 -0.33044193570E+03  0.41208571764E+02  0.40850427742E+03  0.52703487924E+03  0.00000000000E+00 0.  1.
         22    1    1    2    0    0  0.14265923377E+04 -0.38522476260E+02 -0.32820934361E+03  0.14643671167E+04  0.00000000000E+00 0.  1.
<mgrwt>
<rscale>  0 0.33884955E+04</rscale>
<asrwt>0</asrwt>
<pdfrwt beam="1">  1        2 0.37864177E+00 0.33884955E+04</pdfrwt>
<pdfrwt beam="2">  1       -2 0.17943146E+00 0.33884955E+04</pdfrwt>
<totfact> 0.55616856E-01</totfact>
</mgrwt>
</event>
<event>
 6    1  0.3017327E-006  0.1778015E+04  0.7818608E-02  0.8718079E-01
          1   -1    0    0  501    0  0.00000000000E+00  0.00000000000E+00  0.22732566944E+04  0.22732566944E+04  0.00000000000E+00 0. -1.
         -1   -1    0    0    0  501 -0.00000000000E+00 -0.00000000000E+00 -0.34766605563E+03  0.34766605563E+03  0.00000000000E+00 0.  1.
         23    2    1    2    0    0  0.81313113411E+03 -0.35316628486E+03  0.98729863617E+03  0.13300701062E+04  0.91756331005E+02 0.  0.
         11    1    3    3    0    0  0.70302934727E+03 -0.26930099824E+03  0.83519042559E+03  0.11244182219E+04  0.00000000000E+00 0. -1.
        -11    1    3    3    0    0  0.11010178684E+03 -0.83865286622E+02  0.15210821058E+03  0.20565188424E+03  0.00000000000E+00 0.  1.
         22    1    1    2    0    0 -0.81313113411E+03  0.35316628486E+03  0.93829200257E+03  0.12908526438E+04  0.00000000000E+00 0.  1.
<mgrwt>
<rscale>  0 0.17780148E+04</rscale>
<asrwt>0</asrwt>
<pdfrwt beam="1">  1        1 0.34973179E+00 0.17780148E+04</pdfrwt>
<pdfrwt beam="2">  1       -1 0.53487087E-01 0.17780148E+04</pdfrwt>
<totfact> 0.64763231E+00</totfact>
</mgrwt>
</event>
<event>
 6    1  0.3017327E-006  0.8172331E+03  0.7818608E-02  0.9535403E-01
         -2   -1    0    0    0  501 -0.00000000000E+00  0.00000000000E+00  0.71620290689E+02  0.71620290689E+02  0.00000000000E+00 0.  1.
          2   -1    0    0  501    0  0.00000000000E+00 -0.00000000000E+00 -0.23312874119E+04  0.23312874119E+04  0.00000000000E+00 0. -1.
         23    2    1    2    0    0  0.25369347876E+03 -0.27200468385E+03 -0.70869020181E+03  0.80795430712E+03  0.11046008805E+03 0.  0.
         11    1    3    3    0    0  0.95093506769E+02 -0.44158191039E+02 -0.25977621324E+03  0.28013639862E+03  0.00000000000E+00 0.  1.
        -11    1    3    3    0    0  0.15859997199E+03 -0.22784649281E+03 -0.44891398857E+03  0.52781790850E+03  0.00000000000E+00 0. -1.
         22    1    1    2    0    0 -0.25369347876E+03  0.27200468385E+03 -0.15509769194E+04  0.15949533955E+04  0.00000000000E+00 0. -1.
<mgrwt>
<rscale>  0 0.81723309E+03</rscale>
<asrwt>0</asrwt>
<pdfrwt beam="1">  1        2 0.35865959E+00 0.81723309E+03</pdfrwt>
<pdfrwt beam="2">  1       -2 0.11018507E-01 0.81723309E+03</pdfrwt>
<totfact> 0.26169383E+02</totfact>
</mgrwt>
</event>
<event>
 6    1  0.3881785E-006  0.2866860E+04  0.7818608E-02  0.8282806E-01
         -1   -1    0    0    0  501 -0.00000000000E+00  0.00000000000E+00  0.20036173375E+04  0.20036173375E+04  0.00000000000E+00 0.  1.
          1   -1    0    0  501    0  0.00000000000E+00 -0.00000000000E+00 -0.10255062386E+04  0.10255062386E+04  0.00000000000E+00 0. -1.
         23    2    1    2    0    0  0.11005441595E+04 -0.72481350760E+03 -0.10349371729E+03  0.13243006978E+04  0.80680362717E+02 0.  0.
         11    1    3    3    0    0  0.57255050288E+03 -0.40000459797E+03 -0.19286100939E+02  0.69870573952E+03  0.00000000000E+00 0. -1.
        -11    1    3    3    0    0  0.52799365664E+03 -0.32480890963E+03 -0.84207616346E+02  0.62559495832E+03  0.00000000000E+00 0.  1.
         22    1    1    2    0    0 -0.11005441595E+04  0.72481350760E+03  0.10816048162E+04  0.17048228783E+04  0.00000000000E+00 0.  1.
<mgrwt>
<rscale>  0 0.28668604E+04</rscale>
<asrwt>0</asrwt>
<pdfrwt beam="1">  1        1 0.15777019E+00 0.28668604E+04</pdfrwt>
<pdfrwt beam="2">  1       -1 0.30824882E+00 0.28668604E+04</pdfrwt>
<totfact> 0.36318421E-01</totfact>
</mgrwt>
</event>
<event>
 6    1  0.3017327E-006  0.1084041E+04  0.7818608E-02  0.9220888E-01
          2   -1    0    0  501    0  0.00000000000E+00  0.00000000000E+00  0.10351757396E+04  0.10351757396E+04  0.00000000000E+00 0. -1.
         -2   -1    0    0    0  501 -0.00000000000E+00 -0.00000000000E+00 -0.28380310302E+03  0.28380310302E+03  0.00000000000E+00 0.  1.
         23    2    1    2    0    0  0.16372649677E+03 -0.49264161993E+03  0.55248113191E+03  0.76304722627E+03  0.86622958709E+02 0.  0.
         13    1    3    3    0    0  0.53654704282E+02 -0.15012875262E+03  0.23034841097E+03  0.28013900137E+03  0.00000000000E+00 0.  1.
        -13    1    3    3    0    0  0.11007179249E+03 -0.34251286731E+03  0.32213272094E+03  0.48290822490E+03  0.00000000000E+00 0. -1.
         22    1    1    2    0    0 -0.16372649677E+03  0.49264161993E+03  0.19889150468E+03  0.55593161635E+03  0.00000000000E+00 0.  1.
<mgrwt>
<rscale>  0 0.10840408E+04</rscale>
<asrwt>0</asrwt>
<pdfrwt beam="1">  1        2 0.15925780E+00 0.10840408E+04</pdfrwt>
<pdfrwt beam="2">  1       -2 0.43662016E-01 0.10840408E+04</pdfrwt>
<totfact> 0.11817087E+02</totfact>
</mgrwt>
</event>
<event>
 6    1  0.3017327E-006  0.3154401E+04  0.7818608E-02  0.8200965E-01
         -2   -1    0    0    0  501 -0.00000000000E+00  0.00000000000E+00  0.85582200276E+03  0.85582200276E+03  0.00000000000E+00 0.  1.
          2   -1    0    0  501    0  0.00000000000E+00 -0.00000000000E+00 -0.29066334707E+04  0.29066334707E+04  0.00000000000E+00 0. -1.
         23    2    1    2    0    0  0.15039011525E+03  0.82834181897E+03 -0.26151935369E+04  0.27489001096E+04  0.91908764926E+02 0.  0.
         11    1    3    3    0    0  0.79377315520E+02  0.32199904500E+03 -0.90194353866E+03  0.96098194059E+03  0.00000000000E+00 0. -1.
        -11    1    3    3    0    0  0.71012799725E+02  0.50634277397E+03 -0.17132499983E+04  0.17879181690E+04  0.00000000000E+00 0.  1.
         22    1    1    2    0    0 -0.15039011525E+03 -0.82834181897E+03  0.56438206900E+03  0.10135553639E+04  0.00000000000E+00 0.  1.
<mgrwt>
<rscale>  0 0.31544007E+04</rscale>
<asrwt>0</asrwt>
<pdfrwt beam="1">  1        2 0.44717438E+00 0.31544007E+04</pdfrwt>
<pdfrwt beam="2">  1       -2 0.13166492E+00 0.31544007E+04</pdfrwt>
<totfact> 0.70694197E-01</totfact>
</mgrwt>
</event>
<event>
 6    1  0.3017327E-006  0.2443693E+04  0.7818608E-02  0.8423324E-01
          2   -1    0    0  501    0  0.00000000000E+00  0.00000000000E+00  0.15007292928E+04  0.15007292928E+04  0.00000000000E+00 0. -1.
         -2   -1    0    0    0  501 -0.00000000000E+00 -0.00000000000E+00 -0.99478869551E+03  0.99478869551E+03  0.00000000000E+00 0.  1.
         23    2    1    2    0    0  0.24785600052E+03 -0.68536438704E+03  0.12526845390E+04  0.14520701198E+04  0.90178370920E+02 0.  0.
         13    1    3    3    0    0  0.20663846544E+03 -0.51021739507E+03  0.87568482574E+03  0.10343331957E+04  0.00000000000E+00 0.  1.
        -13    1    3    3    0    0  0.41217535071E+02 -0.17514699197E+03  0.37699971322E+03  0.41773692410E+03  0.00000000000E+00 0. -1.
         22    1    1    2    0    0 -0.24785600052E+03  0.68536438704E+03 -0.74674394165E+03  0.10434478686E+04  0.00000000000E+00 0.  1.
<mgrwt>
<rscale>  0 0.24436927E+04</rscale>
<asrwt>0</asrwt>
<pdfrwt beam="1">  1        2 0.23088143E+00 0.24436927E+04</pdfrwt>
<pdfrwt beam="2">  1       -2 0.15304441E+00 0.24436927E+04</pdfrwt>
<totfact> 0.32277906E+00</totfact>
</mgrwt>
</event>
<event>
 6    1  0.3017327E-006  0.3050407E+03  0.7818608E-02  0.1082748E+00
         -2   -1    0    0    0  501 -0.00000000000E+00  0.00000000000E+00  0.18039114835E+02  0.18039114835E+02  0.00000000000E+00 0.  1.
          2   -1    0    0  501    0  0.00000000000E+00 -0.00000000000E+00 -0.12895568435E+04  0.12895568435E+04  0.00000000000E+00 0. -1.
         23    2    1    2    0    0 -0.86635119367E+02 -0.96091513461E+02 -0.90589967371E+03  0.91976121907E+03  0.92559485835E+02 0.  0.
         13    1    3    3    0    0 -0.23771584029E+02 -0.30109770754E+02 -0.58261749348E+03  0.58387912294E+03  0.00000000000E+00 0. -1.
        -13    1    3    3    0    0 -0.62863535339E+02 -0.65981742707E+02 -0.32328218023E+03  0.33588209613E+03  0.00000000000E+00 0.  1.
         22    1    1    2    0    0  0.86635119367E+02  0.96091513461E+02 -0.36561805491E+03  0.38783473922E+03  0.00000000000E+00 0.  1.
<mgrwt>
<rscale>  0 0.30504074E+03</rscale>
<asrwt>0</asrwt>
<pdfrwt beam="1">  1        2 0.19839334E+00 0.30504074E+03</pdfrwt>
<pdfrwt beam="2">  1       -2 0.27752487E-02 0.30504074E+03</pdfrwt>
<totfact> 0.84767400E+03</totfact>
</mgrwt>
</event>
<event>
 6    1  0.3017327E-006  0.2756126E+04  0.7818608E-02  0.8317020E-01
          2   -1    0    0  501    0  0.00000000000E+00  0.00000000000E+00  0.20677314372E+04  0.20677314372E+04  0.00000000000E+00 0. -1.
         -2   -1    0    0    0  501 -0.00000000000E+00 -0.00000000000E+00 -0.91842580532E+03  0.91842580532E+03  0.00000000000E+00 0.  1.
         23    2    1    2    0    0 -0.12852436828E+03 -0.10956685851E+04 -0.31688732543E+03  0.11512921386E+04  0.89709808139E+02 0.  0.
         13    1    3    3    0    0  0.73317987081E+01 -0.26583587445E+03 -0.77689502848E+02  0.27705256950E+03  0.00000000000E+00 0. -1.
        -13    1    3    3    0    0 -0.13585616699E+03 -0.82983271066E+03 -0.23919782259E+03  0.87423956906E+03  0.00000000000E+00 0.  1.
         22    1    1    2    0    0  0.12852436828E+03  0.10956685851E+04  0.14661929573E+04  0.18348651040E+04  0.00000000000E+00 0. -1.
<mgrwt>
<rscale>  0 0.27561262E+04</rscale>
<asrwt>0</asrwt>
<pdfrwt beam="1">  1        2 0.31811253E+00 0.27561262E+04</pdfrwt>
<pdfrwt beam="2">  1       -2 0.14129628E+00 0.27561262E+04</pdfrwt>
<totfact> 0.18755635E+00</totfact>
</mgrwt>
</event>
<event>
 6    1  0.3017327E-006  0.2320954E+04  0.7818608E-02  0.8469705E-01
         -2   -1    0    0    0  501 -0.00000000000E+00  0.00000000000E+00  0.15926567860E+04  0.15926567860E+04  0.00000000000E+00 0.  1.
          2   -1    0    0  501    0  0.00000000000E+00 -0.00000000000E+00 -0.84557222451E+03  0.84557222451E+03  0.00000000000E+00 0. -1.
         23    2    1    2    0    0 -0.30878725119E+03  0.18734398503E+02  0.15472207984E+04  0.15803720633E+04  0.89348280252E+02 0.  0.
         11    1    3    3    0    0 -0.65310059260E+02  0.40350672648E+02  0.32441159391E+03  0.33337135883E+03  0.00000000000E+00 0. -1.
        -11    1    3    3    0    0 -0.24347719193E+03 -0.21616274144E+02  0.12228092045E+04  0.12470007044E+04  0.00000000000E+00 0.  1.
         22    1    1    2    0    0  0.30878725119E+03 -0.18734398503E+02 -0.80013623694E+03  0.85785694720E+03  0.00000000000E+00 0. -1.
<mgrwt>
<rscale>  0 0.23209535E+04</rscale>
<asrwt>0</asrwt>
<pdfrwt beam="1">  1        2 0.13008803E+00 0.23209535E+04</pdfrwt>
<pdfrwt beam="2">  1       -2 0.24502412E+00 0.23209535E+04</pdfrwt>
<totfact> 0.19947869E+00</totfact>
</mgrwt>
</event>
<event>
 6    1  0.3017327E-006  0.1198312E+04  0.7818608E-02  0.9114335E-01
         -2   -1    0    0    0  501 -0.00000000000E+00  0.00000000000E+00  0.75943849963E+03  0.75943849963E+03  0.00000000000E+00 0.  1.
          2   -1    0    0  501    0  0.00000000000E+00 -0.00000000000E+00 -0.47270214519E+03  0.47270214519E+03  0.00000000000E+00 0. -1.
         23    2    1    2    0    0 -0.23968475668E+03  0.51397124854E+03  0.33110197144E+03  0.66329661094E+03  0.93373720470E+02 0.  0.
         11    1    3    3    0    0 -0.13253487738E+03  0.25767876799E+03  0.11666590694E+03  0.31236961286E+03  0.00000000000E+00 0. -1.
        -11    1    3    3    0    0 -0.10714987930E+03  0.25629248055E+03  0.21443606450E+03  0.35092699807E+03  0.00000000000E+00 0.  1.
         22    1    1    2    0    0  0.23968475668E+03 -0.51397124854E+03 -0.44365617010E+02  0.56884403388E+03  0.00000000000E+00 0. -1.
<mgrwt>
<rscale>  0 0.11983125E+04</rscale>
<asrwt>0</asrwt>
<pdfrwt beam="1">  1        2 0.72723407E-01 0.11983125E+04</pdfrwt>
<pdfrwt beam="2">  1       -2 0.11683669E+00 0.11983125E+04</pdfrwt>
<totfact> 0.36779399E+01</totfact>
</mgrwt>
</event>
<event>
 6    1  0.3017327E-006  0.2804804E+04  0.7818608E-02  0.8301778E-01
         -2   -1    0    0    0  501 -0.00000000000E+00  0.00000000000E+00  0.52032249147E+03  0.52032249147E+03  0.00000000000E+00 0.  1.
          2   -1    0    0  501    0  0.00000000000E+00 -0.00000000000E+00 -0.37798313352E+04  0.37798313352E+04  0.00000000000E+00 0. -1.
         23    2    1    2    0    0 -0.13068423137E+04  0.26407689255E+03 -0.22908678358E+04  0.26521735961E+04  0.91519969272E+02 0.  0.
         13    1    3    3    0    0 -0.82950718171E+03  0.15457522205E+03 -0.13644323819E+04  0.16042603867E+04  0.00000000000E+00 0. -1.
        -13    1    3    3    0    0 -0.47733513197E+03  0.10950167050E+03 -0.92643545397E+03  0.10479132094E+04  0.00000000000E+00 0.  1.
         22    1    1    2    0    0  0.13068423137E+04 -0.26407689255E+03 -0.96864100788E+03  0.16479802305E+04  0.00000000000E+00 0. -1.
<mgrwt>
<rscale>  0 0.28048039E+04</rscale>
<asrwt>0</asrwt>
<pdfrwt beam="1">  1        2 0.58151252E+00 0.28048039E+04</pdfrwt>
<pdfrwt beam="2">  1       -2 0.80049613E-01 0.28048039E+04</pdfrwt>
<totfact> 0.61095889E-01</totfact>
</mgrwt>
</event>
<event>
 6    1  0.3017327E-006  0.2368551E+04  0.7818608E-02  0.8451372E-01
         -2   -1    0    0    0  501 -0.00000000000E+00  0.00000000000E+00  0.43789698423E+03  0.43789698423E+03  0.00000000000E+00 0.  1.
          2   -1    0    0  501    0  0.00000000000E+00 -0.00000000000E+00 -0.32028262187E+04  0.32028262187E+04  0.00000000000E+00 0. -1.
         23    2    1    2    0    0 -0.26648177645E+03  0.49486967049E+03  0.21486786043E+03  0.60838099686E+03  0.89725759626E+02 0.  0.
         13    1    3    3    0    0 -0.14069463231E+03  0.32430692729E+03  0.16767543031E+03  0.39126079868E+03  0.00000000000E+00 0.  1.
        -13    1    3    3    0    0 -0.12578714414E+03  0.17056274320E+03  0.47192430119E+02  0.21712019818E+03  0.00000000000E+00 0. -1.
         22    1    1    2    0    0  0.26648177645E+03 -0.49486967049E+03 -0.29797970949E+04  0.30323422060E+04  0.00000000000E+00 0. -1.
<mgrwt>
<rscale>  0 0.23685506E+04</rscale>
<asrwt>0</asrwt>
<pdfrwt beam="1">  1        2 0.49274250E+00 0.23685506E+04</pdfrwt>
<pdfrwt beam="2">  1       -2 0.67368766E-01 0.23685506E+04</pdfrwt>
<totfact> 0.23549192E+00</totfact>
</mgrwt>
</event>
<event>
 6    1  0.3017327E-006  0.1990563E+04  0.7818608E-02  0.8611046E-01
          2   -1    0    0  501    0  0.00000000000E+00  0.00000000000E+00  0.13806206348E+04  0.13806206348E+04  0.00000000000E+00 0. -1.
         -2   -1    0    0    0  501 -0.00000000000E+00 -0.00000000000E+00 -0.71749262058E+03  0.71749262058E+03  0.00000000000E+00 0.  1.
         23    2    1    2    0    0 -0.78546347029E+03  0.55611895612E+03  0.59085223771E+03  0.11329993013E+04  0.91432452972E+02 0.  0.
         13    1    3    3    0    0 -0.11838294675E+03  0.67236921577E+02  0.11898847272E+03  0.18081366747E+03  0.00000000000E+00 0. -1.
        -13    1    3    3    0    0 -0.66708052354E+03  0.48888203454E+03  0.47186376499E+03  0.95218563384E+03  0.00000000000E+00 0.  1.
         22    1    1    2    0    0  0.78546347029E+03 -0.55611895612E+03  0.72275776529E+02  0.96511395409E+03  0.00000000000E+00 0.  1.
<mgrwt>
<rscale>  0 0.19905629E+04</rscale>
<asrwt>0</asrwt>
<pdfrwt beam="1">  1        2 0.21240317E+00 0.19905629E+04</pdfrwt>
<pdfrwt beam="2">  1       -2 0.11038348E+00 0.19905629E+04</pdfrwt>
<totfact> 0.89944049E+00</totfact>
</mgrwt>
</event>
<event>
 6    1  0.3017327E-006  0.1713035E+04  0.7818608E-02  0.8753965E-01
          2   -1    0    0  501    0  0.00000000000E+00  0.00000000000E+00  0.10490414404E+04  0.10490414404E+04  0.00000000000E+00 0. -1.
         -2   -1    0    0    0  501 -0.00000000000E+00 -0.00000000000E+00 -0.69932636077E+03  0.69932636077E+03  0.00000000000E+00 0.  1.
         23    2    1    2    0    0  0.84214753391E+03 -0.47553763532E+02  0.31200379769E+03  0.90403613046E+03  0.91984379663E+02 0.  0.
         13    1    3    3    0    0  0.18558107808E+03  0.27443537027E+02  0.73256352018E+02  0.20139507784E+03  0.00000000000E+00 0. -1.
        -13    1    3    3    0    0  0.65656645583E+03 -0.74997300560E+02  0.23874744567E+03  0.70264105262E+03  0.00000000000E+00 0.  1.
         22    1    1    2    0    0 -0.84214753391E+03  0.47553763532E+02  0.37711281895E+02  0.84433167066E+03  0.00000000000E+00 0. -1.
<mgrwt>
<rscale>  0 0.17130351E+04</rscale>
<asrwt>0</asrwt>
<pdfrwt beam="1">  1        2 0.16139099E+00 0.17130351E+04</pdfrwt>
<pdfrwt beam="2">  1       -2 0.10758867E+00 0.17130351E+04</pdfrwt>
<totfact> 0.15448804E+01</totfact>
</mgrwt>
</event>
<event>
 6    1  0.3017327E-006  0.1499294E+04  0.7818608E-02  0.8884923E-01
         -1   -1    0    0    0  501 -0.00000000000E+00  0.00000000000E+00  0.94295754710E+03  0.94295754710E+03  0.00000000000E+00 0.  1.
          1   -1    0    0  501    0  0.00000000000E+00 -0.00000000000E+00 -0.59596558992E+03  0.59596558992E+03  0.00000000000E+00 0. -1.
         23    2    1    2    0    0  0.12163061904E+03  0.30876935120E+03  0.86087574887E+03  0.92719683295E+03  0.91947769429E+02 0.  0.
         13    1    3    3    0    0  0.72519848099E+02  0.71619798911E+02  0.23883393117E+03  0.25967319970E+03  0.00000000000E+00 0. -1.
        -13    1    3    3    0    0  0.49110770938E+02  0.23714955229E+03  0.62204181771E+03  0.66752363325E+03  0.00000000000E+00 0.  1.
         22    1    1    2    0    0 -0.12163061904E+03 -0.30876935120E+03 -0.51388379169E+03  0.61172630407E+03  0.00000000000E+00 0. -1.
<mgrwt>
<rscale>  0 0.14992935E+04</rscale>
<asrwt>0</asrwt>
<pdfrwt beam="1">  1        1 0.91687014E-01 0.14992935E+04</pdfrwt>
<pdfrwt beam="2">  1       -1 0.14507039E+00 0.14992935E+04</pdfrwt>
<totfact> 0.12768368E+01</totfact>
</mgrwt>
</event>
<event>
 6    1  0.3017327E-006  0.3804883E+04  0.7818608E-02  0.8045108E-01
         -2   -1    0    0    0  501 -0.00000000000E+00  0.00000000000E+00  0.17485653863E+04  0.17485653863E+04  0.00000000000E+00 0.  1.
          2   -1    0    0  501    0  0.00000000000E+00 -0.00000000000E+00 -0.20698588669E+04  0.20698588669E+04  0.00000000000E+00 0. -1.
         23    2    1    2    0    0  0.92633795795E+03  0.12424558739E+04 -0.12661899571E+04  0.20033132477E+04  0.90710253631E+02 0.  0.
         11    1    3    3    0    0  0.52950417576E+03  0.67046454312E+03 -0.64801610089E+03  0.10722976465E+04  0.00000000000E+00 0.  1.
        -11    1    3    3    0    0  0.39683378219E+03  0.57199133079E+03 -0.61817385620E+03  0.93101560120E+03  0.00000000000E+00 0. -1.
         22    1    1    2    0    0 -0.92633795795E+03 -0.12424558739E+04  0.94489647655E+03  0.18151110055E+04  0.00000000000E+00 0. -1.
<mgrwt>
<rscale>  0 0.38048830E+04</rscale>
<asrwt>0</asrwt>
<pdfrwt beam="1">  1        2 0.31843983E+00 0.38048830E+04</pdfrwt>
<pdfrwt beam="2">  1       -2 0.26901006E+00 0.38048830E+04</pdfrwt>
<totfact> 0.24062283E-01</totfact>
</mgrwt>
</event>
<event>
 6    1  0.3017327E-006  0.1343164E+04  0.7818608E-02  0.8996019E-01
         -2   -1    0    0    0  501 -0.00000000000E+00  0.00000000000E+00  0.20173664236E+03  0.20173664236E+03  0.00000000000E+00 0.  1.
          2   -1    0    0  501    0  0.00000000000E+00 -0.00000000000E+00 -0.22356974179E+04  0.22356974179E+04  0.00000000000E+00 0. -1.
         23    2    1    2    0    0 -0.64405397721E+03 -0.12824008574E+03 -0.79362641546E+03  0.10339810436E+04  0.89570453202E+02 0.  0.
         13    1    3    3    0    0 -0.13805949247E+03 -0.59946887308E+01 -0.21581279968E+03  0.25626455912E+03  0.00000000000E+00 0.  1.
        -13    1    3    3    0    0 -0.50599448473E+03 -0.12224539700E+03 -0.57781361578E+03  0.77771648449E+03  0.00000000000E+00 0. -1.
         22    1    1    2    0    0  0.64405397721E+03  0.12824008574E+03 -0.12403343601E+04  0.14034530166E+04  0.00000000000E+00 0. -1.
<mgrwt>
<rscale>  0 0.13431636E+04</rscale>
<asrwt>0</asrwt>
<pdfrwt beam="1">  1        2 0.34395345E+00 0.13431636E+04</pdfrwt>
<pdfrwt beam="2">  1       -2 0.31036407E-01 0.13431636E+04</pdfrwt>
<totfact> 0.46455662E+01</totfact>
</mgrwt>
</event>
<event>
 6    1  0.3017327E-006  0.5408928E+03  0.7818608E-02  0.1003624E+00
          4   -1    0    0  501    0  0.00000000000E+00  0.00000000000E+00  0.54471363515E+02  0.54471363515E+02  0.00000000000E+00 0. -1.
         -4   -1    0    0    0  501 -0.00000000000E+00 -0.00000000000E+00 -0.13427470753E+04  0.13427470753E+04  0.00000000000E+00 0.  1.
         23    2    1    2    0    0 -0.12153307439E+03  0.52751321381E+02 -0.12488262363E+04  0.12589822236E+04  0.88973483698E+02 0.  0.
         13    1    3    3    0    0 -0.10108358122E+02 -0.22371449275E+02 -0.15500882293E+03  0.15694073987E+03  0.00000000000E+00 0.  1.
        -13    1    3    3    0    0 -0.11142471626E+03  0.75122770656E+02 -0.10938174134E+04  0.11020414838E+04  0.00000000000E+00 0. -1.
         22    1    1    2    0    0  0.12153307439E+03 -0.52751321381E+02 -0.39449475470E+02  0.13823621520E+03  0.00000000000E+00 0. -1.
<mgrwt>
<rscale>  0 0.54089283E+03</rscale>
<asrwt>0</asrwt>
<pdfrwt beam="1">  1        4 0.83802099E-02 0.54089283E+03</pdfrwt>
<pdfrwt beam="2">  1       -4 0.20657647E+00 0.54089283E+03</pdfrwt>
<totfact> 0.25582821E+01</totfact>
</mgrwt>
</event>
<event>
 6    1  0.3017327E-006  0.2476317E+04  0.7818608E-02  0.8411471E-01
          2   -1    0    0  501    0  0.00000000000E+00  0.00000000000E+00  0.14525020972E+04  0.14525020972E+04  0.00000000000E+00 0. -1.
         -2   -1    0    0    0  501 -0.00000000000E+00 -0.00000000000E+00 -0.10554455233E+04  0.10554455233E+04  0.00000000000E+00 0.  1.
         23    2    1    2    0    0  0.97210228643E+03  0.56680538511E+03 -0.31981917812E+03  0.11737204870E+04  0.95311463074E+02 0.  0.
         13    1    3    3    0    0  0.67939231697E+03  0.34582639595E+03 -0.22639725358E+03  0.79525186760E+03  0.00000000000E+00 0.  1.
        -13    1    3    3    0    0  0.29270996946E+03  0.22097898916E+03 -0.93421924542E+02  0.37846861938E+03  0.00000000000E+00 0. -1.
         22    1    1    2    0    0 -0.97210228643E+03 -0.56680538511E+03  0.71687575200E+03  0.13342271335E+04  0.00000000000E+00 0. -1.
<mgrwt>
<rscale>  0 0.24763173E+04</rscale>
<asrwt>0</asrwt>
<pdfrwt beam="1">  1        2 0.22346186E+00 0.24763173E+04</pdfrwt>
<pdfrwt beam="2">  1       -2 0.16237623E+00 0.24763173E+04</pdfrwt>
<totfact> 0.29204705E+00</totfact>
</mgrwt>
</event>
<event>
 6    1  0.3017327E-006  0.9184993E+03  0.7818608E-02  0.9402747E-01
          1   -1    0    0  501    0  0.00000000000E+00  0.00000000000E+00  0.10477480883E+04  0.10477480883E+04  0.00000000000E+00 0. -1.
         -1   -1    0    0    0  501 -0.00000000000E+00 -0.00000000000E+00 -0.20129863102E+03  0.20129863102E+03  0.00000000000E+00 0.  1.
         23    2    1    2    0    0  0.13985925184E+03  0.30234141403E+03  0.84828810460E+03  0.91591863346E+03  0.91341632048E+02 0.  0.
         13    1    3    3    0    0  0.92591791578E+02  0.21212449521E+03  0.46625066940E+03  0.52053792182E+03  0.00000000000E+00 0.  1.
        -13    1    3    3    0    0  0.47267460259E+02  0.90216918818E+02  0.38203743520E+03  0.39538071164E+03  0.00000000000E+00 0. -1.
         22    1    1    2    0    0 -0.13985925184E+03 -0.30234141403E+03 -0.18386473279E+01  0.33312808586E+03  0.00000000000E+00 0.  1.
<mgrwt>
<rscale>  0 0.91849933E+03</rscale>
<asrwt>0</asrwt>
<pdfrwt beam="1">  1        1 0.16119201E+00 0.91849933E+03</pdfrwt>
<pdfrwt beam="2">  1       -1 0.30969021E-01 0.91849933E+03</pdfrwt>
<totfact> 0.13478558E+02</totfact>
</mgrwt>
</event>
<event>
 6    1  0.3017327E-006  0.5948198E+04  0.7818608E-02  0.7696858E-01
          2   -1    0    0  501    0  0.00000000000E+00  0.00000000000E+00  0.37454277316E+04  0.37454277316E+04  0.00000000000E+00 0. -1.
         -2   -1    0    0    0  501 -0.00000000000E+00 -0.00000000000E+00 -0.23616167500E+04  0.23616167500E+04  0.00000000000E+00 0.  1.
         23    2    1    2    0    0 -0.63561376364E+03 -0.19303525721E+04 -0.15363682603E+04  0.25492765417E+04  0.90097421586E+02 0.  0.
         11    1    3    3    0    0 -0.13549646166E+03 -0.48620941339E+03 -0.34290170198E+03  0.61019706818E+03  0.00000000000E+00 0.  1.
        -11    1    3    3    0    0 -0.50011730199E+03 -0.14441431587E+04 -0.11934665584E+04  0.19390794735E+04  0.00000000000E+00 0. -1.
         22    1    1    2    0    0  0.63561376364E+03  0.19303525721E+04  0.29201792419E+04  0.35577679399E+04  0.00000000000E+00 0. -1.
<mgrwt>
<rscale>  0 0.59481980E+04</rscale>
<asrwt>0</asrwt>
<pdfrwt beam="1">  1        2 0.57621965E+00 0.59481980E+04</pdfrwt>
<pdfrwt beam="2">  1       -2 0.36332566E+00 0.59481980E+04</pdfrwt>
<totfact> 0.46589736E-03</totfact>
</mgrwt>
</event>
<event>
 6    1  0.3017327E-006  0.1736402E+04  0.7818608E-02  0.8740871E-01
         -2   -1    0    0    0  501 -0.00000000000E+00  0.00000000000E+00  0.60933638189E+03  0.60933638189E+03  0.00000000000E+00 0.  1.
          2   -1    0    0  501    0  0.00000000000E+00 -0.00000000000E+00 -0.12370394405E+04  0.12370394405E+04  0.00000000000E+00 0. -1.
         23    2    1    2    0    0 -0.26776070453E+03 -0.31425301060E+03  0.49450779042E+03  0.65063005542E+03  0.91273022649E+02 0.  0.
         11    1    3    3    0    0 -0.16769694863E+03 -0.12645084049E+03  0.24597193025E+03  0.32344129624E+03  0.00000000000E+00 0.  1.
        -11    1    3    3    0    0 -0.10006375590E+03 -0.18780217012E+03  0.24853586016E+03  0.32718875918E+03  0.00000000000E+00 0. -1.
         22    1    1    2    0    0  0.26776070453E+03  0.31425301060E+03 -0.11222108490E+04  0.11957457670E+04  0.00000000000E+00 0. -1.
<mgrwt>
<rscale>  0 0.17364022E+04</rscale>
<asrwt>0</asrwt>
<pdfrwt beam="1">  1        2 0.19031376E+00 0.17364022E+04</pdfrwt>
<pdfrwt beam="2">  1       -2 0.93744060E-01 0.17364022E+04</pdfrwt>
<totfact> 0.16425450E+01</totfact>
</mgrwt>
</event>
<event>
 6    1  0.3017327E-006  0.2125804E+04  0.7818608E-02  0.8549961E-01
          2   -1    0    0  501    0  0.00000000000E+00  0.00000000000E+00  0.13847164624E+04  0.13847164624E+04  0.00000000000E+00 0. -1.
         -2   -1    0    0    0  501 -0.00000000000E+00 -0.00000000000E+00 -0.81587838487E+03  0.81587838487E+03  0.00000000000E+00 0.  1.
         23    2    1    2    0    0 -0.78921350847E+03  0.63086968350E+03 -0.50084090085E+02  0.10157238969E+04  0.91280332406E+02 0.  0.
         11    1    3    3    0    0 -0.17137773517E+03  0.10525262080E+03  0.16704289374E+02  0.20181049423E+03  0.00000000000E+00 0. -1.
        -11    1    3    3    0    0 -0.61783577330E+03  0.52561706270E+03 -0.66788379459E+02  0.81391340264E+03  0.00000000000E+00 0.  1.
         22    1    1    2    0    0  0.78921350847E+03 -0.63086968350E+03  0.61892216759E+03  0.11848709504E+04  0.00000000000E+00 0. -1.
<mgrwt>
<rscale>  0 0.21258036E+04</rscale>
<asrwt>0</asrwt>
<pdfrwt beam="1">  1        2 0.21303330E+00 0.21258036E+04</pdfrwt>
<pdfrwt beam="2">  1       -2 0.12551975E+00 0.21258036E+04</pdfrwt>
<totfact> 0.64444007E+00</totfact>
</mgrwt>
</event>
<event>
 6    1  0.3017327E-006  0.2182722E+04  0.7818608E-02  0.8525654E-01
         -3   -1    0    0    0  501 -0.00000000000E+00  0.00000000000E+00  0.52855949551E+03  0.52855949551E+03  0.00000000000E+00 0.  1.
          3   -1    0    0  501    0  0.00000000000E+00 -0.00000000000E+00 -0.22534235305E+04  0.22534235305E+04  0.00000000000E+00 0. -1.
         23    2    1    2    0    0 -0.25073471402E+01 -0.50448109799E+03  0.36719077519E+03  0.62996053686E+03  0.86681875868E+02 0.  0.
         13    1    3    3    0    0  0.35712972465E+02 -0.16185445756E+03  0.14122417415E+03  0.21775341374E+03  0.00000000000E+00 0. -1.
        -13    1    3    3    0    0 -0.38220319605E+02 -0.34262664044E+03  0.22596660104E+03  0.41220712312E+03  0.00000000000E+00 0.  1.
         22    1    1    2    0    0  0.25073471402E+01  0.50448109799E+03 -0.20920548102E+04  0.21520224891E+04  0.00000000000E+00 0. -1.
<mgrwt>
<rscale>  0 0.21827216E+04</rscale>
<asrwt>0</asrwt>
<pdfrwt beam="1">  1        3 0.34668054E+00 0.21827216E+04</pdfrwt>
<pdfrwt beam="2">  1       -3 0.81316846E-01 0.21827216E+04</pdfrwt>
<totfact> 0.72118266E-02</totfact>
</mgrwt>
</event>
<event>
 6    1  0.3017327E-006  0.2312646E+04  0.7818608E-02  0.8472952E-01
         -2   -1    0    0    0  501 -0.00000000000E+00  0.00000000000E+00  0.67914351161E+03  0.67914351161E+03  0.00000000000E+00 0. -1.
          2   -1    0    0  501    0  0.00000000000E+00 -0.00000000000E+00 -0.19687780212E+04  0.19687780212E+04  0.00000000000E+00 0.  1.
         23    2    1    2    0    0 -0.71336037086E+03 -0.82808312913E+03 -0.10717199909E+04  0.15334299784E+04  0.90659098266E+02 0.  0.
         11    1    3    3    0    0 -0.40235116225E+03 -0.50553070954E+03 -0.58088466660E+03  0.86883528470E+03  0.00000000000E+00 0. -1.
        -11    1    3    3    0    0 -0.31100920860E+03 -0.32255241959E+03 -0.49083532433E+03  0.66459469365E+03  0.00000000000E+00 0.  1.
         22    1    1    2    0    0  0.71336037086E+03  0.82808312913E+03 -0.21791451862E+03  0.11144915544E+04  0.00000000000E+00 0. -1.
<mgrwt>
<rscale>  0 0.23126459E+04</rscale>
<asrwt>0</asrwt>
<pdfrwt beam="1">  1        2 0.30288892E+00 0.23126459E+04</pdfrwt>
<pdfrwt beam="2">  1       -2 0.10448362E+00 0.23126459E+04</pdfrwt>
<totfact> 0.46844608E+00</totfact>
</mgrwt>
</event>
<event>
 6    1  0.3017327E-006  0.4151605E+04  0.7818608E-02  0.7974642E-01
          2   -1    0    0  501    0  0.00000000000E+00  0.00000000000E+00  0.18416945977E+04  0.18416945977E+04  0.00000000000E+00 0. -1.
         -2   -1    0    0    0  501 -0.00000000000E+00 -0.00000000000E+00 -0.23396694536E+04  0.23396694536E+04  0.00000000000E+00 0.  1.
         23    2    1    2    0    0 -0.64303240073E+03 -0.12605190978E+03 -0.22319580410E+04  0.23276981055E+04  0.84628728240E+02 0.  0.
         11    1    3    3    0    0 -0.53414376034E+03 -0.75046383288E+02 -0.18742135239E+04  0.19502866070E+04  0.00000000000E+00 0.  1.
        -11    1    3    3    0    0 -0.10888864039E+03 -0.51005526489E+02 -0.35774451709E+03  0.37741149856E+03  0.00000000000E+00 0. -1.
         22    1    1    2    0    0  0.64303240073E+03  0.12605190978E+03  0.17339831850E+04  0.18536659457E+04  0.00000000000E+00 0. -1.
<mgrwt>
<rscale>  0 0.41516053E+04</rscale>
<asrwt>0</asrwt>
<pdfrwt beam="1">  1        2 0.28333763E+00 0.41516053E+04</pdfrwt>
<pdfrwt beam="2">  1       -2 0.35994915E+00 0.41516053E+04</pdfrwt>
<totfact> 0.85778105E-02</totfact>
</mgrwt>
</event>
<event>
 6    1  0.3017327E-006  0.1636457E+04  0.7818608E-02  0.8798459E-01
         -2   -1    0    0    0  501 -0.00000000000E+00  0.00000000000E+00  0.21227549565E+03  0.21227549565E+03  0.00000000000E+00 0.  1.
          2   -1    0    0  501    0  0.00000000000E+00 -0.00000000000E+00 -0.31539122544E+04  0.31539122544E+04  0.00000000000E+00 0. -1.
         23    2    1    2    0    0 -0.18847702630E+03  0.53408443337E+03 -0.26662050283E+03  0.63187216095E+03  0.86059071784E+02 0.  0.
         11    1    3    3    0    0 -0.11157949280E+03  0.34299032802E+03 -0.21354428945E+03  0.41915809892E+03  0.00000000000E+00 0. -1.
        -11    1    3    3    0    0 -0.76897533499E+02  0.19109410535E+03 -0.53076213373E+02  0.21271406203E+03  0.00000000000E+00 0.  1.
         22    1    1    2    0    0  0.18847702630E+03 -0.53408443337E+03 -0.26750162560E+04  0.27343155891E+04  0.00000000000E+00 0. -1.
<mgrwt>
<rscale>  0 0.16364575E+04</rscale>
<asrwt>0</asrwt>
<pdfrwt beam="1">  1        2 0.48521726E+00 0.16364575E+04</pdfrwt>
<pdfrwt beam="2">  1       -2 0.32657769E-01 0.16364575E+04</pdfrwt>
<totfact> 0.11695513E+01</totfact>
</mgrwt>
</event>
<event>
 6    1  0.3017327E-006  0.3240363E+03  0.7818608E-02  0.1073807E+00
         -2   -1    0    0    0  501 -0.00000000000E+00  0.00000000000E+00  0.58399931740E+02  0.58399931740E+02  0.00000000000E+00 0.  1.
          2   -1    0    0  501    0  0.00000000000E+00 -0.00000000000E+00 -0.44948486107E+03  0.44948486107E+03  0.00000000000E+00 0. -1.
         23    2    1    2    0    0  0.11303099456E+03  0.51627375966E+02 -0.82157872705E+02  0.17490233382E+03  0.91648887873E+02 0.  0.
         11    1    3    3    0    0  0.27129056818E+02  0.54374058904E+02 -0.78189564179E+01  0.61267120750E+02  0.00000000000E+00 0.  1.
        -11    1    3    3    0    0  0.85901937741E+02 -0.27466829380E+01 -0.74338916287E+02  0.11363521307E+03  0.00000000000E+00 0. -1.
         22    1    1    2    0    0 -0.11303099456E+03 -0.51627375966E+02 -0.30892705662E+03  0.33298245899E+03  0.00000000000E+00 0. -1.
<mgrwt>
<rscale>  0 0.32403633E+03</rscale>
<asrwt>0</asrwt>
<pdfrwt beam="1">  1        2 0.69151515E-01 0.32403633E+03</pdfrwt>
<pdfrwt beam="2">  1       -2 0.89846052E-02 0.32403633E+03</pdfrwt>
<totfact> 0.55292066E+03</totfact>
</mgrwt>
</event>
<event>
 6    1  0.3017327E-006  0.2695528E+04  0.7818608E-02  0.8336457E-01
          2   -1    0    0  501    0  0.00000000000E+00  0.00000000000E+00  0.13517136082E+04  0.13517136082E+04  0.00000000000E+00 0. -1.
         -2   -1    0    0    0  501 -0.00000000000E+00 -0.00000000000E+00 -0.13438262932E+04  0.13438262932E+04  0.00000000000E+00 0.  1.
         23    2    1    2    0    0 -0.51330760904E+03  0.98676678994E+03  0.76241420809E+03  0.13514773166E+04  0.89566251008E+02 0.  0.
         13    1    3    3    0    0 -0.23198543575E+03  0.44974520638E+03  0.40106637067E+03  0.64571063701E+03  0.00000000000E+00 0. -1.
        -13    1    3    3    0    0 -0.28132217329E+03  0.53702158356E+03  0.36134783742E+03  0.70576667958E+03  0.00000000000E+00 0.  1.
         22    1    1    2    0    0  0.51330760904E+03 -0.98676678994E+03 -0.75452689309E+03  0.13440625847E+04  0.00000000000E+00 0.  1.
<mgrwt>
<rscale>  0 0.26955284E+04</rscale>
<asrwt>0</asrwt>
<pdfrwt beam="1">  1        2 0.20795594E+00 0.26955284E+04</pdfrwt>
<pdfrwt beam="2">  1       -2 0.20674251E+00 0.26955284E+04</pdfrwt>
<totfact> 0.16273176E+00</totfact>
</mgrwt>
</event>
<event>
 6    1  0.3017327E-006  0.2794710E+04  0.7818608E-02  0.8304912E-01
         -2   -1    0    0    0  501 -0.00000000000E+00  0.00000000000E+00  0.66902105123E+03  0.66902105123E+03  0.00000000000E+00 0.  1.
          2   -1    0    0  501    0  0.00000000000E+00 -0.00000000000E+00 -0.29185951258E+04  0.29185951258E+04  0.00000000000E+00 0. -1.
         23    2    1    2    0    0 -0.88184869016E+03  0.19460503712E+03 -0.24923799050E+04  0.26524782706E+04  0.90305882094E+02 0.  0.
         11    1    3    3    0    0 -0.21491637172E+03  0.18376474404E+02 -0.67254673295E+03  0.70629020214E+03  0.00000000000E+00 0. -1.
        -11    1    3    3    0    0 -0.66693231844E+03  0.17622856272E+03 -0.18198331721E+04  0.19461880685E+04  0.00000000000E+00 0.  1.
         22    1    1    2    0    0  0.88184869016E+03 -0.19460503712E+03  0.24280583040E+03  0.93513790646E+03  0.00000000000E+00 0.  1.
<mgrwt>
<rscale>  0 0.27947104E+04</rscale>
<asrwt>0</asrwt>
<pdfrwt beam="1">  1        2 0.44901463E+00 0.27947104E+04</pdfrwt>
<pdfrwt beam="2">  1       -2 0.10292632E+00 0.27947104E+04</pdfrwt>
<totfact> 0.13129255E+00</totfact>
</mgrwt>
</event>
<event>
 6    1  0.3017327E-006  0.7092687E+03  0.7818608E-02  0.9701512E-01
          2   -1    0    0  501    0  0.00000000000E+00  0.00000000000E+00  0.25143345052E+04  0.25143345052E+04  0.00000000000E+00 0. -1.
         -2   -1    0    0    0  501 -0.00000000000E+00 -0.00000000000E+00 -0.50019404882E+02  0.50019404882E+02  0.00000000000E+00 0.  1.
         23    2    1    2    0    0 -0.29475425020E+03 -0.18443762078E+03  0.13555955228E+04  0.14023916020E+04  0.90364151003E+02 0.  0.
         13    1    3    3    0    0 -0.17871049862E+03 -0.14300831467E+03  0.74015329221E+03  0.77473590103E+03  0.00000000000E+00 0.  1.
        -13    1    3    3    0    0 -0.11604375158E+03 -0.41429306110E+02  0.61544223061E+03  0.62765570093E+03  0.00000000000E+00 0. -1.
         22    1    1    2    0    0  0.29475425020E+03  0.18443762078E+03  0.11087195775E+04  0.11619623081E+04  0.00000000000E+00 0.  1.
<mgrwt>
<rscale>  0 0.70926868E+03</rscale>
<asrwt>0</asrwt>
<pdfrwt beam="1">  1        2 0.38682060E+00 0.70926868E+03</pdfrwt>
<pdfrwt beam="2">  1       -2 0.76952950E-02 0.70926868E+03</pdfrwt>
<totfact> 0.37263687E+02</totfact>
</mgrwt>
</event>
<event>
 6    1  0.3017327E-006  0.1325226E+04  0.7818608E-02  0.9009796E-01
         -1   -1    0    0    0  501 -0.00000000000E+00  0.00000000000E+00  0.31945869898E+03  0.31945869898E+03  0.00000000000E+00 0.  1.
          1   -1    0    0  501    0  0.00000000000E+00 -0.00000000000E+00 -0.13743754719E+04  0.13743754719E+04  0.00000000000E+00 0. -1.
         23    2    1    2    0    0 -0.12710079005E+03  0.44169069500E+03  0.73921154773E+02  0.47501492755E+03  0.94496367115E+02 0.  0.
         11    1    3    3    0    0 -0.47090392205E+02  0.23502762213E+03 -0.50556150710E+01  0.23975205410E+03  0.00000000000E+00 0. -1.
        -11    1    3    3    0    0 -0.80010397847E+02  0.20666307287E+03  0.78976769844E+02  0.23526287345E+03  0.00000000000E+00 0.  1.
         22    1    1    2    0    0  0.12710079005E+03 -0.44169069500E+03 -0.11288379277E+04  0.12188192433E+04  0.00000000000E+00 0. -1.
<mgrwt>
<rscale>  0 0.13252263E+04</rscale>
<asrwt>0</asrwt>
<pdfrwt beam="1">  1        1 0.21144238E+00 0.13252263E+04</pdfrwt>
<pdfrwt beam="2">  1       -1 0.49147493E-01 0.13252263E+04</pdfrwt>
<totfact> 0.32569107E+01</totfact>
</mgrwt>
</event>
<event>
 6    1  0.3017327E-006  0.1406599E+04  0.7818608E-02  0.8949055E-01
          2   -1    0    0  501    0  0.00000000000E+00  0.00000000000E+00  0.13326941016E+04  0.13326941016E+04  0.00000000000E+00 0. -1.
         -2   -1    0    0    0  501 -0.00000000000E+00 -0.00000000000E+00 -0.37115078946E+03  0.37115078946E+03  0.00000000000E+00 0.  1.
         23    2    1    2    0    0 -0.11169606951E+03 -0.46544844845E+03  0.11020582068E+04  0.12049834817E+04  0.91294194042E+02 0.  0.
         13    1    3    3    0    0 -0.29657731097E+02 -0.12517318249E+03  0.20456681711E+03  0.24165158657E+03  0.00000000000E+00 0. -1.
        -13    1    3    3    0    0 -0.82038338413E+02 -0.34027526596E+03  0.89749138970E+03  0.96333189513E+03  0.00000000000E+00 0.  1.
         22    1    1    2    0    0  0.11169606951E+03  0.46544844845E+03 -0.14051489468E+03  0.49886140934E+03  0.00000000000E+00 0.  1.
<mgrwt>
<rscale>  0 0.14065994E+04</rscale>
<asrwt>0</asrwt>
<pdfrwt beam="1">  1        2 0.20502986E+00 0.14065994E+04</pdfrwt>
<pdfrwt beam="2">  1       -2 0.57100122E-01 0.14065994E+04</pdfrwt>
<totfact> 0.44247566E+01</totfact>
</mgrwt>
</event>
<event>
 6    1  0.3017327E-006  0.9276058E+03  0.7818608E-02  0.9391716E-01
         -2   -1    0    0    0  501 -0.00000000000E+00  0.00000000000E+00  0.88139993065E+02  0.88139993065E+02  0.00000000000E+00 0.  1.
          2   -1    0    0  501    0  0.00000000000E+00 -0.00000000000E+00 -0.24405847239E+04  0.24405847239E+04  0.00000000000E+00 0. -1.
         23    2    1    2    0    0  0.22556472883E+03  0.25197065287E+03 -0.20346817956E+04  0.20646752155E+04  0.92655703327E+02 0.  0.
         11    1    3    3    0    0  0.80457286175E+02  0.13893977523E+03 -0.75849897180E+03  0.77530531164E+03  0.00000000000E+00 0.  1.
        -11    1    3    3    0    0  0.14510744266E+03  0.11303087764E+03 -0.12761828238E+04  0.12893699039E+04  0.00000000000E+00 0. -1.
         22    1    1    2    0    0 -0.22556472883E+03 -0.25197065287E+03 -0.31776293524E+03  0.46404950147E+03  0.00000000000E+00 0.  1.
<mgrwt>
<rscale>  0 0.92760578E+03</rscale>
<asrwt>0</asrwt>
<pdfrwt beam="1">  1        2 0.37547458E+00 0.92760578E+03</pdfrwt>
<pdfrwt beam="2">  1       -2 0.13559999E-01 0.92760578E+03</pdfrwt>
<totfact> 0.15940091E+02</totfact>
</mgrwt>
</event>
<event>
 6    1  0.3017327E-006  0.2229607E+04  0.7818608E-02  0.8506205E-01
          2   -1    0    0  501    0  0.00000000000E+00  0.00000000000E+00  0.20795034358E+04  0.20795034358E+04  0.00000000000E+00 0. -1.
         -2   -1    0    0    0  501 -0.00000000000E+00 -0.00000000000E+00 -0.59763623078E+03  0.59763623078E+03  0.00000000000E+00 0.  1.
         23    2    1    2    0    0  0.96627722390E+03 -0.34214131788E+03  0.22185630634E+03  0.10528306382E+04  0.92085706225E+02 0.  0.
         13    1    3    3    0    0  0.50044246468E+03 -0.18109344203E+03  0.68232555890E+02  0.53655677881E+03  0.00000000000E+00 0.  1.
        -13    1    3    3    0    0  0.46583475921E+03 -0.16104787585E+03  0.15362375045E+03  0.51627385941E+03  0.00000000000E+00 0. -1.
         22    1    1    2    0    0 -0.96627722390E+03  0.34214131788E+03  0.12600108987E+04  0.16243090283E+04  0.00000000000E+00 0. -1.
<mgrwt>
<rscale>  0 0.22296068E+04</rscale>
<asrwt>0</asrwt>
<pdfrwt beam="1">  1        2 0.31992360E+00 0.22296068E+04</pdfrwt>
<pdfrwt beam="2">  1       -2 0.91944036E-01 0.22296068E+04</pdfrwt>
<totfact> 0.55322079E+00</totfact>
</mgrwt>
</event>
<event>
 6    1  0.3017327E-006  0.7905535E+03  0.7818608E-02  0.9573792E-01
          1   -1    0    0  501    0  0.00000000000E+00  0.00000000000E+00  0.35781913129E+03  0.35781913129E+03  0.00000000000E+00 0. -1.
         -1   -1    0    0    0  501 -0.00000000000E+00 -0.00000000000E+00 -0.43665555704E+03  0.43665555704E+03  0.00000000000E+00 0.  1.
         23    2    1    2    0    0 -0.15509050478E+03 -0.97750196445E+02  0.30584548687E+03  0.36834285488E+03  0.92340843220E+02 0.  0.
         11    1    3    3    0    0 -0.25430236625E+02 -0.21958603120E+02  0.14266559800E+03  0.14656858476E+03  0.00000000000E+00 0.  1.
        -11    1    3    3    0    0 -0.12966026816E+03 -0.75791593325E+02  0.16317988887E+03  0.22177427012E+03  0.00000000000E+00 0. -1.
         22    1    1    2    0    0  0.15509050478E+03  0.97750196445E+02 -0.38468191262E+03  0.42613183345E+03  0.00000000000E+00 0.  1.
<mgrwt>
<rscale>  0 0.79055351E+03</rscale>
<asrwt>0</asrwt>
<pdfrwt beam="1">  1        1 0.55049097E-01 0.79055351E+03</pdfrwt>
<pdfrwt beam="2">  1       -1 0.67177778E-01 0.79055351E+03</pdfrwt>
<totfact> 0.15810445E+02</totfact>
</mgrwt>
</event>
<event>
 6    1  0.3017327E-006  0.5321860E+04  0.7818608E-02  0.7780688E-01
          1   -1    0    0  501    0  0.00000000000E+00  0.00000000000E+00  0.42534584430E+04  0.42534584430E+04  0.00000000000E+00 0. -1.
         -1   -1    0    0    0  501 -0.00000000000E+00 -0.00000000000E+00 -0.16646565731E+04  0.16646565731E+04  0.00000000000E+00 0.  1.
         23    2    1    2    0    0 -0.27541952748E+03 -0.25508750392E+04  0.20761069730E+04  0.33016908458E+04  0.90127112412E+02 0.  0.
         13    1    3    3    0    0 -0.78421728602E+02 -0.93182318474E+03  0.80484386475E+03  0.12337820155E+04  0.00000000000E+00 0.  1.
        -13    1    3    3    0    0 -0.19699779887E+03 -0.16190518545E+04  0.12712631083E+04  0.20679088304E+04  0.00000000000E+00 0. -1.
         22    1    1    2    0    0  0.27541952748E+03  0.25508750392E+04  0.51269489685E+03  0.26164241703E+04  0.00000000000E+00 0.  1.
<mgrwt>
<rscale>  0 0.53218597E+04</rscale>
<asrwt>0</asrwt>
<pdfrwt beam="1">  1        1 0.65437822E+00 0.53218597E+04</pdfrwt>
<pdfrwt beam="2">  1       -1 0.25610101E+00 0.53218597E+04</pdfrwt>
<totfact> 0.25093281E-03</totfact>
</mgrwt>
</event>
<event>
 6    1  0.3017327E-006  0.3680243E+04  0.7818608E-02  0.8072354E-01
          2   -1    0    0  501    0  0.00000000000E+00  0.00000000000E+00  0.98540758165E+03  0.98540758165E+03  0.00000000000E+00 0. -1.
         -2   -1    0    0    0  501 -0.00000000000E+00 -0.00000000000E+00 -0.34361892394E+04  0.34361892394E+04  0.00000000000E+00 0.  1.
         23    2    1    2    0    0  0.10391351420E+04 -0.10318821589E+04  0.11028053894E+03  0.14714066224E+04  0.91066008056E+02 0.  0.
         13    1    3    3    0    0  0.75473723280E+03 -0.76789541344E+03  0.11910155394E+03  0.10832713588E+04  0.00000000000E+00 0. -1.
        -13    1    3    3    0    0  0.28439790919E+03 -0.26398674548E+03 -0.88210149981E+01  0.38813526360E+03  0.00000000000E+00 0.  1.
         22    1    1    2    0    0 -0.10391351420E+04  0.10318821589E+04 -0.25610621967E+04  0.29501901987E+04  0.00000000000E+00 0.  1.
<mgrwt>
<rscale>  0 0.36802429E+04</rscale>
<asrwt>0</asrwt>
<pdfrwt beam="1">  1        2 0.15160117E+00 0.36802429E+04</pdfrwt>
<pdfrwt beam="2">  1       -2 0.52864449E+00 0.36802429E+04</pdfrwt>
<totfact> 0.23194050E-02</totfact>
</mgrwt>
</event>
<event>
 6    1  0.3017327E-006  0.9388251E+03  0.7818608E-02  0.9378309E-01
         -2   -1    0    0    0  501 -0.00000000000E+00  0.00000000000E+00  0.81402434141E+02  0.81402434141E+02  0.00000000000E+00 0.  1.
          2   -1    0    0  501    0  0.00000000000E+00 -0.00000000000E+00 -0.27068986209E+04  0.27068986209E+04  0.00000000000E+00 0. -1.
         23    2    1    2    0    0  0.39994403954E+03  0.10773943740E+03 -0.69715485972E+03  0.81597671693E+03  0.90719804926E+02 0.  0.
         13    1    3    3    0    0  0.30042534167E+03  0.11642711579E+03 -0.56357398506E+03  0.64917354833E+03  0.00000000000E+00 0. -1.
        -13    1    3    3    0    0  0.99518697868E+02 -0.86876783934E+01 -0.13358087466E+03  0.16680316860E+03  0.00000000000E+00 0.  1.
         22    1    1    2    0    0 -0.39994403954E+03 -0.10773943740E+03 -0.19283413270E+04  0.19723243381E+04  0.00000000000E+00 0. -1.
<mgrwt>
<rscale>  0 0.93882509E+03</rscale>
<asrwt>0</asrwt>
<pdfrwt beam="1">  1        2 0.41644591E+00 0.93882509E+03</pdfrwt>
<pdfrwt beam="2">  1       -2 0.12523452E-01 0.93882509E+03</pdfrwt>
<totfact> 0.12777077E+02</totfact>
</mgrwt>
</event>
<event>
 6    1  0.3017327E-006  0.6897095E+03  0.7818608E-02  0.9734994E-01
          2   -1    0    0  501    0  0.00000000000E+00  0.00000000000E+00  0.51823711557E+03  0.51823711557E+03  0.00000000000E+00 0. -1.
         -2   -1    0    0    0  501 -0.00000000000E+00 -0.00000000000E+00 -0.22947951853E+03  0.22947951853E+03  0.00000000000E+00 0.  1.
         23    2    1    2    0    0  0.32652744216E+03  0.78151163148E+02  0.96472845527E+02  0.36080424034E+03  0.90249183601E+02 0.  0.
         11    1    3    3    0    0  0.16505206257E+03 -0.45269269321E+01  0.31386713134E+02  0.16807082491E+03  0.00000000000E+00 0.  1.
        -11    1    3    3    0    0  0.16147537959E+03  0.82678090080E+02  0.65086132393E+02  0.19273341543E+03  0.00000000000E+00 0. -1.
         22    1    1    2    0    0 -0.32652744216E+03 -0.78151163148E+02  0.19228475151E+03  0.38691239376E+03  0.00000000000E+00 0. -1.
<mgrwt>
<rscale>  0 0.68970951E+03</rscale>
<asrwt>0</asrwt>
<pdfrwt beam="1">  1        2 0.79728787E-01 0.68970951E+03</pdfrwt>
<pdfrwt beam="2">  1       -2 0.35304541E-01 0.68970951E+03</pdfrwt>
<totfact> 0.44814790E+02</totfact>
</mgrwt>
</event>
<event>
 6    1  0.3017327E-006  0.1757814E+04  0.7818608E-02  0.8729061E-01
         -2   -1    0    0    0  501 -0.00000000000E+00  0.00000000000E+00  0.42942002683E+03  0.42942002683E+03  0.00000000000E+00 0.  1.
          2   -1    0    0  501    0  0.00000000000E+00 -0.00000000000E+00 -0.17988854276E+04  0.17988854276E+04  0.00000000000E+00 0. -1.
         23    2    1    2    0    0  0.39908431374E+03 -0.72935065779E+03 -0.10382454934E+04  0.13333600379E+04  0.93137611357E+02 0.  0.
         13    1    3    3    0    0  0.10773143004E+03 -0.28066064648E+03 -0.34281736304E+03  0.45596074821E+03  0.00000000000E+00 0.  1.
        -13    1    3    3    0    0  0.29135288370E+03 -0.44869001131E+03 -0.69542813031E+03  0.87739928967E+03  0.00000000000E+00 0. -1.
         22    1    1    2    0    0 -0.39908431374E+03  0.72935065779E+03 -0.33121990739E+03  0.89494541652E+03  0.00000000000E+00 0.  1.
<mgrwt>
<rscale>  0 0.17578139E+04</rscale>
<asrwt>0</asrwt>
<pdfrwt beam="1">  1        2 0.27675161E+00 0.17578139E+04</pdfrwt>
<pdfrwt beam="2">  1       -2 0.66064619E-01 0.17578139E+04</pdfrwt>
<totfact> 0.17252566E+01</totfact>
</mgrwt>
</event>
<event>
 6    1  0.3017327E-006  0.3392508E+04  0.7818608E-02  0.8139747E-01
          2   -1    0    0  501    0  0.00000000000E+00  0.00000000000E+00  0.45792890142E+04  0.45792890142E+04  0.00000000000E+00 0. -1.
         -2   -1    0    0    0  501 -0.00000000000E+00 -0.00000000000E+00 -0.62832421885E+03  0.62832421885E+03  0.00000000000E+00 0.  1.
         23    2    1    2    0    0  0.82092070286E+03 -0.96766625854E+03  0.37019864755E+04  0.39144469669E+04  0.88895463869E+02 0.  0.
         11    1    3    3    0    0  0.52241463570E+02 -0.41840153889E+02  0.24671082257E+03  0.25562863487E+03  0.00000000000E+00 0. -1.
        -11    1    3    3    0    0  0.76867923929E+03 -0.92582610465E+03  0.34552756529E+04  0.36588183320E+04  0.00000000000E+00 0.  1.
         22    1    1    2    0    0 -0.82092070286E+03  0.96766625854E+03  0.24897831992E+03  0.12931662662E+04  0.00000000000E+00 0.  1.
<mgrwt>
<rscale>  0 0.33925083E+04</rscale>
<asrwt>0</asrwt>
<pdfrwt beam="1">  1        2 0.70450598E+00 0.33925083E+04</pdfrwt>
<pdfrwt beam="2">  1       -2 0.96665267E-01 0.33925083E+04</pdfrwt>
<totfact> 0.75761358E-02</totfact>
</mgrwt>
</event>
<event>
 6    1  0.3017327E-006  0.2261878E+04  0.7818608E-02  0.8493106E-01
          2   -1    0    0  501    0  0.00000000000E+00  0.00000000000E+00  0.96745021342E+03  0.96745021342E+03  0.00000000000E+00 0. -1.
         -2   -1    0    0    0  501 -0.00000000000E+00 -0.00000000000E+00 -0.13220553125E+04  0.13220553125E+04  0.00000000000E+00 0.  1.
         23    2    1    2    0    0 -0.18464203517E+03 -0.95463065760E+03 -0.75864609733E+03  0.12365755654E+04  0.90348516430E+02 0.  0.
         13    1    3    3    0    0 -0.12370414420E+03 -0.49893414704E+03 -0.35432483491E+03  0.62432690716E+03  0.00000000000E+00 0. -1.
        -13    1    3    3    0    0 -0.60937890969E+02 -0.45569651056E+03 -0.40432126242E+03  0.61224865826E+03  0.00000000000E+00 0.  1.
         22    1    1    2    0    0  0.18464203517E+03  0.95463065760E+03  0.40404099820E+03  0.10529299605E+04  0.00000000000E+00 0. -1.
<mgrwt>
<rscale>  0 0.22618777E+04</rscale>
<asrwt>0</asrwt>
<pdfrwt beam="1">  1        2 0.14883849E+00 0.22618777E+04</pdfrwt>
<pdfrwt beam="2">  1       -2 0.20339312E+00 0.22618777E+04</pdfrwt>
<totfact> 0.30381233E+00</totfact>
</mgrwt>
</event>
<event>
 6    1  0.3017327E-006  0.4242434E+04  0.7818608E-02  0.7957349E-01
         -2   -1    0    0    0  501 -0.00000000000E+00  0.00000000000E+00  0.13888314018E+04  0.13888314018E+04  0.00000000000E+00 0.  1.
          2   -1    0    0  501    0  0.00000000000E+00 -0.00000000000E+00 -0.32398191351E+04  0.32398191351E+04  0.00000000000E+00 0. -1.
         23    2    1    2    0    0 -0.93874628675E+03 -0.17562713588E+04 -0.17200157688E+04  0.26329332893E+04  0.90276156660E+02 0.  0.
         13    1    3    3    0    0 -0.62328236807E+03 -0.12209282682E+04 -0.12265438846E+04  0.18394446573E+04  0.00000000000E+00 0. -1.
        -13    1    3    3    0    0 -0.31546391868E+03 -0.53534309059E+03 -0.49347188421E+03  0.79348863202E+03  0.00000000000E+00 0.  1.
         22    1    1    2    0    0  0.93874628675E+03  0.17562713588E+04 -0.13097196446E+03  0.19957172475E+04  0.00000000000E+00 0. -1.
<mgrwt>
<rscale>  0 0.42424345E+04</rscale>
<asrwt>0</asrwt>
<pdfrwt beam="1">  1        2 0.49843372E+00 0.42424345E+04</pdfrwt>
<pdfrwt beam="2">  1       -2 0.21366637E+00 0.42424345E+04</pdfrwt>
<totfact> 0.10234547E-01</totfact>
</mgrwt>
</event>
<event>
 6    1  0.3017327E-006  0.3272411E+04  0.7818608E-02  0.8169951E-01
         -2   -1    0    0    0  501 -0.00000000000E+00  0.00000000000E+00  0.11330449579E+04  0.11330449579E+04  0.00000000000E+00 0.  1.
          2   -1    0    0  501    0  0.00000000000E+00 -0.00000000000E+00 -0.23628090204E+04  0.23628090204E+04  0.00000000000E+00 0. -1.
         23    2    1    2    0    0 -0.14450569798E+04  0.75512617382E+03 -0.74468291184E+03  0.17947634646E+04  0.90653413150E+02 0.  0.
         13    1    3    3    0    0 -0.63781226577E+03  0.31457321831E+03 -0.27895005586E+03  0.76392010689E+03  0.00000000000E+00 0.  1.
        -13    1    3    3    0    0 -0.80724471401E+03  0.44055295551E+03 -0.46573285598E+03  0.10308433577E+04  0.00000000000E+00 0. -1.
         22    1    1    2    0    0  0.14450569798E+04 -0.75512617382E+03 -0.48508115073E+03  0.17010905138E+04  0.00000000000E+00 0.  1.
<mgrwt>
<rscale>  0 0.32724112E+04</rscale>
<asrwt>0</asrwt>
<pdfrwt beam="1">  1        2 0.36350908E+00 0.32724112E+04</pdfrwt>
<pdfrwt beam="2">  1       -2 0.17431461E+00 0.32724112E+04</pdfrwt>
<totfact> 0.69430461E-01</totfact>
</mgrwt>
</event>
<event>
 6    1  0.3017327E-006  0.6612258E+03  0.7818608E-02  0.9785940E-01
         -2   -1    0    0    0  501 -0.00000000000E+00  0.00000000000E+00  0.42410256923E+02  0.42410256923E+02  0.00000000000E+00 0.  1.
          2   -1    0    0  501    0  0.00000000000E+00 -0.00000000000E+00 -0.25773217629E+04  0.25773217629E+04  0.00000000000E+00 0. -1.
         23    2    1    2    0    0 -0.11511437119E+03  0.28829753903E+03 -0.92509516111E+03  0.98025788045E+03  0.93475481349E+02 0.  0.
         13    1    3    3    0    0 -0.97762816839E+02  0.18621528737E+03 -0.49411597992E+03  0.53701424862E+03  0.00000000000E+00 0. -1.
        -13    1    3    3    0    0 -0.17351554350E+02  0.10208225167E+03 -0.43097918119E+03  0.44324363184E+03  0.00000000000E+00 0.  1.
         22    1    1    2    0    0  0.11511437119E+03 -0.28829753903E+03 -0.16098163449E+04  0.16394741394E+04  0.00000000000E+00 0.  1.
<mgrwt>
<rscale>  0 0.66122577E+03</rscale>
<asrwt>0</asrwt>
<pdfrwt beam="1">  1        2 0.39651110E+00 0.66122577E+03</pdfrwt>
<pdfrwt beam="2">  1       -2 0.65246540E-02 0.66122577E+03</pdfrwt>
<totfact> 0.44781474E+02</totfact>
</mgrwt>
</event>
<event>
 6    1  0.3017327E-006  0.4315194E+04  0.7818608E-02  0.7943814E-01
         -2   -1    0    0    0  501 -0.00000000000E+00  0.00000000000E+00  0.14625768741E+04  0.14625768741E+04  0.00000000000E+00 0.  1.
          2   -1    0    0  501    0  0.00000000000E+00 -0.00000000000E+00 -0.31828928206E+04  0.31828928206E+04  0.00000000000E+00 0. -1.
         23    2    1    2    0    0  0.15876116541E+04  0.14588781445E+04 -0.91207391428E+03  0.23428426326E+04  0.90534917292E+02 0.  0.
         11    1    3    3    0    0  0.11282271615E+04  0.10726849605E+04 -0.62470358552E+03  0.16774397522E+04  0.00000000000E+00 0.  1.
        -11    1    3    3    0    0  0.45938449266E+03  0.38619318399E+03 -0.28737032876E+03  0.66540288045E+03  0.00000000000E+00 0. -1.
         22    1    1    2    0    0 -0.15876116541E+04 -0.14588781445E+04 -0.80824203221E+03  0.23026270622E+04  0.00000000000E+00 0. -1.
<mgrwt>
<rscale>  0 0.43151943E+04</rscale>
<asrwt>0</asrwt>
<pdfrwt beam="1">  1        2 0.48967581E+00 0.43151943E+04</pdfrwt>
<pdfrwt beam="2">  1       -2 0.22501183E+00 0.43151943E+04</pdfrwt>
<totfact> 0.93937524E-02</totfact>
</mgrwt>
</event>
<event>
 6    1  0.3017327E-006  0.2518744E+04  0.7818608E-02  0.8396338E-01
          2   -1    0    0  501    0  0.00000000000E+00  0.00000000000E+00  0.26753646652E+04  0.26753646652E+04  0.00000000000E+00 0. -1.
         -2   -1    0    0    0  501 -0.00000000000E+00 -0.00000000000E+00 -0.59282294803E+03  0.59282294803E+03  0.00000000000E+00 0.  1.
         23    2    1    2    0    0 -0.26196807086E+03  0.36257465505E+03 -0.48266992889E+03  0.66426779118E+03  0.90519542136E+02 0.  0.
         13    1    3    3    0    0 -0.94938155013E+02  0.20854693558E+03 -0.23850878856E+03  0.33074388859E+03  0.00000000000E+00 0. -1.
        -13    1    3    3    0    0 -0.16702991585E+03  0.15402771947E+03 -0.24416114033E+03  0.33352390259E+03  0.00000000000E+00 0.  1.
         22    1    1    2    0    0  0.26196807086E+03 -0.36257465505E+03  0.25652116461E+04  0.26039198221E+04  0.00000000000E+00 0. -1.
<mgrwt>
<rscale>  0 0.25187438E+04</rscale>
<asrwt>0</asrwt>
<pdfrwt beam="1">  1        2 0.41159456E+00 0.25187438E+04</pdfrwt>
<pdfrwt beam="2">  1       -2 0.91203532E-01 0.25187438E+04</pdfrwt>
<totfact> 0.25062947E+00</totfact>
</mgrwt>
</event>
<event>
 6    1  0.3017327E-006  0.2432472E+04  0.7818608E-02  0.8427446E-01
          1   -1    0    0  501    0  0.00000000000E+00  0.00000000000E+00  0.10318670253E+04  0.10318670253E+04  0.00000000000E+00 0. -1.
         -1   -1    0    0    0  501 -0.00000000000E+00 -0.00000000000E+00 -0.14335475470E+04  0.14335475470E+04  0.00000000000E+00 0.  1.
         23    2    1    2    0    0 -0.64680068946E+03 -0.11743614715E+03  0.83372398161E+03  0.10659980271E+04  0.95465887391E+02 0.  0.
         13    1    3    3    0    0 -0.84359652895E+02  0.14752106333E+01  0.15550352260E+03  0.17691826594E+03  0.00000000000E+00 0. -1.
        -13    1    3    3    0    0 -0.56244103657E+03 -0.11891135778E+03  0.67822045901E+03  0.88907976113E+03  0.00000000000E+00 0.  1.
         22    1    1    2    0    0  0.64680068946E+03  0.11743614715E+03 -0.12354045033E+04  0.13994165453E+04  0.00000000000E+00 0. -1.
<mgrwt>
<rscale>  0 0.24324724E+04</rscale>
<asrwt>0</asrwt>
<pdfrwt beam="1">  1        1 0.15874877E+00 0.24324724E+04</pdfrwt>
<pdfrwt beam="2">  1       -1 0.22054578E+00 0.24324724E+04</pdfrwt>
<totfact> 0.13936204E+00</totfact>
</mgrwt>
</event>
<event>
 6    1  0.3017327E-006  0.3730671E+04  0.7818608E-02  0.8061199E-01
         -2   -1    0    0    0  501 -0.00000000000E+00  0.00000000000E+00  0.23869094839E+04  0.23869094839E+04  0.00000000000E+00 0.  1.
          2   -1    0    0  501    0  0.00000000000E+00 -0.00000000000E+00 -0.14577327898E+04  0.14577327898E+04  0.00000000000E+00 0. -1.
         23    2    1    2    0    0  0.49731673209E+03 -0.33753315702E+03  0.22834205774E+04  0.23630117330E+04  0.92532982852E+02 0.  0.
         11    1    3    3    0    0  0.91061391027E+02 -0.87994097457E+02  0.36931359099E+03  0.39041985940E+03  0.00000000000E+00 0. -1.
        -11    1    3    3    0    0  0.40625534107E+03 -0.24953905956E+03  0.19141069864E+04  0.19725918736E+04  0.00000000000E+00 0.  1.
         22    1    1    2    0    0 -0.49731673209E+03  0.33753315702E+03 -0.13542438833E+04  0.14816305408E+04  0.00000000000E+00 0. -1.
<mgrwt>
<rscale>  0 0.37306708E+04</rscale>
<asrwt>0</asrwt>
<pdfrwt beam="1">  1        2 0.22426658E+00 0.37306708E+04</pdfrwt>
<pdfrwt beam="2">  1       -2 0.36721684E+00 0.37306708E+04</pdfrwt>
<totfact> 0.13076680E-01</totfact>
</mgrwt>
</event>
<event>
 6    1  0.3017327E-006  0.1099987E+04  0.7818608E-02  0.9205205E-01
          2   -1    0    0  501    0  0.00000000000E+00  0.00000000000E+00  0.11223732660E+04  0.11223732660E+04  0.00000000000E+00 0. -1.
         -2   -1    0    0    0  501 -0.00000000000E+00 -0.00000000000E+00 -0.26951159905E+03  0.26951159905E+03  0.00000000000E+00 0.  1.
         23    2    1    2    0    0 -0.66069213696E+02 -0.30035077749E+03 -0.14202319849E+03  0.35055320511E+03  0.90228765759E+02 0.  0.
         13    1    3    3    0    0 -0.28364844830E+02 -0.52440961251E+02 -0.65062763821E+02  0.88248411177E+02  0.00000000000E+00 0. -1.
        -13    1    3    3    0    0 -0.37704368865E+02 -0.24790981623E+03 -0.76960434667E+02  0.26230479393E+03  0.00000000000E+00 0.  1.
         22    1    1    2    0    0  0.66069213696E+02  0.30035077749E+03  0.99488486545E+03  0.10413316600E+04  0.00000000000E+00 0. -1.
<mgrwt>
<rscale>  0 0.10999866E+04</rscale>
<asrwt>0</asrwt>
<pdfrwt beam="1">  1        2 0.17267281E+00 0.10999866E+04</pdfrwt>
<pdfrwt beam="2">  1       -2 0.41463324E-01 0.10999866E+04</pdfrwt>
<totfact> 0.11539884E+02</totfact>
</mgrwt>
</event>
<event>
 6    1  0.3017327E-006  0.1354283E+04  0.7818608E-02  0.8987592E-01
         -2   -1    0    0    0  501 -0.00000000000E+00  0.00000000000E+00  0.67087416765E+03  0.67087416765E+03  0.00000000000E+00 0.  1.
          2   -1    0    0  501    0  0.00000000000E+00 -0.00000000000E+00 -0.68346778571E+03  0.68346778571E+03  0.00000000000E+00 0. -1.
         23    2    1    2    0    0  0.47010708636E+03  0.12260161641E+03  0.46106937546E+03  0.67582263866E+03  0.90107940528E+02 0.  0.
         13    1    3    3    0    0  0.20661570270E+03  0.34130117069E+02  0.25413593196E+03  0.32930227057E+03  0.00000000000E+00 0. -1.
        -13    1    3    3    0    0  0.26349138366E+03  0.88471499340E+02  0.20693344350E+03  0.34652036808E+03  0.00000000000E+00 0.  1.
         22    1    1    2    0    0 -0.47010708636E+03 -0.12260161641E+03 -0.47366299352E+03  0.67851931470E+03  0.00000000000E+00 0. -1.
<mgrwt>
<rscale>  0 0.13542834E+04</rscale>
<asrwt>0</asrwt>
<pdfrwt beam="1">  1        2 0.10514889E+00 0.13542834E+04</pdfrwt>
<pdfrwt beam="2">  1       -2 0.10321141E+00 0.13542834E+04</pdfrwt>
<totfact> 0.31593075E+01</totfact>
</mgrwt>
</event>
<event>
 6    1  0.3017327E-006  0.5122412E+03  0.7818608E-02  0.1010632E+00
         -2   -1    0    0    0  501 -0.00000000000E+00  0.00000000000E+00  0.48554095810E+02  0.48554095810E+02  0.00000000000E+00 0.  1.
          2   -1    0    0  501    0  0.00000000000E+00 -0.00000000000E+00 -0.13510240290E+04  0.13510240290E+04  0.00000000000E+00 0. -1.
         23    2    1    2    0    0 -0.89409321214E+02 -0.40585969933E+01 -0.13038982112E+04  0.13100653385E+04  0.90056355100E+02 0.  0.
         13    1    3    3    0    0 -0.10232635721E+03 -0.18988232715E+02 -0.96579150418E+03  0.97138275973E+03  0.00000000000E+00 0.  1.
        -13    1    3    3    0    0  0.12917036000E+02  0.14929635722E+02 -0.33810670703E+03  0.33868257879E+03  0.00000000000E+00 0. -1.
         22    1    1    2    0    0  0.89409321214E+02  0.40585969933E+01  0.14282780197E+01  0.89512786280E+02  0.00000000000E+00 0.  1.
<mgrwt>
<rscale>  0 0.51224115E+03</rscale>
<asrwt>0</asrwt>
<pdfrwt beam="1">  1        2 0.20784986E+00 0.51224115E+03</pdfrwt>
<pdfrwt beam="2">  1       -2 0.74698605E-02 0.51224115E+03</pdfrwt>
<totfact> 0.17210114E+03</totfact>
</mgrwt>
</event>
<event>
 6    1  0.3017327E-006  0.2387478E+04  0.7818608E-02  0.8444206E-01
          2   -1    0    0  501    0  0.00000000000E+00  0.00000000000E+00  0.40961712323E+04  0.40961712323E+04  0.00000000000E+00 0. -1.
         -2   -1    0    0    0  501 -0.00000000000E+00 -0.00000000000E+00 -0.34788910729E+03  0.34788910729E+03  0.00000000000E+00 0.  1.
         23    2    1    2    0    0  0.25669322662E+03  0.88305678538E+03  0.32886074399E+04  0.34159642765E+04  0.90511578141E+02 0.  0.
         11    1    3    3    0    0  0.23323009625E+03  0.66836385418E+03  0.25489744094E+04  0.26454445863E+04  0.00000000000E+00 0. -1.
        -11    1    3    3    0    0  0.23463130371E+02  0.21469293119E+03  0.73963303045E+03  0.77051969016E+03  0.00000000000E+00 0.  1.
         22    1    1    2    0    0 -0.25669322662E+03 -0.88305678538E+03  0.45967468508E+03  0.10280960631E+04  0.00000000000E+00 0.  1.
<mgrwt>
<rscale>  0 0.23874785E+04</rscale>
<asrwt>0</asrwt>
<pdfrwt beam="1">  1        2 0.63018016E+00 0.23874785E+04</pdfrwt>
<pdfrwt beam="2">  1       -2 0.53521404E-01 0.23874785E+04</pdfrwt>
<totfact> 0.84880468E-01</totfact>
</mgrwt>
</event>
<event>
 6    1  0.3017327E-006  0.3409121E+04  0.7818608E-02  0.8135671E-01
         -2   -1    0    0    0  501 -0.00000000000E+00  0.00000000000E+00  0.40190493894E+04  0.40190493894E+04  0.00000000000E+00 0.  1.
          2   -1    0    0  501    0  0.00000000000E+00 -0.00000000000E+00 -0.72293862914E+03  0.72293862914E+03  0.00000000000E+00 0. -1.
         23    2    1    2    0    0 -0.11947760087E+04  0.11973295573E+04  0.13697040503E+04  0.21783713171E+04  0.90136729139E+02 0.  0.
         13    1    3    3    0    0 -0.82081984719E+03  0.80069345919E+03  0.87736255842E+03  0.14438214211E+04  0.00000000000E+00 0. -1.
        -13    1    3    3    0    0 -0.37395616153E+03  0.39663609810E+03  0.49234149188E+03  0.73454989598E+03  0.00000000000E+00 0.  1.
         22    1    1    2    0    0  0.11947760087E+04 -0.11973295573E+04  0.19264067099E+04  0.25636167014E+04  0.00000000000E+00 0.  1.
<mgrwt>
<rscale>  0 0.34091207E+04</rscale>
<asrwt>0</asrwt>
<pdfrwt beam="1">  1        2 0.11122133E+00 0.34091207E+04</pdfrwt>
<pdfrwt beam="2">  1       -2 0.61831528E+00 0.34091207E+04</pdfrwt>
<totfact> 0.13968922E-02</totfact>
</mgrwt>
</event>
<event>
 6    1  0.3017327E-006  0.2491239E+04  0.7818608E-02  0.8406113E-01
         -2   -1    0    0    0  501 -0.00000000000E+00  0.00000000000E+00  0.17801814588E+04  0.17801814588E+04  0.00000000000E+00 0.  1.
          2   -1    0    0  501    0  0.00000000000E+00 -0.00000000000E+00 -0.87157886606E+03  0.87157886606E+03  0.00000000000E+00 0. -1.
         23    2    1    2    0    0  0.68677504446E+03 -0.99031556337E+03  0.78301152613E+03  0.14400846286E+04  0.91388242476E+02 0.  0.
         11    1    3    3    0    0  0.47651010499E+03 -0.63094624055E+03  0.47760516675E+03  0.92372167558E+03  0.00000000000E+00 0. -1.
        -11    1    3    3    0    0  0.21026493948E+03 -0.35936932282E+03  0.30540635937E+03  0.51636295307E+03  0.00000000000E+00 0.  1.
         22    1    1    2    0    0 -0.68677504446E+03  0.99031556337E+03  0.12559106658E+03  0.12116756962E+04  0.00000000000E+00 0.  1.
<mgrwt>
<rscale>  0 0.24912395E+04</rscale>
<asrwt>0</asrwt>
<pdfrwt beam="1">  1        2 0.13408906E+00 0.24912395E+04</pdfrwt>
<pdfrwt beam="2">  1       -2 0.27387407E+00 0.24912395E+04</pdfrwt>
<totfact> 0.12560730E+00</totfact>
</mgrwt>
</event>
<event>
 6    1  0.3017327E-006  0.2524756E+04  0.7818608E-02  0.8394219E-01
          2   -1    0    0  501    0  0.00000000000E+00  0.00000000000E+00  0.13620655196E+04  0.13620655196E+04  0.00000000000E+00 0. -1.
         -2   -1    0    0    0  501 -0.00000000000E+00 -0.00000000000E+00 -0.11699867954E+04  0.11699867954E+04  0.00000000000E+00 0.  1.
         23    2    1    2    0    0  0.11067375007E+04  0.54591311045E+03  0.35510761453E+03  0.12872762553E+04  0.89942869826E+02 0.  0.
         11    1    3    3    0    0  0.60702736093E+03  0.32376881640E+03  0.23831558406E+03  0.72808157578E+03  0.00000000000E+00 0.  1.
        -11    1    3    3    0    0  0.49971013979E+03  0.22214429405E+03  0.11679203047E+03  0.55919467949E+03  0.00000000000E+00 0. -1.
         22    1    1    2    0    0 -0.11067375007E+04 -0.54591311045E+03 -0.16302889031E+03  0.12447760597E+04  0.00000000000E+00 0.  1.
<mgrwt>
<rscale>  0 0.25247564E+04</rscale>
<asrwt>0</asrwt>
<pdfrwt beam="1">  1        2 0.20954854E+00 0.25247564E+04</pdfrwt>
<pdfrwt beam="2">  1       -2 0.17999797E+00 0.25247564E+04</pdfrwt>
<totfact> 0.24560494E+00</totfact>
</mgrwt>
</event>
<event>
 6    1  0.3017327E-006  0.6830273E+03  0.7818608E-02  0.9746706E-01
         -2   -1    0    0    0  501 -0.00000000000E+00  0.00000000000E+00  0.37748546057E+03  0.37748546057E+03  0.00000000000E+00 0.  1.
          2   -1    0    0  501    0  0.00000000000E+00 -0.00000000000E+00 -0.30896967938E+03  0.30896967938E+03  0.00000000000E+00 0. -1.
         23    2    1    2    0    0  0.15863550658E+01  0.33554134192E+03  0.32745793274E+02  0.34900884690E+03  0.90246216412E+02 0.  0.
         11    1    3    3    0    0  0.60151614614E+01  0.20836930599E+03  0.63845938477E+02  0.21801434289E+03  0.00000000000E+00 0.  1.
        -11    1    3    3    0    0 -0.44288063956E+01  0.12717203593E+03 -0.31100145203E+02  0.13099450401E+03  0.00000000000E+00 0. -1.
         22    1    1    2    0    0 -0.15863550658E+01 -0.33554134192E+03  0.35769987913E+02  0.33744629305E+03  0.00000000000E+00 0. -1.
<mgrwt>
<rscale>  0 0.68302727E+03</rscale>
<asrwt>0</asrwt>
<pdfrwt beam="1">  1        2 0.47533797E-01 0.68302727E+03</pdfrwt>
<pdfrwt beam="2">  1       -2 0.58074686E-01 0.68302727E+03</pdfrwt>
<totfact> 0.29764305E+02</totfact>
</mgrwt>
</event>
<event>
 6    1  0.3017327E-006  0.2073532E+04  0.7818608E-02  0.8572993E-01
         -2   -1    0    0    0  501 -0.00000000000E+00  0.00000000000E+00  0.27364821406E+03  0.27364821406E+03  0.00000000000E+00 0.  1.
          2   -1    0    0  501    0  0.00000000000E+00 -0.00000000000E+00 -0.39279749491E+04  0.39279749491E+04  0.00000000000E+00 0. -1.
         23    2    1    2    0    0  0.51981984408E+03 -0.75785329901E+03 -0.27941930271E+04  0.29428998859E+04  0.92686422599E+02 0.  0.
         11    1    3    3    0    0  0.35338826301E+03 -0.58667438532E+03 -0.20631374007E+04  0.21738459083E+04  0.00000000000E+00 0. -1.
        -11    1    3    3    0    0  0.16643158107E+03 -0.17117891369E+03 -0.73105562634E+03  0.76905397761E+03  0.00000000000E+00 0.  1.
         22    1    1    2    0    0 -0.51981984408E+03  0.75785329901E+03 -0.86013370804E+03  0.12587232773E+04  0.00000000000E+00 0.  1.
<mgrwt>
<rscale>  0 0.20735316E+04</rscale>
<asrwt>0</asrwt>
<pdfrwt beam="1">  1        2 0.60430381E+00 0.20735316E+04</pdfrwt>
<pdfrwt beam="2">  1       -2 0.42099727E-01 0.20735316E+04</pdfrwt>
<totfact> 0.19460829E+00</totfact>
</mgrwt>
</event>
<event>
 6    1  0.3017327E-006  0.1517809E+04  0.7818608E-02  0.8872696E-01
          1   -1    0    0  501    0  0.00000000000E+00  0.00000000000E+00  0.45501731691E+03  0.45501731691E+03  0.00000000000E+00 0. -1.
         -1   -1    0    0    0  501 -0.00000000000E+00 -0.00000000000E+00 -0.12657447389E+04  0.12657447389E+04  0.00000000000E+00 0.  1.
         23    2    1    2    0    0  0.54885905543E+03  0.47188682083E+02  0.18020269836E+03  0.58700037987E+03  0.92862258386E+02 0.  0.
         11    1    3    3    0    0  0.29779209275E+03  0.65650753385E+02  0.74147682816E+02  0.31382802741E+03  0.00000000000E+00 0.  1.
        -11    1    3    3    0    0  0.25106696268E+03 -0.18462071302E+02  0.10605501554E+03  0.27317235246E+03  0.00000000000E+00 0. -1.
         22    1    1    2    0    0 -0.54885905543E+03 -0.47188682083E+02 -0.99093012037E+03  0.11337616760E+04  0.00000000000E+00 0.  1.
<mgrwt>
<rscale>  0 0.15178087E+04</rscale>
<asrwt>0</asrwt>
<pdfrwt beam="1">  1        1 0.70002666E-01 0.15178087E+04</pdfrwt>
<pdfrwt beam="2">  1       -1 0.19472996E+00 0.15178087E+04</pdfrwt>
<totfact> 0.79755670E+00</totfact>
</mgrwt>
</event>
<event>
 6    1  0.3017327E-006  0.1343031E+04  0.7818608E-02  0.8996120E-01
          2   -1    0    0  501    0  0.00000000000E+00  0.00000000000E+00  0.29761287670E+04  0.29761287670E+04  0.00000000000E+00 0. -1.
         -2   -1    0    0    0  501 -0.00000000000E+00 -0.00000000000E+00 -0.15151675442E+03  0.15151675442E+03  0.00000000000E+00 0.  1.
         23    2    1    2    0    0  0.36306413629E+03  0.10411696755E+03  0.27033262459E+04  0.27309514993E+04  0.86414058993E+02 0.  0.
         13    1    3    3    0    0  0.16523459367E+03  0.77806775047E+02  0.10696052508E+04  0.10850860600E+04  0.00000000000E+00 0.  1.
        -13    1    3    3    0    0  0.19782954262E+03  0.26310192501E+02  0.16337209951E+04  0.16458654392E+04  0.00000000000E+00 0. -1.
         22    1    1    2    0    0 -0.36306413629E+03 -0.10411696755E+03  0.12128576664E+03  0.39669402211E+03  0.00000000000E+00 0.  1.
<mgrwt>
<rscale>  0 0.13430315E+04</rscale>
<asrwt>0</asrwt>
<pdfrwt beam="1">  1        2 0.45786592E+00 0.13430315E+04</pdfrwt>
<pdfrwt beam="2">  1       -2 0.23310272E-01 0.13430315E+04</pdfrwt>
<totfact> 0.28958726E+01</totfact>
</mgrwt>
</event>
<event>
 6    1  0.3017327E-006  0.1515797E+04  0.7818608E-02  0.8874015E-01
          1   -1    0    0  501    0  0.00000000000E+00  0.00000000000E+00  0.79074485899E+03  0.79074485899E+03  0.00000000000E+00 0. -1.
         -1   -1    0    0    0  501 -0.00000000000E+00 -0.00000000000E+00 -0.72641691648E+03  0.72641691648E+03  0.00000000000E+00 0.  1.
         23    2    1    2    0    0  0.72080592285E+03  0.73751955154E+02 -0.18057487126E+03  0.75232328435E+03  0.91556052434E+02 0.  0.
         11    1    3    3    0    0  0.31159234626E+03  0.76403210920E+02 -0.68917210711E+02  0.32814146769E+03  0.00000000000E+00 0.  1.
        -11    1    3    3    0    0  0.40921357659E+03 -0.26512557657E+01 -0.11165766055E+03  0.42418181666E+03  0.00000000000E+00 0. -1.
         22    1    1    2    0    0 -0.72080592285E+03 -0.73751955154E+02  0.24490281377E+03  0.76483849112E+03  0.00000000000E+00 0. -1.
<mgrwt>
<rscale>  0 0.15157974E+04</rscale>
<asrwt>0</asrwt>
<pdfrwt beam="1">  1        1 0.12165306E+00 0.15157974E+04</pdfrwt>
<pdfrwt beam="2">  1       -1 0.11175645E+00 0.15157974E+04</pdfrwt>
<totfact> 0.16001381E+01</totfact>
</mgrwt>
</event>
<event>
 6    1  0.3017327E-006  0.2837591E+04  0.7818608E-02  0.8291692E-01
         -2   -1    0    0    0  501 -0.00000000000E+00  0.00000000000E+00  0.10012542434E+04  0.10012542434E+04  0.00000000000E+00 0.  1.
          2   -1    0    0  501    0  0.00000000000E+00 -0.00000000000E+00 -0.20104583933E+04  0.20104583933E+04  0.00000000000E+00 0. -1.
         23    2    1    2    0    0 -0.81310765082E+03 -0.31666384830E+03 -0.16905110590E+04  0.19046448208E+04  0.91783485408E+02 0.  0.
         13    1    3    3    0    0 -0.76458728709E+03 -0.28555477595E+03 -0.15296828331E+04  0.17338006862E+04  0.00000000000E+00 0. -1.
        -13    1    3    3    0    0 -0.48520363734E+02 -0.31109072343E+02 -0.16082822588E+03  0.17084413457E+03  0.00000000000E+00 0.  1.
         22    1    1    2    0    0  0.81310765082E+03  0.31666384830E+03  0.68130690908E+03  0.11070678159E+04  0.00000000000E+00 0.  1.
<mgrwt>
<rscale>  0 0.28375905E+04</rscale>
<asrwt>0</asrwt>
<pdfrwt beam="1">  1        2 0.30930129E+00 0.28375905E+04</pdfrwt>
<pdfrwt beam="2">  1       -2 0.15403911E+00 0.28375905E+04</pdfrwt>
<totfact> 0.15964005E+00</totfact>
</mgrwt>
</event>
<event>
 6    1  0.3017327E-006  0.1490978E+04  0.7818608E-02  0.8890475E-01
          2   -1    0    0  501    0  0.00000000000E+00  0.00000000000E+00  0.85312560727E+03  0.85312560727E+03  0.00000000000E+00 0. -1.
         -2   -1    0    0    0  501 -0.00000000000E+00 -0.00000000000E+00 -0.65143254023E+03  0.65143254023E+03  0.00000000000E+00 0.  1.
         23    2    1    2    0    0  0.38800097381E+03  0.52072727787E+03 -0.26305294568E+03  0.70600288333E+03  0.86842186963E+02 0.  0.
         11    1    3    3    0    0  0.32756397015E+02  0.29564713230E+02  0.25500171473E+01  0.44199054302E+02  0.00000000000E+00 0. -1.
        -11    1    3    3    0    0  0.35524457680E+03  0.49116256464E+03 -0.26560296283E+03  0.66180382902E+03  0.00000000000E+00 0.  1.
         22    1    1    2    0    0 -0.38800097381E+03 -0.52072727787E+03  0.46474601273E+03  0.79855526418E+03  0.00000000000E+00 0.  1.
<mgrwt>
<rscale>  0 0.14909779E+04</rscale>
<asrwt>0</asrwt>
<pdfrwt beam="1">  1        2 0.13125009E+00 0.14909779E+04</pdfrwt>
<pdfrwt beam="2">  1       -2 0.10022039E+00 0.14909779E+04</pdfrwt>
<totfact> 0.25094071E+01</totfact>
</mgrwt>
</event>
<event>
 6    1  0.3017327E-006  0.6464790E+03  0.7818608E-02  0.9813409E-01
          2   -1    0    0  501    0  0.00000000000E+00  0.00000000000E+00  0.24164932862E+04  0.24164932862E+04  0.00000000000E+00 0.  1.
         -2   -1    0    0    0  501 -0.00000000000E+00 -0.00000000000E+00 -0.43237767499E+02  0.43237767499E+02  0.00000000000E+00 0. -1.
         23    2    1    2    0    0 -0.24645587782E+03 -0.11963810330E+02  0.19666944893E+04  0.19841519298E+04  0.89933496507E+02 0.  0.
         13    1    3    3    0    0 -0.11739193810E+03 -0.19248379364E+02  0.12705574994E+04  0.12761143077E+04  0.00000000000E+00 0.  1.
        -13    1    3    3    0    0 -0.12906393972E+03  0.72845690345E+01  0.69613698994E+03  0.70803762205E+03  0.00000000000E+00 0. -1.
         22    1    1    2    0    0  0.24645587782E+03  0.11963810330E+02  0.40656102942E+03  0.47557912393E+03  0.00000000000E+00 0. -1.
<mgrwt>
<rscale>  0 0.64647900E+03</rscale>
<asrwt>0</asrwt>
<pdfrwt beam="1">  1        2 0.37176809E+00 0.64647900E+03</pdfrwt>
<pdfrwt beam="2">  1       -2 0.66519661E-02 0.64647900E+03</pdfrwt>
<totfact> 0.53606939E+02</totfact>
</mgrwt>
</event>
<event>
 6    1  0.3017327E-006  0.1305293E+04  0.7818608E-02  0.9025378E-01
         -2   -1    0    0    0  501 -0.00000000000E+00  0.00000000000E+00  0.32947965492E+03  0.32947965492E+03  0.00000000000E+00 0.  1.
          2   -1    0    0  501    0  0.00000000000E+00 -0.00000000000E+00 -0.12927891709E+04  0.12927891709E+04  0.00000000000E+00 0. -1.
         23    2    1    2    0    0 -0.35191391113E+03  0.34250513441E+02 -0.11609981320E+04  0.12171795919E+04  0.92698423758E+02 0.  0.
         11    1    3    3    0    0 -0.31872196387E+03  0.35325907272E+02 -0.92836345864E+03  0.98218650028E+03  0.00000000000E+00 0. -1.
        -11    1    3    3    0    0 -0.33191947257E+02 -0.10753938316E+01 -0.23263467340E+03  0.23499309160E+03  0.00000000000E+00 0.  1.
         22    1    1    2    0    0  0.35191391113E+03 -0.34250513441E+02  0.19768861608E+03  0.40508923393E+03  0.00000000000E+00 0.  1.
<mgrwt>
<rscale>  0 0.13052934E+04</rscale>
<asrwt>0</asrwt>
<pdfrwt beam="1">  1        2 0.19889064E+00 0.13052934E+04</pdfrwt>
<pdfrwt beam="2">  1       -2 0.50689178E-01 0.13052934E+04</pdfrwt>
<totfact> 0.60169773E+01</totfact>
</mgrwt>
</event>
<event>
 6    1  0.3017327E-006  0.2566509E+04  0.7818608E-02  0.8379667E-01
          2   -1    0    0  501    0  0.00000000000E+00  0.00000000000E+00  0.12180631820E+04  0.12180631820E+04  0.00000000000E+00 0. -1.
         -2   -1    0    0    0  501 -0.00000000000E+00 -0.00000000000E+00 -0.13519345115E+04  0.13519345115E+04  0.00000000000E+00 0.  1.
         23    2    1    2    0    0  0.16108751925E+03  0.77922728580E+03  0.93896698412E+03  0.12342857489E+04  0.93048163954E+02 0.  0.
         13    1    3    3    0    0 -0.10828345437E+02  0.91369930593E+02  0.10169652875E+03  0.13714190184E+03  0.00000000000E+00 0.  1.
        -13    1    3    3    0    0  0.17191586468E+03  0.68785735520E+03  0.83727045537E+03  0.10971438470E+04  0.00000000000E+00 0. -1.
         22    1    1    2    0    0 -0.16108751925E+03 -0.77922728580E+03 -0.10728383137E+04  0.13357119446E+04  0.00000000000E+00 0.  1.
<mgrwt>
<rscale>  0 0.25665086E+04</rscale>
<asrwt>0</asrwt>
<pdfrwt beam="1">  1        2 0.18739434E+00 0.25665086E+04</pdfrwt>
<pdfrwt beam="2">  1       -2 0.20798992E+00 0.25665086E+04</pdfrwt>
<totfact> 0.19334544E+00</totfact>
</mgrwt>
</event>
<event>
 6    1  0.3017327E-006  0.2629608E+04  0.7818608E-02  0.8358213E-01
          2   -1    0    0  501    0  0.00000000000E+00  0.00000000000E+00  0.23549545657E+04  0.23549545657E+04  0.00000000000E+00 0.  1.
         -2   -1    0    0    0  501 -0.00000000000E+00 -0.00000000000E+00 -0.73407350537E+03  0.73407350537E+03  0.00000000000E+00 0. -1.
         23    2    1    2    0    0  0.11580325392E+04 -0.31770131237E+03  0.18666102311E+03  0.12184771894E+04  0.88717743414E+02 0.  0.
         11    1    3    3    0    0  0.71188966621E+03 -0.17464578397E+03  0.74912170303E+02  0.73681739935E+03  0.00000000000E+00 0. -1.
        -11    1    3    3    0    0  0.44614287294E+03 -0.14305552840E+03  0.11174885281E+03  0.48165979009E+03  0.00000000000E+00 0.  1.
         22    1    1    2    0    0 -0.11580325392E+04  0.31770131237E+03  0.14342200372E+04  0.18705508816E+04  0.00000000000E+00 0.  1.
<mgrwt>
<rscale>  0 0.26296081E+04</rscale>
<asrwt>0</asrwt>
<pdfrwt beam="1">  1        2 0.36230070E+00 0.26296081E+04</pdfrwt>
<pdfrwt beam="2">  1       -2 0.11293439E+00 0.26296081E+04</pdfrwt>
<totfact> 0.22937675E+00</totfact>
</mgrwt>
</event>
<event>
 6    1  0.3017327E-006  0.1362158E+04  0.7818608E-02  0.8981676E-01
          2   -1    0    0  501    0  0.00000000000E+00  0.00000000000E+00  0.18098082538E+04  0.18098082538E+04  0.00000000000E+00 0. -1.
         -2   -1    0    0    0  501 -0.00000000000E+00 -0.00000000000E+00 -0.25630801865E+03  0.25630801865E+03  0.00000000000E+00 0.  1.
         23    2    1    2    0    0 -0.53487551645E+03  0.10125927991E+02  0.14831418564E+03  0.56253980741E+03  0.90882257542E+02 0.  0.
         13    1    3    3    0    0 -0.19904265279E+03 -0.35887914859E+02  0.75155659575E+02  0.21576443921E+03  0.00000000000E+00 0. -1.
        -13    1    3    3    0    0 -0.33583286366E+03  0.46013842850E+02  0.73158526070E+02  0.34677536820E+03  0.00000000000E+00 0.  1.
         22    1    1    2    0    0  0.53487551645E+03 -0.10125927991E+02  0.14051860495E+04  0.15035764650E+04  0.00000000000E+00 0. -1.
<mgrwt>
<rscale>  0 0.13621577E+04</rscale>
<asrwt>0</asrwt>
<pdfrwt beam="1">  1        2 0.27843203E+00 0.13621577E+04</pdfrwt>
<pdfrwt beam="2">  1       -2 0.39432004E-01 0.13621577E+04</pdfrwt>
<totfact> 0.50585342E+01</totfact>
</mgrwt>
</event>
<event>
 6    1  0.3017327E-006  0.8600746E+03  0.7818608E-02  0.9476914E-01
         -2   -1    0    0    0  501 -0.00000000000E+00  0.00000000000E+00  0.15413056950E+03  0.15413056950E+03  0.00000000000E+00 0.  1.
          2   -1    0    0  501    0  0.00000000000E+00 -0.00000000000E+00 -0.11998402856E+04  0.11998402856E+04  0.00000000000E+00 0. -1.
         23    2    1    2    0    0  0.11604559151E+02 -0.95780970468E+02 -0.11806019890E+04  0.11881257906E+04  0.92266883324E+02 0.  0.
         13    1    3    3    0    0  0.94982453645E+00 -0.82075175981E+02 -0.45681010000E+03  0.46412574173E+03  0.00000000000E+00 0. -1.
        -13    1    3    3    0    0  0.10654734615E+02 -0.13705794486E+02 -0.72379188903E+03  0.72400004890E+03  0.00000000000E+00 0.  1.
         22    1    1    2    0    0 -0.11604559151E+02  0.95780970468E+02  0.13489227296E+03  0.16584506444E+03  0.00000000000E+00 0.  1.
<mgrwt>
<rscale>  0 0.86007457E+03</rscale>
<asrwt>0</asrwt>
<pdfrwt beam="1">  1        2 0.18459081E+00 0.86007457E+03</pdfrwt>
<pdfrwt beam="2">  1       -2 0.23712395E-01 0.86007457E+03</pdfrwt>
<totfact> 0.29981038E+02</totfact>
</mgrwt>
</event>
<event>
 6    1  0.3017327E-006  0.2790716E+04  0.7818608E-02  0.8306156E-01
         -1   -1    0    0    0  501 -0.00000000000E+00  0.00000000000E+00  0.77963863399E+03  0.77963863399E+03  0.00000000000E+00 0.  1.
          1   -1    0    0  501    0  0.00000000000E+00 -0.00000000000E+00 -0.24973422949E+04  0.24973422949E+04  0.00000000000E+00 0. -1.
         23    2    1    2    0    0  0.23861362052E+03  0.71156664953E+03 -0.22390206256E+04  0.23631784698E+04  0.90197348446E+02 0.  0.
         13    1    3    3    0    0  0.14333380170E+03  0.54930125906E+03 -0.16926493583E+04  0.17853118221E+04  0.00000000000E+00 0. -1.
        -13    1    3    3    0    0  0.95279818819E+02  0.16226539047E+03 -0.54637126729E+03  0.57786664771E+03  0.00000000000E+00 0.  1.
         22    1    1    2    0    0 -0.23861362052E+03 -0.71156664953E+03  0.52131696467E+03  0.91380245911E+03  0.00000000000E+00 0.  1.
<mgrwt>
<rscale>  0 0.27907164E+04</rscale>
<asrwt>0</asrwt>
<pdfrwt beam="1">  1        1 0.38420652E+00 0.27907164E+04</pdfrwt>
<pdfrwt beam="2">  1       -1 0.11994440E+00 0.27907164E+04</pdfrwt>
<totfact> 0.73026738E-01</totfact>
</mgrwt>
</event>
<event>
 6    1  0.3017327E-006  0.1697392E+04  0.7818608E-02  0.8762853E-01
          2   -1    0    0  501    0  0.00000000000E+00  0.00000000000E+00  0.10327919603E+04  0.10327919603E+04  0.00000000000E+00 0. -1.
         -2   -1    0    0    0  501 -0.00000000000E+00 -0.00000000000E+00 -0.69741540310E+03  0.69741540310E+03  0.00000000000E+00 0.  1.
         23    2    1    2    0    0  0.80495605499E+03  0.19442805348E+01  0.43459368917E+03  0.91915738340E+03  0.89557747336E+02 0.  0.
         13    1    3    3    0    0  0.31207285969E+03 -0.35937263179E+02  0.19586379827E+03  0.37019398173E+03  0.00000000000E+00 0.  1.
        -13    1    3    3    0    0  0.49288319530E+03  0.37881543713E+02  0.23872989090E+03  0.54896340167E+03  0.00000000000E+00 0. -1.
         22    1    1    2    0    0 -0.80495605499E+03 -0.19442805348E+01 -0.99217132026E+02  0.81104997995E+03  0.00000000000E+00 0.  1.
<mgrwt>
<rscale>  0 0.16973921E+04</rscale>
<asrwt>0</asrwt>
<pdfrwt beam="1">  1        2 0.15889107E+00 0.16973921E+04</pdfrwt>
<pdfrwt beam="2">  1       -2 0.10729468E+00 0.16973921E+04</pdfrwt>
<totfact> 0.15942916E+01</totfact>
</mgrwt>
</event>
<event>
 6    1  0.3017327E-006  0.2809019E+04  0.7818608E-02  0.8300474E-01
          2   -1    0    0  501    0  0.00000000000E+00  0.00000000000E+00  0.28947833590E+04  0.28947833590E+04  0.00000000000E+00 0. -1.
         -2   -1    0    0    0  501 -0.00000000000E+00 -0.00000000000E+00 -0.68144888183E+03  0.68144888183E+03  0.00000000000E+00 0.  1.
         23    2    1    2    0    0 -0.13470460784E+04  0.38447213427E+03  0.99921527248E+03  0.17224692025E+04  0.78211466109E+02 0.  0.
         11    1    3    3    0    0 -0.94536721547E+03  0.30218518749E+03  0.68579570164E+03  0.12063792124E+04  0.00000000000E+00 0. -1.
        -11    1    3    3    0    0 -0.40167886289E+03  0.82286946782E+02  0.31341957085E+03  0.51608999011E+03  0.00000000000E+00 0.  1.
         22    1    1    2    0    0  0.13470460784E+04 -0.38447213427E+03  0.12141192047E+04  0.18537630384E+04  0.00000000000E+00 0.  1.
<mgrwt>
<rscale>  0 0.28090190E+04</rscale>
<asrwt>0</asrwt>
<pdfrwt beam="1">  1        2 0.44535128E+00 0.28090190E+04</pdfrwt>
<pdfrwt beam="2">  1       -2 0.10483829E+00 0.28090190E+04</pdfrwt>
<totfact> 0.12979226E+00</totfact>
</mgrwt>
</event>
<event>
 6    1  0.3017327E-006  0.2060462E+04  0.7818608E-02  0.8578863E-01
          2   -1    0    0  501    0  0.00000000000E+00  0.00000000000E+00  0.21345562875E+04  0.21345562875E+04  0.00000000000E+00 0.  1.
         -2   -1    0    0    0  501 -0.00000000000E+00 -0.00000000000E+00 -0.49723514839E+03  0.49723514839E+03  0.00000000000E+00 0. -1.
         23    2    1    2    0    0 -0.77435124192E+03  0.38807257255E+01 -0.44664313873E+02  0.78011382627E+03  0.83353314922E+02 0.  0.
         13    1    3    3    0    0 -0.42793044895E+03  0.68299475076E+01 -0.65906810826E+02  0.43302982003E+03  0.00000000000E+00 0. -1.
        -13    1    3    3    0    0 -0.34642079296E+03 -0.29492217821E+01  0.21242496953E+02  0.34708400623E+03  0.00000000000E+00 0.  1.
         22    1    1    2    0    0  0.77435124192E+03 -0.38807257255E+01  0.16819854530E+04  0.18516776096E+04  0.00000000000E+00 0.  1.
<mgrwt>
<rscale>  0 0.20604625E+04</rscale>
<asrwt>0</asrwt>
<pdfrwt beam="1">  1        2 0.32839327E+00 0.20604625E+04</pdfrwt>
<pdfrwt beam="2">  1       -2 0.76497716E-01 0.20604625E+04</pdfrwt>
<totfact> 0.79390383E+00</totfact>
</mgrwt>
</event>
<event>
 6    1  0.3017327E-006  0.1620836E+04  0.7818608E-02  0.8807849E-01
          1   -1    0    0  501    0  0.00000000000E+00  0.00000000000E+00  0.14197102066E+04  0.14197102066E+04  0.00000000000E+00 0. -1.
         -1   -1    0    0    0  501 -0.00000000000E+00 -0.00000000000E+00 -0.46261352686E+03  0.46261352686E+03  0.00000000000E+00 0.  1.
         23    2    1    2    0    0  0.22863661947E+03  0.73469199548E+03  0.76478397195E+03  0.10892088555E+04  0.97130712002E+02 0.  0.
         11    1    3    3    0    0  0.17073300571E+03  0.65260515945E+03  0.67879212372E+03  0.95697544410E+03  0.00000000000E+00 0.  1.
        -11    1    3    3    0    0  0.57903613756E+02  0.82086836029E+02  0.85991848232E+02  0.13223341143E+03  0.00000000000E+00 0. -1.
         22    1    1    2    0    0 -0.22863661947E+03 -0.73469199548E+03  0.19231270774E+03  0.79311487790E+03  0.00000000000E+00 0. -1.
<mgrwt>
<rscale>  0 0.16208358E+04</rscale>
<asrwt>0</asrwt>
<pdfrwt beam="1">  1        1 0.21841695E+00 0.16208358E+04</pdfrwt>
<pdfrwt beam="2">  1       -1 0.71171312E-01 0.16208358E+04</pdfrwt>
<totfact> 0.14212678E+01</totfact>
</mgrwt>
</event>
<event>
 6    1  0.3017327E-006  0.1149531E+04  0.7818608E-02  0.9158217E-01
          2   -1    0    0  501    0  0.00000000000E+00  0.00000000000E+00  0.65099042252E+03  0.65099042252E+03  0.00000000000E+00 0. -1.
         -2   -1    0    0    0  501 -0.00000000000E+00 -0.00000000000E+00 -0.50746554867E+03  0.50746554867E+03  0.00000000000E+00 0.  1.
         23    2    1    2    0    0  0.32727461207E+03  0.35807694478E+03  0.37672440826E+03  0.62020900840E+03  0.86082310778E+02 0.  0.
         11    1    3    3    0    0  0.18345861449E+03  0.13976586482E+03  0.19221387691E+03  0.30022947003E+03  0.00000000000E+00 0. -1.
        -11    1    3    3    0    0  0.14381599759E+03  0.21831107996E+03  0.18451053135E+03  0.31997953837E+03  0.00000000000E+00 0.  1.
         22    1    1    2    0    0 -0.32727461207E+03 -0.35807694478E+03 -0.23319953441E+03  0.53824696278E+03  0.00000000000E+00 0.  1.
<mgrwt>
<rscale>  0 0.11495307E+04</rscale>
<asrwt>0</asrwt>
<pdfrwt beam="1">  1        2 0.10015237E+00 0.11495307E+04</pdfrwt>
<pdfrwt beam="2">  1       -2 0.78071623E-01 0.11495307E+04</pdfrwt>
<totfact> 0.64902906E+01</totfact>
</mgrwt>
</event>
<event>
 6    1  0.3017327E-006  0.3678245E+04  0.7818608E-02  0.8072800E-01
         -2   -1    0    0    0  501 -0.00000000000E+00  0.00000000000E+00  0.14968401903E+04  0.14968401903E+04  0.00000000000E+00 0.  1.
          2   -1    0    0  501    0  0.00000000000E+00 -0.00000000000E+00 -0.22596746722E+04  0.22596746722E+04  0.00000000000E+00 0. -1.
         23    2    1    2    0    0  0.14711357632E+04 -0.33875602305E+03 -0.14523573196E+04  0.20968649535E+04  0.92221324278E+02 0.  0.
         13    1    3    3    0    0  0.10405723900E+03 -0.47602583288E+02 -0.12082803877E+03  0.16641313012E+03  0.00000000000E+00 0. -1.
        -13    1    3    3    0    0  0.13670785242E+04 -0.29115343976E+03 -0.13315292809E+04  0.19304518234E+04  0.00000000000E+00 0.  1.
         22    1    1    2    0    0 -0.14711357632E+04  0.33875602305E+03  0.68952283767E+03  0.16596499090E+04  0.00000000000E+00 0.  1.
<mgrwt>
<rscale>  0 0.36782452E+04</rscale>
<asrwt>0</asrwt>
<pdfrwt beam="1">  1        2 0.34764226E+00 0.36782452E+04</pdfrwt>
<pdfrwt beam="2">  1       -2 0.23028311E+00 0.36782452E+04</pdfrwt>
<totfact> 0.32953410E-01</totfact>
</mgrwt>
</event>
<event>
 6    1  0.3017327E-006  0.1144604E+04  0.7818608E-02  0.9162776E-01
          2   -1    0    0  501    0  0.00000000000E+00  0.00000000000E+00  0.13572110882E+04  0.13572110882E+04  0.00000000000E+00 0. -1.
         -2   -1    0    0    0  501 -0.00000000000E+00 -0.00000000000E+00 -0.24132529746E+03  0.24132529746E+03  0.00000000000E+00 0.  1.
         23    2    1    2    0    0 -0.31931920255E+03  0.45197690587E+03  0.74441467944E+03  0.93202407287E+03  0.90927338447E+02 0.  0.
         11    1    3    3    0    0 -0.12962856291E+03  0.11353257317E+03  0.24775697612E+03  0.30178921238E+03  0.00000000000E+00 0.  1.
        -11    1    3    3    0    0 -0.18969063964E+03  0.33844433270E+03  0.49665770333E+03  0.63023486049E+03  0.00000000000E+00 0. -1.
         22    1    1    2    0    0  0.31931920255E+03 -0.45197690587E+03  0.37147111128E+03  0.66651231277E+03  0.00000000000E+00 0.  1.
<mgrwt>
<rscale>  0 0.11446036E+04</rscale>
<asrwt>0</asrwt>
<pdfrwt beam="1">  1        2 0.20880170E+00 0.11446036E+04</pdfrwt>
<pdfrwt beam="2">  1       -2 0.37126970E-01 0.11446036E+04</pdfrwt>
<totfact> 0.10361561E+02</totfact>
</mgrwt>
</event>
<event>
 6    1  0.3017327E-006  0.9267827E+03  0.7818608E-02  0.9392707E-01
         -2   -1    0    0    0  501 -0.00000000000E+00  0.00000000000E+00  0.29273986325E+03  0.29273986325E+03  0.00000000000E+00 0.  1.
          2   -1    0    0  501    0  0.00000000000E+00 -0.00000000000E+00 -0.73352338851E+03  0.73352338851E+03  0.00000000000E+00 0. -1.
         23    2    1    2    0    0  0.39462553239E+03  0.18987135550E+03 -0.37457976171E+03  0.58335989801E+03  0.90655006860E+02 0.  0.
         13    1    3    3    0    0  0.15356008647E+03  0.10197610417E+03 -0.20555089846E+03  0.27609961578E+03  0.00000000000E+00 0.  1.
        -13    1    3    3    0    0  0.24106544591E+03  0.87895251335E+02 -0.16902886326E+03  0.30726028223E+03  0.00000000000E+00 0. -1.
         22    1    1    2    0    0 -0.39462553239E+03 -0.18987135550E+03 -0.66203763548E+02  0.44290335375E+03  0.00000000000E+00 0. -1.
<mgrwt>
<rscale>  0 0.92678269E+03</rscale>
<asrwt>0</asrwt>
<pdfrwt beam="1">  1        2 0.11284975E+00 0.92678269E+03</pdfrwt>
<pdfrwt beam="2">  1       -2 0.45036903E-01 0.92678269E+03</pdfrwt>
<totfact> 0.18074286E+02</totfact>
</mgrwt>
</event>
<event>
 6    1  0.3017327E-006  0.2362709E+04  0.7818608E-02  0.8453598E-01
         -2   -1    0    0    0  501 -0.00000000000E+00  0.00000000000E+00  0.65258234298E+03  0.65258234298E+03  0.00000000000E+00 0.  1.
          2   -1    0    0  501    0  0.00000000000E+00 -0.00000000000E+00 -0.21385783046E+04  0.21385783046E+04  0.00000000000E+00 0. -1.
         23    2    1    2    0    0  0.48058822641E+03  0.10420694165E+04 -0.10664750242E+04  0.15693294280E+04  0.92477911838E+02 0.  0.
         13    1    3    3    0    0  0.35341104130E+03  0.68098294491E+03 -0.74508143627E+03  0.10694781354E+04  0.00000000000E+00 0. -1.
        -13    1    3    3    0    0  0.12717718510E+03  0.36108647158E+03 -0.32139358795E+03  0.49985129263E+03  0.00000000000E+00 0.  1.
         22    1    1    2    0    0 -0.48058822641E+03 -0.10420694165E+04 -0.41952093737E+03  0.12218312195E+04  0.00000000000E+00 0.  1.
<mgrwt>
<rscale>  0 0.23627090E+04</rscale>
<asrwt>0</asrwt>
<pdfrwt beam="1">  1        2 0.32901205E+00 0.23627090E+04</pdfrwt>
<pdfrwt beam="2">  1       -2 0.10039728E+00 0.23627090E+04</pdfrwt>
<totfact> 0.41258853E+00</totfact>
</mgrwt>
</event>
<event>
 6    1  0.3017327E-006  0.8074808E+03  0.7818608E-02  0.9549252E-01
          2   -1    0    0  501    0  0.00000000000E+00  0.00000000000E+00  0.69536992515E+03  0.69536992515E+03  0.00000000000E+00 0. -1.
         -2   -1    0    0    0  501 -0.00000000000E+00 -0.00000000000E+00 -0.23441668668E+03  0.23441668668E+03  0.00000000000E+00 0.  1.
         23    2    1    2    0    0 -0.15765704613E+03  0.15163982374E+03 -0.15016492041E+03  0.28069818606E+03  0.91605611168E+02 0.  0.
         13    1    3    3    0    0 -0.12619616805E+03  0.75972581522E+02 -0.60536344775E+02  0.15925437204E+03  0.00000000000E+00 0.  1.
        -13    1    3    3    0    0 -0.31460878081E+02  0.75667242214E+02 -0.89628575640E+02  0.12144381403E+03  0.00000000000E+00 0. -1.
         22    1    1    2    0    0  0.15765704613E+03 -0.15163982374E+03  0.61111815888E+03  0.64908842576E+03  0.00000000000E+00 0. -1.
<mgrwt>
<rscale>  0 0.80748081E+03</rscale>
<asrwt>0</asrwt>
<pdfrwt beam="1">  1        2 0.10697999E+00 0.80748081E+03</pdfrwt>
<pdfrwt beam="2">  1       -2 0.36064106E-01 0.80748081E+03</pdfrwt>
<totfact> 0.30036469E+02</totfact>
</mgrwt>
</event>
<event>
 6    1  0.3017327E-006  0.2974597E+04  0.7818608E-02  0.8251022E-01
         -2   -1    0    0    0  501 -0.00000000000E+00  0.00000000000E+00  0.11341719856E+04  0.11341719856E+04  0.00000000000E+00 0.  1.
          2   -1    0    0  501    0  0.00000000000E+00 -0.00000000000E+00 -0.19503712371E+04  0.19503712371E+04  0.00000000000E+00 0. -1.
         23    2    1    2    0    0 -0.13280330623E+04 -0.18893979883E+03 -0.10712117332E+04  0.17191123648E+04  0.92101483249E+02 0.  0.
         11    1    3    3    0    0 -0.49992687121E+03 -0.78792088567E+02 -0.46098242573E+03  0.68457276210E+03  0.00000000000E+00 0. -1.
        -11    1    3    3    0    0 -0.82810619107E+03 -0.11014771026E+03 -0.61022930749E+03  0.10345396027E+04  0.00000000000E+00 0.  1.
         22    1    1    2    0    0  0.13280330623E+04  0.18893979883E+03  0.25501248173E+03  0.13654308580E+04  0.00000000000E+00 0.  1.
<mgrwt>
<rscale>  0 0.29745967E+04</rscale>
<asrwt>0</asrwt>
<pdfrwt beam="1">  1        2 0.30005711E+00 0.29745967E+04</pdfrwt>
<pdfrwt beam="2">  1       -2 0.17448800E+00 0.29745967E+04</pdfrwt>
<totfact> 0.12100547E+00</totfact>
</mgrwt>
</event>
<event>
 6    1  0.3017327E-006  0.3595494E+04  0.7818608E-02  0.8091525E-01
         -2   -1    0    0    0  501 -0.00000000000E+00  0.00000000000E+00  0.88162667172E+03  0.88162667172E+03  0.00000000000E+00 0.  1.
          2   -1    0    0  501    0  0.00000000000E+00 -0.00000000000E+00 -0.36658315993E+04  0.36658315993E+04  0.00000000000E+00 0. -1.
         23    2    1    2    0    0 -0.11298475487E+04  0.70501408413E+03 -0.29182238820E+04  0.32089660513E+04  0.88499440600E+02 0.  0.
         13    1    3    3    0    0 -0.36237068989E+03  0.26040533542E+03 -0.10498897003E+04  0.11407856234E+04  0.00000000000E+00 0.  1.
        -13    1    3    3    0    0 -0.76747685881E+03  0.44460874871E+03 -0.18683341817E+04  0.20681804280E+04  0.00000000000E+00 0. -1.
         22    1    1    2    0    0  0.11298475487E+04 -0.70501408413E+03  0.13401895439E+03  0.13384922197E+04  0.00000000000E+00 0.  1.
<mgrwt>
<rscale>  0 0.35954944E+04</rscale>
<asrwt>0</asrwt>
<pdfrwt beam="1">  1        2 0.56397409E+00 0.35954944E+04</pdfrwt>
<pdfrwt beam="2">  1       -2 0.13563487E+00 0.35954944E+04</pdfrwt>
<totfact> 0.19616426E-01</totfact>
</mgrwt>
</event>
<event>
 6    1  0.3017327E-006  0.3197318E+04  0.7818608E-02  0.8189526E-01
         -2   -1    0    0    0  501 -0.00000000000E+00  0.00000000000E+00  0.19425121958E+04  0.19425121958E+04  0.00000000000E+00 0.  1.
          2   -1    0    0  501    0  0.00000000000E+00 -0.00000000000E+00 -0.13156728490E+04  0.13156728490E+04  0.00000000000E+00 0. -1.
         23    2    1    2    0    0 -0.55427274176E+03 -0.60434079165E+03 -0.10832015712E+04  0.13616919640E+04  0.91832980934E+02 0.  0.
         13    1    3    3    0    0 -0.11638273768E+03 -0.91731764954E+02 -0.15443659210E+03  0.21403345372E+03  0.00000000000E+00 0. -1.
        -13    1    3    3    0    0 -0.43789000408E+03 -0.51260902670E+03 -0.92876497906E+03  0.11476585103E+04  0.00000000000E+00 0.  1.
         22    1    1    2    0    0  0.55427274176E+03  0.60434079165E+03  0.17100409179E+04  0.18964930808E+04  0.00000000000E+00 0.  1.
<mgrwt>
<rscale>  0 0.31973180E+04</rscale>
<asrwt>0</asrwt>
<pdfrwt beam="1">  1        2 0.20241121E+00 0.31973180E+04</pdfrwt>
<pdfrwt beam="2">  1       -2 0.29884803E+00 0.31973180E+04</pdfrwt>
<totfact> 0.44037571E-01</totfact>
</mgrwt>
</event>
<event>
 6    1  0.3017327E-006  0.2542042E+04  0.7818608E-02  0.8388159E-01
          2   -1    0    0  501    0  0.00000000000E+00  0.00000000000E+00  0.24286588658E+04  0.24286588658E+04  0.00000000000E+00 0. -1.
         -2   -1    0    0    0  501 -0.00000000000E+00 -0.00000000000E+00 -0.66517974037E+03  0.66517974037E+03  0.00000000000E+00 0.  1.
         23    2    1    2    0    0  0.38885590717E+03  0.23132035412E+03 -0.56061185655E+03  0.72611461143E+03  0.90767573817E+02 0.  0.
         11    1    3    3    0    0  0.24176051659E+03  0.14950486933E+03 -0.41805810591E+03  0.50554172256E+03  0.00000000000E+00 0. -1.
        -11    1    3    3    0    0  0.14709539058E+03  0.81815484792E+02 -0.14255375064E+03  0.22057288887E+03  0.00000000000E+00 0.  1.
         22    1    1    2    0    0 -0.38885590717E+03 -0.23132035412E+03  0.23240909820E+04  0.23677239947E+04  0.00000000000E+00 0. -1.
<mgrwt>
<rscale>  0 0.25420422E+04</rscale>
<asrwt>0</asrwt>
<pdfrwt beam="1">  1        2 0.37363982E+00 0.25420422E+04</pdfrwt>
<pdfrwt beam="2">  1       -2 0.10233535E+00 0.25420422E+04</pdfrwt>
<totfact> 0.26591388E+00</totfact>
</mgrwt>
</event>
<event>
 6    1  0.3017327E-006  0.2883769E+04  0.7818608E-02  0.8277723E-01
          2   -1    0    0  501    0  0.00000000000E+00  0.00000000000E+00  0.37801405943E+04  0.37801405943E+04  0.00000000000E+00 0. -1.
         -2   -1    0    0    0  501 -0.00000000000E+00 -0.00000000000E+00 -0.54998765080E+03  0.54998765080E+03  0.00000000000E+00 0.  1.
         23    2    1    2    0    0 -0.13277329827E+04  0.25357287760E+02  0.77861751715E+03  0.15420206769E+04  0.89803477438E+02 0.  0.
         13    1    3    3    0    0 -0.47265428965E+03  0.26133511991E+02  0.23215319870E+03  0.52723822475E+03  0.00000000000E+00 0.  1.
        -13    1    3    3    0    0 -0.85507869303E+03 -0.77622423126E+00  0.54646431845E+03  0.10147824521E+04  0.00000000000E+00 0. -1.
         22    1    1    2    0    0  0.13277329827E+04 -0.25357287760E+02  0.24515354264E+04  0.27881075682E+04  0.00000000000E+00 0. -1.
<mgrwt>
<rscale>  0 0.28837688E+04</rscale>
<asrwt>0</asrwt>
<pdfrwt beam="1">  1        2 0.58156008E+00 0.28837688E+04</pdfrwt>
<pdfrwt beam="2">  1       -2 0.84613487E-01 0.28837688E+04</pdfrwt>
<totfact> 0.53488812E-01</totfact>
</mgrwt>
</event>
<event>
 6    1  0.3017327E-006  0.1119630E+04  0.7818608E-02  0.9186267E-01
          2   -1    0    0  501    0  0.00000000000E+00  0.00000000000E+00  0.13324876548E+04  0.13324876548E+04  0.00000000000E+00 0. -1.
         -2   -1    0    0    0  501 -0.00000000000E+00 -0.00000000000E+00 -0.23519396173E+03  0.23519396173E+03  0.00000000000E+00 0.  1.
         23    2    1    2    0    0  0.75828667827E+02 -0.35416239247E+03 -0.38584587748E+02  0.37545661431E+03  0.91092874115E+02 0.  0.
         13    1    3    3    0    0  0.37729232965E+02 -0.17378873566E+03  0.26813208009E+02  0.17984706778E+03  0.00000000000E+00 0. -1.
        -13    1    3    3    0    0  0.38099434862E+02 -0.18037365680E+03 -0.65397795756E+02  0.19560954654E+03  0.00000000000E+00 0.  1.
         22    1    1    2    0    0 -0.75828667827E+02  0.35416239247E+03  0.11358782809E+04  0.11922250023E+04  0.00000000000E+00 0. -1.
<mgrwt>
<rscale>  0 0.11196304E+04</rscale>
<asrwt>0</asrwt>
<pdfrwt beam="1">  1        2 0.20499810E+00 0.11196304E+04</pdfrwt>
<pdfrwt beam="2">  1       -2 0.36183687E-01 0.11196304E+04</pdfrwt>
<totfact> 0.11270207E+02</totfact>
</mgrwt>
</event>
<event>
 6    1  0.3017327E-006  0.2469353E+04  0.7818608E-02  0.8413986E-01
         -1   -1    0    0    0  501 -0.00000000000E+00  0.00000000000E+00  0.92799353906E+03  0.92799353906E+03  0.00000000000E+00 0.  1.
          1   -1    0    0  501    0  0.00000000000E+00 -0.00000000000E+00 -0.16427125540E+04  0.16427125540E+04  0.00000000000E+00 0. -1.
         23    2    1    2    0    0 -0.33974270074E+03 -0.10838186794E+04 -0.85726520235E+03  0.14259757981E+04  0.91735038164E+02 0.  0.
         11    1    3    3    0    0 -0.88477516570E+02 -0.35049093893E+03 -0.32039189359E+03  0.48303533482E+03  0.00000000000E+00 0. -1.
        -11    1    3    3    0    0 -0.25126518417E+03 -0.73332774047E+03 -0.53687330877E+03  0.94294046333E+03  0.00000000000E+00 0.  1.
         22    1    1    2    0    0  0.33974270074E+03  0.10838186794E+04  0.14254618743E+03  0.11447302949E+04  0.00000000000E+00 0.  1.
<mgrwt>
<rscale>  0 0.24693535E+04</rscale>
<asrwt>0</asrwt>
<pdfrwt beam="1">  1        1 0.25272501E+00 0.24693535E+04</pdfrwt>
<pdfrwt beam="2">  1       -1 0.14276824E+00 0.24693535E+04</pdfrwt>
<totfact> 0.18497171E+00</totfact>
</mgrwt>
</event>
<event>
 6    1  0.3017327E-006  0.1909273E+04  0.7818608E-02  0.8650254E-01
          2   -1    0    0  501    0  0.00000000000E+00  0.00000000000E+00  0.31874074219E+04  0.31874074219E+04  0.00000000000E+00 0. -1.
         -2   -1    0    0    0  501 -0.00000000000E+00 -0.00000000000E+00 -0.28591609375E+03  0.28591609375E+03  0.00000000000E+00 0.  1.
         23    2    1    2    0    0 -0.50542367715E+03 -0.79689716594E+03  0.12204654600E+04  0.15455408111E+04  0.93071334205E+02 0.  0.
         11    1    3    3    0    0 -0.42876557785E+03 -0.66616529560E+03  0.96534439761E+03  0.12488017968E+04  0.00000000000E+00 0.  1.
        -11    1    3    3    0    0 -0.76658099297E+02 -0.13073187034E+03  0.25512106240E+03  0.29673901427E+03  0.00000000000E+00 0. -1.
         22    1    1    2    0    0  0.50542367715E+03  0.79689716594E+03  0.16810258681E+04  0.19277827045E+04  0.00000000000E+00 0. -1.
<mgrwt>
<rscale>  0 0.19092732E+04</rscale>
<asrwt>0</asrwt>
<pdfrwt beam="1">  1        2 0.49037035E+00 0.19092732E+04</pdfrwt>
<pdfrwt beam="2">  1       -2 0.43987094E-01 0.19092732E+04</pdfrwt>
<totfact> 0.60872114E+00</totfact>
</mgrwt>
</event>
<event>
 6    1  0.3017327E-006  0.1440370E+04  0.7818608E-02  0.8925104E-01
         -2   -1    0    0    0  501 -0.00000000000E+00  0.00000000000E+00  0.19255152429E+03  0.19255152429E+03  0.00000000000E+00 0.  1.
          2   -1    0    0  501    0  0.00000000000E+00 -0.00000000000E+00 -0.26936504581E+04  0.26936504581E+04  0.00000000000E+00 0. -1.
         23    2    1    2    0    0 -0.66789791159E+03 -0.13396836113E+03 -0.80670234352E+03  0.10599996532E+04  0.93784068909E+02 0.  0.
         11    1    3    3    0    0 -0.34031219146E+03 -0.11603061273E+03 -0.42077955401E+03  0.55347170101E+03  0.00000000000E+00 0. -1.
        -11    1    3    3    0    0 -0.32758572013E+03 -0.17937748394E+02 -0.38592278951E+03  0.50652795215E+03  0.00000000000E+00 0.  1.
         22    1    1    2    0    0  0.66789791159E+03  0.13396836113E+03 -0.16943965903E+04  0.18262023293E+04  0.00000000000E+00 0. -1.
<mgrwt>
<rscale>  0 0.14403701E+04</rscale>
<asrwt>0</asrwt>
<pdfrwt beam="1">  1        2 0.41440773E+00 0.14403701E+04</pdfrwt>
<pdfrwt beam="2">  1       -2 0.29623314E-01 0.14403701E+04</pdfrwt>
<totfact> 0.27430436E+01</totfact>
</mgrwt>
</event>
<event>
 6    1  0.3017327E-006  0.3045943E+04  0.7818608E-02  0.8230732E-01
         -2   -1    0    0    0  501 -0.00000000000E+00  0.00000000000E+00  0.20848074407E+04  0.20848074407E+04  0.00000000000E+00 0. -1.
          2   -1    0    0  501    0  0.00000000000E+00 -0.00000000000E+00 -0.11125449072E+04  0.11125449072E+04  0.00000000000E+00 0.  1.
         23    2    1    2    0    0 -0.14894835564E+04 -0.69238948046E+02  0.16816663913E+03  0.15032669003E+04  0.90421558687E+02 0.  0.
         11    1    3    3    0    0 -0.72157546803E+03 -0.68695220351E+02  0.11028811354E+03  0.73318050802E+03  0.00000000000E+00 0.  1.
        -11    1    3    3    0    0 -0.76790808834E+03 -0.54372769535E+00  0.57878525593E+02  0.77008639223E+03  0.00000000000E+00 0. -1.
         22    1    1    2    0    0  0.14894835564E+04  0.69238948046E+02  0.80409589438E+03  0.16940854477E+04  0.00000000000E+00 0.  1.
<mgrwt>
<rscale>  0 0.30459428E+04</rscale>
<asrwt>0</asrwt>
<pdfrwt beam="1">  1        2 0.17116075E+00 0.30459428E+04</pdfrwt>
<pdfrwt beam="2">  1       -2 0.32073961E+00 0.30459428E+04</pdfrwt>
<totfact> 0.43236844E-01</totfact>
</mgrwt>
</event>
<event>
 6    1  0.3017327E-006  0.1355169E+04  0.7818608E-02  0.8986924E-01
          2   -1    0    0  501    0  0.00000000000E+00  0.00000000000E+00  0.17318025315E+04  0.17318025315E+04  0.00000000000E+00 0. -1.
         -2   -1    0    0    0  501 -0.00000000000E+00 -0.00000000000E+00 -0.26511159609E+03  0.26511159609E+03  0.00000000000E+00 0.  1.
         23    2    1    2    0    0 -0.29349149327E+03  0.28821165645E+03  0.15252776319E+04  0.15814197034E+04  0.72202550839E+02 0.  0.
         13    1    3    3    0    0 -0.23907101083E+03  0.21937046492E+03  0.10847650263E+04  0.11322515230E+04  0.00000000000E+00 0.  1.
        -13    1    3    3    0    0 -0.54420482436E+02  0.68841191531E+02  0.44051260559E+03  0.44916818036E+03  0.00000000000E+00 0. -1.
         22    1    1    2    0    0  0.29349149327E+03 -0.28821165645E+03 -0.58586696503E+02  0.41549442420E+03  0.00000000000E+00 0.  1.
<mgrwt>
<rscale>  0 0.13551693E+04</rscale>
<asrwt>0</asrwt>
<pdfrwt beam="1">  1        2 0.26643115E+00 0.13551693E+04</pdfrwt>
<pdfrwt beam="2">  1       -2 0.40786401E-01 0.13551693E+04</pdfrwt>
<totfact> 0.52327849E+01</totfact>
</mgrwt>
</event>
<event>
 6    1  0.3017327E-006  0.1837993E+04  0.7818608E-02  0.8686352E-01
          2   -1    0    0  501    0  0.00000000000E+00  0.00000000000E+00  0.16015350623E+04  0.16015350623E+04  0.00000000000E+00 0. -1.
         -2   -1    0    0    0  501 -0.00000000000E+00 -0.00000000000E+00 -0.52734045598E+03  0.52734045598E+03  0.00000000000E+00 0.  1.
         23    2    1    2    0    0  0.23341118228E+03  0.33087081031E+03  0.14910760522E+04  0.15477159764E+04  0.90336466268E+02 0.  0.
         11    1    3    3    0    0  0.16404658530E+03  0.17301894647E+03  0.96915466906E+03  0.99805190774E+03  0.00000000000E+00 0. -1.
        -11    1    3    3    0    0  0.69364596977E+02  0.15785186385E+03  0.52192138312E+03  0.54966406867E+03  0.00000000000E+00 0.  1.
         22    1    1    2    0    0 -0.23341118228E+03 -0.33087081031E+03 -0.41688144590E+03  0.58115954183E+03  0.00000000000E+00 0.  1.
<mgrwt>
<rscale>  0 0.18379926E+04</rscale>
<asrwt>0</asrwt>
<pdfrwt beam="1">  1        2 0.24639001E+00 0.18379926E+04</pdfrwt>
<pdfrwt beam="2">  1       -2 0.81129302E-01 0.18379926E+04</pdfrwt>
<totfact> 0.14029217E+01</totfact>
</mgrwt>
</event>
<event>
 6    1  0.3017327E-006  0.8069715E+03  0.7818608E-02  0.9549981E-01
         -1   -1    0    0    0  501 -0.00000000000E+00  0.00000000000E+00  0.22648843061E+03  0.22648843061E+03  0.00000000000E+00 0.  1.
          1   -1    0    0  501    0  0.00000000000E+00 -0.00000000000E+00 -0.71880378691E+03  0.71880378691E+03  0.00000000000E+00 0. -1.
         23    2    1    2    0    0 -0.28230235958E+03 -0.25677428656E+03 -0.11556280218E+03  0.40903654762E+03  0.91260503954E+02 0.  0.
         13    1    3    3    0    0 -0.22826680946E+03 -0.16786204430E+03 -0.54944409476E+02  0.28862136156E+03  0.00000000000E+00 0. -1.
        -13    1    3    3    0    0 -0.54035550123E+02 -0.88912242260E+02 -0.60618392706E+02  0.12041518606E+03  0.00000000000E+00 0.  1.
         22    1    1    2    0    0  0.28230235958E+03  0.25677428656E+03 -0.37675255412E+03  0.53625566990E+03  0.00000000000E+00 0.  1.
<mgrwt>
<rscale>  0 0.80697148E+03</rscale>
<asrwt>0</asrwt>
<pdfrwt beam="1">  1        1 0.11058519E+00 0.80697148E+03</pdfrwt>
<pdfrwt beam="2">  1       -1 0.34844375E-01 0.80697148E+03</pdfrwt>
<totfact> 0.20665160E+02</totfact>
</mgrwt>
</event>
<event>
 6    1  0.3017327E-006  0.3464796E+04  0.7818608E-02  0.8122184E-01
         -1   -1    0    0    0  501 -0.00000000000E+00  0.00000000000E+00  0.19120121523E+04  0.19120121523E+04  0.00000000000E+00 0.  1.
          1   -1    0    0  501    0  0.00000000000E+00 -0.00000000000E+00 -0.15696570765E+04  0.15696570765E+04  0.00000000000E+00 0. -1.
         23    2    1    2    0    0 -0.16429220032E+04  0.52485245816E+03  0.32199484077E+03  0.17568279751E+04  0.90005805410E+02 0.  0.
         11    1    3    3    0    0 -0.12617880017E+04  0.43251471151E+03  0.22305897096E+03  0.13523805831E+04  0.00000000000E+00 0.  1.
        -11    1    3    3    0    0 -0.38113400147E+03  0.92337746647E+02  0.98935869810E+02  0.40444739196E+03  0.00000000000E+00 0. -1.
         22    1    1    2    0    0  0.16429220032E+04 -0.52485245816E+03  0.20360235034E+02  0.17248412538E+04  0.00000000000E+00 0. -1.
<mgrwt>
<rscale>  0 0.34647963E+04</rscale>
<asrwt>0</asrwt>
<pdfrwt beam="1">  1        1 0.24148570E+00 0.34647963E+04</pdfrwt>
<pdfrwt beam="2">  1       -1 0.29415572E+00 0.34647963E+04</pdfrwt>
<totfact> 0.17262029E-01</totfact>
</mgrwt>
</event>
<event>
 6    1  0.3017327E-006  0.2928031E+04  0.7818608E-02  0.8264586E-01
          2   -1    0    0  501    0  0.00000000000E+00  0.00000000000E+00  0.16580718488E+04  0.16580718488E+04  0.00000000000E+00 0. -1.
         -2   -1    0    0    0  501 -0.00000000000E+00 -0.00000000000E+00 -0.12926711129E+04  0.12926711129E+04  0.00000000000E+00 0.  1.
         23    2    1    2    0    0 -0.80247081940E+03  0.11650674203E+04 -0.19139061723E+03  0.14304278231E+04  0.90287754901E+02 0.  0.
         13    1    3    3    0    0 -0.34381818746E+03  0.45142648205E+03 -0.41450857968E+02  0.56895956653E+03  0.00000000000E+00 0.  1.
        -13    1    3    3    0    0 -0.45865263194E+03  0.71364093828E+03 -0.14993975927E+03  0.86146825652E+03  0.00000000000E+00 0. -1.
         22    1    1    2    0    0  0.80247081940E+03 -0.11650674203E+04  0.55679135316E+03  0.15203151387E+04  0.00000000000E+00 0.  1.
<mgrwt>
<rscale>  0 0.29280311E+04</rscale>
<asrwt>0</asrwt>
<pdfrwt beam="1">  1        2 0.25508798E+00 0.29280311E+04</pdfrwt>
<pdfrwt beam="2">  1       -2 0.19887248E+00 0.29280311E+04</pdfrwt>
<totfact> 0.12057707E+00</totfact>
</mgrwt>
</event>
<event>
 6    1  0.3017327E-006  0.1210694E+04  0.7818608E-02  0.9103547E-01
         -1   -1    0    0    0  501 -0.00000000000E+00  0.00000000000E+00  0.28619899075E+03  0.28619899075E+03  0.00000000000E+00 0.  1.
          1   -1    0    0  501    0  0.00000000000E+00 -0.00000000000E+00 -0.12803863141E+04  0.12803863141E+04  0.00000000000E+00 0. -1.
         23    2    1    2    0    0  0.47583480004E+03  0.85710458595E+02 -0.36422621952E+02  0.49370215050E+03  0.93006270640E+02 0.  0.
         13    1    3    3    0    0  0.10382923850E+02 -0.39991817488E+00 -0.17036458252E+02  0.19955098396E+02  0.00000000000E+00 0. -1.
        -13    1    3    3    0    0  0.46545187619E+03  0.86110376770E+02 -0.19386163701E+02  0.47374705210E+03  0.00000000000E+00 0.  1.
         22    1    1    2    0    0 -0.47583480004E+03 -0.85710458595E+02 -0.95776470144E+03  0.10728831544E+04  0.00000000000E+00 0. -1.
<mgrwt>
<rscale>  0 0.12106945E+04</rscale>
<asrwt>0</asrwt>
<pdfrwt beam="1">  1        1 0.19698251E+00 0.12106945E+04</pdfrwt>
<pdfrwt beam="2">  1       -1 0.44030613E-01 0.12106945E+04</pdfrwt>
<totfact> 0.47113071E+01</totfact>
</mgrwt>
</event>
<event>
 6    1  0.3017327E-006  0.2797443E+04  0.7818608E-02  0.8304062E-01
          2   -1    0    0  501    0  0.00000000000E+00  0.00000000000E+00  0.33915035795E+04  0.33915035795E+04  0.00000000000E+00 0. -1.
         -2   -1    0    0    0  501 -0.00000000000E+00 -0.00000000000E+00 -0.57685992485E+03  0.57685992485E+03  0.00000000000E+00 0.  1.
         23    2    1    2    0    0 -0.95796023999E+03  0.14116028092E+02  0.28515501770E+04  0.30095886741E+04  0.91643286715E+02 0.  0.
         11    1    3    3    0    0 -0.64605379341E+03  0.48011192105E+02  0.18606455138E+04  0.19702010828E+04  0.00000000000E+00 0. -1.
        -11    1    3    3    0    0 -0.31190644658E+03 -0.33895164013E+02  0.99090466314E+03  0.10393875913E+04  0.00000000000E+00 0.  1.
         22    1    1    2    0    0  0.95796023999E+03 -0.14116028092E+02 -0.36906522324E+02  0.95877483021E+03  0.00000000000E+00 0.  1.
<mgrwt>
<rscale>  0 0.27974435E+04</rscale>
<asrwt>0</asrwt>
<pdfrwt beam="1">  1        2 0.52176977E+00 0.27974435E+04</pdfrwt>
<pdfrwt beam="2">  1       -2 0.88747683E-01 0.27974435E+04</pdfrwt>
<totfact> 0.91765979E-01</totfact>
</mgrwt>
</event>
<event>
 6    1  0.3017327E-006  0.3333772E+04  0.7818608E-02  0.8154355E-01
          2   -1    0    0  501    0  0.00000000000E+00  0.00000000000E+00  0.26808493617E+04  0.26808493617E+04  0.00000000000E+00 0. -1.
         -2   -1    0    0    0  501 -0.00000000000E+00 -0.00000000000E+00 -0.10364286183E+04  0.10364286183E+04  0.00000000000E+00 0.  1.
         23    2    1    2    0    0 -0.75116266825E+03 -0.10491808653E+04  0.19970511636E+04  0.23796031109E+04  0.96290044713E+02 0.  0.
         13    1    3    3    0    0 -0.19926751097E+03 -0.30916481107E+03  0.49813606052E+03  0.61921721239E+03  0.00000000000E+00 0.  1.
        -13    1    3    3    0    0 -0.55189515727E+03 -0.74001605426E+03  0.14989151031E+04  0.17603858985E+04  0.00000000000E+00 0. -1.
         22    1    1    2    0    0  0.75116266825E+03  0.10491808653E+04 -0.35263042022E+03  0.13376748692E+04  0.00000000000E+00 0.  1.
<mgrwt>
<rscale>  0 0.33337720E+04</rscale>
<asrwt>0</asrwt>
<pdfrwt beam="1">  1        2 0.41243836E+00 0.33337720E+04</pdfrwt>
<pdfrwt beam="2">  1       -2 0.15945056E+00 0.33337720E+04</pdfrwt>
<totfact> 0.57715143E-01</totfact>
</mgrwt>
</event>
<event>
 6    1  0.3017327E-006  0.2982148E+04  0.7818608E-02  0.8248847E-01
         -2   -1    0    0    0  501 -0.00000000000E+00  0.00000000000E+00  0.12961141415E+04  0.12961141415E+04  0.00000000000E+00 0.  1.
          2   -1    0    0  501    0  0.00000000000E+00 -0.00000000000E+00 -0.17153590099E+04  0.17153590099E+04  0.00000000000E+00 0. -1.
         23    2    1    2    0    0  0.52926666029E+03  0.81311986772E+03  0.93159997841E+03  0.13483228525E+04  0.93855621689E+02 0.  0.
         13    1    3    3    0    0  0.12772461127E+03  0.27234696351E+03  0.30485191760E+03  0.42827693905E+03  0.00000000000E+00 0. -1.
        -13    1    3    3    0    0  0.40154204902E+03  0.54077290422E+03  0.62674806081E+03  0.92004591341E+03  0.00000000000E+00 0.  1.
         22    1    1    2    0    0 -0.52926666029E+03 -0.81311986772E+03 -0.13508448467E+04  0.16631502990E+04  0.00000000000E+00 0. -1.
<mgrwt>
<rscale>  0 0.29821476E+04</rscale>
<asrwt>0</asrwt>
<pdfrwt beam="1">  1        2 0.26390138E+00 0.29821476E+04</pdfrwt>
<pdfrwt beam="2">  1       -2 0.19940218E+00 0.29821476E+04</pdfrwt>
<totfact> 0.11064604E+00</totfact>
</mgrwt>
</event>
<event>
 6    1  0.3017327E-006  0.3856818E+04  0.7818608E-02  0.8034071E-01
         -2   -1    0    0    0  501 -0.00000000000E+00  0.00000000000E+00  0.30120359089E+04  0.30120359089E+04  0.00000000000E+00 0.  1.
          2   -1    0    0  501    0  0.00000000000E+00 -0.00000000000E+00 -0.12346338174E+04  0.12346338174E+04  0.00000000000E+00 0. -1.
         23    2    1    2    0    0 -0.59497441058E+03  0.72421932743E+03 -0.96499662934E+03  0.13485256776E+04  0.93887299228E+02 0.  0.
         13    1    3    3    0    0 -0.25618896305E+03  0.38369420208E+03 -0.48861026242E+03  0.67200745088E+03  0.00000000000E+00 0.  1.
        -13    1    3    3    0    0 -0.33878544753E+03  0.34052512535E+03 -0.47638636692E+03  0.67651822668E+03  0.00000000000E+00 0. -1.
         22    1    1    2    0    0  0.59497441058E+03 -0.72421932743E+03  0.27423987208E+04  0.28981440488E+04  0.00000000000E+00 0.  1.
<mgrwt>
<rscale>  0 0.38568181E+04</rscale>
<asrwt>0</asrwt>
<pdfrwt beam="1">  1        2 0.18994366E+00 0.38568181E+04</pdfrwt>
<pdfrwt beam="2">  1       -2 0.46339014E+00 0.38568181E+04</pdfrwt>
<totfact> 0.40824949E-02</totfact>
</mgrwt>
</event>
<event>
 6    1  0.3017327E-006  0.7040965E+03  0.7818608E-02  0.9710252E-01
          2   -1    0    0  501    0  0.00000000000E+00  0.00000000000E+00  0.13541034866E+04  0.13541034866E+04  0.00000000000E+00 0. -1.
         -2   -1    0    0    0  501 -0.00000000000E+00 -0.00000000000E+00 -0.91527705088E+02  0.91527705088E+02  0.00000000000E+00 0.  1.
         23    2    1    2    0    0 -0.23134380477E+03  0.62349733858E+02  0.13252816291E+03  0.29046234445E+03  0.96939229738E+02 0.  0.
         13    1    3    3    0    0 -0.66171697375E+02  0.30772110503E+02 -0.51068121421E+01  0.73155285855E+02  0.00000000000E+00 0.  1.
        -13    1    3    3    0    0 -0.16517210740E+03  0.31577623356E+02  0.13763497505E+03  0.21730705860E+03  0.00000000000E+00 0. -1.
         22    1    1    2    0    0  0.23134380477E+03 -0.62349733858E+02  0.11300476186E+04  0.11551688473E+04  0.00000000000E+00 0. -1.
<mgrwt>
<rscale>  0 0.70409654E+03</rscale>
<asrwt>0</asrwt>
<pdfrwt beam="1">  1        2 0.20832360E+00 0.70409654E+03</pdfrwt>
<pdfrwt beam="2">  1       -2 0.14081186E-01 0.70409654E+03</pdfrwt>
<totfact> 0.60653311E+02</totfact>
</mgrwt>
</event>
<event>
 6    1  0.3017327E-006  0.1968613E+04  0.7818608E-02  0.8621437E-01
          2   -1    0    0  501    0  0.00000000000E+00  0.00000000000E+00  0.70984386078E+03  0.70984386078E+03  0.00000000000E+00 0. -1.
         -2   -1    0    0    0  501 -0.00000000000E+00 -0.00000000000E+00 -0.13648907946E+04  0.13648907946E+04  0.00000000000E+00 0.  1.
         23    2    1    2    0    0  0.91180703871E+03  0.12706734921E+03 -0.68905113396E+03  0.11534885033E+04  0.90587388722E+02 0.  0.
         13    1    3    3    0    0  0.59315527204E+03  0.71761831218E+02 -0.39390226973E+03  0.71564092621E+03  0.00000000000E+00 0. -1.
        -13    1    3    3    0    0  0.31865176667E+03  0.55305517996E+02 -0.29514886422E+03  0.43784757710E+03  0.00000000000E+00 0.  1.
         22    1    1    2    0    0 -0.91180703871E+03 -0.12706734921E+03  0.34004200142E+02  0.92124615207E+03  0.00000000000E+00 0.  1.
<mgrwt>
<rscale>  0 0.19686131E+04</rscale>
<asrwt>0</asrwt>
<pdfrwt beam="1">  1        2 0.10920675E+00 0.19686131E+04</pdfrwt>
<pdfrwt beam="2">  1       -2 0.20998319E+00 0.19686131E+04</pdfrwt>
<totfact> 0.42915814E+00</totfact>
</mgrwt>
</event>
<event>
 6    1  0.3017327E-006  0.9586070E+03  0.7818608E-02  0.9355146E-01
          2   -1    0    0  501    0  0.00000000000E+00  0.00000000000E+00  0.15338310100E+04  0.15338310100E+04  0.00000000000E+00 0. -1.
         -2   -1    0    0    0  501 -0.00000000000E+00 -0.00000000000E+00 -0.14977650566E+03  0.14977650566E+03  0.00000000000E+00 0.  1.
         23    2    1    2    0    0 -0.10665668258E+03  0.46012809996E+03  0.60892653356E+03  0.77590883911E+03  0.90274509260E+02 0.  0.
         13    1    3    3    0    0 -0.98807499423E+02  0.23291116607E+03  0.30264318985E+03  0.39446601068E+03  0.00000000000E+00 0.  1.
        -13    1    3    3    0    0 -0.78491831575E+01  0.22721693389E+03  0.30628334372E+03  0.38144282843E+03  0.00000000000E+00 0. -1.
         22    1    1    2    0    0  0.10665668258E+03 -0.46012809996E+03  0.77512797077E+03  0.90769867654E+03  0.00000000000E+00 0. -1.
<mgrwt>
<rscale>  0 0.95860701E+03</rscale>
<asrwt>0</asrwt>
<pdfrwt beam="1">  1        2 0.23597399E+00 0.95860701E+03</pdfrwt>
<pdfrwt beam="2">  1       -2 0.23042540E-01 0.95860701E+03</pdfrwt>
<totfact> 0.20188716E+02</totfact>
</mgrwt>
</event>
<event>
 6    1  0.3017327E-006  0.3393431E+04  0.7818608E-02  0.8139520E-01
          1   -1    0    0  501    0  0.00000000000E+00  0.00000000000E+00  0.17704089187E+04  0.17704089187E+04  0.00000000000E+00 0. -1.
         -1   -1    0    0    0  501 -0.00000000000E+00 -0.00000000000E+00 -0.16260894610E+04  0.16260894610E+04  0.00000000000E+00 0.  1.
         23    2    1    2    0    0 -0.61939791355E+03 -0.25891404393E+03  0.16305695363E+04  0.17656613083E+04  0.90069890858E+02 0.  0.
         13    1    3    3    0    0 -0.45028707365E+03 -0.14914452031E+03  0.11946702349E+04  0.12853946891E+04  0.00000000000E+00 0.  1.
        -13    1    3    3    0    0 -0.16911083991E+03 -0.10976952362E+03  0.43589930145E+03  0.48026661917E+03  0.00000000000E+00 0. -1.
         22    1    1    2    0    0  0.61939791355E+03  0.25891404393E+03 -0.14862500786E+04  0.16308370714E+04  0.00000000000E+00 0.  1.
<mgrwt>
<rscale>  0 0.33934309E+04</rscale>
<asrwt>0</asrwt>
<pdfrwt beam="1">  1        1 0.27237060E+00 0.33934309E+04</pdfrwt>
<pdfrwt beam="2">  1       -1 0.25016761E+00 0.33934309E+04</pdfrwt>
<totfact> 0.24429179E-01</totfact>
</mgrwt>
</event>
<event>
 6    1  0.3017327E-006  0.7448075E+03  0.7818608E-02  0.9643532E-01
          2   -1    0    0  501    0  0.00000000000E+00  0.00000000000E+00  0.19053852116E+03  0.19053852116E+03  0.00000000000E+00 0. -1.
         -2   -1    0    0    0  501 -0.00000000000E+00 -0.00000000000E+00 -0.72785581776E+03  0.72785581776E+03  0.00000000000E+00 0.  1.
         23    2    1    2    0    0  0.83176824544E+02 -0.15180567472E+03  0.12585243741E+03  0.23300580449E+03  0.92138601601E+02 0.  0.
         11    1    3    3    0    0  0.31734094114E+02 -0.26700080502E+02 -0.85210277589E+01  0.42338575107E+02  0.00000000000E+00 0.  1.
        -11    1    3    3    0    0  0.51442730431E+02 -0.12510559422E+03  0.13437346517E+03  0.19066722938E+03  0.00000000000E+00 0. -1.
         22    1    1    2    0    0 -0.83176824544E+02  0.15180567472E+03 -0.66316973401E+03  0.68538853442E+03  0.00000000000E+00 0.  1.
<mgrwt>
<rscale>  0 0.74480755E+03</rscale>
<asrwt>0</asrwt>
<pdfrwt beam="1">  1        2 0.29313618E-01 0.74480755E+03</pdfrwt>
<pdfrwt beam="2">  1       -2 0.11197782E+00 0.74480755E+03</pdfrwt>
<totfact> 0.11602047E+02</totfact>
</mgrwt>
</event>
<event>
 6    1  0.3017327E-006  0.2496314E+04  0.7818608E-02  0.8404300E-01
         -2   -1    0    0    0  501 -0.00000000000E+00  0.00000000000E+00  0.68846603465E+03  0.68846603465E+03  0.00000000000E+00 0.  1.
          2   -1    0    0  501    0  0.00000000000E+00 -0.00000000000E+00 -0.22628506723E+04  0.22628506723E+04  0.00000000000E+00 0. -1.
         23    2    1    2    0    0  0.70611442532E+03  0.70722643527E+03 -0.16689589623E+04  0.19474685535E+04  0.91885454754E+02 0.  0.
         13    1    3    3    0    0  0.58183467118E+03  0.53301055481E+03 -0.12865402726E+04  0.15092440853E+04  0.00000000000E+00 0. -1.
        -13    1    3    3    0    0  0.12427975415E+03  0.17421588046E+03 -0.38241868970E+03  0.43822446820E+03  0.00000000000E+00 0.  1.
         22    1    1    2    0    0 -0.70611442532E+03 -0.70722643527E+03  0.94574324573E+02  0.10038481535E+04  0.00000000000E+00 0.  1.
<mgrwt>
<rscale>  0 0.24963139E+04</rscale>
<asrwt>0</asrwt>
<pdfrwt beam="1">  1        2 0.34813087E+00 0.24963139E+04</pdfrwt>
<pdfrwt beam="2">  1       -2 0.10591785E+00 0.24963139E+04</pdfrwt>
<totfact> 0.30557743E+00</totfact>
</mgrwt>
</event>
<event>
 6    1  0.3017327E-006  0.8986823E+03  0.7818608E-02  0.9427230E-01
          2   -1    0    0  501    0  0.00000000000E+00  0.00000000000E+00  0.59319174928E+03  0.59319174928E+03  0.00000000000E+00 0.  1.
         -2   -1    0    0    0  501 -0.00000000000E+00 -0.00000000000E+00 -0.34037472024E+03  0.34037472024E+03  0.00000000000E+00 0. -1.
         23    2    1    2    0    0 -0.26298213238E+03  0.21983112323E+03  0.42248922896E+03  0.55110865470E+03  0.87967471292E+02 0.  0.
         11    1    3    3    0    0 -0.11070816193E+03  0.60340889428E+02  0.20960837769E+03  0.24460783318E+03  0.00000000000E+00 0.  1.
        -11    1    3    3    0    0 -0.15227397045E+03  0.15949023380E+03  0.21288085127E+03  0.30650082152E+03  0.00000000000E+00 0. -1.
         22    1    1    2    0    0  0.26298213238E+03 -0.21983112323E+03 -0.16967219992E+03  0.38245781482E+03  0.00000000000E+00 0. -1.
<mgrwt>
<rscale>  0 0.89868231E+03</rscale>
<asrwt>0</asrwt>
<pdfrwt beam="1">  1        2 0.91260269E-01 0.89868231E+03</pdfrwt>
<pdfrwt beam="2">  1       -2 0.52365342E-01 0.89868231E+03</pdfrwt>
<totfact> 0.17368790E+02</totfact>
</mgrwt>
</event>
<event>
 6    1  0.3017327E-006  0.2587245E+04  0.7818608E-02  0.8372547E-01
         -2   -1    0    0    0  501 -0.00000000000E+00  0.00000000000E+00  0.80480679268E+03  0.80480679268E+03  0.00000000000E+00 0.  1.
          2   -1    0    0  501    0  0.00000000000E+00 -0.00000000000E+00 -0.20793310501E+04  0.20793310501E+04  0.00000000000E+00 0. -1.
         23    2    1    2    0    0 -0.87033222983E+03  0.35036484558E+03 -0.16282282050E+04  0.18814712991E+04  0.92592906650E+02 0.  0.
         13    1    3    3    0    0 -0.71201479287E+03  0.31170658633E+03 -0.12907818577E+04  0.15067328448E+04  0.00000000000E+00 0. -1.
        -13    1    3    3    0    0 -0.15831743696E+03  0.38658259251E+02 -0.33744634725E+03  0.37473845429E+03  0.00000000000E+00 0.  1.
         22    1    1    2    0    0  0.87033222983E+03 -0.35036484558E+03  0.35370394760E+03  0.10026665437E+04  0.00000000000E+00 0.  1.
<mgrwt>
<rscale>  0 0.25872454E+04</rscale>
<asrwt>0</asrwt>
<pdfrwt beam="1">  1        2 0.31989708E+00 0.25872454E+04</pdfrwt>
<pdfrwt beam="2">  1       -2 0.12381643E+00 0.25872454E+04</pdfrwt>
<totfact> 0.26238426E+00</totfact>
</mgrwt>
</event>
<event>
 6    1  0.3017327E-006  0.4500370E+04  0.7818608E-02  0.7910572E-01
          2   -1    0    0  501    0  0.00000000000E+00  0.00000000000E+00  0.17385811682E+04  0.17385811682E+04  0.00000000000E+00 0. -1.
         -2   -1    0    0    0  501 -0.00000000000E+00 -0.00000000000E+00 -0.29123358216E+04  0.29123358216E+04  0.00000000000E+00 0.  1.
         23    2    1    2    0    0  0.56864080308E+03 -0.41798214233E+03 -0.27943061432E+04  0.28833625875E+04  0.87014682718E+02 0.  0.
         13    1    3    3    0    0  0.44471474310E+03 -0.35229822014E+03 -0.21184475313E+04  0.21931040061E+04  0.00000000000E+00 0. -1.
        -13    1    3    3    0    0  0.12392605998E+03 -0.65683922188E+02 -0.67585861187E+03  0.69025858142E+03  0.00000000000E+00 0.  1.
         22    1    1    2    0    0 -0.56864080308E+03  0.41798214233E+03  0.16205514897E+04  0.17675544023E+04  0.00000000000E+00 0. -1.
<mgrwt>
<rscale>  0 0.45003699E+04</rscale>
<asrwt>0</asrwt>
<pdfrwt beam="1">  1        2 0.26747403E+00 0.45003699E+04</pdfrwt>
<pdfrwt beam="2">  1       -2 0.44805166E+00 0.45003699E+04</pdfrwt>
<totfact> 0.25317894E-02</totfact>
</mgrwt>
</event>
<event>
 6    1  0.3017327E-006  0.1314460E+04  0.7818608E-02  0.9018177E-01
          1   -1    0    0  501    0  0.00000000000E+00  0.00000000000E+00  0.87819021390E+03  0.87819021390E+03  0.00000000000E+00 0. -1.
         -1   -1    0    0    0  501 -0.00000000000E+00 -0.00000000000E+00 -0.49186496005E+03  0.49186496005E+03  0.00000000000E+00 0.  1.
         23    2    1    2    0    0 -0.94210599847E+02 -0.64732130507E+03  0.18889517548E+03  0.68676962239E+03  0.89836617200E+02 0.  0.
         11    1    3    3    0    0 -0.92158988485E+02 -0.41640125062E+03  0.91728412595E+02  0.43623088194E+03  0.00000000000E+00 0.  1.
        -11    1    3    3    0    0 -0.20516113619E+01 -0.23092005445E+03  0.97166762890E+02  0.25053874045E+03  0.00000000000E+00 0. -1.
         22    1    1    2    0    0  0.94210599847E+02  0.64732130507E+03  0.19743007837E+03  0.68328555156E+03  0.00000000000E+00 0.  1.
<mgrwt>
<rscale>  0 0.13144596E+04</rscale>
<asrwt>0</asrwt>
<pdfrwt beam="1">  1        1 0.13510619E+00 0.13144596E+04</pdfrwt>
<pdfrwt beam="2">  1       -1 0.75671533E-01 0.13144596E+04</pdfrwt>
<totfact> 0.32677132E+01</totfact>
</mgrwt>
</event>
<event>
 6    1  0.3017327E-006  0.2477447E+04  0.7818608E-02  0.8411064E-01
          2   -1    0    0  501    0  0.00000000000E+00  0.00000000000E+00  0.20686903896E+04  0.20686903896E+04  0.00000000000E+00 0. -1.
         -2   -1    0    0    0  501 -0.00000000000E+00 -0.00000000000E+00 -0.74174280237E+03  0.74174280237E+03  0.00000000000E+00 0.  1.
         23    2    1    2    0    0  0.91092632806E+03 -0.33258918389E+03 -0.20681959622E+03  0.99581364136E+03  0.92022402448E+02 0.  0.
         11    1    3    3    0    0  0.31382062012E+03 -0.10161604256E+03 -0.27787484044E+02  0.33103073270E+03  0.00000000000E+00 0.  1.
        -11    1    3    3    0    0  0.59710570793E+03 -0.23097314133E+03 -0.17903211217E+03  0.66478290866E+03  0.00000000000E+00 0. -1.
         22    1    1    2    0    0 -0.91092632806E+03  0.33258918389E+03  0.15337671834E+04  0.18146195506E+04  0.00000000000E+00 0. -1.
<mgrwt>
<rscale>  0 0.24774472E+04</rscale>
<asrwt>0</asrwt>
<pdfrwt beam="1">  1        2 0.31826006E+00 0.24774472E+04</pdfrwt>
<pdfrwt beam="2">  1       -2 0.11411428E+00 0.24774472E+04</pdfrwt>
<totfact> 0.32843516E+00</totfact>
</mgrwt>
</event>
<event>
 6    1  0.3017327E-006  0.1256940E+04  0.7818608E-02  0.9064427E-01
          1   -1    0    0  501    0  0.00000000000E+00  0.00000000000E+00  0.22819650488E+04  0.22819650488E+04  0.00000000000E+00 0. -1.
         -1   -1    0    0    0  501 -0.00000000000E+00 -0.00000000000E+00 -0.17308530800E+03  0.17308530800E+03  0.00000000000E+00 0.  1.
         23    2    1    2    0    0 -0.87664070658E+02  0.58095233003E+03  0.64356297007E+03  0.87633447430E+03  0.92726562266E+02 0.  0.
         13    1    3    3    0    0 -0.22792677055E+02  0.21909285317E+03  0.17852623761E+03  0.28353624452E+03  0.00000000000E+00 0. -1.
        -13    1    3    3    0    0 -0.64871393603E+02  0.36185947686E+03  0.46503673245E+03  0.59279822978E+03  0.00000000000E+00 0.  1.
         22    1    1    2    0    0  0.87664070658E+02 -0.58095233003E+03  0.14653167707E+04  0.15787158825E+04  0.00000000000E+00 0. -1.
<mgrwt>
<rscale>  0 0.12569401E+04</rscale>
<asrwt>0</asrwt>
<pdfrwt beam="1">  1        1 0.35107153E+00 0.12569401E+04</pdfrwt>
<pdfrwt beam="2">  1       -1 0.26628510E-01 0.12569401E+04</pdfrwt>
<totfact> 0.23791250E+01</totfact>
</mgrwt>
</event>
<event>
 6    1  0.4220281E-006  0.2396953E+04  0.7818608E-02  0.8440645E-01
          2   -1    0    0  501    0  0.00000000000E+00  0.00000000000E+00  0.13459248604E+04  0.13459248604E+04  0.00000000000E+00 0.  1.
         -2   -1    0    0    0  501 -0.00000000000E+00 -0.00000000000E+00 -0.10671813525E+04  0.10671813525E+04  0.00000000000E+00 0. -1.
         23    2    1    2    0    0 -0.58615504447E+03  0.43546301521E+03  0.10942023878E+04  0.13184926014E+04  0.89096019068E+02 0.  0.
         13    1    3    3    0    0 -0.21520897587E+03  0.11099310383E+03  0.33479343775E+03  0.41318400060E+03  0.00000000000E+00 0. -1.
        -13    1    3    3    0    0 -0.37094606860E+03  0.32446991138E+03  0.75940895005E+03  0.90530860076E+03  0.00000000000E+00 0.  1.
         22    1    1    2    0    0  0.58615504447E+03 -0.43546301521E+03 -0.81545887994E+03  0.10946136116E+04  0.00000000000E+00 0. -1.
<mgrwt>
<rscale>  0 0.23969530E+04</rscale>
<asrwt>0</asrwt>
<pdfrwt beam="1">  1        2 0.20706536E+00 0.23969530E+04</pdfrwt>
<pdfrwt beam="2">  1       -2 0.16418175E+00 0.23969530E+04</pdfrwt>
<totfact> 0.32823208E+00</totfact>
</mgrwt>
</event>
<event>
 6    1  0.3017327E-006  0.1120354E+04  0.7818608E-02  0.9185578E-01
          2   -1    0    0  501    0  0.00000000000E+00  0.00000000000E+00  0.25942042840E+04  0.25942042840E+04  0.00000000000E+00 0. -1.
         -2   -1    0    0    0  501 -0.00000000000E+00 -0.00000000000E+00 -0.12096123838E+03  0.12096123838E+03  0.00000000000E+00 0.  1.
         23    2    1    2    0    0 -0.16023231812E+03 -0.14198129696E+03  0.24895779136E+04  0.25004566209E+04  0.91934982181E+02 0.  0.
         13    1    3    3    0    0 -0.13128691636E+03 -0.58519260291E+02  0.16470874835E+04  0.16533474941E+04  0.00000000000E+00 0.  1.
        -13    1    3    3    0    0 -0.28945401763E+02 -0.83462036668E+02  0.84249043014E+03  0.84710912681E+03  0.00000000000E+00 0. -1.
         22    1    1    2    0    0  0.16023231812E+03  0.14198129696E+03 -0.16334867946E+02  0.21470890146E+03  0.00000000000E+00 0.  1.
<mgrwt>
<rscale>  0 0.11203538E+04</rscale>
<asrwt>0</asrwt>
<pdfrwt beam="1">  1        2 0.39910831E+00 0.11203538E+04</pdfrwt>
<pdfrwt beam="2">  1       -2 0.18609423E-01 0.11203538E+04</pdfrwt>
<totfact> 0.74481618E+01</totfact>
</mgrwt>
</event>
<event>
 6    1  0.3017327E-006  0.3974652E+04  0.7818608E-02  0.8009680E-01
          2   -1    0    0  501    0  0.00000000000E+00  0.00000000000E+00  0.25102019262E+04  0.25102019262E+04  0.00000000000E+00 0. -1.
         -2   -1    0    0    0  501 -0.00000000000E+00 -0.00000000000E+00 -0.15733652135E+04  0.15733652135E+04  0.00000000000E+00 0.  1.
         23    2    1    2    0    0  0.19114924894E+03 -0.79851913475E+03  0.23268829357E+04  0.24691324567E+04  0.89777772019E+02 0.  0.
         11    1    3    3    0    0  0.99482772439E+02 -0.29560287444E+03  0.98358413177E+03  0.10318505830E+04  0.00000000000E+00 0. -1.
        -11    1    3    3    0    0  0.91666476503E+02 -0.50291626031E+03  0.13432988039E+04  0.14372818737E+04  0.00000000000E+00 0.  1.
         22    1    1    2    0    0 -0.19114924894E+03  0.79851913475E+03 -0.13900462230E+04  0.16144346831E+04  0.00000000000E+00 0.  1.
<mgrwt>
<rscale>  0 0.39746519E+04</rscale>
<asrwt>0</asrwt>
<pdfrwt beam="1">  1        2 0.38618491E+00 0.39746519E+04</pdfrwt>
<pdfrwt beam="2">  1       -2 0.24205619E+00 0.39746519E+04</pdfrwt>
<totfact> 0.19527208E-01</totfact>
</mgrwt>
</event>
<event>
 6    1  0.3017327E-006  0.1229451E+04  0.7818608E-02  0.9087462E-01
          1   -1    0    0  501    0  0.00000000000E+00  0.00000000000E+00  0.85398736364E+03  0.85398736364E+03  0.00000000000E+00 0. -1.
         -1   -1    0    0    0  501 -0.00000000000E+00 -0.00000000000E+00 -0.44249736938E+03  0.44249736938E+03  0.00000000000E+00 0.  1.
         23    2    1    2    0    0  0.19790583772E+03 -0.38761298412E+03 -0.24596861069E+03  0.50802905050E+03  0.90456689349E+02 0.  0.
         13    1    3    3    0    0  0.67227157069E+02 -0.18942695227E+03 -0.15492104616E+03  0.25377665660E+03  0.00000000000E+00 0. -1.
        -13    1    3    3    0    0  0.13067868065E+03 -0.19818603185E+03 -0.91047564537E+02  0.25425239390E+03  0.00000000000E+00 0.  1.
         22    1    1    2    0    0 -0.19790583772E+03  0.38761298412E+03  0.65745860496E+03  0.78845568252E+03  0.00000000000E+00 0. -1.
<mgrwt>
<rscale>  0 0.12294505E+04</rscale>
<asrwt>0</asrwt>
<pdfrwt beam="1">  1        1 0.13138267E+00 0.12294505E+04</pdfrwt>
<pdfrwt beam="2">  1       -1 0.68076519E-01 0.12294505E+04</pdfrwt>
<totfact> 0.42886901E+01</totfact>
</mgrwt>
</event>
<event>
 6    1  0.3017327E-006  0.1965332E+04  0.7818608E-02  0.8623003E-01
          2   -1    0    0  501    0  0.00000000000E+00  0.00000000000E+00  0.88686462189E+03  0.88686462189E+03  0.00000000000E+00 0. -1.
         -2   -1    0    0    0  501 -0.00000000000E+00 -0.00000000000E+00 -0.10888165286E+04  0.10888165286E+04  0.00000000000E+00 0.  1.
         23    2    1    2    0    0 -0.75931330537E+03 -0.15889880420E+03 -0.70426135773E+03  0.10514948542E+04  0.88610624480E+02 0.  0.
         13    1    3    3    0    0 -0.20422334907E+03 -0.65044341633E+02 -0.24013529162E+03  0.32187404519E+03  0.00000000000E+00 0. -1.
        -13    1    3    3    0    0 -0.55508995631E+03 -0.93854462564E+02 -0.46412606611E+03  0.72962080903E+03  0.00000000000E+00 0.  1.
         22    1    1    2    0    0  0.75931330537E+03  0.15889880420E+03  0.50230945100E+03  0.92418629629E+03  0.00000000000E+00 0. -1.
<mgrwt>
<rscale>  0 0.19653324E+04</rscale>
<asrwt>0</asrwt>
<pdfrwt beam="1">  1        2 0.13644071E+00 0.19653324E+04</pdfrwt>
<pdfrwt beam="2">  1       -2 0.16751023E+00 0.19653324E+04</pdfrwt>
<totfact> 0.61900688E+00</totfact>
</mgrwt>
</event>
<event>
 6    1  0.4354164E-006  0.2897074E+04  0.7818608E-02  0.8273748E-01
         -2   -1    0    0    0  501 -0.00000000000E+00  0.00000000000E+00  0.11098382604E+04  0.11098382604E+04  0.00000000000E+00 0.  1.
          2   -1    0    0  501    0  0.00000000000E+00 -0.00000000000E+00 -0.18905997076E+04  0.18905997076E+04  0.00000000000E+00 0. -1.
         23    2    1    2    0    0 -0.24591616797E+03  0.13493529963E+04  0.87187966633E+02  0.13773038222E+04  0.90198707960E+02 0.  0.
         11    1    3    3    0    0 -0.11043024367E+03  0.76320969975E+03  0.83787916404E+02  0.77569600969E+03  0.00000000000E+00 0.  1.
        -11    1    3    3    0    0 -0.13548592430E+03  0.58614329657E+03  0.34000502288E+01  0.60160781256E+03  0.00000000000E+00 0. -1.
         22    1    1    2    0    0  0.24591616797E+03 -0.13493529963E+04 -0.86794941386E+03  0.16231341458E+04  0.00000000000E+00 0. -1.
<mgrwt>
<rscale>  0 0.28970743E+04</rscale>
<asrwt>0</asrwt>
<pdfrwt beam="1">  1        2 0.29086149E+00 0.28970743E+04</pdfrwt>
<pdfrwt beam="2">  1       -2 0.17074435E+00 0.28970743E+04</pdfrwt>
<totfact> 0.13970588E+00</totfact>
</mgrwt>
</event>
<event>
 6    1  0.3017327E-006  0.2925705E+04  0.7818608E-02  0.8265270E-01
         -2   -1    0    0    0  501 -0.00000000000E+00  0.00000000000E+00  0.12722588210E+04  0.12722588210E+04  0.00000000000E+00 0.  1.
          2   -1    0    0  501    0  0.00000000000E+00 -0.00000000000E+00 -0.16819987728E+04  0.16819987728E+04  0.00000000000E+00 0. -1.
         23    2    1    2    0    0  0.65083577876E+03 -0.64907022687E+03  0.94214960642E+03  0.13194839862E+04  0.92264504242E+02 0.  0.
         13    1    3    3    0    0  0.42845907659E+03 -0.36463773838E+03  0.58467598894E+03  0.81140857316E+03  0.00000000000E+00 0.  1.
        -13    1    3    3    0    0  0.22237670217E+03 -0.28443248849E+03  0.35747361748E+03  0.50807541308E+03  0.00000000000E+00 0. -1.
         22    1    1    2    0    0 -0.65083577876E+03  0.64907022687E+03 -0.13518895582E+04  0.16347736076E+04  0.00000000000E+00 0. -1.
<mgrwt>
<rscale>  0 0.29257052E+04</rscale>
<asrwt>0</asrwt>
<pdfrwt beam="1">  1        2 0.25876904E+00 0.29257052E+04</pdfrwt>
<pdfrwt beam="2">  1       -2 0.19573212E+00 0.29257052E+04</pdfrwt>
<totfact> 0.12268216E+00</totfact>
</mgrwt>
</event>
<event>
 6    1  0.3017327E-006  0.2189624E+04  0.7818608E-02  0.8522759E-01
          1   -1    0    0  501    0  0.00000000000E+00  0.00000000000E+00  0.95501339925E+03  0.95501339925E+03  0.00000000000E+00 0. -1.
         -1   -1    0    0    0  501 -0.00000000000E+00 -0.00000000000E+00 -0.12550747808E+04  0.12550747808E+04  0.00000000000E+00 0.  1.
         23    2    1    2    0    0  0.36355851855E+03  0.60640970830E+03 -0.99105100535E+03  0.12214658097E+04  0.99443946137E+02 0.  0.
         11    1    3    3    0    0  0.22175031226E+03  0.34799914339E+03 -0.49492650645E+03  0.64438253513E+03  0.00000000000E+00 0.  1.
        -11    1    3    3    0    0  0.14180820629E+03  0.25841056490E+03 -0.49612449890E+03  0.57708327461E+03  0.00000000000E+00 0. -1.
         22    1    1    2    0    0 -0.36355851855E+03 -0.60640970830E+03  0.69098962385E+03  0.98862237027E+03  0.00000000000E+00 0. -1.
<mgrwt>
<rscale>  0 0.21896239E+04</rscale>
<asrwt>0</asrwt>
<pdfrwt beam="1">  1        1 0.14692514E+00 0.21896239E+04</pdfrwt>
<pdfrwt beam="2">  1       -1 0.19308843E+00 0.21896239E+04</pdfrwt>
<totfact> 0.25192133E+00</totfact>
</mgrwt>
</event>
<event>
 6    1  0.3017327E-006  0.2724272E+04  0.7818608E-02  0.8327172E-01
         -2   -1    0    0    0  501 -0.00000000000E+00  0.00000000000E+00  0.10102882831E+04  0.10102882831E+04  0.00000000000E+00 0.  1.
          2   -1    0    0  501    0  0.00000000000E+00 -0.00000000000E+00 -0.18365197615E+04  0.18365197615E+04  0.00000000000E+00 0. -1.
         23    2    1    2    0    0 -0.57111162224E+03  0.12039402397E+04 -0.70111954493E+03  0.15084158818E+04  0.90051487872E+02 0.  0.
         11    1    3    3    0    0 -0.52818176689E+03  0.10446017838E+04 -0.61271473066E+03  0.13212071022E+04  0.00000000000E+00 0.  1.
        -11    1    3    3    0    0 -0.42929855349E+02  0.15933845582E+03 -0.88404814265E+02  0.18720877962E+03  0.00000000000E+00 0. -1.
         22    1    1    2    0    0  0.57111162224E+03 -0.12039402397E+04 -0.12511193346E+03  0.13383921629E+04  0.00000000000E+00 0.  1.
<mgrwt>
<rscale>  0 0.27242719E+04</rscale>
<asrwt>0</asrwt>
<pdfrwt beam="1">  1        2 0.28254150E+00 0.27242719E+04</pdfrwt>
<pdfrwt beam="2">  1       -2 0.15542897E+00 0.27242719E+04</pdfrwt>
<totfact> 0.19650322E+00</totfact>
</mgrwt>
</event>
<event>
 6    1  0.3017327E-006  0.1739463E+04  0.7818608E-02  0.8739172E-01
          2   -1    0    0  501    0  0.00000000000E+00  0.00000000000E+00  0.25424877553E+04  0.25424877553E+04  0.00000000000E+00 0. -1.
         -2   -1    0    0    0  501 -0.00000000000E+00 -0.00000000000E+00 -0.29751681153E+03  0.29751681153E+03  0.00000000000E+00 0.  1.
         23    2    1    2    0    0  0.31446358217E+03  0.22794843719E+02  0.24448116073E+04  0.24667174921E+04  0.90467901282E+02 0.  0.
         11    1    3    3    0    0  0.13718554858E+03 -0.19875577984E+02  0.81085728586E+03  0.82262047833E+03  0.00000000000E+00 0.  1.
        -11    1    3    3    0    0  0.17727803359E+03  0.42670421703E+02  0.16339543214E+04  0.16440970137E+04  0.00000000000E+00 0. -1.
         22    1    1    2    0    0 -0.31446358217E+03 -0.22794843719E+02 -0.19984066350E+03  0.37328707478E+03  0.00000000000E+00 0.  1.
<mgrwt>
<rscale>  0 0.17394630E+04</rscale>
<asrwt>0</asrwt>
<pdfrwt beam="1">  1        2 0.39115195E+00 0.17394630E+04</pdfrwt>
<pdfrwt beam="2">  1       -2 0.45771819E-01 0.17394630E+04</pdfrwt>
<totfact> 0.14142563E+01</totfact>
</mgrwt>
</event>
<event>
 6    1  0.3017327E-006  0.1509872E+04  0.7818608E-02  0.8877915E-01
          2   -1    0    0  501    0  0.00000000000E+00  0.00000000000E+00  0.16663160314E+04  0.16663160314E+04  0.00000000000E+00 0. -1.
         -2   -1    0    0    0  501 -0.00000000000E+00 -0.00000000000E+00 -0.34202892685E+03  0.34202892685E+03  0.00000000000E+00 0.  1.
         23    2    1    2    0    0  0.28880926519E+03  0.55117382458E+03  0.10222311440E+03  0.63697929855E+03  0.89942676775E+02 0.  0.
         11    1    3    3    0    0  0.16441564077E+03  0.36239845990E+03  0.10235795560E+03  0.41090424400E+03  0.00000000000E+00 0.  1.
        -11    1    3    3    0    0  0.12439362442E+03  0.18877536468E+03 -0.13484119641E+00  0.22607505455E+03  0.00000000000E+00 0. -1.
         22    1    1    2    0    0 -0.28880926519E+03 -0.55117382458E+03  0.12220639902E+04  0.13713656597E+04  0.00000000000E+00 0. -1.
<mgrwt>
<rscale>  0 0.15098719E+04</rscale>
<asrwt>0</asrwt>
<pdfrwt beam="1">  1        2 0.25635631E+00 0.15098719E+04</pdfrwt>
<pdfrwt beam="2">  1       -2 0.52619836E-01 0.15098719E+04</pdfrwt>
<totfact> 0.33683506E+01</totfact>
</mgrwt>
</event>
<event>
 6    1  0.3017327E-006  0.1315192E+04  0.7818608E-02  0.9017604E-01
         -2   -1    0    0    0  501 -0.00000000000E+00  0.00000000000E+00  0.29002718519E+03  0.29002718519E+03  0.00000000000E+00 0.  1.
          2   -1    0    0  501    0  0.00000000000E+00 -0.00000000000E+00 -0.14910071551E+04  0.14910071551E+04  0.00000000000E+00 0. -1.
         23    2    1    2    0    0 -0.53899460367E+03  0.34306373973E+03 -0.79517245576E+03  0.10241409192E+04  0.91419230639E+02 0.  0.
         11    1    3    3    0    0 -0.16905374052E+03  0.13535999613E+03 -0.32827743098E+03  0.39327797730E+03  0.00000000000E+00 0. -1.
        -11    1    3    3    0    0 -0.36994086316E+03  0.20770374360E+03 -0.46689502478E+03  0.63086294193E+03  0.00000000000E+00 0.  1.
         22    1    1    2    0    0  0.53899460367E+03 -0.34306373973E+03 -0.40580751414E+03  0.75689342105E+03  0.00000000000E+00 0.  1.
<mgrwt>
<rscale>  0 0.13151922E+04</rscale>
<asrwt>0</asrwt>
<pdfrwt beam="1">  1        2 0.22938572E+00 0.13151922E+04</pdfrwt>
<pdfrwt beam="2">  1       -2 0.44619567E-01 0.13151922E+04</pdfrwt>
<totfact> 0.59882064E+01</totfact>
</mgrwt>
</event>
<event>
 6    1  0.3017327E-006  0.2404176E+04  0.7818608E-02  0.8437942E-01
         -2   -1    0    0    0  501 -0.00000000000E+00  0.00000000000E+00  0.85409952649E+03  0.85409952649E+03  0.00000000000E+00 0.  1.
          2   -1    0    0  501    0  0.00000000000E+00 -0.00000000000E+00 -0.16918591127E+04  0.16918591127E+04  0.00000000000E+00 0. -1.
         23    2    1    2    0    0  0.11242671812E+04 -0.22580015391E+02  0.23452468650E+02  0.11295643596E+04  0.10430279139E+03 0.  0.
         11    1    3    3    0    0  0.57049776776E+03  0.32827078449E+02  0.39435174150E+02  0.57280053514E+03  0.00000000000E+00 0.  1.
        -11    1    3    3    0    0  0.55376941345E+03 -0.55407093840E+02 -0.15982705501E+02  0.55676382443E+03  0.00000000000E+00 0. -1.
         22    1    1    2    0    0 -0.11242671812E+04  0.22580015391E+02 -0.86121205481E+03  0.14163942796E+04  0.00000000000E+00 0. -1.
<mgrwt>
<rscale>  0 0.24041764E+04</rscale>
<asrwt>0</asrwt>
<pdfrwt beam="1">  1        2 0.26028602E+00 0.24041764E+04</pdfrwt>
<pdfrwt beam="2">  1       -2 0.13139993E+00 0.24041764E+04</pdfrwt>
<totfact> 0.37656080E+00</totfact>
</mgrwt>
</event>
<event>
 6    1  0.3017327E-006  0.5701854E+04  0.7818608E-02  0.7728509E-01
         -2   -1    0    0    0  501 -0.00000000000E+00  0.00000000000E+00  0.18774181420E+04  0.18774181420E+04  0.00000000000E+00 0.  1.
          2   -1    0    0  501    0  0.00000000000E+00 -0.00000000000E+00 -0.43292353688E+04  0.43292353688E+04  0.00000000000E+00 0. -1.
         23    2    1    2    0    0  0.21733001340E+04  0.16606491297E+04 -0.20984061735E+04  0.34487759977E+04  0.98784659867E+02 0.  0.
         11    1    3    3    0    0  0.20867932917E+03  0.18878722758E+03 -0.19243784887E+03  0.34091055338E+03  0.00000000000E+00 0. -1.
        -11    1    3    3    0    0  0.19646208049E+04  0.14718619022E+04 -0.19059683246E+04  0.31078654443E+04  0.00000000000E+00 0.  1.
         22    1    1    2    0    0 -0.21733001340E+04 -0.16606491297E+04 -0.35341105340E+03  0.27578775131E+04  0.00000000000E+00 0.  1.
<mgrwt>
<rscale>  0 0.57018541E+04</rscale>
<asrwt>0</asrwt>
<pdfrwt beam="1">  1        2 0.66603621E+00 0.57018541E+04</pdfrwt>
<pdfrwt beam="2">  1       -2 0.28883356E+00 0.57018541E+04</pdfrwt>
<totfact> 0.45314255E-03</totfact>
</mgrwt>
</event>
<event>
 6    1  0.3017327E-006  0.1758995E+04  0.7818608E-02  0.8728414E-01
         -1   -1    0    0    0  501 -0.00000000000E+00  0.00000000000E+00  0.11545185437E+04  0.11545185437E+04  0.00000000000E+00 0.  1.
          1   -1    0    0  501    0  0.00000000000E+00 -0.00000000000E+00 -0.66999028670E+03  0.66999028670E+03  0.00000000000E+00 0. -1.
         23    2    1    2    0    0 -0.59774220509E+03 -0.61972539167E+03  0.69347410887E+02  0.86861634700E+03  0.91268779191E+02 0.  0.
         11    1    3    3    0    0 -0.51092049968E+03 -0.56807274656E+03  0.73099322210E+02  0.76752193017E+03  0.00000000000E+00 0. -1.
        -11    1    3    3    0    0 -0.86821705406E+02 -0.51652645114E+02 -0.37519113225E+01  0.10109441684E+03  0.00000000000E+00 0.  1.
         22    1    1    2    0    0  0.59774220509E+03  0.61972539167E+03  0.41518084609E+03  0.95589248338E+03  0.00000000000E+00 0.  1.
<mgrwt>
<rscale>  0 0.17589954E+04</rscale>
<asrwt>0</asrwt>
<pdfrwt beam="1">  1        1 0.10307543E+00 0.17589954E+04</pdfrwt>
<pdfrwt beam="2">  1       -1 0.17761824E+00 0.17589954E+04</pdfrwt>
<totfact> 0.59672361E+00</totfact>
</mgrwt>
</event>
<event>
 6    1  0.3017327E-006  0.3657009E+04  0.7818608E-02  0.8077556E-01
          2   -1    0    0  501    0  0.00000000000E+00  0.00000000000E+00  0.24156545147E+04  0.24156545147E+04  0.00000000000E+00 0. -1.
         -2   -1    0    0    0  501 -0.00000000000E+00 -0.00000000000E+00 -0.13840677750E+04  0.13840677750E+04  0.00000000000E+00 0.  1.
         23    2    1    2    0    0 -0.12425419532E+04  0.50462012050E+03 -0.77374852221E+03  0.15507697825E+04  0.87453823454E+02 0.  0.
         13    1    3    3    0    0 -0.83530328114E+02  0.42863342216E+02 -0.31340448076E+02  0.98978813422E+02  0.00000000000E+00 0. -1.
        -13    1    3    3    0    0 -0.11590116251E+04  0.46175677828E+03 -0.74240807413E+03  0.14517909691E+04  0.00000000000E+00 0.  1.
         22    1    1    2    0    0  0.12425419532E+04 -0.50462012050E+03  0.18053352620E+04  0.22489525072E+04  0.00000000000E+00 0. -1.
<mgrwt>
<rscale>  0 0.36570095E+04</rscale>
<asrwt>0</asrwt>
<pdfrwt beam="1">  1        2 0.37163916E+00 0.36570095E+04</pdfrwt>
<pdfrwt beam="2">  1       -2 0.21293350E+00 0.36570095E+04</pdfrwt>
<totfact> 0.34635654E-01</totfact>
</mgrwt>
</event>
<event>
 6    1  0.3017327E-006  0.1525946E+04  0.7818608E-02  0.8867380E-01
         -2   -1    0    0    0  501 -0.00000000000E+00  0.00000000000E+00  0.21308330692E+04  0.21308330692E+04  0.00000000000E+00 0.  1.
          2   -1    0    0  501    0  0.00000000000E+00 -0.00000000000E+00 -0.27319265082E+03  0.27319265082E+03  0.00000000000E+00 0. -1.
         23    2    1    2    0    0 -0.64867110436E+03  0.15890679613E+03  0.35849738010E+03  0.76285070781E+03  0.85995693917E+02 0.  0.
         13    1    3    3    0    0 -0.28395331229E+03  0.41230577734E+02  0.11696312804E+03  0.30985451009E+03  0.00000000000E+00 0. -1.
        -13    1    3    3    0    0 -0.36471779207E+03  0.11767621840E+03  0.24153425206E+03  0.45299619772E+03  0.00000000000E+00 0.  1.
         22    1    1    2    0    0  0.64867110436E+03 -0.15890679613E+03  0.14991430382E+04  0.16411750122E+04  0.00000000000E+00 0.  1.
<mgrwt>
<rscale>  0 0.15259462E+04</rscale>
<asrwt>0</asrwt>
<pdfrwt beam="1">  1        2 0.42029640E-01 0.15259462E+04</pdfrwt>
<pdfrwt beam="2">  1       -2 0.32782046E+00 0.15259462E+04</pdfrwt>
<totfact> 0.25305782E+00</totfact>
</mgrwt>
</event>
<event>
 6    1  0.3017327E-006  0.5670303E+04  0.7818608E-02  0.7732680E-01
          1   -1    0    0  501    0  0.00000000000E+00  0.00000000000E+00  0.25781761499E+04  0.25781761499E+04  0.00000000000E+00 0. -1.
         -1   -1    0    0    0  501 -0.00000000000E+00 -0.00000000000E+00 -0.31177409346E+04  0.31177409346E+04  0.00000000000E+00 0.  1.
         23    2    1    2    0    0  0.84409601425E+03  0.12227453845E+04  0.21548081440E+04  0.26190274480E+04  0.92207803592E+02 0.  0.
         13    1    3    3    0    0  0.35600115622E+03  0.48880348229E+03  0.95249792122E+03  0.11282366584E+04  0.00000000000E+00 0. -1.
        -13    1    3    3    0    0  0.48809485804E+03  0.73394190224E+03  0.12023102228E+04  0.14907907896E+04  0.00000000000E+00 0.  1.
         22    1    1    2    0    0 -0.84409601425E+03 -0.12227453845E+04 -0.26943729287E+04  0.30768896366E+04  0.00000000000E+00 0.  1.
<mgrwt>
<rscale>  0 0.56703035E+04</rscale>
<asrwt>0</asrwt>
<pdfrwt beam="1">  1        1 0.39664249E+00 0.56703035E+04</pdfrwt>
<pdfrwt beam="2">  1       -1 0.47965245E+00 0.56703035E+04</pdfrwt>
<totfact> 0.16731256E-03</totfact>
</mgrwt>
</event>
<event>
 6    1  0.3017327E-006  0.7099685E+03  0.7818608E-02  0.9700335E-01
         -2   -1    0    0    0  501 -0.00000000000E+00  0.00000000000E+00  0.12694415647E+03  0.12694415647E+03  0.00000000000E+00 0.  1.
          2   -1    0    0  501    0  0.00000000000E+00 -0.00000000000E+00 -0.99267113783E+03  0.99267113783E+03  0.00000000000E+00 0. -1.
         23    2    1    2    0    0  0.16442680922E+03  0.56705112211E+01 -0.92597970665E+03  0.94440478892E+03  0.85986382224E+02 0.  0.
         11    1    3    3    0    0  0.23353146892E+02  0.19739989013E+02 -0.34599752808E+03  0.34734611855E+03  0.00000000000E+00 0. -1.
        -11    1    3    3    0    0  0.14107366232E+03 -0.14069477792E+02 -0.57998217857E+03  0.59705867038E+03  0.00000000000E+00 0.  1.
         22    1    1    2    0    0 -0.16442680922E+03 -0.56705112211E+01  0.60252725289E+02  0.17521050537E+03  0.00000000000E+00 0.  1.
<mgrwt>
<rscale>  0 0.70996845E+03</rscale>
<asrwt>0</asrwt>
<pdfrwt beam="1">  1        2 0.15271864E+00 0.70996845E+03</pdfrwt>
<pdfrwt beam="2">  1       -2 0.19529870E-01 0.70996845E+03</pdfrwt>
<totfact> 0.57037252E+02</totfact>
</mgrwt>
</event>
<event>
 6    1  0.3017327E-006  0.3988297E+04  0.7818608E-02  0.8006912E-01
         -2   -1    0    0    0  501 -0.00000000000E+00  0.00000000000E+00  0.18624697952E+04  0.18624697952E+04  0.00000000000E+00 0.  1.
          2   -1    0    0  501    0  0.00000000000E+00 -0.00000000000E+00 -0.21351370781E+04  0.21351370781E+04  0.00000000000E+00 0. -1.
         23    2    1    2    0    0 -0.15727213418E+04 -0.30016360072E+03 -0.13262484186E+04  0.20809473272E+04  0.88635796533E+02 0.  0.
         11    1    3    3    0    0 -0.69140350890E+01  0.29830982216E+01 -0.12755154697E+02  0.14812046704E+02  0.00000000000E+00 0.  1.
        -11    1    3    3    0    0 -0.15658073068E+04 -0.30314669894E+03 -0.13134932639E+04  0.20661352805E+04  0.00000000000E+00 0. -1.
         22    1    1    2    0    0  0.15727213418E+04  0.30016360072E+03  0.10535811357E+04  0.19166595461E+04  0.00000000000E+00 0.  1.
<mgrwt>
<rscale>  0 0.39882970E+04</rscale>
<asrwt>0</asrwt>
<pdfrwt beam="1">  1        2 0.32848263E+00 0.39882970E+04</pdfrwt>
<pdfrwt beam="2">  1       -2 0.28653382E+00 0.39882970E+04</pdfrwt>
<totfact> 0.17036616E-01</totfact>
</mgrwt>
</event>
<event>
 6    1  0.3017327E-006  0.9032601E+03  0.7818608E-02  0.9421515E-01
          2   -1    0    0  501    0  0.00000000000E+00  0.00000000000E+00  0.70461020618E+03  0.70461020618E+03  0.00000000000E+00 0. -1.
         -2   -1    0    0    0  501 -0.00000000000E+00 -0.00000000000E+00 -0.28947879478E+03  0.28947879478E+03  0.00000000000E+00 0.  1.
         23    2    1    2    0    0  0.29292527251E+03 -0.22185992775E+03 -0.70404679300E+02  0.38517822080E+03  0.91533600918E+02 0.  0.
         13    1    3    3    0    0  0.22340548274E+03 -0.14127139387E+03 -0.13928851816E+02  0.26469157402E+03  0.00000000000E+00 0.  1.
        -13    1    3    3    0    0  0.69519789764E+02 -0.80588533882E+02 -0.56475827484E+02  0.12048664678E+03  0.00000000000E+00 0. -1.
         22    1    1    2    0    0 -0.29292527251E+03  0.22185992775E+03  0.48553609071E+03  0.60891078016E+03  0.00000000000E+00 0. -1.
<mgrwt>
<rscale>  0 0.90326012E+03</rscale>
<asrwt>0</asrwt>
<pdfrwt beam="1">  1        2 0.10840157E+00 0.90326012E+03</pdfrwt>
<pdfrwt beam="2">  1       -2 0.44535200E-01 0.90326012E+03</pdfrwt>
<totfact> 0.19480291E+02</totfact>
</mgrwt>
</event>
<event>
 6    1  0.3017327E-006  0.9459421E+03  0.7818608E-02  0.9369906E-01
          1   -1    0    0  501    0  0.00000000000E+00  0.00000000000E+00  0.27003746355E+03  0.27003746355E+03  0.00000000000E+00 0. -1.
         -1   -1    0    0    0  501 -0.00000000000E+00 -0.00000000000E+00 -0.82840951039E+03  0.82840951039E+03  0.00000000000E+00 0.  1.
         23    2    1    2    0    0  0.30501270082E+03  0.22325470790E+03  0.40165031828E+02  0.39054723047E+03  0.89657666628E+02 0.  0.
         11    1    3    3    0    0  0.79249795628E+02  0.90757710392E+02 -0.19515188612E+02  0.12205873459E+03  0.00000000000E+00 0.  1.
        -11    1    3    3    0    0  0.22576290519E+03  0.13249699751E+03  0.59680220440E+02  0.26848849588E+03  0.00000000000E+00 0. -1.
         22    1    1    2    0    0 -0.30501270082E+03 -0.22325470790E+03 -0.59853707867E+03  0.70789974347E+03  0.00000000000E+00 0. -1.
<mgrwt>
<rscale>  0 0.94594208E+03</rscale>
<asrwt>0</asrwt>
<pdfrwt beam="1">  1        1 0.41544226E-01 0.94594208E+03</pdfrwt>
<pdfrwt beam="2">  1       -1 0.12744762E+00 0.94594208E+03</pdfrwt>
<totfact> 0.53945277E+01</totfact>
</mgrwt>
</event>
<event>
 6    1  0.3017327E-006  0.2602352E+04  0.7818608E-02  0.8367403E-01
         -2   -1    0    0    0  501 -0.00000000000E+00  0.00000000000E+00  0.17512793115E+04  0.17512793115E+04  0.00000000000E+00 0.  1.
          2   -1    0    0  501    0  0.00000000000E+00 -0.00000000000E+00 -0.96675518895E+03  0.96675518895E+03  0.00000000000E+00 0. -1.
         23    2    1    2    0    0  0.31048415813E+03  0.10487263531E+02 -0.92522507629E+03  0.98029092959E+03  0.91752219056E+02 0.  0.
         13    1    3    3    0    0  0.86847581581E+02  0.17918006207E+02 -0.15893595121E+03  0.18200053285E+03  0.00000000000E+00 0.  1.
        -13    1    3    3    0    0  0.22363657655E+03 -0.74307426759E+01 -0.76628912508E+03  0.79829039674E+03  0.00000000000E+00 0. -1.
         22    1    1    2    0    0 -0.31048415813E+03 -0.10487263531E+02  0.17097491989E+04  0.17377435709E+04  0.00000000000E+00 0.  1.
<mgrwt>
<rscale>  0 0.26023515E+04</rscale>
<asrwt>0</asrwt>
<pdfrwt beam="1">  1        2 0.14873157E+00 0.26023515E+04</pdfrwt>
<pdfrwt beam="2">  1       -2 0.26942759E+00 0.26023515E+04</pdfrwt>
<totfact> 0.11437539E+00</totfact>
</mgrwt>
</event>
<event>
 6    1  0.3017327E-006  0.3289040E+04  0.7818608E-02  0.8165690E-01
          2   -1    0    0  501    0  0.00000000000E+00  0.00000000000E+00  0.22059268488E+04  0.22059268488E+04  0.00000000000E+00 0. -1.
         -2   -1    0    0    0  501 -0.00000000000E+00 -0.00000000000E+00 -0.12259905044E+04  0.12259905044E+04  0.00000000000E+00 0.  1.
         23    2    1    2    0    0  0.15047624396E+04 -0.26523911100E+03 -0.14059334275E+03  0.15371222282E+04  0.91194685386E+02 0.  0.
         11    1    3    3    0    0  0.17858008075E+03 -0.18539829430E+02 -0.43285445268E+02  0.18468405532E+03  0.00000000000E+00 0. -1.
        -11    1    3    3    0    0  0.13261823589E+04 -0.24669928157E+03 -0.97307897478E+02  0.13524381729E+04  0.00000000000E+00 0.  1.
         22    1    1    2    0    0 -0.15047624396E+04  0.26523911100E+03  0.11205296872E+04  0.18947951250E+04  0.00000000000E+00 0. -1.
<mgrwt>
<rscale>  0 0.32890396E+04</rscale>
<asrwt>0</asrwt>
<pdfrwt beam="1">  1        2 0.33937336E+00 0.32890396E+04</pdfrwt>
<pdfrwt beam="2">  1       -2 0.18861392E+00 0.32890396E+04</pdfrwt>
<totfact> 0.67839047E-01</totfact>
</mgrwt>
</event>
<event>
 6    1  0.3017327E-006  0.3846883E+04  0.7818608E-02  0.8036168E-01
         -2   -1    0    0    0  501 -0.00000000000E+00  0.00000000000E+00  0.12151744645E+04  0.12151744645E+04  0.00000000000E+00 0.  1.
          2   -1    0    0  501    0  0.00000000000E+00 -0.00000000000E+00 -0.30445237040E+04  0.30445237040E+04  0.00000000000E+00 0. -1.
         23    2    1    2    0    0 -0.10078412341E+04  0.94284517821E+03  0.56668647525E+03  0.14946144212E+04  0.89653352677E+02 0.  0.
         13    1    3    3    0    0 -0.21107694344E+03  0.20726138641E+03  0.16114995094E+03  0.33686802318E+03  0.00000000000E+00 0.  1.
        -13    1    3    3    0    0 -0.79676429065E+03  0.73558379179E+03  0.40553652431E+03  0.11577463980E+04  0.00000000000E+00 0. -1.
         22    1    1    2    0    0  0.10078412341E+04 -0.94284517821E+03 -0.23960357148E+04  0.27650837473E+04  0.00000000000E+00 0. -1.
<mgrwt>
<rscale>  0 0.38468831E+04</rscale>
<asrwt>0</asrwt>
<pdfrwt beam="1">  1        2 0.46838825E+00 0.38468831E+04</pdfrwt>
<pdfrwt beam="2">  1       -2 0.18694992E+00 0.38468831E+04</pdfrwt>
<totfact> 0.21173196E-01</totfact>
</mgrwt>
</event>
<event>
 6    1  0.3017327E-006  0.2302101E+04  0.7818608E-02  0.8477093E-01
          2   -1    0    0  501    0  0.00000000000E+00  0.00000000000E+00  0.13898124554E+04  0.13898124554E+04  0.00000000000E+00 0. -1.
         -2   -1    0    0    0  501 -0.00000000000E+00 -0.00000000000E+00 -0.95330622564E+03  0.95330622564E+03  0.00000000000E+00 0.  1.
         23    2    1    2    0    0 -0.21781544751E+03 -0.90023834817E+03 -0.47377706289E+03  0.10444700274E+04  0.92629801802E+02 0.  0.
         13    1    3    3    0    0 -0.45999426825E+02 -0.76830709997E+02 -0.51055763135E+02  0.10308053267E+03  0.00000000000E+00 0. -1.
        -13    1    3    3    0    0 -0.17181602069E+03 -0.82340763817E+03 -0.42272129975E+03  0.94138949475E+03  0.00000000000E+00 0.  1.
         22    1    1    2    0    0  0.21781544751E+03  0.90023834817E+03  0.91028329267E+03  0.12986486536E+04  0.00000000000E+00 0. -1.
<mgrwt>
<rscale>  0 0.23021007E+04</rscale>
<asrwt>0</asrwt>
<pdfrwt beam="1">  1        2 0.21381730E+00 0.23021007E+04</pdfrwt>
<pdfrwt beam="2">  1       -2 0.14666250E+00 0.23021007E+04</pdfrwt>
<totfact> 0.42282869E+00</totfact>
</mgrwt>
</event>
<event>
 6    1  0.3017327E-006  0.3939004E+04  0.7818608E-02  0.8016966E-01
         -2   -1    0    0    0  501 -0.00000000000E+00  0.00000000000E+00  0.27012661266E+04  0.27012661266E+04  0.00000000000E+00 0.  1.
          2   -1    0    0  501    0  0.00000000000E+00 -0.00000000000E+00 -0.14359701453E+04  0.14359701453E+04  0.00000000000E+00 0. -1.
         23    2    1    2    0    0 -0.43936275958E+03  0.15557537739E+04 -0.54634403038E+03  0.17091817067E+04  0.96958071366E+02 0.  0.
         13    1    3    3    0    0 -0.15541376617E+03  0.70327232530E+03 -0.21740451077E+03  0.75233644306E+03  0.00000000000E+00 0.  1.
        -13    1    3    3    0    0 -0.28394899341E+03  0.85248144857E+03 -0.32893951961E+03  0.95684526365E+03  0.00000000000E+00 0. -1.
         22    1    1    2    0    0  0.43936275958E+03 -0.15557537739E+04  0.18116400117E+04  0.24280545651E+04  0.00000000000E+00 0.  1.
<mgrwt>
<rscale>  0 0.39390037E+04</rscale>
<asrwt>0</asrwt>
<pdfrwt beam="1">  1        2 0.22091848E+00 0.39390037E+04</pdfrwt>
<pdfrwt beam="2">  1       -2 0.41557940E+00 0.39390037E+04</pdfrwt>
<totfact> 0.64128044E-02</totfact>
</mgrwt>
</event>
<event>
 6    1  0.3017327E-006  0.7640836E+03  0.7818608E-02  0.9613511E-01
         -2   -1    0    0    0  501 -0.00000000000E+00  0.00000000000E+00  0.85325067803E+02  0.85325067803E+02  0.00000000000E+00 0.  1.
          2   -1    0    0  501    0  0.00000000000E+00 -0.00000000000E+00 -0.17105870489E+04  0.17105870489E+04  0.00000000000E+00 0. -1.
         23    2    1    2    0    0 -0.10314869458E+03  0.29862185449E+03 -0.13062477964E+04  0.13469302515E+04  0.90128418531E+02 0.  0.
         11    1    3    3    0    0 -0.22497273340E+02  0.17950484342E+03 -0.82712508956E+03  0.84667823280E+03  0.00000000000E+00 0.  1.
        -11    1    3    3    0    0 -0.80651421241E+02  0.11911701107E+03 -0.47912270681E+03  0.50025201874E+03  0.00000000000E+00 0. -1.
         22    1    1    2    0    0  0.10314869458E+03 -0.29862185449E+03 -0.31901418469E+03  0.44898186512E+03  0.00000000000E+00 0. -1.
<mgrwt>
<rscale>  0 0.76408365E+03</rscale>
<asrwt>0</asrwt>
<pdfrwt beam="1">  1        2 0.26316722E+00 0.76408365E+03</pdfrwt>
<pdfrwt beam="2">  1       -2 0.13126934E-01 0.76408365E+03</pdfrwt>
<totfact> 0.43086734E+02</totfact>
</mgrwt>
</event>
<event>
 6    1  0.3017327E-006  0.4391947E+04  0.7818608E-02  0.7929832E-01
         -2   -1    0    0    0  501 -0.00000000000E+00  0.00000000000E+00  0.23683379732E+04  0.23683379732E+04  0.00000000000E+00 0.  1.
          2   -1    0    0  501    0  0.00000000000E+00 -0.00000000000E+00 -0.20361531726E+04  0.20361531726E+04  0.00000000000E+00 0. -1.
         23    2    1    2    0    0  0.32557684354E+03 -0.21475054608E+04  0.48346896703E+03  0.22271838905E+04  0.93946021204E+02 0.  0.
         11    1    3    3    0    0  0.13456317370E+02 -0.13607769452E+03  0.53066528327E+02  0.14667742789E+03  0.00000000000E+00 0. -1.
        -11    1    3    3    0    0  0.31212052617E+03 -0.20114277663E+04  0.43040243870E+03  0.20805064626E+04  0.00000000000E+00 0.  1.
         22    1    1    2    0    0 -0.32557684354E+03  0.21475054608E+04 -0.15128416640E+03  0.21773072553E+04  0.00000000000E+00 0.  1.
<mgrwt>
<rscale>  0 0.43919467E+04</rscale>
<asrwt>0</asrwt>
<pdfrwt beam="1">  1        2 0.31325433E+00 0.43919467E+04</pdfrwt>
<pdfrwt beam="2">  1       -2 0.36435969E+00 0.43919467E+04</pdfrwt>
<totfact> 0.61495817E-02</totfact>
</mgrwt>
</event>
<event>
 6    1  0.3017327E-006  0.9635298E+03  0.7818608E-02  0.9349475E-01
         -2   -1    0    0    0  501 -0.00000000000E+00  0.00000000000E+00  0.34463262466E+03  0.34463262466E+03  0.00000000000E+00 0. -1.
          2   -1    0    0  501    0  0.00000000000E+00 -0.00000000000E+00 -0.67346326605E+03  0.67346326605E+03  0.00000000000E+00 0.  1.
         23    2    1    2    0    0 -0.68753873442E+02  0.11959256371E+03 -0.64874514661E+03  0.66970707478E+03  0.92778361490E+02 0.  0.
         13    1    3    3    0    0 -0.16974173767E+02  0.88259195563E+02 -0.51662382499E+03  0.52438343292E+03  0.00000000000E+00 0. -1.
        -13    1    3    3    0    0 -0.51779699675E+02  0.31333368150E+02 -0.13212132162E+03  0.14532364186E+03  0.00000000000E+00 0.  1.
         22    1    1    2    0    0  0.68753873442E+02 -0.11959256371E+03  0.31991450523E+03  0.34838881593E+03  0.00000000000E+00 0. -1.
<mgrwt>
<rscale>  0 0.96352979E+03</rscale>
<asrwt>0</asrwt>
<pdfrwt beam="1">  1        2 0.10360973E+00 0.96352979E+03</pdfrwt>
<pdfrwt beam="2">  1       -2 0.53020404E-01 0.96352979E+03</pdfrwt>
<totfact> 0.14438464E+02</totfact>
</mgrwt>
</event>
<event>
 6    1  0.3017327E-006  0.7910128E+03  0.7818608E-02  0.9573118E-01
          2   -1    0    0  501    0  0.00000000000E+00  0.00000000000E+00  0.32987435792E+03  0.32987435792E+03  0.00000000000E+00 0. -1.
         -2   -1    0    0    0  501 -0.00000000000E+00 -0.00000000000E+00 -0.47419669835E+03  0.47419669835E+03  0.00000000000E+00 0.  1.
         23    2    1    2    0    0  0.85158654631E+01 -0.22256451530E+03  0.25284194804E+03  0.34871739650E+03  0.89818085586E+02 0.  0.
         13    1    3    3    0    0  0.13664022734E+02 -0.13095680669E+02  0.63671011555E+02  0.66424393726E+02  0.00000000000E+00 0.  1.
        -13    1    3    3    0    0 -0.51481572712E+01 -0.20946883463E+03  0.18917093648E+03  0.28229300277E+03  0.00000000000E+00 0. -1.
         22    1    1    2    0    0 -0.85158654631E+01  0.22256451530E+03 -0.39716428847E+03  0.45535365977E+03  0.00000000000E+00 0.  1.
<mgrwt>
<rscale>  0 0.79101285E+03</rscale>
<asrwt>0</asrwt>
<pdfrwt beam="1">  1        2 0.50749901E-01 0.79101285E+03</pdfrwt>
<pdfrwt beam="2">  1       -2 0.72953338E-01 0.79101285E+03</pdfrwt>
<totfact> 0.16896945E+02</totfact>
</mgrwt>
</event>
<event>
 6    1  0.3017327E-006  0.4976241E+03  0.7818608E-02  0.1014401E+00
         -2   -1    0    0    0  501 -0.00000000000E+00  0.00000000000E+00  0.46231983322E+03  0.46231983322E+03  0.00000000000E+00 0.  1.
          2   -1    0    0  501    0  0.00000000000E+00 -0.00000000000E+00 -0.13390607509E+03  0.13390607509E+03  0.00000000000E+00 0. -1.
         23    2    1    2    0    0 -0.12391976419E+03  0.17285445897E+03  0.30384929209E+03  0.38212736806E+03  0.91990005847E+02 0.  0.
         13    1    3    3    0    0 -0.52083354419E+02  0.10261438221E+03  0.90827672817E+02  0.14660168278E+03  0.00000000000E+00 0. -1.
        -13    1    3    3    0    0 -0.71836409767E+02  0.70240076766E+02  0.21302161927E+03  0.23552568528E+03  0.00000000000E+00 0.  1.
         22    1    1    2    0    0  0.12391976419E+03 -0.17285445897E+03  0.24564466042E+02  0.21409854025E+03  0.00000000000E+00 0. -1.
<mgrwt>
<rscale>  0 0.49762409E+03</rscale>
<asrwt>0</asrwt>
<pdfrwt beam="1">  1        2 0.20600935E-01 0.49762409E+03</pdfrwt>
<pdfrwt beam="2">  1       -2 0.71126128E-01 0.49762409E+03</pdfrwt>
<totfact> 0.49685329E+02</totfact>
</mgrwt>
</event>
<event>
 6    1  0.3017327E-006  0.4284134E+04  0.7818608E-02  0.7949558E-01
         -2   -1    0    0    0  501 -0.00000000000E+00  0.00000000000E+00  0.22549767290E+04  0.22549767290E+04  0.00000000000E+00 0. -1.
          2   -1    0    0  501    0  0.00000000000E+00 -0.00000000000E+00 -0.20348112553E+04  0.20348112553E+04  0.00000000000E+00 0.  1.
         23    2    1    2    0    0  0.23423326228E+03  0.17265585485E+04 -0.11358269056E+04  0.20819417543E+04  0.92244599299E+02 0.  0.
         13    1    3    3    0    0  0.11026649513E+03  0.50426026521E+03 -0.34460395572E+03  0.62063596521E+03  0.00000000000E+00 0. -1.
        -13    1    3    3    0    0  0.12396676715E+03  0.12222982833E+04 -0.79122294984E+03  0.14613057891E+04  0.00000000000E+00 0.  1.
         22    1    1    2    0    0 -0.23423326228E+03 -0.17265585485E+04  0.13559923792E+04  0.22078462300E+04  0.00000000000E+00 0. -1.
<mgrwt>
<rscale>  0 0.42841345E+04</rscale>
<asrwt>0</asrwt>
<pdfrwt beam="1">  1        2 0.31304789E+00 0.42841345E+04</pdfrwt>
<pdfrwt beam="2">  1       -2 0.34691950E+00 0.42841345E+04</pdfrwt>
<totfact> 0.80140824E-02</totfact>
</mgrwt>
</event>
<event>
 6    1  0.3017327E-006  0.1854702E+04  0.7818608E-02  0.8677739E-01
         -2   -1    0    0    0  501 -0.00000000000E+00  0.00000000000E+00  0.35645905307E+03  0.35645905307E+03  0.00000000000E+00 0.  1.
          2   -1    0    0  501    0  0.00000000000E+00 -0.00000000000E+00 -0.24125619613E+04  0.24125619613E+04  0.00000000000E+00 0. -1.
         23    2    1    2    0    0 -0.25361635463E+03  0.57348280279E+02 -0.23560089193E+04  0.23720906728E+04  0.91793525810E+02 0.  0.
         11    1    3    3    0    0 -0.95478517416E+02 -0.13514821947E+02 -0.61999045538E+03  0.62744478838E+03  0.00000000000E+00 0. -1.
        -11    1    3    3    0    0 -0.15813783722E+03  0.70863102227E+02 -0.17360184639E+04  0.17446458844E+04  0.00000000000E+00 0.  1.
         22    1    1    2    0    0  0.25361635463E+03 -0.57348280279E+02  0.29990601109E+03  0.39693034159E+03  0.00000000000E+00 0.  1.
<mgrwt>
<rscale>  0 0.18547016E+04</rscale>
<asrwt>0</asrwt>
<pdfrwt beam="1">  1        2 0.37116338E+00 0.18547016E+04</pdfrwt>
<pdfrwt beam="2">  1       -2 0.54839854E-01 0.18547016E+04</pdfrwt>
<totfact> 0.11503806E+01</totfact>
</mgrwt>
</event>
<event>
 6    1  0.3017327E-006  0.3353276E+04  0.7818608E-02  0.8149470E-01
          2   -1    0    0  501    0  0.00000000000E+00  0.00000000000E+00  0.21070761373E+04  0.21070761373E+04  0.00000000000E+00 0. -1.
         -2   -1    0    0    0  501 -0.00000000000E+00 -0.00000000000E+00 -0.13341308653E+04  0.13341308653E+04  0.00000000000E+00 0.  1.
         23    2    1    2    0    0 -0.76963976925E+03  0.11577099388E+03  0.19092909573E+04  0.20638799485E+04  0.91979260862E+02 0.  0.
         13    1    3    3    0    0 -0.58575573026E+03  0.12488267905E+03  0.14228972333E+04  0.15438076291E+04  0.00000000000E+00 0.  1.
        -13    1    3    3    0    0 -0.18388403899E+03 -0.91116851744E+01  0.48639372400E+03  0.52007231934E+03  0.00000000000E+00 0. -1.
         22    1    1    2    0    0  0.76963976925E+03 -0.11577099388E+03 -0.11363456853E+04  0.13773270541E+04  0.00000000000E+00 0.  1.
<mgrwt>
<rscale>  0 0.33532762E+04</rscale>
<asrwt>0</asrwt>
<pdfrwt beam="1">  1        2 0.32416556E+00 0.33532762E+04</pdfrwt>
<pdfrwt beam="2">  1       -2 0.20525090E+00 0.33532762E+04</pdfrwt>
<totfact> 0.59510101E-01</totfact>
</mgrwt>
</event>
<event>
 6    1  0.3017327E-006  0.2007349E+04  0.7818608E-02  0.8603193E-01
         -2   -1    0    0    0  501 -0.00000000000E+00  0.00000000000E+00  0.13527409957E+04  0.13527409957E+04  0.00000000000E+00 0.  1.
          2   -1    0    0  501    0  0.00000000000E+00 -0.00000000000E+00 -0.74468235067E+03  0.74468235067E+03  0.00000000000E+00 0. -1.
         23    2    1    2    0    0  0.29005023858E+03 -0.57187461717E+03 -0.49884119242E+03  0.81820601972E+03  0.97205127370E+02 0.  0.
         11    1    3    3    0    0  0.19754156154E+03 -0.37148246316E+03 -0.26809103438E+03  0.49889346727E+03  0.00000000000E+00 0. -1.
        -11    1    3    3    0    0  0.92508677045E+02 -0.20039215401E+03 -0.23075015803E+03  0.31931255244E+03  0.00000000000E+00 0.  1.
         22    1    1    2    0    0 -0.29005023858E+03  0.57187461717E+03  0.11068998375E+04  0.12792173267E+04  0.00000000000E+00 0.  1.
<mgrwt>
<rscale>  0 0.20073488E+04</rscale>
<asrwt>0</asrwt>
<pdfrwt beam="1">  1        2 0.11456652E+00 0.20073488E+04</pdfrwt>
<pdfrwt beam="2">  1       -2 0.20811400E+00 0.20073488E+04</pdfrwt>
<totfact> 0.41360286E+00</totfact>
</mgrwt>
</event>
<event>
 6    1  0.3017327E-006  0.3414095E+04  0.7818608E-02  0.8134456E-01
          2   -1    0    0  501    0  0.00000000000E+00  0.00000000000E+00  0.35672667935E+04  0.35672667935E+04  0.00000000000E+00 0. -1.
         -2   -1    0    0    0  501 -0.00000000000E+00 -0.00000000000E+00 -0.81687491991E+03  0.81687491991E+03  0.00000000000E+00 0.  1.
         23    2    1    2    0    0  0.78250765068E+03  0.12994888006E+04  0.37408442042E+03  0.15649527381E+04  0.90269333937E+02 0.  0.
         13    1    3    3    0    0  0.23369969107E+03  0.44133397912E+03  0.15648288937E+03  0.52333366163E+03  0.00000000000E+00 0.  1.
        -13    1    3    3    0    0  0.54880795960E+03  0.85815482151E+03  0.21760153105E+03  0.10416190765E+04  0.00000000000E+00 0. -1.
         22    1    1    2    0    0 -0.78250765068E+03 -0.12994888006E+04  0.23763074531E+04  0.28191889752E+04  0.00000000000E+00 0.  1.
<mgrwt>
<rscale>  0 0.34140948E+04</rscale>
<asrwt>0</asrwt>
<pdfrwt beam="1">  1        2 0.54881027E+00 0.34140948E+04</pdfrwt>
<pdfrwt beam="2">  1       -2 0.12567307E+00 0.34140948E+04</pdfrwt>
<totfact> 0.28476617E-01</totfact>
</mgrwt>
</event>
<event>
 6    1  0.3017327E-006  0.3871548E+04  0.7818608E-02  0.8030973E-01
         -2   -1    0    0    0  501 -0.00000000000E+00  0.00000000000E+00  0.11781852621E+04  0.11781852621E+04  0.00000000000E+00 0.  1.
          2   -1    0    0  501    0  0.00000000000E+00 -0.00000000000E+00 -0.31805021718E+04  0.31805021718E+04  0.00000000000E+00 0. -1.
         23    2    1    2    0    0 -0.37203655401E+03  0.11239323588E+04  0.72098657489E+03  0.13891728248E+04  0.91347421071E+02 0.  0.
         13    1    3    3    0    0 -0.29155039068E+03  0.87706981430E+03  0.51740612143E+03  0.10592271635E+04  0.00000000000E+00 0. -1.
        -13    1    3    3    0    0 -0.80486163329E+02  0.24686254446E+03  0.20358045347E+03  0.32994566125E+03  0.00000000000E+00 0.  1.
         22    1    1    2    0    0  0.37203655401E+03 -0.11239323588E+04 -0.27233034846E+04  0.29695146091E+04  0.00000000000E+00 0. -1.
<mgrwt>
<rscale>  0 0.38715479E+04</rscale>
<asrwt>0</asrwt>
<pdfrwt beam="1">  1        2 0.48930802E+00 0.38715479E+04</pdfrwt>
<pdfrwt beam="2">  1       -2 0.18125927E+00 0.38715479E+04</pdfrwt>
<totfact> 0.18899089E-01</totfact>
</mgrwt>
</event>
<event>
 6    1  0.3017327E-006  0.1278741E+04  0.7818608E-02  0.9046596E-01
         -2   -1    0    0    0  501 -0.00000000000E+00  0.00000000000E+00  0.22105903654E+03  0.22105903654E+03  0.00000000000E+00 0.  1.
          2   -1    0    0  501    0  0.00000000000E+00 -0.00000000000E+00 -0.18492541987E+04  0.18492541987E+04  0.00000000000E+00 0. -1.
         23    2    1    2    0    0  0.45203012254E+03 -0.63097171577E+02 -0.10054230702E+03  0.47593695263E+03  0.89970787628E+02 0.  0.
         13    1    3    3    0    0  0.24633771102E+03  0.88366128989E+01 -0.67208175267E+02  0.25549421211E+03  0.00000000000E+00 0.  1.
        -13    1    3    3    0    0  0.20569241152E+03 -0.71933784476E+02 -0.33334131755E+02  0.22044274052E+03  0.00000000000E+00 0. -1.
         22    1    1    2    0    0 -0.45203012254E+03  0.63097171577E+02 -0.15276528551E+04  0.15943762826E+04  0.00000000000E+00 0. -1.
<mgrwt>
<rscale>  0 0.12787406E+04</rscale>
<asrwt>0</asrwt>
<pdfrwt beam="1">  1        2 0.28450064E+00 0.12787406E+04</pdfrwt>
<pdfrwt beam="2">  1       -2 0.34009084E-01 0.12787406E+04</pdfrwt>
<totfact> 0.64383466E+01</totfact>
</mgrwt>
</event>
<event>
 6    1  0.3017327E-006  0.3503471E+04  0.7818608E-02  0.8112968E-01
          2   -1    0    0  501    0  0.00000000000E+00  0.00000000000E+00  0.23547114583E+04  0.23547114583E+04  0.00000000000E+00 0.  1.
         -2   -1    0    0    0  501 -0.00000000000E+00 -0.00000000000E+00 -0.13031648155E+04  0.13031648155E+04  0.00000000000E+00 0. -1.
         23    2    1    2    0    0  0.16507307494E+04 -0.57668587129E+03  0.43973616786E+03  0.18053669869E+04  0.92214201427E+02 0.  0.
         11    1    3    3    0    0  0.14282363631E+04 -0.48332253519E+03  0.40780155906E+03  0.15619737173E+04  0.00000000000E+00 0. -1.
        -11    1    3    3    0    0  0.22249438622E+03 -0.93363336100E+02  0.31934608808E+02  0.24339326956E+03  0.00000000000E+00 0.  1.
         22    1    1    2    0    0 -0.16507307494E+04  0.57668587129E+03  0.61181047496E+03  0.18525092870E+04  0.00000000000E+00 0. -1.
<mgrwt>
<rscale>  0 0.35034709E+04</rscale>
<asrwt>0</asrwt>
<pdfrwt beam="1">  1        2 0.36226330E+00 0.35034709E+04</pdfrwt>
<pdfrwt beam="2">  1       -2 0.20048689E+00 0.35034709E+04</pdfrwt>
<totfact> 0.45765537E-01</totfact>
</mgrwt>
</event>
<event>
 6    1  0.3017327E-006  0.2356255E+04  0.7818608E-02  0.8456065E-01
         -2   -1    0    0    0  501 -0.00000000000E+00  0.00000000000E+00  0.91690474776E+03  0.91690474776E+03  0.00000000000E+00 0.  1.
          2   -1    0    0  501    0  0.00000000000E+00 -0.00000000000E+00 -0.15137721252E+04  0.15137721252E+04  0.00000000000E+00 0. -1.
         23    2    1    2    0    0  0.10344101696E+04  0.51110730240E+03 -0.53569417979E+03  0.12752647242E+04  0.89982159830E+02 0.  0.
         11    1    3    3    0    0  0.19639444000E+03  0.63937098866E+02 -0.11517742680E+03  0.23648375910E+03  0.00000000000E+00 0.  1.
        -11    1    3    3    0    0  0.83801572956E+03  0.44717020353E+03 -0.42051675299E+03  0.10387809651E+04  0.00000000000E+00 0. -1.
         22    1    1    2    0    0 -0.10344101696E+04 -0.51110730240E+03 -0.61173197697E+02  0.11554121488E+04  0.00000000000E+00 0. -1.
<mgrwt>
<rscale>  0 0.23562554E+04</rscale>
<asrwt>0</asrwt>
<pdfrwt beam="1">  1        2 0.23288802E+00 0.23562554E+04</pdfrwt>
<pdfrwt beam="2">  1       -2 0.14106227E+00 0.23562554E+04</pdfrwt>
<totfact> 0.39632936E+00</totfact>
</mgrwt>
</event>
<event>
 6    1  0.3017327E-006  0.6909994E+03  0.7818608E-02  0.9732749E-01
          2   -1    0    0  501    0  0.00000000000E+00  0.00000000000E+00  0.58116832768E+02  0.58116832768E+02  0.00000000000E+00 0. -1.
         -2   -1    0    0    0  501 -0.00000000000E+00 -0.00000000000E+00 -0.20539669765E+04  0.20539669765E+04  0.00000000000E+00 0.  1.
         23    2    1    2    0    0  0.54112539206E+02  0.14475919433E+03 -0.19392440560E+04  0.19475005768E+04  0.90595786799E+02 0.  0.
         13    1    3    3    0    0  0.71865522292E+02  0.72678964336E+02 -0.95255251481E+03  0.95802044791E+03  0.00000000000E+00 0.  1.
        -13    1    3    3    0    0 -0.17752983086E+02  0.72080229995E+02 -0.98669154119E+03  0.98948012887E+03  0.00000000000E+00 0. -1.
         22    1    1    2    0    0 -0.54112539206E+02 -0.14475919433E+03 -0.56606087710E+02  0.16458323246E+03  0.00000000000E+00 0. -1.
<mgrwt>
<rscale>  0 0.69099944E+03</rscale>
<asrwt>0</asrwt>
<pdfrwt beam="1">  1        2 0.89410520E-02 0.69099944E+03</pdfrwt>
<pdfrwt beam="2">  1       -2 0.31599489E+00 0.69099944E+03</pdfrwt>
<totfact> 0.20449243E+01</totfact>
</mgrwt>
</event>
<event>
 6    1  0.3017327E-006  0.4067888E+04  0.7818608E-02  0.7990990E-01
         -2   -1    0    0    0  501 -0.00000000000E+00  0.00000000000E+00  0.20280832287E+04  0.20280832287E+04  0.00000000000E+00 0. -1.
          2   -1    0    0  501    0  0.00000000000E+00 -0.00000000000E+00 -0.20398217187E+04  0.20398217187E+04  0.00000000000E+00 0.  1.
         23    2    1    2    0    0  0.17834823019E+04 -0.52888453104E+03 -0.82580589280E+03  0.20373302247E+04  0.90725429183E+02 0.  0.
         11    1    3    3    0    0  0.13057995609E+04 -0.38529907636E+03 -0.64785776377E+03  0.15077425356E+04  0.00000000000E+00 0. -1.
        -11    1    3    3    0    0  0.47768274100E+03 -0.14358545468E+03 -0.17794812902E+03  0.52958768912E+03  0.00000000000E+00 0.  1.
         22    1    1    2    0    0 -0.17834823019E+04  0.52888453104E+03  0.81406740277E+03  0.20305747228E+04  0.00000000000E+00 0.  1.
<mgrwt>
<rscale>  0 0.40678880E+04</rscale>
<asrwt>0</asrwt>
<pdfrwt beam="1">  1        2 0.31381873E+00 0.40678880E+04</pdfrwt>
<pdfrwt beam="2">  1       -2 0.31201280E+00 0.40678880E+04</pdfrwt>
<totfact> 0.13358385E-01</totfact>
</mgrwt>
</event>
<event>
 6    1  0.3017327E-006  0.3344913E+04  0.7818608E-02  0.8151560E-01
          2   -1    0    0  501    0  0.00000000000E+00  0.00000000000E+00  0.39103158014E+04  0.39103158014E+04  0.00000000000E+00 0. -1.
         -2   -1    0    0    0  501 -0.00000000000E+00 -0.00000000000E+00 -0.71531599574E+03  0.71531599574E+03  0.00000000000E+00 0.  1.
         23    2    1    2    0    0  0.43043912096E+03 -0.93820411046E+03  0.34162632149E+04  0.35699508388E+04  0.90497777846E+02 0.  0.
         13    1    3    3    0    0  0.39962506747E+03 -0.89675535724E+03  0.31797583256E+04  0.33278721992E+04  0.00000000000E+00 0. -1.
        -13    1    3    3    0    0  0.30814053488E+02 -0.41448753224E+02  0.23650488932E+03  0.24207863952E+03  0.00000000000E+00 0.  1.
         22    1    1    2    0    0 -0.43043912096E+03  0.93820411046E+03 -0.22126340921E+03  0.10556809584E+04  0.00000000000E+00 0.  1.
<mgrwt>
<rscale>  0 0.33449134E+04</rscale>
<asrwt>0</asrwt>
<pdfrwt beam="1">  1        2 0.60158703E+00 0.33449134E+04</pdfrwt>
<pdfrwt beam="2">  1       -2 0.11004862E+00 0.33449134E+04</pdfrwt>
<totfact> 0.21989796E-01</totfact>
</mgrwt>
</event>
<event>
 6    1  0.3017327E-006  0.4558433E+04  0.7818608E-02  0.7900486E-01
          2   -1    0    0  501    0  0.00000000000E+00  0.00000000000E+00  0.23251589951E+04  0.23251589951E+04  0.00000000000E+00 0. -1.
         -2   -1    0    0    0  501 -0.00000000000E+00 -0.00000000000E+00 -0.22341821092E+04  0.22341821092E+04  0.00000000000E+00 0.  1.
         23    2    1    2    0    0 -0.21668641966E+04  0.18026817883E+03 -0.63483397237E+03  0.22670500092E+04  0.93297956303E+02 0.  0.
         13    1    3    3    0    0 -0.21194722825E+04  0.17504774265E+03 -0.60605313447E+03  0.22113581506E+04  0.00000000000E+00 0. -1.
        -13    1    3    3    0    0 -0.47391914131E+02  0.52204361855E+01 -0.28780837893E+02  0.55691858550E+02  0.00000000000E+00 0.  1.
         22    1    1    2    0    0  0.21668641966E+04 -0.18026817883E+03  0.72581085833E+03  0.22922910952E+04  0.00000000000E+00 0.  1.
<mgrwt>
<rscale>  0 0.45584333E+04</rscale>
<asrwt>0</asrwt>
<pdfrwt beam="1">  1        2 0.35771677E+00 0.45584333E+04</pdfrwt>
<pdfrwt beam="2">  1       -2 0.34372033E+00 0.45584333E+04</pdfrwt>
<totfact> 0.56374096E-02</totfact>
</mgrwt>
</event>
<event>
 6    1  0.3017327E-006  0.2155439E+04  0.7818608E-02  0.8537208E-01
         -2   -1    0    0    0  501 -0.00000000000E+00  0.00000000000E+00  0.30463998502E+03  0.30463998502E+03  0.00000000000E+00 0. -1.
          2   -1    0    0  501    0  0.00000000000E+00 -0.00000000000E+00 -0.38126275636E+04  0.38126275636E+04  0.00000000000E+00 0.  1.
         23    2    1    2    0    0 -0.27280006607E+03 -0.59762349260E+03 -0.12968466965E+03  0.67568299214E+03  0.90308788998E+02 0.  0.
         13    1    3    3    0    0 -0.17930082256E+03 -0.48082019548E+03 -0.10943044625E+03  0.52470169422E+03  0.00000000000E+00 0. -1.
        -13    1    3    3    0    0 -0.93499243515E+02 -0.11680329711E+03 -0.20254223396E+02  0.15098129791E+03  0.00000000000E+00 0.  1.
         22    1    1    2    0    0  0.27280006607E+03  0.59762349260E+03 -0.33783029089E+04  0.34415845565E+04  0.00000000000E+00 0.  1.
<mgrwt>
<rscale>  0 0.21554385E+04</rscale>
<asrwt>0</asrwt>
<pdfrwt beam="1">  1        2 0.58655811E+00 0.21554385E+04</pdfrwt>
<pdfrwt beam="2">  1       -2 0.46867688E-01 0.21554385E+04</pdfrwt>
<totfact> 0.19136269E+00</totfact>
</mgrwt>
</event>
<event>
 6    1  0.3017327E-006  0.4236780E+04  0.7818608E-02  0.7958413E-01
          2   -1    0    0  501    0  0.00000000000E+00  0.00000000000E+00  0.20044775754E+04  0.20044775754E+04  0.00000000000E+00 0. -1.
         -2   -1    0    0    0  501 -0.00000000000E+00 -0.00000000000E+00 -0.22387763130E+04  0.22387763130E+04  0.00000000000E+00 0.  1.
         23    2    1    2    0    0 -0.84674686209E+03  0.15093162211E+04 -0.13390149771E+04  0.21901066279E+04  0.92683488659E+02 0.  0.
         11    1    3    3    0    0 -0.28220897693E+03  0.41705545888E+03 -0.38904597647E+03  0.63634419480E+03  0.00000000000E+00 0. -1.
        -11    1    3    3    0    0 -0.56453788516E+03  0.10922607622E+04 -0.94996900060E+03  0.15537624331E+04  0.00000000000E+00 0.  1.
         22    1    1    2    0    0  0.84674686209E+03 -0.15093162211E+04  0.11047162395E+04  0.20531472605E+04  0.00000000000E+00 0. -1.
<mgrwt>
<rscale>  0 0.42367803E+04</rscale>
<asrwt>0</asrwt>
<pdfrwt beam="1">  1        2 0.30838117E+00 0.42367803E+04</pdfrwt>
<pdfrwt beam="2">  1       -2 0.34442712E+00 0.42367803E+04</pdfrwt>
<totfact> 0.86711699E-02</totfact>
</mgrwt>
</event>
<event>
 6    1  0.3017327E-006  0.1956195E+04  0.7818608E-02  0.8627379E-01
          2   -1    0    0  501    0  0.00000000000E+00  0.00000000000E+00  0.10778355500E+04  0.10778355500E+04  0.00000000000E+00 0. -1.
         -2   -1    0    0    0  501 -0.00000000000E+00 -0.00000000000E+00 -0.88758834294E+03  0.88758834294E+03  0.00000000000E+00 0.  1.
         23    2    1    2    0    0 -0.63733932761E+03  0.57122673935E+03 -0.37582198006E+03  0.93929732626E+03  0.92389935335E+02 0.  0.
         11    1    3    3    0    0 -0.23673358498E+03  0.20288989323E+03 -0.18540433471E+03  0.36274214859E+03  0.00000000000E+00 0. -1.
        -11    1    3    3    0    0 -0.40060574263E+03  0.36833684613E+03 -0.19041764535E+03  0.57655517767E+03  0.00000000000E+00 0.  1.
         22    1    1    2    0    0  0.63733932761E+03 -0.57122673935E+03  0.56606918716E+03  0.10261265667E+04  0.00000000000E+00 0. -1.
<mgrwt>
<rscale>  0 0.19561945E+04</rscale>
<asrwt>0</asrwt>
<pdfrwt beam="1">  1        2 0.16582085E+00 0.19561945E+04</pdfrwt>
<pdfrwt beam="2">  1       -2 0.13655205E+00 0.19561945E+04</pdfrwt>
<totfact> 0.80329203E+00</totfact>
</mgrwt>
</event>
<event>
 6    1  0.3017327E-006  0.2006524E+04  0.7818608E-02  0.8603576E-01
          1   -1    0    0  501    0  0.00000000000E+00  0.00000000000E+00  0.10651204001E+04  0.10651204001E+04  0.00000000000E+00 0. -1.
         -1   -1    0    0    0  501 -0.00000000000E+00 -0.00000000000E+00 -0.94499635204E+03  0.94499635204E+03  0.00000000000E+00 0.  1.
         23    2    1    2    0    0  0.84384719620E+03  0.25449940676E+03  0.53582689941E+03  0.10356133405E+04  0.92393107740E+02 0.  0.
         11    1    3    3    0    0  0.45711462174E+03  0.12496027502E+03  0.23591351820E+03  0.52936191383E+03  0.00000000000E+00 0. -1.
        -11    1    3    3    0    0  0.38673257446E+03  0.12953913174E+03  0.29991338121E+03  0.50625142669E+03  0.00000000000E+00 0.  1.
         22    1    1    2    0    0 -0.84384719620E+03 -0.25449940676E+03 -0.41570285138E+03  0.97450341160E+03  0.00000000000E+00 0.  1.
<mgrwt>
<rscale>  0 0.20065243E+04</rscale>
<asrwt>0</asrwt>
<pdfrwt beam="1">  1        1 0.16386468E+00 0.20065243E+04</pdfrwt>
<pdfrwt beam="2">  1       -1 0.14538405E+00 0.20065243E+04</pdfrwt>
<totfact> 0.47404080E+00</totfact>
</mgrwt>
</event>
<event>
 6    1  0.3017327E-006  0.1473301E+04  0.7818608E-02  0.8902404E-01
         -2   -1    0    0    0  501 -0.00000000000E+00  0.00000000000E+00  0.76652394238E+03  0.76652394238E+03  0.00000000000E+00 0.  1.
          2   -1    0    0  501    0  0.00000000000E+00 -0.00000000000E+00 -0.70794173100E+03  0.70794173100E+03  0.00000000000E+00 0. -1.
         23    2    1    2    0    0 -0.28108976389E+03 -0.62071358288E+03  0.30210681971E+03  0.75086285263E+03  0.90717614609E+02 0.  0.
         13    1    3    3    0    0 -0.11641535069E+03 -0.26312197972E+03  0.17684982729E+03  0.33773002754E+03  0.00000000000E+00 0.  1.
        -13    1    3    3    0    0 -0.16467441320E+03 -0.35759160316E+03  0.12525699242E+03  0.41313282509E+03  0.00000000000E+00 0. -1.
         22    1    1    2    0    0  0.28108976389E+03  0.62071358288E+03 -0.24352460832E+03  0.72360282075E+03  0.00000000000E+00 0. -1.
<mgrwt>
<rscale>  0 0.14733014E+04</rscale>
<asrwt>0</asrwt>
<pdfrwt beam="1">  1        2 0.10891411E+00 0.14733014E+04</pdfrwt>
<pdfrwt beam="2">  1       -2 0.11792676E+00 0.14733014E+04</pdfrwt>
<totfact> 0.21677569E+01</totfact>
</mgrwt>
</event>
<event>
 6    1  0.3017327E-006  0.3783608E+04  0.7818608E-02  0.8049682E-01
         -2   -1    0    0    0  501 -0.00000000000E+00  0.00000000000E+00  0.12306058417E+04  0.12306058417E+04  0.00000000000E+00 0.  1.
          2   -1    0    0  501    0  0.00000000000E+00 -0.00000000000E+00 -0.29082599656E+04  0.29082599656E+04  0.00000000000E+00 0. -1.
         23    2    1    2    0    0 -0.86539846693E+03  0.10489364766E+04  0.59759019881E+03  0.14882207977E+04  0.92221788432E+02 0.  0.
         11    1    3    3    0    0 -0.34610302416E+03  0.47077472992E+03  0.29142622599E+03  0.65295129593E+03  0.00000000000E+00 0.  1.
        -11    1    3    3    0    0 -0.51929544277E+03  0.57816174673E+03  0.30616397282E+03  0.83526950173E+03  0.00000000000E+00 0. -1.
         22    1    1    2    0    0  0.86539846693E+03 -0.10489364766E+04 -0.22752443227E+04  0.26506450096E+04  0.00000000000E+00 0. -1.
<mgrwt>
<rscale>  0 0.37836076E+04</rscale>
<asrwt>0</asrwt>
<pdfrwt beam="1">  1        2 0.44742460E+00 0.37836076E+04</pdfrwt>
<pdfrwt beam="2">  1       -2 0.18932398E+00 0.37836076E+04</pdfrwt>
<totfact> 0.24958631E-01</totfact>
</mgrwt>
</event>
<event>
 6    1  0.3017327E-006  0.1496116E+04  0.7818608E-02  0.8887040E-01
          2   -1    0    0  501    0  0.00000000000E+00  0.00000000000E+00  0.83138733620E+03  0.83138733620E+03  0.00000000000E+00 0. -1.
         -2   -1    0    0    0  501 -0.00000000000E+00 -0.00000000000E+00 -0.67308108930E+03  0.67308108930E+03  0.00000000000E+00 0.  1.
         23    2    1    2    0    0  0.19656638134E+03 -0.66203660409E+03  0.36152442525E+03  0.78458757741E+03  0.89145662495E+02 0.  0.
         13    1    3    3    0    0  0.10178904412E+03 -0.24799073133E+03  0.17861619932E+03  0.32212444643E+03  0.00000000000E+00 0.  1.
        -13    1    3    3    0    0  0.94777337218E+02 -0.41404587276E+03  0.18290822593E+03  0.46246313098E+03  0.00000000000E+00 0. -1.
         22    1    1    2    0    0 -0.19656638134E+03  0.66203660409E+03 -0.20321817835E+03  0.71988084809E+03  0.00000000000E+00 0.  1.
<mgrwt>
<rscale>  0 0.14961164E+04</rscale>
<asrwt>0</asrwt>
<pdfrwt beam="1">  1        2 0.12790574E+00 0.14961164E+04</pdfrwt>
<pdfrwt beam="2">  1       -2 0.10355094E+00 0.14961164E+04</pdfrwt>
<totfact> 0.24030591E+01</totfact>
</mgrwt>
</event>
<event>
 6    1  0.3017327E-006  0.4676989E+04  0.7818608E-02  0.7880363E-01
          2   -1    0    0  501    0  0.00000000000E+00  0.00000000000E+00  0.33359879135E+04  0.33359879135E+04  0.00000000000E+00 0. -1.
         -2   -1    0    0    0  501 -0.00000000000E+00 -0.00000000000E+00 -0.16392616257E+04  0.16392616257E+04  0.00000000000E+00 0.  1.
         23    2    1    2    0    0  0.29134442576E+03  0.23044533928E+04  0.11250066319E+04  0.25831269714E+04  0.10732201479E+03 0.  0.
         13    1    3    3    0    0  0.43590930588E+02  0.59302557794E+03  0.32704943829E+03  0.67863159402E+03  0.00000000000E+00 0.  1.
        -13    1    3    3    0    0  0.24775349517E+03  0.17114278148E+04  0.79795719363E+03  0.19044953774E+04  0.00000000000E+00 0. -1.
         22    1    1    2    0    0 -0.29134442576E+03 -0.23044533928E+04  0.57171965586E+03  0.23921225677E+04  0.00000000000E+00 0. -1.
<mgrwt>
<rscale>  0 0.46769892E+04</rscale>
<asrwt>0</asrwt>
<pdfrwt beam="1">  1        2 0.51322891E+00 0.46769892E+04</pdfrwt>
<pdfrwt beam="2">  1       -2 0.25219410E+00 0.46769892E+04</pdfrwt>
<totfact> 0.48961805E-02</totfact>
</mgrwt>
</event>
<event>
 6    1  0.3017327E-006  0.1401615E+04  0.7818608E-02  0.8952650E-01
         -2   -1    0    0    0  501 -0.00000000000E+00  0.00000000000E+00  0.13047340622E+04  0.13047340622E+04  0.00000000000E+00 0.  1.
          2   -1    0    0  501    0  0.00000000000E+00 -0.00000000000E+00 -0.37642256978E+03  0.37642256978E+03  0.00000000000E+00 0. -1.
         23    2    1    2    0    0 -0.94881560673E+01  0.51557599623E+03 -0.97738792581E+02  0.53281529756E+03  0.91818498964E+02 0.  0.
         11    1    3    3    0    0  0.41274609780E+02  0.24729154718E+03 -0.48929048385E+02  0.25544227233E+03  0.00000000000E+00 0. -1.
        -11    1    3    3    0    0 -0.50762765847E+02  0.26828444905E+03 -0.48809744196E+02  0.27737302523E+03  0.00000000000E+00 0.  1.
         22    1    1    2    0    0  0.94881560673E+01 -0.51557599623E+03  0.10260502850E+04  0.11483413344E+04  0.00000000000E+00 0.  1.
<mgrwt>
<rscale>  0 0.14016153E+04</rscale>
<asrwt>0</asrwt>
<pdfrwt beam="1">  1        2 0.57911165E-01 0.14016153E+04</pdfrwt>
<pdfrwt beam="2">  1       -2 0.20072831E+00 0.14016153E+04</pdfrwt>
<totfact> 0.10891054E+01</totfact>
</mgrwt>
</event>
<event>
 6    1  0.3017327E-006  0.1386857E+04  0.7818608E-02  0.8963387E-01
          2   -1    0    0  501    0  0.00000000000E+00  0.00000000000E+00  0.22583076242E+03  0.22583076242E+03  0.00000000000E+00 0. -1.
         -2   -1    0    0    0  501 -0.00000000000E+00 -0.00000000000E+00 -0.21292190013E+04  0.21292190013E+04  0.00000000000E+00 0.  1.
         23    2    1    2    0    0  0.39358648011E+03 -0.54996842905E+03 -0.72023934537E+03  0.99225231197E+03  0.91893121146E+02 0.  0.
         13    1    3    3    0    0  0.15353352781E+03 -0.27660952786E+03 -0.37618712723E+03  0.49153039556E+03  0.00000000000E+00 0. -1.
        -13    1    3    3    0    0  0.24005295230E+03 -0.27335890119E+03 -0.34405221814E+03  0.50072191641E+03  0.00000000000E+00 0.  1.
         22    1    1    2    0    0 -0.39358648011E+03  0.54996842905E+03 -0.11831488935E+04  0.13627974517E+04  0.00000000000E+00 0.  1.
<mgrwt>
<rscale>  0 0.13868571E+04</rscale>
<asrwt>0</asrwt>
<pdfrwt beam="1">  1        2 0.34743194E-01 0.13868571E+04</pdfrwt>
<pdfrwt beam="2">  1       -2 0.32757215E+00 0.13868571E+04</pdfrwt>
<totfact> 0.31824767E+00</totfact>
</mgrwt>
</event>
<event>
 6    1  0.3017327E-006  0.7772763E+03  0.7818608E-02  0.9593504E-01
         -2   -1    0    0    0  501 -0.00000000000E+00  0.00000000000E+00  0.10416758880E+03  0.10416758880E+03  0.00000000000E+00 0.  1.
          2   -1    0    0  501    0  0.00000000000E+00 -0.00000000000E+00 -0.14499672532E+04  0.14499672532E+04  0.00000000000E+00 0. -1.
         23    2    1    2    0    0 -0.33706467239E+03  0.14891286034E+02 -0.10455437517E+04  0.11024845825E+04  0.92066140104E+02 0.  0.
         13    1    3    3    0    0 -0.13564492940E+03  0.12676257267E+02 -0.56968259201E+03  0.58574609688E+03  0.00000000000E+00 0. -1.
        -13    1    3    3    0    0 -0.20141974299E+03  0.22150287671E+01 -0.47586115972E+03  0.51673848565E+03  0.00000000000E+00 0.  1.
         22    1    1    2    0    0  0.33706467239E+03 -0.14891286034E+02 -0.30025591263E+03  0.45165025943E+03  0.00000000000E+00 0.  1.
<mgrwt>
<rscale>  0 0.77727625E+03</rscale>
<asrwt>0</asrwt>
<pdfrwt beam="1">  1        2 0.22307187E+00 0.77727625E+03</pdfrwt>
<pdfrwt beam="2">  1       -2 0.16025784E-01 0.77727625E+03</pdfrwt>
<totfact> 0.42856672E+02</totfact>
</mgrwt>
</event>
<event>
 6    1  0.3017327E-006  0.3324232E+04  0.7818608E-02  0.8156757E-01
         -2   -1    0    0    0  501 -0.00000000000E+00  0.00000000000E+00  0.15040667592E+04  0.15040667592E+04  0.00000000000E+00 0. -1.
          2   -1    0    0  501    0  0.00000000000E+00 -0.00000000000E+00 -0.18367733449E+04  0.18367733449E+04  0.00000000000E+00 0.  1.
         23    2    1    2    0    0 -0.84482749170E+03  0.85264602392E+03 -0.13202619146E+04  0.17864899954E+04  0.87842174815E+02 0.  0.
         11    1    3    3    0    0 -0.21571884091E+03  0.23968833610E+03 -0.40898009915E+03  0.52081651115E+03  0.00000000000E+00 0. -1.
        -11    1    3    3    0    0 -0.62910865080E+03  0.61295768782E+03 -0.91128181543E+03  0.12656734842E+04  0.00000000000E+00 0.  1.
         22    1    1    2    0    0  0.84482749170E+03 -0.85264602392E+03  0.98755532885E+03  0.15543501087E+04  0.00000000000E+00 0. -1.
<mgrwt>
<rscale>  0 0.33242321E+04</rscale>
<asrwt>0</asrwt>
<pdfrwt beam="1">  1        2 0.28258051E+00 0.33242321E+04</pdfrwt>
<pdfrwt beam="2">  1       -2 0.23139489E+00 0.33242321E+04</pdfrwt>
<totfact> 0.57509019E-01</totfact>
</mgrwt>
</event>
<event>
 6    1  0.3017327E-006  0.4562924E+04  0.7818608E-02  0.7899712E-01
         -1   -1    0    0    0  501 -0.00000000000E+00  0.00000000000E+00  0.31576230777E+04  0.31576230777E+04  0.00000000000E+00 0.  1.
          1   -1    0    0  501    0  0.00000000000E+00 -0.00000000000E+00 -0.16484136885E+04  0.16484136885E+04  0.00000000000E+00 0. -1.
         23    2    1    2    0    0  0.16417283130E+04  0.42498752075E+03 -0.85115788093E+03  0.18996266271E+04  0.90693647755E+02 0.  0.
         11    1    3    3    0    0  0.48213340152E+03  0.90125435749E+02 -0.21958996855E+03  0.53739646940E+03  0.00000000000E+00 0.  1.
        -11    1    3    3    0    0  0.11595949115E+04  0.33486208500E+03 -0.63156791238E+03  0.13622301577E+04  0.00000000000E+00 0. -1.
         22    1    1    2    0    0 -0.16417283130E+04 -0.42498752075E+03  0.23603672701E+04  0.29064101390E+04  0.00000000000E+00 0.  1.
<mgrwt>
<rscale>  0 0.45629241E+04</rscale>
<asrwt>0</asrwt>
<pdfrwt beam="1">  1        1 0.25360211E+00 0.45629241E+04</pdfrwt>
<pdfrwt beam="2">  1       -1 0.48578816E+00 0.45629241E+04</pdfrwt>
<totfact> 0.71601059E-03</totfact>
</mgrwt>
</event>
<event>
 6    1  0.3017327E-006  0.1898688E+04  0.7818608E-02  0.8655510E-01
          2   -1    0    0  501    0  0.00000000000E+00  0.00000000000E+00  0.21030989227E+04  0.21030989227E+04  0.00000000000E+00 0. -1.
         -2   -1    0    0    0  501 -0.00000000000E+00 -0.00000000000E+00 -0.42853611700E+03  0.42853611700E+03  0.00000000000E+00 0.  1.
         23    2    1    2    0    0 -0.93658857898E+02  0.78010414750E+02  0.20916001137E+04  0.20971494556E+04  0.91581641748E+02 0.  0.
         13    1    3    3    0    0  0.49033244092E+01 -0.15329142841E+02  0.28710652745E+03  0.28755726963E+03  0.00000000000E+00 0.  1.
        -13    1    3    3    0    0 -0.98562182307E+02  0.93339557591E+02  0.18044935863E+04  0.18095921860E+04  0.00000000000E+00 0. -1.
         22    1    1    2    0    0  0.93658857898E+02 -0.78010414750E+02 -0.41703730803E+03  0.43448558406E+03  0.00000000000E+00 0.  1.
<mgrwt>
<rscale>  0 0.18986878E+04</rscale>
<asrwt>0</asrwt>
<pdfrwt beam="1">  1        2 0.32355367E+00 0.18986878E+04</pdfrwt>
<pdfrwt beam="2">  1       -2 0.65928635E-01 0.18986878E+04</pdfrwt>
<totfact> 0.11607323E+01</totfact>
</mgrwt>
</event>
<event>
 6    1  0.3017327E-006  0.2910656E+04  0.7818608E-02  0.8269714E-01
         -2   -1    0    0    0  501 -0.00000000000E+00  0.00000000000E+00  0.14877152915E+04  0.14877152915E+04  0.00000000000E+00 0.  1.
          2   -1    0    0  501    0  0.00000000000E+00 -0.00000000000E+00 -0.14236453417E+04  0.14236453417E+04  0.00000000000E+00 0. -1.
         23    2    1    2    0    0  0.72988758836E+03  0.88173856815E+03  0.92873061334E+03  0.14768443882E+04  0.91268836643E+02 0.  0.
         13    1    3    3    0    0  0.44382465114E+03  0.46724815915E+03  0.53539213640E+03  0.83782211890E+03  0.00000000000E+00 0. -1.
        -13    1    3    3    0    0  0.28606293722E+03  0.41449040900E+03  0.39333847694E+03  0.63902226929E+03  0.00000000000E+00 0.  1.
         22    1    1    2    0    0 -0.72988758836E+03 -0.88173856815E+03 -0.86466066351E+03  0.14345162450E+04  0.00000000000E+00 0. -1.
<mgrwt>
<rscale>  0 0.29106556E+04</rscale>
<asrwt>0</asrwt>
<pdfrwt beam="1">  1        2 0.21902236E+00 0.29106556E+04</pdfrwt>
<pdfrwt beam="2">  1       -2 0.22887928E+00 0.29106556E+04</pdfrwt>
<totfact> 0.10510678E+00</totfact>
</mgrwt>
</event>
<event>
 6    1  0.3017327E-006  0.3547128E+04  0.7818608E-02  0.8102711E-01
          2   -1    0    0  501    0  0.00000000000E+00  0.00000000000E+00  0.14879724879E+04  0.14879724879E+04  0.00000000000E+00 0. -1.
         -2   -1    0    0    0  501 -0.00000000000E+00 -0.00000000000E+00 -0.21139698014E+04  0.21139698014E+04  0.00000000000E+00 0.  1.
         23    2    1    2    0    0  0.15676744755E+04  0.74309537679E+03 -0.68245455712E+03  0.18661481137E+04  0.83489876823E+02 0.  0.
         11    1    3    3    0    0  0.67966611970E+03  0.34057482090E+03 -0.25831463106E+03  0.80290951639E+03  0.00000000000E+00 0. -1.
        -11    1    3    3    0    0  0.88800835578E+03  0.40252055589E+03 -0.42413992607E+03  0.10632385973E+04  0.00000000000E+00 0.  1.
         22    1    1    2    0    0 -0.15676744755E+04 -0.74309537679E+03  0.56457243604E+02  0.17357941757E+04  0.00000000000E+00 0.  1.
<mgrwt>
<rscale>  0 0.35471278E+04</rscale>
<asrwt>0</asrwt>
<pdfrwt beam="1">  1        2 0.22891885E+00 0.35471278E+04</pdfrwt>
<pdfrwt beam="2">  1       -2 0.32522612E+00 0.35471278E+04</pdfrwt>
<totfact> 0.23452322E-01</totfact>
</mgrwt>
</event>
<event>
 6    1  0.3017327E-006  0.1050137E+04  0.7818608E-02  0.9255202E-01
          2   -1    0    0  501    0  0.00000000000E+00  0.00000000000E+00  0.30146284239E+04  0.30146284239E+04  0.00000000000E+00 0. -1.
         -2   -1    0    0    0  501 -0.00000000000E+00 -0.00000000000E+00 -0.91453118241E+02  0.91453118241E+02  0.00000000000E+00 0.  1.
         23    2    1    2    0    0  0.26108352839E+03 -0.21076949340E+03  0.26519824271E+04  0.26746490845E+04  0.90269281767E+02 0.  0.
         11    1    3    3    0    0  0.17455131901E+03 -0.83812732227E+02  0.15235539530E+04  0.15358090327E+04  0.00000000000E+00 0.  1.
        -11    1    3    3    0    0  0.86532209385E+02 -0.12695676117E+03  0.11284284741E+04  0.11388400518E+04  0.00000000000E+00 0. -1.
         22    1    1    2    0    0 -0.26108352839E+03  0.21076949340E+03  0.27119287852E+03  0.43143245764E+03  0.00000000000E+00 0.  1.
<mgrwt>
<rscale>  0 0.10501375E+04</rscale>
<asrwt>0</asrwt>
<pdfrwt beam="1">  1        2 0.46378891E+00 0.10501375E+04</pdfrwt>
<pdfrwt beam="2">  1       -2 0.14069713E-01 0.10501375E+04</pdfrwt>
<totfact> 0.67863124E+01</totfact>
</mgrwt>
</event>
<event>
 6    1  0.3017327E-006  0.3821193E+04  0.7818608E-02  0.8041622E-01
          2   -1    0    0  501    0  0.00000000000E+00  0.00000000000E+00  0.55909120642E+04  0.55909120642E+04  0.00000000000E+00 0. -1.
         -2   -1    0    0    0  501 -0.00000000000E+00 -0.00000000000E+00 -0.65291289149E+03  0.65291289149E+03  0.00000000000E+00 0.  1.
         23    2    1    2    0    0 -0.48003681771E+03  0.18479889171E+04  0.24272541786E+04  0.30895677041E+04  0.91473310705E+02 0.  0.
         11    1    3    3    0    0 -0.13316597287E+03  0.45613917031E+03  0.54553400677E+03  0.72346628917E+03  0.00000000000E+00 0. -1.
        -11    1    3    3    0    0 -0.34687084484E+03  0.13918497468E+04  0.18817201718E+04  0.23661014149E+04  0.00000000000E+00 0.  1.
         22    1    1    2    0    0  0.48003681771E+03 -0.18479889171E+04  0.25107449941E+04  0.31542572516E+04  0.00000000000E+00 0. -1.
<mgrwt>
<rscale>  0 0.38211928E+04</rscale>
<asrwt>0</asrwt>
<pdfrwt beam="1">  1        2 0.86014029E+00 0.38211928E+04</pdfrwt>
<pdfrwt beam="2">  1       -2 0.10044814E+00 0.38211928E+04</pdfrwt>
<totfact> 0.25700213E-03</totfact>
</mgrwt>
</event>
<event>
 6    1  0.3017327E-006  0.8951754E+03  0.7818608E-02  0.9431633E-01
          2   -1    0    0  501    0  0.00000000000E+00  0.00000000000E+00  0.46792184708E+03  0.46792184708E+03  0.00000000000E+00 0. -1.
         -2   -1    0    0    0  501 -0.00000000000E+00 -0.00000000000E+00 -0.42813717624E+03  0.42813717624E+03  0.00000000000E+00 0.  1.
         23    2    1    2    0    0  0.21603131528E+03  0.32998265472E+03 -0.18178138717E+03  0.44367688435E+03  0.90810921077E+02 0.  0.
         11    1    3    3    0    0  0.42462772665E+02  0.46765385174E+02 -0.67375208051E+02  0.92355329965E+02  0.00000000000E+00 0.  1.
        -11    1    3    3    0    0  0.17356854261E+03  0.28321726955E+03 -0.11440617911E+03  0.35132155438E+03  0.00000000000E+00 0. -1.
         22    1    1    2    0    0 -0.21603131528E+03 -0.32998265472E+03  0.22156605800E+03  0.45238213897E+03  0.00000000000E+00 0. -1.
<mgrwt>
<rscale>  0 0.89517538E+03</rscale>
<asrwt>0</asrwt>
<pdfrwt beam="1">  1        2 0.71987976E-01 0.89517538E+03</pdfrwt>
<pdfrwt beam="2">  1       -2 0.65867258E-01 0.89517538E+03</pdfrwt>
<totfact> 0.14167928E+02</totfact>
</mgrwt>
</event>
<event>
 6    1  0.3017327E-006  0.4950676E+04  0.7818608E-02  0.7836161E-01
         -2   -1    0    0    0  501 -0.00000000000E+00  0.00000000000E+00  0.47684638149E+04  0.47684638149E+04  0.00000000000E+00 0.  1.
          2   -1    0    0  501    0  0.00000000000E+00 -0.00000000000E+00 -0.12849625619E+04  0.12849625619E+04  0.00000000000E+00 0. -1.
         23    2    1    2    0    0  0.12127523725E+04  0.10816584259E+04 -0.53935872520E+03  0.17147450481E+04  0.93217370338E+02 0.  0.
         11    1    3    3    0    0  0.30601249892E+03  0.22840241721E+03 -0.10424434184E+03  0.39582596742E+03  0.00000000000E+00 0. -1.
        -11    1    3    3    0    0  0.90673987361E+03  0.85325600864E+03 -0.43511438337E+03  0.13189190806E+04  0.00000000000E+00 0.  1.
         22    1    1    2    0    0 -0.12127523725E+04 -0.10816584259E+04  0.40228599783E+04  0.43386813287E+04  0.00000000000E+00 0.  1.
<mgrwt>
<rscale>  0 0.49506757E+04</rscale>
<asrwt>0</asrwt>
<pdfrwt beam="1">  1        2 0.19768655E+00 0.49506757E+04</pdfrwt>
<pdfrwt beam="2">  1       -2 0.73360981E+00 0.49506757E+04</pdfrwt>
<totfact> 0.20962846E-03</totfact>
</mgrwt>
</event>
<event>
 6    1  0.3017327E-006  0.2639979E+04  0.7818608E-02  0.8354747E-01
          1   -1    0    0  501    0  0.00000000000E+00  0.00000000000E+00  0.18114538005E+04  0.18114538005E+04  0.00000000000E+00 0.  1.
         -1   -1    0    0    0  501 -0.00000000000E+00 -0.00000000000E+00 -0.96186429915E+03  0.96186429915E+03  0.00000000000E+00 0. -1.
         23    2    1    2    0    0 -0.69503420158E+03 -0.16304198078E+03 -0.73925159762E+03  0.10314595329E+04  0.88094349976E+02 0.  0.
         13    1    3    3    0    0 -0.64399534701E+03 -0.15250681878E+03 -0.71402392813E+03  0.97355970884E+03  0.00000000000E+00 0.  1.
        -13    1    3    3    0    0 -0.51038854567E+02 -0.10535162001E+02 -0.25227669495E+02  0.57899824024E+02  0.00000000000E+00 0. -1.
         22    1    1    2    0    0  0.69503420158E+03  0.16304198078E+03  0.15888410990E+04  0.17418585668E+04  0.00000000000E+00 0.  1.
<mgrwt>
<rscale>  0 0.26399793E+04</rscale>
<asrwt>0</asrwt>
<pdfrwt beam="1">  1        1 0.27868520E+00 0.26399793E+04</pdfrwt>
<pdfrwt beam="2">  1       -1 0.14797912E+00 0.26399793E+04</pdfrwt>
<totfact> 0.12709186E+00</totfact>
</mgrwt>
</event>
<event>
 6    1  0.3017327E-006  0.1497023E+04  0.7818608E-02  0.8886435E-01
         -2   -1    0    0    0  501 -0.00000000000E+00  0.00000000000E+00  0.28289944653E+03  0.28289944653E+03  0.00000000000E+00 0.  1.
          2   -1    0    0  501    0  0.00000000000E+00 -0.00000000000E+00 -0.19804536995E+04  0.19804536995E+04  0.00000000000E+00 0. -1.
         23    2    1    2    0    0  0.11030363648E+02 -0.47505834706E+03 -0.17208746147E+04  0.17875948657E+04  0.91015725724E+02 0.  0.
         11    1    3    3    0    0 -0.18959921125E+02 -0.20295822604E+03 -0.59619465345E+03  0.63007903070E+03  0.00000000000E+00 0. -1.
        -11    1    3    3    0    0  0.29990284773E+02 -0.27210012102E+03 -0.11246799612E+04  0.11575158350E+04  0.00000000000E+00 0.  1.
         22    1    1    2    0    0 -0.11030363648E+02  0.47505834706E+03  0.23320361729E+02  0.47575828033E+03  0.00000000000E+00 0.  1.
<mgrwt>
<rscale>  0 0.14970227E+04</rscale>
<asrwt>0</asrwt>
<pdfrwt beam="1">  1        2 0.30468519E+00 0.14970227E+04</pdfrwt>
<pdfrwt beam="2">  1       -2 0.43522992E-01 0.14970227E+04</pdfrwt>
<totfact> 0.33152627E+01</totfact>
</mgrwt>
</event>
<event>
 6    1  0.3017327E-006  0.2459463E+04  0.7818608E-02  0.8417571E-01
          2   -1    0    0  501    0  0.00000000000E+00  0.00000000000E+00  0.15735186019E+04  0.15735186019E+04  0.00000000000E+00 0. -1.
         -2   -1    0    0    0  501 -0.00000000000E+00 -0.00000000000E+00 -0.96105630186E+03  0.96105630186E+03  0.00000000000E+00 0.  1.
         23    2    1    2    0    0  0.49642087015E+03  0.87941525328E+03  0.10266997878E+04  0.14430633076E+04  0.92273438685E+02 0.  0.
         13    1    3    3    0    0  0.45976978705E+03  0.79764389194E+03  0.89678980468E+03  0.12852454976E+04  0.00000000000E+00 0. -1.
        -13    1    3    3    0    0  0.36651083099E+02  0.81771361340E+02  0.12990998316E+03  0.15781781000E+03  0.00000000000E+00 0.  1.
         22    1    1    2    0    0 -0.49642087015E+03 -0.87941525328E+03 -0.41423748784E+03  0.10915115961E+04  0.00000000000E+00 0.  1.
<mgrwt>
<rscale>  0 0.24594633E+04</rscale>
<asrwt>0</asrwt>
<pdfrwt beam="1">  1        2 0.24207978E+00 0.24594633E+04</pdfrwt>
<pdfrwt beam="2">  1       -2 0.14785482E+00 0.24594633E+04</pdfrwt>
<totfact> 0.32148035E+00</totfact>
</mgrwt>
</event>
<event>
 6    1  0.3017327E-006  0.1969338E+04  0.7818608E-02  0.8621092E-01
          2   -1    0    0  501    0  0.00000000000E+00  0.00000000000E+00  0.10789057089E+04  0.10789057089E+04  0.00000000000E+00 0.  1.
         -2   -1    0    0    0  501 -0.00000000000E+00 -0.00000000000E+00 -0.89866362251E+03  0.89866362251E+03  0.00000000000E+00 0. -1.
         23    2    1    2    0    0 -0.31303847377E+02 -0.32253238654E+03  0.10223635740E+04  0.10752524961E+04  0.77029746563E+02 0.  0.
         13    1    3    3    0    0  0.24533237237E+02 -0.13648759039E+03  0.44233488194E+03  0.46356325333E+03  0.00000000000E+00 0. -1.
        -13    1    3    3    0    0 -0.55837084614E+02 -0.18604479615E+03  0.58002869202E+03  0.61168924281E+03  0.00000000000E+00 0.  1.
         22    1    1    2    0    0  0.31303847377E+02  0.32253238654E+03 -0.84212148762E+03  0.90231683523E+03  0.00000000000E+00 0. -1.
<mgrwt>
<rscale>  0 0.19693383E+04</rscale>
<asrwt>0</asrwt>
<pdfrwt beam="1">  1        2 0.16598549E+00 0.19693383E+04</pdfrwt>
<pdfrwt beam="2">  1       -2 0.13825594E+00 0.19693383E+04</pdfrwt>
<totfact> 0.77593007E+00</totfact>
</mgrwt>
</event>
<event>
 6    1  0.3017327E-006  0.1010176E+04  0.7818608E-02  0.9297454E-01
         -1   -1    0    0    0  501 -0.00000000000E+00  0.00000000000E+00  0.15565561907E+03  0.15565561907E+03  0.00000000000E+00 0.  1.
          1   -1    0    0  501    0  0.00000000000E+00 -0.00000000000E+00 -0.16389631191E+04  0.16389631191E+04  0.00000000000E+00 0. -1.
         23    2    1    2    0    0 -0.22337882430E+03 -0.21250548276E+03 -0.14492104249E+04  0.14844263948E+04  0.90852554205E+02 0.  0.
         13    1    3    3    0    0 -0.18657962823E+03 -0.21336396140E+03 -0.12379127957E+04  0.12699465451E+04  0.00000000000E+00 0.  1.
        -13    1    3    3    0    0 -0.36799196065E+02  0.85847863755E+00 -0.21129762923E+03  0.21447984972E+03  0.00000000000E+00 0. -1.
         22    1    1    2    0    0  0.22337882430E+03  0.21250548276E+03 -0.34097075128E+02  0.31019234336E+03  0.00000000000E+00 0.  1.
<mgrwt>
<rscale>  0 0.10101759E+04</rscale>
<asrwt>0</asrwt>
<pdfrwt beam="1">  1        1 0.25214817E+00 0.10101759E+04</pdfrwt>
<pdfrwt beam="2">  1       -1 0.23947019E-01 0.10101759E+04</pdfrwt>
<totfact> 0.79348714E+01</totfact>
</mgrwt>
</event>
<event>
 6    1  0.3017327E-006  0.2334863E+04  0.7818608E-02  0.8464301E-01
          1   -1    0    0  501    0  0.00000000000E+00  0.00000000000E+00  0.98089985181E+03  0.98089985181E+03  0.00000000000E+00 0. -1.
         -1   -1    0    0    0  501 -0.00000000000E+00 -0.00000000000E+00 -0.13894343229E+04  0.13894343229E+04  0.00000000000E+00 0.  1.
         23    2    1    2    0    0  0.22569549787E+03  0.79020705589E+03  0.63486991634E+03  0.10421555856E+04  0.87537448549E+02 0.  0.
         11    1    3    3    0    0  0.11158058722E+03  0.24186126887E+03  0.20344955802E+03  0.33516984273E+03  0.00000000000E+00 0. -1.
        -11    1    3    3    0    0  0.11411491065E+03  0.54834578703E+03  0.43142035832E+03  0.70698574282E+03  0.00000000000E+00 0.  1.
         22    1    1    2    0    0 -0.22569549787E+03 -0.79020705589E+03 -0.10434043874E+04  0.13281785891E+04  0.00000000000E+00 0.  1.
<mgrwt>
<rscale>  0 0.23348627E+04</rscale>
<asrwt>0</asrwt>
<pdfrwt beam="1">  1        1 0.15090767E+00 0.23348627E+04</pdfrwt>
<pdfrwt beam="2">  1       -1 0.21375913E+00 0.23348627E+04</pdfrwt>
<totfact> 0.17111438E+00</totfact>
</mgrwt>
</event>
<event>
 6    1  0.3017327E-006  0.6320444E+03  0.7818608E-02  0.9841067E-01
          1   -1    0    0  501    0  0.00000000000E+00  0.00000000000E+00  0.69814926989E+03  0.69814926989E+03  0.00000000000E+00 0. -1.
         -1   -1    0    0    0  501 -0.00000000000E+00 -0.00000000000E+00 -0.14304968475E+03  0.14304968475E+03  0.00000000000E+00 0.  1.
         23    2    1    2    0    0 -0.21097788282E+03  0.16873704949E+03  0.48394630070E+03  0.56183065151E+03  0.92009782652E+02 0.  0.
         11    1    3    3    0    0 -0.15503756756E+03  0.70887502907E+02  0.25641834055E+03  0.30791565532E+03  0.00000000000E+00 0.  1.
        -11    1    3    3    0    0 -0.55940315263E+02  0.97849546580E+02  0.22752796015E+03  0.25391499619E+03  0.00000000000E+00 0. -1.
         22    1    1    2    0    0  0.21097788282E+03 -0.16873704949E+03  0.71153284441E+02  0.27936830313E+03  0.00000000000E+00 0.  1.
<mgrwt>
<rscale>  0 0.63204441E+03</rscale>
<asrwt>0</asrwt>
<pdfrwt beam="1">  1        1 0.10740758E+00 0.63204441E+03</pdfrwt>
<pdfrwt beam="2">  1       -1 0.22007644E-01 0.63204441E+03</pdfrwt>
<totfact> 0.48125440E+02</totfact>
</mgrwt>
</event>
<event>
 6    1  0.3017327E-006  0.1874005E+04  0.7818608E-02  0.8667905E-01
         -2   -1    0    0    0  501 -0.00000000000E+00  0.00000000000E+00  0.51472473396E+03  0.51472473396E+03  0.00000000000E+00 0.  1.
          2   -1    0    0  501    0  0.00000000000E+00 -0.00000000000E+00 -0.17057157687E+04  0.17057157687E+04  0.00000000000E+00 0. -1.
         23    2    1    2    0    0 -0.64113115409E+03 -0.61639300031E+03 -0.93745370695E+03  0.12956320554E+04  0.94092946876E+02 0.  0.
         11    1    3    3    0    0 -0.31287736191E+03 -0.34541201726E+03 -0.53949065471E+03  0.71291785766E+03  0.00000000000E+00 0. -1.
        -11    1    3    3    0    0 -0.32825379218E+03 -0.27098098305E+03 -0.39796305225E+03  0.58271419771E+03  0.00000000000E+00 0.  1.
         22    1    1    2    0    0  0.64113115409E+03  0.61639300031E+03 -0.25353732777E+03  0.92480844727E+03  0.00000000000E+00 0. -1.
<mgrwt>
<rscale>  0 0.18740054E+04</rscale>
<asrwt>0</asrwt>
<pdfrwt beam="1">  1        2 0.26241781E+00 0.18740054E+04</pdfrwt>
<pdfrwt beam="2">  1       -2 0.79188421E-01 0.18740054E+04</pdfrwt>
<totfact> 0.12921629E+01</totfact>
</mgrwt>
</event>
<event>
 6    1  0.3017327E-006  0.1404905E+04  0.7818608E-02  0.8950275E-01
         -3   -1    0    0    0  501 -0.00000000000E+00  0.00000000000E+00  0.82049871611E+03  0.82049871611E+03  0.00000000000E+00 0.  1.
          3   -1    0    0  501    0  0.00000000000E+00 -0.00000000000E+00 -0.60139010475E+03  0.60139010475E+03  0.00000000000E+00 0. -1.
         23    2    1    2    0    0  0.41753809858E+03 -0.39772853931E+03  0.51072125137E+03  0.77569690930E+03  0.91342453209E+02 0.  0.
         13    1    3    3    0    0  0.24860859444E+03 -0.18768763485E+03  0.31142807334E+03  0.44047738463E+03  0.00000000000E+00 0. -1.
        -13    1    3    3    0    0  0.16892950413E+03 -0.21004090446E+03  0.19929317803E+03  0.33521952467E+03  0.00000000000E+00 0.  1.
         22    1    1    2    0    0 -0.41753809858E+03  0.39772853931E+03 -0.29161264001E+03  0.64619191156E+03  0.00000000000E+00 0. -1.
<mgrwt>
<rscale>  0 0.14049054E+04</rscale>
<asrwt>0</asrwt>
<pdfrwt beam="1">  1        3 0.92521555E-01 0.14049054E+04</pdfrwt>
<pdfrwt beam="2">  1       -3 0.12623057E+00 0.14049054E+04</pdfrwt>
<totfact> 0.13328083E+00</totfact>
</mgrwt>
</event>
<event>
 6    1  0.3017327E-006  0.4958991E+04  0.7818608E-02  0.7834865E-01
          2   -1    0    0  501    0  0.00000000000E+00  0.00000000000E+00  0.25008544434E+04  0.25008544434E+04  0.00000000000E+00 0. -1.
         -2   -1    0    0    0  501 -0.00000000000E+00 -0.00000000000E+00 -0.24583186447E+04  0.24583186447E+04  0.00000000000E+00 0.  1.
         23    2    1    2    0    0 -0.96447541080E+03  0.17474144116E+04 -0.14484999592E+04  0.24678165149E+04  0.91083893135E+02 0.  0.
         11    1    3    3    0    0 -0.48122584363E+03  0.95846927751E+03 -0.79944869028E+03  0.13376695694E+04  0.00000000000E+00 0.  1.
        -11    1    3    3    0    0 -0.48324956717E+03  0.78894513406E+03 -0.64905126893E+03  0.11301469455E+04  0.00000000000E+00 0. -1.
         22    1    1    2    0    0  0.96447541080E+03 -0.17474144116E+04  0.14910357579E+04  0.24913565733E+04  0.00000000000E+00 0. -1.
<mgrwt>
<rscale>  0 0.49589907E+04</rscale>
<asrwt>0</asrwt>
<pdfrwt beam="1">  1        2 0.38474684E+00 0.49589907E+04</pdfrwt>
<pdfrwt beam="2">  1       -2 0.37820287E+00 0.49589907E+04</pdfrwt>
<totfact> 0.26123931E-02</totfact>
</mgrwt>
</event>
<event>
 6    1  0.3017327E-006  0.1738859E+04  0.7818608E-02  0.8739507E-01
          2   -1    0    0  501    0  0.00000000000E+00  0.00000000000E+00  0.15077116313E+04  0.15077116313E+04  0.00000000000E+00 0. -1.
         -2   -1    0    0    0  501 -0.00000000000E+00 -0.00000000000E+00 -0.50136073152E+03  0.50136073152E+03  0.00000000000E+00 0.  1.
         23    2    1    2    0    0  0.68120446089E+03  0.50776303613E+03  0.70737459382E+03  0.11083783804E+04  0.79126479643E+02 0.  0.
         11    1    3    3    0    0  0.34447386328E+02  0.32527313648E+02  0.64681611284E+02  0.80177050309E+02  0.00000000000E+00 0. -1.
        -11    1    3    3    0    0  0.64675707456E+03  0.47523572249E+03  0.64269298253E+03  0.10282013301E+04  0.00000000000E+00 0.  1.
         22    1    1    2    0    0 -0.68120446089E+03 -0.50776303613E+03  0.29897630595E+03  0.90069398239E+03  0.00000000000E+00 0. -1.
<mgrwt>
<rscale>  0 0.17388587E+04</rscale>
<asrwt>0</asrwt>
<pdfrwt beam="1">  1        2 0.23195563E+00 0.17388587E+04</pdfrwt>
<pdfrwt beam="2">  1       -2 0.77132421E-01 0.17388587E+04</pdfrwt>
<totfact> 0.17884448E+01</totfact>
</mgrwt>
</event>
<event>
 6    1  0.3017327E-006  0.8884056E+03  0.7818608E-02  0.9440192E-01
         -2   -1    0    0    0  501 -0.00000000000E+00  0.00000000000E+00  0.28684288514E+03  0.28684288514E+03  0.00000000000E+00 0.  1.
          2   -1    0    0  501    0  0.00000000000E+00 -0.00000000000E+00 -0.68788918132E+03  0.68788918132E+03  0.00000000000E+00 0. -1.
         23    2    1    2    0    0  0.26902839400E+03  0.19221661895E+03  0.11465577304E+03  0.36213747819E+03  0.93134856189E+02 0.  0.
         11    1    3    3    0    0  0.20833829618E+03  0.15804798645E+03  0.48272587306E+02  0.26592151918E+03  0.00000000000E+00 0. -1.
        -11    1    3    3    0    0  0.60690097822E+02  0.34168632500E+02  0.66383185730E+02  0.96215959010E+02  0.00000000000E+00 0.  1.
         22    1    1    2    0    0 -0.26902839400E+03 -0.19221661895E+03 -0.51570206922E+03  0.61259458827E+03  0.00000000000E+00 0. -1.
<mgrwt>
<rscale>  0 0.88840558E+03</rscale>
<asrwt>0</asrwt>
<pdfrwt beam="1">  1        2 0.10582910E+00 0.88840558E+03</pdfrwt>
<pdfrwt beam="2">  1       -2 0.44129675E-01 0.88840558E+03</pdfrwt>
<totfact> 0.20464381E+02</totfact>
</mgrwt>
</event>
<event>
 6    1  0.3017327E-006  0.4214901E+04  0.7818608E-02  0.7962544E-01
          2   -1    0    0  501    0  0.00000000000E+00  0.00000000000E+00  0.35194273349E+04  0.35194273349E+04  0.00000000000E+00 0. -1.
         -2   -1    0    0    0  501 -0.00000000000E+00 -0.00000000000E+00 -0.12619519518E+04  0.12619519518E+04  0.00000000000E+00 0.  1.
         23    2    1    2    0    0  0.17429371321E+04  0.93496423874E+03  0.30710388258E+03  0.20036217443E+04  0.90550125097E+02 0.  0.
         11    1    3    3    0    0  0.66767620704E+03  0.36959744906E+03  0.16198346300E+03  0.78014898198E+03  0.00000000000E+00 0. -1.
        -11    1    3    3    0    0  0.10752609251E+04  0.56536678969E+03  0.14512041958E+03  0.12234727623E+04  0.00000000000E+00 0.  1.
         22    1    1    2    0    0 -0.17429371321E+04 -0.93496423874E+03  0.19503715005E+04  0.27777575424E+04  0.00000000000E+00 0. -1.
<mgrwt>
<rscale>  0 0.42149013E+04</rscale>
<asrwt>0</asrwt>
<pdfrwt beam="1">  1        2 0.54145036E+00 0.42149013E+04</pdfrwt>
<pdfrwt beam="2">  1       -2 0.19414646E+00 0.42149013E+04</pdfrwt>
<totfact> 0.88649763E-02</totfact>
</mgrwt>
</event>
<event>
 6    1  0.3017327E-006  0.1160289E+04  0.7818608E-02  0.9148344E-01
         -1   -1    0    0    0  501 -0.00000000000E+00  0.00000000000E+00  0.33215501807E+03  0.33215501807E+03  0.00000000000E+00 0.  1.
          1   -1    0    0  501    0  0.00000000000E+00 -0.00000000000E+00 -0.10132842621E+04  0.10132842621E+04  0.00000000000E+00 0. -1.
         23    2    1    2    0    0 -0.36204173956E+03 -0.29965375278E+03 -0.73014483464E+03  0.87292566038E+03  0.89560796391E+02 0.  0.
         11    1    3    3    0    0 -0.10803752428E+03 -0.12343312287E+03 -0.19417335796E+03  0.25418720545E+03  0.00000000000E+00 0. -1.
        -11    1    3    3    0    0 -0.25400421528E+03 -0.17622062991E+03 -0.53597147668E+03  0.61873845493E+03  0.00000000000E+00 0.  1.
         22    1    1    2    0    0  0.36204173956E+03  0.29965375278E+03  0.49015590634E+02  0.47251361976E+03  0.00000000000E+00 0. -1.
<mgrwt>
<rscale>  0 0.11602887E+04</rscale>
<asrwt>0</asrwt>
<pdfrwt beam="1">  1        1 0.15588989E+00 0.11602887E+04</pdfrwt>
<pdfrwt beam="2">  1       -1 0.51100771E-01 0.11602887E+04</pdfrwt>
<totfact> 0.56439766E+01</totfact>
</mgrwt>
</event>
<event>
 6    1  0.3017327E-006  0.3460776E+04  0.7818608E-02  0.8123149E-01
         -2   -1    0    0    0  501 -0.00000000000E+00  0.00000000000E+00  0.12551399859E+04  0.12551399859E+04  0.00000000000E+00 0. -1.
          2   -1    0    0  501    0  0.00000000000E+00 -0.00000000000E+00 -0.23855841245E+04  0.23855841245E+04  0.00000000000E+00 0.  1.
         23    2    1    2    0    0 -0.22415520557E+03  0.58301534181E+03  0.11304670877E+04  0.12951171488E+04  0.96021601691E+02 0.  0.
         13    1    3    3    0    0 -0.16717481741E+03  0.40218192331E+03  0.69545075323E+03  0.82057874039E+03  0.00000000000E+00 0.  1.
        -13    1    3    3    0    0 -0.56980388157E+02  0.18083341850E+03  0.43501633443E+03  0.47453840846E+03  0.00000000000E+00 0. -1.
         22    1    1    2    0    0  0.22415520557E+03 -0.58301534181E+03 -0.22609112263E+04  0.23456069615E+04  0.00000000000E+00 0.  1.
<mgrwt>
<rscale>  0 0.34607756E+04</rscale>
<asrwt>0</asrwt>
<pdfrwt beam="1">  1        2 0.36701294E+00 0.34607756E+04</pdfrwt>
<pdfrwt beam="2">  1       -2 0.19309846E+00 0.34607756E+04</pdfrwt>
<totfact> 0.49353965E-01</totfact>
</mgrwt>
</event>
<event>
 6    1  0.3017327E-006  0.3481505E+04  0.7818608E-02  0.8118187E-01
          2   -1    0    0  501    0  0.00000000000E+00  0.00000000000E+00  0.35956588196E+04  0.35956588196E+04  0.00000000000E+00 0. -1.
         -2   -1    0    0    0  501 -0.00000000000E+00 -0.00000000000E+00 -0.84274382534E+03  0.84274382534E+03  0.00000000000E+00 0.  1.
         23    2    1    2    0    0 -0.37442199132E+03  0.17810883884E+02  0.35428837514E+04  0.35640116040E+04  0.98205816145E+02 0.  0.
         13    1    3    3    0    0 -0.35755020580E+03 -0.53136997753E+01  0.31938056772E+04  0.32137618283E+04  0.00000000000E+00 0.  1.
        -13    1    3    3    0    0 -0.16871785518E+02  0.23124583659E+02  0.34907807419E+03  0.35024977573E+03  0.00000000000E+00 0. -1.
         22    1    1    2    0    0  0.37442199132E+03 -0.17810883884E+02 -0.78996875716E+03  0.87439104093E+03  0.00000000000E+00 0.  1.
<mgrwt>
<rscale>  0 0.34815050E+04</rscale>
<asrwt>0</asrwt>
<pdfrwt beam="1">  1        2 0.55317827E+00 0.34815050E+04</pdfrwt>
<pdfrwt beam="2">  1       -2 0.12965290E+00 0.34815050E+04</pdfrwt>
<totfact> 0.24977694E-01</totfact>
</mgrwt>
</event>
<event>
 6    1  0.3017327E-006  0.3090634E+04  0.7818608E-02  0.8218313E-01
         -4   -1    0    0    0  501 -0.00000000000E+00  0.00000000000E+00  0.11912595615E+04  0.11912595615E+04  0.00000000000E+00 0.  1.
          4   -1    0    0  501    0  0.00000000000E+00 -0.00000000000E+00 -0.20046046143E+04  0.20046046143E+04  0.00000000000E+00 0. -1.
         23    2    1    2    0    0 -0.95470744002E+03 -0.10758999068E+04 -0.98740041253E+03  0.17469603923E+04  0.88792634590E+02 0.  0.
         13    1    3    3    0    0 -0.86849363571E+03 -0.94915652181E+03 -0.90470103918E+03  0.15727883737E+04  0.00000000000E+00 0.  1.
        -13    1    3    3    0    0 -0.86213804310E+02 -0.12674338502E+03 -0.82699373349E+02  0.17417201857E+03  0.00000000000E+00 0. -1.
         22    1    1    2    0    0  0.95470744002E+03  0.10758999068E+04  0.17405535972E+03  0.14489037835E+04  0.00000000000E+00 0.  1.
<mgrwt>
<rscale>  0 0.30906339E+04</rscale>
<asrwt>0</asrwt>
<pdfrwt beam="1">  1        4 0.30840071E+00 0.30906339E+04</pdfrwt>
<pdfrwt beam="2">  1       -4 0.18327070E+00 0.30906339E+04</pdfrwt>
<totfact> 0.78640244E-03</totfact>
</mgrwt>
</event>
<event>
 6    1  0.3017327E-006  0.2971375E+04  0.7818608E-02  0.8251953E-01
          2   -1    0    0  501    0  0.00000000000E+00  0.00000000000E+00  0.13126211185E+04  0.13126211185E+04  0.00000000000E+00 0. -1.
         -2   -1    0    0    0  501 -0.00000000000E+00 -0.00000000000E+00 -0.16815718251E+04  0.16815718251E+04  0.00000000000E+00 0.  1.
         23    2    1    2    0    0  0.14494200948E+04  0.67037187693E+02  0.13152800003E+03  0.14593341450E+04  0.83928161727E+02 0.  0.
         11    1    3    3    0    0  0.11369826644E+04  0.21650304104E+02  0.11853865842E+03  0.11433502213E+04  0.00000000000E+00 0. -1.
        -11    1    3    3    0    0  0.31243743031E+03  0.45386883588E+02  0.12989341610E+02  0.31598392373E+03  0.00000000000E+00 0.  1.
         22    1    1    2    0    0 -0.14494200948E+04 -0.67037187693E+02 -0.50047870665E+03  0.15348587985E+04  0.00000000000E+00 0.  1.
<mgrwt>
<rscale>  0 0.29713746E+04</rscale>
<asrwt>0</asrwt>
<pdfrwt beam="1">  1        2 0.20194171E+00 0.29713746E+04</pdfrwt>
<pdfrwt beam="2">  1       -2 0.25870336E+00 0.29713746E+04</pdfrwt>
<totfact> 0.79244386E-01</totfact>
</mgrwt>
</event>
<event>
 6    1  0.3017327E-006  0.2291075E+04  0.7818608E-02  0.8481449E-01
         -2   -1    0    0    0  501 -0.00000000000E+00  0.00000000000E+00  0.15672329413E+04  0.15672329413E+04  0.00000000000E+00 0.  1.
          2   -1    0    0  501    0  0.00000000000E+00 -0.00000000000E+00 -0.83730751851E+03  0.83730751851E+03  0.00000000000E+00 0. -1.
         23    2    1    2    0    0  0.20562885218E+03  0.11144989658E+04  0.52580621956E+03  0.12529954894E+04  0.95573773822E+02 0.  0.
         13    1    3    3    0    0  0.52359244214E+02  0.24660220604E+03  0.16117121681E+03  0.29921614196E+03  0.00000000000E+00 0. -1.
        -13    1    3    3    0    0  0.15326960797E+03  0.86789675980E+03  0.36463500275E+03  0.95377934745E+03  0.00000000000E+00 0.  1.
         22    1    1    2    0    0 -0.20562885218E+03 -0.11144989658E+04  0.20411920321E+03  0.11515449704E+04  0.00000000000E+00 0. -1.
<mgrwt>
<rscale>  0 0.22910748E+04</rscale>
<asrwt>0</asrwt>
<pdfrwt beam="1">  1        2 0.12881654E+00 0.22910748E+04</pdfrwt>
<pdfrwt beam="2">  1       -2 0.24111276E+00 0.22910748E+04</pdfrwt>
<totfact> 0.21424821E+00</totfact>
</mgrwt>
</event>
<event>
 6    1  0.3017327E-006  0.8736203E+03  0.7818608E-02  0.9459172E-01
         -2   -1    0    0    0  501 -0.00000000000E+00  0.00000000000E+00  0.20951292869E+03  0.20951292869E+03  0.00000000000E+00 0.  1.
          2   -1    0    0  501    0  0.00000000000E+00 -0.00000000000E+00 -0.91069845012E+03  0.91069845012E+03  0.00000000000E+00 0. -1.
         23    2    1    2    0    0  0.27734055050E+03 -0.11533820901E+03  0.43495775126E+02  0.31723509221E+03  0.92333839228E+02 0.  0.
         13    1    3    3    0    0  0.36514818091E+02 -0.58796475394E+01  0.37446270936E+02  0.52631980795E+02  0.00000000000E+00 0.  1.
        -13    1    3    3    0    0  0.24082573241E+03 -0.10945856147E+03  0.60495041903E+01  0.26460311141E+03  0.00000000000E+00 0. -1.
         22    1    1    2    0    0 -0.27734055050E+03  0.11533820901E+03 -0.74468129655E+03  0.80297628660E+03  0.00000000000E+00 0. -1.
<mgrwt>
<rscale>  0 0.87362028E+03</rscale>
<asrwt>0</asrwt>
<pdfrwt beam="1">  1        2 0.14010746E+00 0.87362028E+03</pdfrwt>
<pdfrwt beam="2">  1       -2 0.32232758E-01 0.87362028E+03</pdfrwt>
<totfact> 0.25899705E+02</totfact>
</mgrwt>
</event>
<event>
 6    1  0.3017327E-006  0.3598028E+04  0.7818608E-02  0.8090943E-01
          2   -1    0    0  501    0  0.00000000000E+00  0.00000000000E+00  0.21464272188E+04  0.21464272188E+04  0.00000000000E+00 0. -1.
         -2   -1    0    0    0  501 -0.00000000000E+00 -0.00000000000E+00 -0.15078321229E+04  0.15078321229E+04  0.00000000000E+00 0.  1.
         23    2    1    2    0    0 -0.59162706901E+03 -0.26220407438E+02 -0.14045069320E+04  0.15270602454E+04  0.92537411966E+02 0.  0.
         13    1    3    3    0    0 -0.21994355755E+03  0.28609624790E+02 -0.46392108766E+03  0.51421440539E+03  0.00000000000E+00 0. -1.
        -13    1    3    3    0    0 -0.37168351146E+03 -0.54830032228E+02 -0.94058584435E+03  0.10128458401E+04  0.00000000000E+00 0.  1.
         22    1    1    2    0    0  0.59162706901E+03  0.26220407438E+02  0.20431020279E+04  0.21271990963E+04  0.00000000000E+00 0. -1.
<mgrwt>
<rscale>  0 0.35980283E+04</rscale>
<asrwt>0</asrwt>
<pdfrwt beam="1">  1        2 0.33021957E+00 0.35980283E+04</pdfrwt>
<pdfrwt beam="2">  1       -2 0.23197417E+00 0.35980283E+04</pdfrwt>
<totfact> 0.37493035E-01</totfact>
</mgrwt>
</event>
<event>
 6    1  0.3017327E-006  0.1632932E+04  0.7818608E-02  0.8800568E-01
         -2   -1    0    0    0  501 -0.00000000000E+00  0.00000000000E+00  0.31801724157E+03  0.31801724157E+03  0.00000000000E+00 0.  1.
          2   -1    0    0  501    0  0.00000000000E+00 -0.00000000000E+00 -0.20961661138E+04  0.20961661138E+04  0.00000000000E+00 0. -1.
         23    2    1    2    0    0 -0.72715858052E+03  0.24271429503E+03 -0.12967218591E+04  0.15089531089E+04  0.88216067926E+02 0.  0.
         11    1    3    3    0    0 -0.13406661505E+03  0.70621895501E+02 -0.30714576036E+03  0.34249062396E+03  0.00000000000E+00 0.  1.
        -11    1    3    3    0    0 -0.59309196547E+03  0.17209239953E+03 -0.98957609872E+03  0.11664624849E+04  0.00000000000E+00 0. -1.
         22    1    1    2    0    0  0.72715858052E+03 -0.24271429503E+03 -0.48142701318E+03  0.90523024655E+03  0.00000000000E+00 0.  1.
<mgrwt>
<rscale>  0 0.16329323E+04</rscale>
<asrwt>0</asrwt>
<pdfrwt beam="1">  1        2 0.32248708E+00 0.16329323E+04</pdfrwt>
<pdfrwt beam="2">  1       -2 0.48925731E-01 0.16329323E+04</pdfrwt>
<totfact> 0.22350608E+01</totfact>
</mgrwt>
</event>
<event>
 6    1  0.3017327E-006  0.3063533E+04  0.7818608E-02  0.8225818E-01
          2   -1    0    0  501    0  0.00000000000E+00  0.00000000000E+00  0.27264663471E+04  0.27264663471E+04  0.00000000000E+00 0. -1.
         -2   -1    0    0    0  501 -0.00000000000E+00 -0.00000000000E+00 -0.86056762067E+03  0.86056762067E+03  0.00000000000E+00 0.  1.
         23    2    1    2    0    0  0.29435532568E+03  0.68541298895E+03  0.24984896313E+04  0.26089709452E+04  0.88560329135E+02 0.  0.
         11    1    3    3    0    0  0.10148167959E+03  0.34822629075E+03  0.11967576505E+04  0.12505154757E+04  0.00000000000E+00 0.  1.
        -11    1    3    3    0    0  0.19287364609E+03  0.33718669820E+03  0.13017319808E+04  0.13584554695E+04  0.00000000000E+00 0. -1.
         22    1    1    2    0    0 -0.29435532568E+03 -0.68541298895E+03 -0.63259090488E+03  0.97806302257E+03  0.00000000000E+00 0.  1.
<mgrwt>
<rscale>  0 0.30635330E+04</rscale>
<asrwt>0</asrwt>
<pdfrwt beam="1">  1        2 0.41945635E+00 0.30635330E+04</pdfrwt>
<pdfrwt beam="2">  1       -2 0.13239502E+00 0.30635330E+04</pdfrwt>
<totfact> 0.90372330E-01</totfact>
</mgrwt>
</event>
<event>
 6    1  0.3017327E-006  0.3699530E+04  0.7818608E-02  0.8068066E-01
         -2   -1    0    0    0  501 -0.00000000000E+00  0.00000000000E+00  0.10713017051E+04  0.10713017051E+04  0.00000000000E+00 0.  1.
          2   -1    0    0  501    0  0.00000000000E+00 -0.00000000000E+00 -0.31939005712E+04  0.31939005712E+04  0.00000000000E+00 0. -1.
         23    2    1    2    0    0  0.72332680959E+03 -0.16394561556E+04 -0.15856707753E+04  0.23945580198E+04  0.92402073497E+02 0.  0.
         13    1    3    3    0    0  0.42427752558E+03 -0.87829143595E+03 -0.82052483987E+03  0.12746247597E+04  0.00000000000E+00 0. -1.
        -13    1    3    3    0    0  0.29904928401E+03 -0.76116471964E+03 -0.76514593540E+03  0.11199332601E+04  0.00000000000E+00 0.  1.
         22    1    1    2    0    0 -0.72332680959E+03  0.16394561556E+04 -0.53692809088E+03  0.18706442565E+04  0.00000000000E+00 0. -1.
<mgrwt>
<rscale>  0 0.36995303E+04</rscale>
<asrwt>0</asrwt>
<pdfrwt beam="1">  1        2 0.49136932E+00 0.36995303E+04</pdfrwt>
<pdfrwt beam="2">  1       -2 0.16481565E+00 0.36995303E+04</pdfrwt>
<totfact> 0.24544698E-01</totfact>
</mgrwt>
</event>
<event>
 6    1  0.3017327E-006  0.1859301E+04  0.7818608E-02  0.8675384E-01
          2   -1    0    0  501    0  0.00000000000E+00  0.00000000000E+00  0.36087047921E+03  0.36087047921E+03  0.00000000000E+00 0. -1.
         -2   -1    0    0    0  501 -0.00000000000E+00 -0.00000000000E+00 -0.23949045711E+04  0.23949045711E+04  0.00000000000E+00 0.  1.
         23    2    1    2    0    0 -0.56007345132E+03 -0.30037833340E+03 -0.20210919172E+04  0.21201046059E+04  0.78240577617E+02 0.  0.
         13    1    3    3    0    0 -0.43263395932E+03 -0.22602341920E+03 -0.14358295805E+04  0.15165306832E+04  0.00000000000E+00 0. -1.
        -13    1    3    3    0    0 -0.12743949200E+03 -0.74354914191E+02 -0.58526233668E+03  0.60357392267E+03  0.00000000000E+00 0.  1.
         22    1    1    2    0    0  0.56007345132E+03  0.30037833340E+03 -0.12942174687E+02  0.63567044444E+03  0.00000000000E+00 0. -1.
<mgrwt>
<rscale>  0 0.18593013E+04</rscale>
<asrwt>0</asrwt>
<pdfrwt beam="1">  1        2 0.55518534E-01 0.18593013E+04</pdfrwt>
<pdfrwt beam="2">  1       -2 0.36844687E+00 0.18593013E+04</pdfrwt>
<totfact> 0.10003565E+00</totfact>
</mgrwt>
</event>
<event>
 6    1  0.3017327E-006  0.7879850E+03  0.7818608E-02  0.9577573E-01
          2   -1    0    0  501    0  0.00000000000E+00  0.00000000000E+00  0.92774814103E+03  0.92774814103E+03  0.00000000000E+00 0. -1.
         -2   -1    0    0    0  501 -0.00000000000E+00 -0.00000000000E+00 -0.16731923062E+03  0.16731923062E+03  0.00000000000E+00 0.  1.
         23    2    1    2    0    0 -0.23059666090E+03 -0.10545205254E+02  0.82125886940E+03  0.85634932608E+03  0.74712892645E+02 0.  0.
         13    1    3    3    0    0 -0.21790089902E+03 -0.14491279055E+02  0.67410363755E+03  0.70859474534E+03  0.00000000000E+00 0. -1.
        -13    1    3    3    0    0 -0.12695761888E+02  0.39460738009E+01  0.14715523185E+03  0.14775458074E+03  0.00000000000E+00 0.  1.
         22    1    1    2    0    0  0.23059666090E+03  0.10545205254E+02 -0.60829958993E+02  0.23871804558E+03  0.00000000000E+00 0.  1.
<mgrwt>
<rscale>  0 0.78798504E+03</rscale>
<asrwt>0</asrwt>
<pdfrwt beam="1">  1        2 0.14273048E+00 0.78798504E+03</pdfrwt>
<pdfrwt beam="2">  1       -2 0.25741421E-01 0.78798504E+03</pdfrwt>
<totfact> 0.38363563E+02</totfact>
</mgrwt>
</event>
<event>
 6    1  0.3017327E-006  0.1725961E+04  0.7818608E-02  0.8746695E-01
         -2   -1    0    0    0  501 -0.00000000000E+00  0.00000000000E+00  0.32150044468E+03  0.32150044468E+03  0.00000000000E+00 0.  1.
          2   -1    0    0  501    0  0.00000000000E+00 -0.00000000000E+00 -0.23164367360E+04  0.23164367360E+04  0.00000000000E+00 0. -1.
         23    2    1    2    0    0 -0.25676854744E+03 -0.67205437227E+03 -0.17219702889E+04  0.18684583930E+04  0.91476358044E+02 0.  0.
         11    1    3    3    0    0 -0.98371396672E+02 -0.22355564668E+03 -0.48105615725E+03  0.53950818833E+03  0.00000000000E+00 0.  1.
        -11    1    3    3    0    0 -0.15839715077E+03 -0.44849872559E+03 -0.12409141317E+04  0.13289502046E+04  0.00000000000E+00 0. -1.
         22    1    1    2    0    0  0.25676854744E+03  0.67205437227E+03 -0.27296600237E+03  0.76947878768E+03  0.00000000000E+00 0.  1.
<mgrwt>
<rscale>  0 0.17259611E+04</rscale>
<asrwt>0</asrwt>
<pdfrwt beam="1">  1        2 0.35637489E+00 0.17259611E+04</pdfrwt>
<pdfrwt beam="2">  1       -2 0.49461606E-01 0.17259611E+04</pdfrwt>
<totfact> 0.16314530E+01</totfact>
</mgrwt>
</event>
<event>
 6    1  0.3017327E-006  0.2410813E+04  0.7818608E-02  0.8435466E-01
         -2   -1    0    0    0  501 -0.00000000000E+00  0.00000000000E+00  0.12634442659E+04  0.12634442659E+04  0.00000000000E+00 0.  1.
          2   -1    0    0  501    0  0.00000000000E+00 -0.00000000000E+00 -0.11500350714E+04  0.11500350714E+04  0.00000000000E+00 0. -1.
         23    2    1    2    0    0 -0.66358809602E+03  0.14556530823E+03  0.10514639833E+04  0.12552543131E+04  0.92457894936E+02 0.  0.
         13    1    3    3    0    0 -0.59414873423E+03  0.99904779353E+02  0.92796751639E+03  0.11063983888E+04  0.00000000000E+00 0. -1.
        -13    1    3    3    0    0 -0.69439361789E+02  0.45660528876E+02  0.12349646686E+03  0.14885592427E+03  0.00000000000E+00 0.  1.
         22    1    1    2    0    0  0.66358809602E+03 -0.14556530823E+03 -0.93805478870E+03  0.11582250242E+04  0.00000000000E+00 0. -1.
<mgrwt>
<rscale>  0 0.24108133E+04</rscale>
<asrwt>0</asrwt>
<pdfrwt beam="1">  1        2 0.17692847E+00 0.24108133E+04</pdfrwt>
<pdfrwt beam="2">  1       -2 0.19437604E+00 0.24108133E+04</pdfrwt>
<totfact> 0.26426748E+00</totfact>
</mgrwt>
</event>
<event>
 6    1  0.3017327E-006  0.3165186E+04  0.7818608E-02  0.8198072E-01
          2   -1    0    0  501    0  0.00000000000E+00  0.00000000000E+00  0.26468270989E+04  0.26468270989E+04  0.00000000000E+00 0. -1.
         -2   -1    0    0    0  501 -0.00000000000E+00 -0.00000000000E+00 -0.94626519592E+03  0.94626519592E+03  0.00000000000E+00 0.  1.
         23    2    1    2    0    0 -0.51996868152E+03  0.52627305416E+03  0.24374886131E+04  0.25488740545E+04  0.89874632544E+02 0.  0.
         11    1    3    3    0    0 -0.41390574914E+03  0.46198277886E+03  0.19812140188E+04  0.20760431223E+04  0.00000000000E+00 0.  1.
        -11    1    3    3    0    0 -0.10606293238E+03  0.64290275309E+02  0.45627459430E+03  0.47283093228E+03  0.00000000000E+00 0. -1.
         22    1    1    2    0    0  0.51996868152E+03 -0.52627305416E+03 -0.73692671011E+03  0.10442182403E+04  0.00000000000E+00 0.  1.
<mgrwt>
<rscale>  0 0.31651858E+04</rscale>
<asrwt>0</asrwt>
<pdfrwt beam="1">  1        2 0.40720417E+00 0.31651858E+04</pdfrwt>
<pdfrwt beam="2">  1       -2 0.14557926E+00 0.31651858E+04</pdfrwt>
<totfact> 0.78174449E-01</totfact>
</mgrwt>
</event>
<event>
 6    1  0.3017327E-006  0.2745035E+04  0.7818608E-02  0.8320539E-01
         -2   -1    0    0    0  501 -0.00000000000E+00  0.00000000000E+00  0.24584550512E+04  0.24584550512E+04  0.00000000000E+00 0.  1.
          2   -1    0    0  501    0  0.00000000000E+00 -0.00000000000E+00 -0.76625556730E+03  0.76625556730E+03  0.00000000000E+00 0. -1.
         23    2    1    2    0    0  0.12199843271E+04 -0.77704948206E+02  0.11731790751E+03  0.12310577407E+04  0.85672936868E+02 0.  0.
         11    1    3    3    0    0  0.56476802077E+03 -0.78636167929E+02  0.50938484989E+02  0.57248693736E+03  0.00000000000E+00 0. -1.
        -11    1    3    3    0    0  0.65521630637E+03  0.93121972352E+00  0.66379422520E+02  0.65857080336E+03  0.00000000000E+00 0.  1.
         22    1    1    2    0    0 -0.12199843271E+04  0.77704948206E+02  0.15748815764E+04  0.19936528778E+04  0.00000000000E+00 0.  1.
<mgrwt>
<rscale>  0 0.27450354E+04</rscale>
<asrwt>0</asrwt>
<pdfrwt beam="1">  1        2 0.11788547E+00 0.27450354E+04</pdfrwt>
<pdfrwt beam="2">  1       -2 0.37822385E+00 0.27450354E+04</pdfrwt>
<totfact> 0.32761797E-01</totfact>
</mgrwt>
</event>
<event>
 6    1  0.3017327E-006  0.4522103E+04  0.7818608E-02  0.7906779E-01
         -2   -1    0    0    0  501 -0.00000000000E+00  0.00000000000E+00  0.14757033644E+04  0.14757033644E+04  0.00000000000E+00 0.  1.
          2   -1    0    0  501    0  0.00000000000E+00 -0.00000000000E+00 -0.34643507460E+04  0.34643507460E+04  0.00000000000E+00 0. -1.
         23    2    1    2    0    0  0.12568595558E+04  0.79515179914E+03 -0.28538444274E+04  0.32194355430E+04  0.91514331902E+02 0.  0.
         11    1    3    3    0    0  0.26869109315E+03  0.12696618931E+03 -0.57686964754E+03  0.64891748861E+03  0.00000000000E+00 0.  1.
        -11    1    3    3    0    0  0.98816846260E+03  0.66818560983E+03 -0.22769747799E+04  0.25705180544E+04  0.00000000000E+00 0. -1.
         22    1    1    2    0    0 -0.12568595558E+04 -0.79515179914E+03  0.86519704574E+03  0.17206185674E+04  0.00000000000E+00 0.  1.
<mgrwt>
<rscale>  0 0.45221031E+04</rscale>
<asrwt>0</asrwt>
<pdfrwt beam="1">  1        2 0.53297703E+00 0.45221031E+04</pdfrwt>
<pdfrwt beam="2">  1       -2 0.22703129E+00 0.45221031E+04</pdfrwt>
<totfact> 0.58005235E-02</totfact>
</mgrwt>
</event>
<event>
 6    1  0.3017327E-006  0.2817130E+04  0.7818608E-02  0.8297970E-01
          2   -1    0    0  501    0  0.00000000000E+00  0.00000000000E+00  0.35859168315E+04  0.35859168315E+04  0.00000000000E+00 0. -1.
         -2   -1    0    0    0  501 -0.00000000000E+00 -0.00000000000E+00 -0.55329099551E+03  0.55329099551E+03  0.00000000000E+00 0.  1.
         23    2    1    2    0    0 -0.56801786960E+03 -0.43348324357E+03 -0.26367552676E+03  0.76635225691E+03  0.84964555077E+02 0.  0.
         11    1    3    3    0    0 -0.39341361196E+03 -0.34648707867E+03 -0.18321326066E+03  0.55533293135E+03  0.00000000000E+00 0.  1.
        -11    1    3    3    0    0 -0.17460425764E+03 -0.86996164893E+02 -0.80462266099E+02  0.21101932556E+03  0.00000000000E+00 0. -1.
         22    1    1    2    0    0  0.56801786960E+03  0.43348324357E+03  0.32963013627E+04  0.33728555701E+04  0.00000000000E+00 0.  1.
<mgrwt>
<rscale>  0 0.28171301E+04</rscale>
<asrwt>0</asrwt>
<pdfrwt beam="1">  1        2 0.55167950E+00 0.28171301E+04</pdfrwt>
<pdfrwt beam="2">  1       -2 0.85121694E-01 0.28171301E+04</pdfrwt>
<totfact> 0.73735587E-01</totfact>
</mgrwt>
</event>
<event>
 6    1  0.3017327E-006  0.1902378E+04  0.7818608E-02  0.8653673E-01
          2   -1    0    0  501    0  0.00000000000E+00  0.00000000000E+00  0.25211845184E+04  0.25211845184E+04  0.00000000000E+00 0.  1.
         -2   -1    0    0    0  501 -0.00000000000E+00 -0.00000000000E+00 -0.35886343244E+03  0.35886343244E+03  0.00000000000E+00 0. -1.
         23    2    1    2    0    0  0.13105202746E+03 -0.53850596424E+03 -0.82477759224E+02  0.56784442114E+03  0.92094508135E+02 0.  0.
         11    1    3    3    0    0  0.33803911409E+02 -0.32343464121E+03 -0.60626354540E+02  0.33079937489E+03  0.00000000000E+00 0.  1.
        -11    1    3    3    0    0  0.97248116055E+02 -0.21507132303E+03 -0.21851404684E+02  0.23704504625E+03  0.00000000000E+00 0. -1.
         22    1    1    2    0    0 -0.13105202746E+03  0.53850596424E+03  0.22447988451E+04  0.23122035297E+04  0.00000000000E+00 0.  1.
<mgrwt>
<rscale>  0 0.19023784E+04</rscale>
<asrwt>0</asrwt>
<pdfrwt beam="1">  1        2 0.38787453E+00 0.19023784E+04</pdfrwt>
<pdfrwt beam="2">  1       -2 0.55209761E-01 0.19023784E+04</pdfrwt>
<totfact> 0.97820323E+00</totfact>
</mgrwt>
</event>
<event>
 6    1  0.3017327E-006  0.2054008E+04  0.7818608E-02  0.8581778E-01
         -2   -1    0    0    0  501 -0.00000000000E+00  0.00000000000E+00  0.45661013822E+03  0.45661013822E+03  0.00000000000E+00 0.  1.
          2   -1    0    0  501    0  0.00000000000E+00 -0.00000000000E+00 -0.23099294669E+04  0.23099294669E+04  0.00000000000E+00 0. -1.
         23    2    1    2    0    0 -0.80805177915E+03  0.60000732685E+03 -0.66736158743E+03  0.12110807551E+04  0.91589502457E+02 0.  0.
         13    1    3    3    0    0 -0.29994567706E+03  0.16870021665E+03 -0.22844018485E+03  0.41305216419E+03  0.00000000000E+00 0. -1.
        -13    1    3    3    0    0 -0.50810610209E+03  0.43130711020E+03 -0.43892140258E+03  0.79802859093E+03  0.00000000000E+00 0.  1.
         22    1    1    2    0    0  0.80805177915E+03 -0.60000732685E+03 -0.11859577412E+04  0.15554588500E+04  0.00000000000E+00 0.  1.
<mgrwt>
<rscale>  0 0.20540080E+04</rscale>
<asrwt>0</asrwt>
<pdfrwt beam="1">  1        2 0.35537377E+00 0.20540080E+04</pdfrwt>
<pdfrwt beam="2">  1       -2 0.70247712E-01 0.20540080E+04</pdfrwt>
<totfact> 0.76364441E+00</totfact>
</mgrwt>
</event>
<event>
 6    1  0.3017327E-006  0.1955070E+04  0.7818608E-02  0.8627920E-01
          2   -1    0    0  501    0  0.00000000000E+00  0.00000000000E+00  0.12195268961E+04  0.12195268961E+04  0.00000000000E+00 0. -1.
         -2   -1    0    0    0  501 -0.00000000000E+00 -0.00000000000E+00 -0.78356183422E+03  0.78356183422E+03  0.00000000000E+00 0.  1.
         23    2    1    2    0    0  0.31583717054E+03 -0.40131658281E+03 -0.63316823230E+03  0.81824523067E+03  0.88403219342E+02 0.  0.
         13    1    3    3    0    0  0.18792685598E+03 -0.27403967565E+03 -0.35120910658E+03  0.48348948651E+03  0.00000000000E+00 0. -1.
        -13    1    3    3    0    0  0.12791031457E+03 -0.12727690716E+03 -0.28195912572E+03  0.33475574416E+03  0.00000000000E+00 0.  1.
         22    1    1    2    0    0 -0.31583717054E+03  0.40131658281E+03  0.10691332941E+04  0.11848434996E+04  0.00000000000E+00 0. -1.
<mgrwt>
<rscale>  0 0.19550701E+04</rscale>
<asrwt>0</asrwt>
<pdfrwt beam="1">  1        2 0.18761952E+00 0.19550701E+04</pdfrwt>
<pdfrwt beam="2">  1       -2 0.12054797E+00 0.19550701E+04</pdfrwt>
<totfact> 0.90282214E+00</totfact>
</mgrwt>
</event>
<event>
 6    1  0.3017327E-006  0.1421992E+04  0.7818608E-02  0.8938051E-01
          2   -1    0    0  501    0  0.00000000000E+00  0.00000000000E+00  0.43841426050E+03  0.43841426050E+03  0.00000000000E+00 0. -1.
         -2   -1    0    0    0  501 -0.00000000000E+00 -0.00000000000E+00 -0.11530544511E+04  0.11530544511E+04  0.00000000000E+00 0.  1.
         23    2    1    2    0    0  0.25115077628E+03 -0.66214551120E+03 -0.36930344077E+03  0.80357857889E+03  0.88544399430E+02 0.  0.
         11    1    3    3    0    0  0.18035623591E+03 -0.40528278735E+03 -0.19095051190E+03  0.48295404290E+03  0.00000000000E+00 0. -1.
        -11    1    3    3    0    0  0.70794540361E+02 -0.25686272384E+03 -0.17835292887E+03  0.32062453599E+03  0.00000000000E+00 0.  1.
         22    1    1    2    0    0 -0.25115077628E+03  0.66214551120E+03 -0.34533674980E+03  0.78789013269E+03  0.00000000000E+00 0. -1.
<mgrwt>
<rscale>  0 0.14219923E+04</rscale>
<asrwt>0</asrwt>
<pdfrwt beam="1">  1        2 0.67448347E-01 0.14219923E+04</pdfrwt>
<pdfrwt beam="2">  1       -2 0.17739299E+00 0.14219923E+04</pdfrwt>
<totfact> 0.13148113E+01</totfact>
</mgrwt>
</event>
<event>
 6    1  0.3017327E-006  0.2591844E+04  0.7818608E-02  0.8370977E-01
         -2   -1    0    0    0  501 -0.00000000000E+00  0.00000000000E+00  0.61550091303E+03  0.61550091303E+03  0.00000000000E+00 0. -1.
          2   -1    0    0  501    0  0.00000000000E+00 -0.00000000000E+00 -0.27285319806E+04  0.27285319806E+04  0.00000000000E+00 0.  1.
         23    2    1    2    0    0 -0.64780121078E+03 -0.94581631110E+03 -0.28260723494E+03  0.11842490364E+04  0.91455059164E+02 0.  0.
         13    1    3    3    0    0 -0.49252321275E+03 -0.65236011449E+03 -0.21857073921E+03  0.84612410562E+03  0.00000000000E+00 0. -1.
        -13    1    3    3    0    0 -0.15527799803E+03 -0.29345619661E+03 -0.64036495729E+02  0.33812493074E+03  0.00000000000E+00 0.  1.
         22    1    1    2    0    0  0.64780121078E+03  0.94581631110E+03 -0.18304238327E+04  0.21597838573E+04  0.00000000000E+00 0.  1.
<mgrwt>
<rscale>  0 0.25918441E+04</rscale>
<asrwt>0</asrwt>
<pdfrwt beam="1">  1        2 0.41977415E+00 0.25918441E+04</pdfrwt>
<pdfrwt beam="2">  1       -2 0.94692449E-01 0.25918441E+04</pdfrwt>
<totfact> 0.21219852E+00</totfact>
</mgrwt>
</event>
<event>
 6    1  0.3017327E-006  0.1470859E+04  0.7818608E-02  0.8904066E-01
         -2   -1    0    0    0  501 -0.00000000000E+00  0.00000000000E+00  0.43333776922E+03  0.43333776922E+03  0.00000000000E+00 0. -1.
          2   -1    0    0  501    0  0.00000000000E+00 -0.00000000000E+00 -0.12481170395E+04  0.12481170395E+04  0.00000000000E+00 0.  1.
         23    2    1    2    0    0  0.33357949331E+03 -0.11844445960E+03 -0.11421857565E+04  0.11992729181E+04  0.91448681941E+02 0.  0.
         11    1    3    3    0    0  0.10996149578E+03 -0.71469190439E+00 -0.41958907028E+03  0.43375918346E+03  0.00000000000E+00 0. -1.
        -11    1    3    3    0    0  0.22361799753E+03 -0.11772976770E+03 -0.72259668620E+03  0.76551373464E+03  0.00000000000E+00 0.  1.
         22    1    1    2    0    0 -0.33357949331E+03  0.11844445960E+03  0.32740648624E+03  0.48218189058E+03  0.00000000000E+00 0. -1.
<mgrwt>
<rscale>  0 0.14708586E+04</rscale>
<asrwt>0</asrwt>
<pdfrwt beam="1">  1        2 0.19201800E+00 0.14708586E+04</pdfrwt>
<pdfrwt beam="2">  1       -2 0.66667350E-01 0.14708586E+04</pdfrwt>
<totfact> 0.35493216E+01</totfact>
</mgrwt>
</event>
<event>
 6    1  0.3017327E-006  0.9475371E+03  0.7818608E-02  0.9368034E-01
          2   -1    0    0  501    0  0.00000000000E+00  0.00000000000E+00  0.13080531215E+04  0.13080531215E+04  0.00000000000E+00 0. -1.
         -2   -1    0    0    0  501 -0.00000000000E+00 -0.00000000000E+00 -0.17159595684E+03  0.17159595684E+03  0.00000000000E+00 0.  1.
         23    2    1    2    0    0 -0.31677433710E+03  0.33866447660E+03  0.46089142437E+03  0.66024156202E+03  0.91969597126E+02 0.  0.
         11    1    3    3    0    0 -0.23671806122E+02  0.33008491905E+02  0.84129823984E+02  0.93422386111E+02  0.00000000000E+00 0. -1.
        -11    1    3    3    0    0 -0.29310253098E+03  0.30565598469E+03  0.37676160039E+03  0.56681917591E+03  0.00000000000E+00 0.  1.
         22    1    1    2    0    0  0.31677433710E+03 -0.33866447660E+03  0.67556574024E+03  0.81940751629E+03  0.00000000000E+00 0. -1.
<mgrwt>
<rscale>  0 0.94753707E+03</rscale>
<asrwt>0</asrwt>
<pdfrwt beam="1">  1        2 0.20123894E+00 0.94753707E+03</pdfrwt>
<pdfrwt beam="2">  1       -2 0.26399379E-01 0.94753707E+03</pdfrwt>
<totfact> 0.21230293E+02</totfact>
</mgrwt>
</event>
<event>
 6    1  0.3017327E-006  0.3638871E+04  0.7818608E-02  0.8081645E-01
         -2   -1    0    0    0  501 -0.00000000000E+00  0.00000000000E+00  0.12645624470E+04  0.12645624470E+04  0.00000000000E+00 0.  1.
          2   -1    0    0  501    0  0.00000000000E+00 -0.00000000000E+00 -0.26177791735E+04  0.26177791735E+04  0.00000000000E+00 0. -1.
         23    2    1    2    0    0  0.58550394541E+03  0.16327371166E+03  0.11513250159E+04  0.13050945398E+04  0.90825604538E+02 0.  0.
         11    1    3    3    0    0  0.42368995771E+03  0.12776096849E+03  0.74848905277E+03  0.86952395450E+03  0.00000000000E+00 0. -1.
        -11    1    3    3    0    0  0.16181398770E+03  0.35512743178E+02  0.40283596317E+03  0.43557058529E+03  0.00000000000E+00 0.  1.
         22    1    1    2    0    0 -0.58550394541E+03 -0.16327371166E+03 -0.25045417425E+04  0.25772470807E+04  0.00000000000E+00 0. -1.
<mgrwt>
<rscale>  0 0.36388708E+04</rscale>
<asrwt>0</asrwt>
<pdfrwt beam="1">  1        2 0.40273525E+00 0.36388708E+04</pdfrwt>
<pdfrwt beam="2">  1       -2 0.19454807E+00 0.36388708E+04</pdfrwt>
<totfact> 0.34874478E-01</totfact>
</mgrwt>
</event>
<event>
 6    1  0.3017327E-006  0.1308269E+04  0.7818608E-02  0.9023033E-01
         -2   -1    0    0    0  501 -0.00000000000E+00  0.00000000000E+00  0.11319366791E+03  0.11319366791E+03  0.00000000000E+00 0.  1.
          2   -1    0    0  501    0  0.00000000000E+00 -0.00000000000E+00 -0.37801770474E+04  0.37801770474E+04  0.00000000000E+00 0. -1.
         23    2    1    2    0    0 -0.41274940426E+02  0.64374548361E+03 -0.20998952441E+04  0.21987093649E+04  0.93010574041E+02 0.  0.
         13    1    3    3    0    0 -0.81672636475E+01  0.52801239390E+03 -0.16174024304E+04  0.17014271698E+04  0.00000000000E+00 0.  1.
        -13    1    3    3    0    0 -0.33107676778E+02  0.11573308970E+03 -0.48249281366E+03  0.49728219508E+03  0.00000000000E+00 0. -1.
         22    1    1    2    0    0  0.41274940426E+02 -0.64374548361E+03 -0.15670881355E+04  0.16946613504E+04  0.00000000000E+00 0.  1.
<mgrwt>
<rscale>  0 0.13082692E+04</rscale>
<asrwt>0</asrwt>
<pdfrwt beam="1">  1        2 0.58156570E+00 0.13082692E+04</pdfrwt>
<pdfrwt beam="2">  1       -2 0.17414410E-01 0.13082692E+04</pdfrwt>
<totfact> 0.13923346E+01</totfact>
</mgrwt>
</event>
<event>
 6    1  0.3017327E-006  0.2889732E+04  0.7818608E-02  0.8275939E-01
         -2   -1    0    0    0  501 -0.00000000000E+00  0.00000000000E+00  0.93811328490E+03  0.93811328490E+03  0.00000000000E+00 0.  1.
          2   -1    0    0  501    0  0.00000000000E+00 -0.00000000000E+00 -0.22253584783E+04  0.22253584783E+04  0.00000000000E+00 0. -1.
         23    2    1    2    0    0  0.50912891581E+03  0.12893092912E+04 -0.20394697987E+03  0.14041918762E+04  0.92896464884E+02 0.  0.
         11    1    3    3    0    0  0.30013981919E+03  0.86111795381E+03 -0.15798955024E+03  0.92550998883E+03  0.00000000000E+00 0.  1.
        -11    1    3    3    0    0  0.20898909662E+03  0.42819133743E+03 -0.45957429631E+02  0.47868188737E+03  0.00000000000E+00 0. -1.
         22    1    1    2    0    0 -0.50912891581E+03 -0.12893092912E+04 -0.10832982135E+04  0.17592798870E+04  0.00000000000E+00 0. -1.
<mgrwt>
<rscale>  0 0.28897324E+04</rscale>
<asrwt>0</asrwt>
<pdfrwt beam="1">  1        2 0.34236284E+00 0.28897324E+04</pdfrwt>
<pdfrwt beam="2">  1       -2 0.14432512E+00 0.28897324E+04</pdfrwt>
<totfact> 0.14316397E+00</totfact>
</mgrwt>
</event>
<event>
 6    1  0.3017327E-006  0.3921113E+04  0.7818608E-02  0.8020652E-01
         -2   -1    0    0    0  501 -0.00000000000E+00  0.00000000000E+00  0.16202844109E+04  0.16202844109E+04  0.00000000000E+00 0.  1.
          2   -1    0    0  501    0  0.00000000000E+00 -0.00000000000E+00 -0.23722878160E+04  0.23722878160E+04  0.00000000000E+00 0. -1.
         23    2    1    2    0    0 -0.58510134698E+03  0.92339708493E+03 -0.20320336244E+04  0.23092769096E+04  0.92700765762E+02 0.  0.
         11    1    3    3    0    0 -0.54363744899E+03  0.83009610235E+03 -0.17909049472E+04  0.20474231963E+04  0.00000000000E+00 0. -1.
        -11    1    3    3    0    0 -0.41463897987E+02  0.93300982583E+02 -0.24112867720E+03  0.26185371327E+03  0.00000000000E+00 0.  1.
         22    1    1    2    0    0  0.58510134698E+03 -0.92339708493E+03  0.12800302193E+04  0.16832953172E+04  0.00000000000E+00 0.  1.
<mgrwt>
<rscale>  0 0.39211126E+04</rscale>
<asrwt>0</asrwt>
<pdfrwt beam="1">  1        2 0.36496736E+00 0.39211126E+04</pdfrwt>
<pdfrwt beam="2">  1       -2 0.24927452E+00 0.39211126E+04</pdfrwt>
<totfact> 0.21255680E-01</totfact>
</mgrwt>
</event>
<event>
 6    1  0.3017327E-006  0.2098342E+04  0.7818608E-02  0.8561974E-01
         -2   -1    0    0    0  501 -0.00000000000E+00  0.00000000000E+00  0.17250188529E+04  0.17250188529E+04  0.00000000000E+00 0. -1.
          2   -1    0    0  501    0  0.00000000000E+00 -0.00000000000E+00 -0.63811463906E+03  0.63811463906E+03  0.00000000000E+00 0.  1.
         23    2    1    2    0    0 -0.32453213193E+03  0.42296448954E+03 -0.47042543586E+03  0.71707890542E+03  0.93177260246E+02 0.  0.
         11    1    3    3    0    0 -0.10269402767E+03  0.76268943836E+02 -0.88184839037E+02  0.15536917631E+03  0.00000000000E+00 0.  1.
        -11    1    3    3    0    0 -0.22183810427E+03  0.34669554570E+03 -0.38224059682E+03  0.56170972911E+03  0.00000000000E+00 0. -1.
         22    1    1    2    0    0  0.32453213193E+03 -0.42296448954E+03  0.15573296497E+04  0.16460545865E+04  0.00000000000E+00 0. -1.
<mgrwt>
<rscale>  0 0.20983420E+04</rscale>
<asrwt>0</asrwt>
<pdfrwt beam="1">  1        2 0.98171484E-01 0.20983420E+04</pdfrwt>
<pdfrwt beam="2">  1       -2 0.26538751E+00 0.20983420E+04</pdfrwt>
<totfact> 0.21927485E+00</totfact>
</mgrwt>
</event>
<event>
 6    1  0.3017327E-006  0.2758396E+04  0.7818608E-02  0.8316302E-01
         -1   -1    0    0    0  501 -0.00000000000E+00  0.00000000000E+00  0.16878940329E+04  0.16878940329E+04  0.00000000000E+00 0.  1.
          1   -1    0    0  501    0  0.00000000000E+00 -0.00000000000E+00 -0.11269591080E+04  0.11269591080E+04  0.00000000000E+00 0. -1.
         23    2    1    2    0    0  0.11537507397E+04  0.47554759134E+03  0.87648025496E+03  0.15276642906E+04  0.90852993397E+02 0.  0.
         13    1    3    3    0    0  0.82618744939E+03  0.31937990758E+03  0.57664352483E+03  0.10569328179E+04  0.00000000000E+00 0. -1.
        -13    1    3    3    0    0  0.32756329028E+03  0.15616768376E+03  0.29983673013E+03  0.47073147263E+03  0.00000000000E+00 0.  1.
         22    1    1    2    0    0 -0.11537507397E+04 -0.47554759134E+03 -0.31554533006E+03  0.12871888503E+04  0.00000000000E+00 0.  1.
<mgrwt>
<rscale>  0 0.27583963E+04</rscale>
<asrwt>0</asrwt>
<pdfrwt beam="1">  1        1 0.17337832E+00 0.27583963E+04</pdfrwt>
<pdfrwt beam="2">  1       -1 0.25967601E+00 0.27583963E+04</pdfrwt>
<totfact> 0.63387692E-01</totfact>
</mgrwt>
</event>
<event>
 6    1  0.3017327E-006  0.1617891E+04  0.7818608E-02  0.8809632E-01
         -2   -1    0    0    0  501 -0.00000000000E+00  0.00000000000E+00  0.24656422704E+03  0.24656422704E+03  0.00000000000E+00 0.  1.
          2   -1    0    0  501    0  0.00000000000E+00 -0.00000000000E+00 -0.26540447424E+04  0.26540447424E+04  0.00000000000E+00 0. -1.
         23    2    1    2    0    0 -0.15863268489E+03  0.32911570765E+03 -0.24965421159E+04  0.25245591769E+04  0.84823484196E+02 0.  0.
         13    1    3    3    0    0  0.56538587967E+01  0.35389660051E+02 -0.34467735312E+03  0.34653552763E+03  0.00000000000E+00 0. -1.
        -13    1    3    3    0    0 -0.16428654369E+03  0.29372604760E+03 -0.21518647628E+04  0.21780236493E+04  0.00000000000E+00 0.  1.
         22    1    1    2    0    0  0.15863268489E+03 -0.32911570765E+03  0.89061600577E+02  0.37604979249E+03  0.00000000000E+00 0.  1.
<mgrwt>
<rscale>  0 0.16178906E+04</rscale>
<asrwt>0</asrwt>
<pdfrwt beam="1">  1        2 0.40831455E+00 0.16178906E+04</pdfrwt>
<pdfrwt beam="2">  1       -2 0.37932961E-01 0.16178906E+04</pdfrwt>
<totfact> 0.17816028E+01</totfact>
</mgrwt>
</event>
<event>
 6    1  0.3017327E-006  0.1801978E+04  0.7818608E-02  0.8705248E-01
         -2   -1    0    0    0  501 -0.00000000000E+00  0.00000000000E+00  0.47185907711E+03  0.47185907711E+03  0.00000000000E+00 0.  1.
          2   -1    0    0  501    0  0.00000000000E+00 -0.00000000000E+00 -0.17203885818E+04  0.17203885818E+04  0.00000000000E+00 0. -1.
         23    2    1    2    0    0  0.17217302185E+03 -0.66592259866E+03 -0.13294812032E+04  0.14996802366E+04  0.91782818109E+02 0.  0.
         13    1    3    3    0    0  0.98036357964E+02 -0.25660678048E+03 -0.60094626685E+03  0.66075304231E+03  0.00000000000E+00 0. -1.
        -13    1    3    3    0    0  0.74136663890E+02 -0.40931581818E+03 -0.72853493630E+03  0.83892719431E+03  0.00000000000E+00 0.  1.
         22    1    1    2    0    0 -0.17217302185E+03  0.66592259866E+03  0.80951698517E+02  0.69256742225E+03  0.00000000000E+00 0.  1.
<mgrwt>
<rscale>  0 0.18019778E+04</rscale>
<asrwt>0</asrwt>
<pdfrwt beam="1">  1        2 0.26467516E+00 0.18019778E+04</pdfrwt>
<pdfrwt beam="2">  1       -2 0.72593705E-01 0.18019778E+04</pdfrwt>
<totfact> 0.15475756E+01</totfact>
</mgrwt>
</event>
<event>
 6    1  0.3017327E-006  0.1820817E+04  0.7818608E-02  0.8695307E-01
          2   -1    0    0  501    0  0.00000000000E+00  0.00000000000E+00  0.13586617424E+04  0.13586617424E+04  0.00000000000E+00 0. -1.
         -2   -1    0    0    0  501 -0.00000000000E+00 -0.00000000000E+00 -0.61004410454E+03  0.61004410454E+03  0.00000000000E+00 0.  1.
         23    2    1    2    0    0 -0.36098225214E+03  0.82654141827E+03  0.48948300578E+03  0.10302871451E+04  0.91755577092E+02 0.  0.
         13    1    3    3    0    0 -0.12951242537E+03  0.22593063545E+03  0.17618524290E+03  0.31441908367E+03  0.00000000000E+00 0. -1.
        -13    1    3    3    0    0 -0.23146982677E+03  0.60061078283E+03  0.31329776288E+03  0.71586806143E+03  0.00000000000E+00 0.  1.
         22    1    1    2    0    0  0.36098225214E+03 -0.82654141827E+03  0.25913463212E+03  0.93841870189E+03  0.00000000000E+00 0. -1.
<mgrwt>
<rscale>  0 0.18208169E+04</rscale>
<asrwt>0</asrwt>
<pdfrwt beam="1">  1        2 0.20902488E+00 0.18208169E+04</pdfrwt>
<pdfrwt beam="2">  1       -2 0.93852940E-01 0.18208169E+04</pdfrwt>
<totfact> 0.13814539E+01</totfact>
</mgrwt>
</event>
<event>
 6    1  0.3017327E-006  0.3090324E+04  0.7818608E-02  0.8218398E-01
          1   -1    0    0  501    0  0.00000000000E+00  0.00000000000E+00  0.18708737060E+04  0.18708737060E+04  0.00000000000E+00 0. -1.
         -1   -1    0    0    0  501 -0.00000000000E+00 -0.00000000000E+00 -0.12761554908E+04  0.12761554908E+04  0.00000000000E+00 0.  1.
         23    2    1    2    0    0  0.83476382309E+03 -0.47355830915E+03  0.15290629778E+04  0.18075934021E+04  0.90951661868E+02 0.  0.
         13    1    3    3    0    0  0.43610792736E+03 -0.26197629664E+03  0.89161355538E+03  0.10265458764E+04  0.00000000000E+00 0. -1.
        -13    1    3    3    0    0  0.39865589573E+03 -0.21158201250E+03  0.63744942243E+03  0.78104752568E+03  0.00000000000E+00 0.  1.
         22    1    1    2    0    0 -0.83476382309E+03  0.47355830915E+03 -0.93434476267E+03  0.13394357947E+04  0.00000000000E+00 0.  1.
<mgrwt>
<rscale>  0 0.30903241E+04</rscale>
<asrwt>0</asrwt>
<pdfrwt beam="1">  1        1 0.28782673E+00 0.30903241E+04</pdfrwt>
<pdfrwt beam="2">  1       -1 0.19633161E+00 0.30903241E+04</pdfrwt>
<totfact> 0.49143029E-01</totfact>
</mgrwt>
</event>
<event>
 6    1  0.3017327E-006  0.1250765E+04  0.7818608E-02  0.9069547E-01
         -2   -1    0    0    0  501 -0.00000000000E+00  0.00000000000E+00  0.17335688636E+03  0.17335688636E+03  0.00000000000E+00 0.  1.
          2   -1    0    0  501    0  0.00000000000E+00 -0.00000000000E+00 -0.22560582547E+04  0.22560582547E+04  0.00000000000E+00 0. -1.
         23    2    1    2    0    0  0.29398206869E+03  0.48743829263E+03 -0.55927493808E+03  0.80311577308E+03  0.90470673570E+02 0.  0.
         13    1    3    3    0    0  0.92808336387E+02  0.22745622607E+03 -0.27242268328E+03  0.36682944326E+03  0.00000000000E+00 0. -1.
        -13    1    3    3    0    0  0.20117373231E+03  0.25998206657E+03 -0.28685225480E+03  0.43628632982E+03  0.00000000000E+00 0.  1.
         22    1    1    2    0    0 -0.29398206869E+03 -0.48743829263E+03 -0.15234264303E+04  0.16262993680E+04  0.00000000000E+00 0. -1.
<mgrwt>
<rscale>  0 0.12507649E+04</rscale>
<asrwt>0</asrwt>
<pdfrwt beam="1">  1        2 0.34708589E+00 0.12507649E+04</pdfrwt>
<pdfrwt beam="2">  1       -2 0.26670290E-01 0.12507649E+04</pdfrwt>
<totfact> 0.60376292E+01</totfact>
</mgrwt>
</event>
<event>
 6    1  0.3017327E-006  0.2262005E+04  0.7818608E-02  0.8493054E-01
          1   -1    0    0  501    0  0.00000000000E+00  0.00000000000E+00  0.19556903682E+04  0.19556903682E+04  0.00000000000E+00 0. -1.
         -1   -1    0    0    0  501 -0.00000000000E+00 -0.00000000000E+00 -0.65407440823E+03  0.65407440823E+03  0.00000000000E+00 0.  1.
         23    2    1    2    0    0  0.11637506552E+03 -0.55322251081E+03 -0.47592931925E+03  0.74448583697E+03  0.90289214096E+02 0.  0.
         11    1    3    3    0    0  0.65380933215E+02 -0.39800630697E+03 -0.38458843415E+03  0.55730776999E+03  0.00000000000E+00 0. -1.
        -11    1    3    3    0    0  0.50994132301E+02 -0.15521620385E+03 -0.91340885096E+02  0.18717806697E+03  0.00000000000E+00 0.  1.
         22    1    1    2    0    0 -0.11637506552E+03  0.55322251081E+03  0.17775452792E+04  0.18652789394E+04  0.00000000000E+00 0. -1.
<mgrwt>
<rscale>  0 0.22620053E+04</rscale>
<asrwt>0</asrwt>
<pdfrwt beam="1">  1        1 0.30087544E+00 0.22620053E+04</pdfrwt>
<pdfrwt beam="2">  1       -1 0.10062683E+00 0.22620053E+04</pdfrwt>
<totfact> 0.27206118E+00</totfact>
</mgrwt>
</event>
<event>
 6    1  0.3017327E-006  0.1858826E+04  0.7818608E-02  0.8675627E-01
          2   -1    0    0  501    0  0.00000000000E+00  0.00000000000E+00  0.43901358271E+03  0.43901358271E+03  0.00000000000E+00 0. -1.
         -2   -1    0    0    0  501 -0.00000000000E+00 -0.00000000000E+00 -0.19676133338E+04  0.19676133338E+04  0.00000000000E+00 0.  1.
         23    2    1    2    0    0  0.76116446327E+03 -0.18024536692E+03 -0.12182815906E+03  0.79701017808E+03  0.92322213901E+02 0.  0.
         11    1    3    3    0    0  0.31401094938E+03 -0.11534297966E+03 -0.29399086474E+02  0.33581421288E+03  0.00000000000E+00 0. -1.
        -11    1    3    3    0    0  0.44715351389E+03 -0.64902387265E+02 -0.92429072583E+02  0.46119596520E+03  0.00000000000E+00 0.  1.
         22    1    1    2    0    0 -0.76116446327E+03  0.18024536692E+03 -0.14067715920E+04  0.16096167384E+04  0.00000000000E+00 0.  1.
<mgrwt>
<rscale>  0 0.18588265E+04</rscale>
<asrwt>0</asrwt>
<pdfrwt beam="1">  1        2 0.67540552E-01 0.18588265E+04</pdfrwt>
<pdfrwt beam="2">  1       -2 0.30270974E+00 0.18588265E+04</pdfrwt>
<totfact> 0.20597467E+00</totfact>
</mgrwt>
</event>
<event>
 6    1  0.3017327E-006  0.1438237E+04  0.7818608E-02  0.8926597E-01
          1   -1    0    0  501    0  0.00000000000E+00  0.00000000000E+00  0.10039195240E+04  0.10039195240E+04  0.00000000000E+00 0. -1.
         -1   -1    0    0    0  501 -0.00000000000E+00 -0.00000000000E+00 -0.51511228090E+03  0.51511228090E+03  0.00000000000E+00 0.  1.
         23    2    1    2    0    0  0.24644911390E+03 -0.71055740726E+02  0.95157473968E+03  0.98993839176E+03  0.93260121375E+02 0.  0.
         11    1    3    3    0    0  0.24420484066E+03 -0.84675117468E+02  0.88624147489E+03  0.92316294961E+03  0.00000000000E+00 0.  1.
        -11    1    3    3    0    0  0.22442732416E+01  0.13619376742E+02  0.65333264793E+02  0.66775442145E+02  0.00000000000E+00 0. -1.
         22    1    1    2    0    0 -0.24644911390E+03  0.71055740726E+02 -0.46276749654E+03  0.52909341319E+03  0.00000000000E+00 0.  1.
<mgrwt>
<rscale>  0 0.14382368E+04</rscale>
<asrwt>0</asrwt>
<pdfrwt beam="1">  1        1 0.15444916E+00 0.14382368E+04</pdfrwt>
<pdfrwt beam="2">  1       -1 0.79248043E-01 0.14382368E+04</pdfrwt>
<totfact> 0.23252068E+01</totfact>
</mgrwt>
</event>
<event>
 6    1  0.3017327E-006  0.4749576E+04  0.7818608E-02  0.7868343E-01
         -2   -1    0    0    0  501 -0.00000000000E+00  0.00000000000E+00  0.14701040428E+04  0.14701040428E+04  0.00000000000E+00 0.  1.
          2   -1    0    0  501    0  0.00000000000E+00 -0.00000000000E+00 -0.38362034507E+04  0.38362034507E+04  0.00000000000E+00 0. -1.
         23    2    1    2    0    0  0.22803726557E+04  0.65969607066E+03 -0.11939685049E+04  0.26588201549E+04  0.92007993422E+02 0.  0.
         11    1    3    3    0    0  0.13977478427E+04  0.40103556283E+03 -0.78121381498E+03  0.16507039647E+04  0.00000000000E+00 0.  1.
        -11    1    3    3    0    0  0.88262481297E+03  0.25866050784E+03 -0.41275468991E+03  0.10081161901E+04  0.00000000000E+00 0. -1.
         22    1    1    2    0    0 -0.22803726557E+04 -0.65969607066E+03 -0.11721309030E+04  0.26474873386E+04  0.00000000000E+00 0. -1.
<mgrwt>
<rscale>  0 0.47495761E+04</rscale>
<asrwt>0</asrwt>
<pdfrwt beam="1">  1        2 0.59018514E+00 0.47495761E+04</pdfrwt>
<pdfrwt beam="2">  1       -2 0.22616986E+00 0.47495761E+04</pdfrwt>
<totfact> 0.30812107E-02</totfact>
</mgrwt>
</event>
<event>
 6    1  0.3017327E-006  0.2936695E+04  0.7818608E-02  0.8262043E-01
         -2   -1    0    0    0  501 -0.00000000000E+00  0.00000000000E+00  0.63895192150E+03  0.63895192150E+03  0.00000000000E+00 0.  1.
          2   -1    0    0  501    0  0.00000000000E+00 -0.00000000000E+00 -0.33743452158E+04  0.33743452158E+04  0.00000000000E+00 0. -1.
         23    2    1    2    0    0  0.79020453837E+03 -0.10471213695E+04 -0.22663962730E+04  0.26201551557E+04  0.88173686854E+02 0.  0.
         13    1    3    3    0    0  0.55645193303E+03 -0.79740638677E+03 -0.16490335845E+04  0.19143686850E+04  0.00000000000E+00 0. -1.
        -13    1    3    3    0    0  0.23375260534E+03 -0.24971498271E+03 -0.61736268844E+03  0.70578647066E+03  0.00000000000E+00 0.  1.
         22    1    1    2    0    0 -0.79020453837E+03  0.10471213695E+04 -0.46899702136E+03  0.13931419816E+04  0.00000000000E+00 0.  1.
<mgrwt>
<rscale>  0 0.29366950E+04</rscale>
<asrwt>0</asrwt>
<pdfrwt beam="1">  1        2 0.51913004E+00 0.29366950E+04</pdfrwt>
<pdfrwt beam="2">  1       -2 0.98300295E-01 0.29366950E+04</pdfrwt>
<totfact> 0.73418357E-01</totfact>
</mgrwt>
</event>
<event>
 6    1  0.3017327E-006  0.2059817E+04  0.7818608E-02  0.8579154E-01
          2   -1    0    0  501    0  0.00000000000E+00  0.00000000000E+00  0.18413141811E+04  0.18413141811E+04  0.00000000000E+00 0. -1.
         -2   -1    0    0    0  501 -0.00000000000E+00 -0.00000000000E+00 -0.57606204331E+03  0.57606204331E+03  0.00000000000E+00 0.  1.
         23    2    1    2    0    0 -0.64720927888E+03  0.23268998751E+03  0.15303882163E+04  0.16802726896E+04  0.90574488285E+02 0.  0.
         13    1    3    3    0    0 -0.29845263826E+03  0.97743958035E+02  0.80675034171E+03  0.86572164838E+03  0.00000000000E+00 0. -1.
        -13    1    3    3    0    0 -0.34875664061E+03  0.13494602948E+03  0.72363787459E+03  0.81455104124E+03  0.00000000000E+00 0.  1.
         22    1    1    2    0    0  0.64720927888E+03 -0.23268998751E+03 -0.26513607847E+03  0.73710353483E+03  0.00000000000E+00 0.  1.
<mgrwt>
<rscale>  0 0.20598167E+04</rscale>
<asrwt>0</asrwt>
<pdfrwt beam="1">  1        2 0.28327910E+00 0.20598167E+04</pdfrwt>
<pdfrwt beam="2">  1       -2 0.88624931E-01 0.20598167E+04</pdfrwt>
<totfact> 0.82859980E+00</totfact>
</mgrwt>
</event>
<event>
 6    1  0.3017327E-006  0.5148095E+04  0.7818608E-02  0.7806060E-01
          2   -1    0    0  501    0  0.00000000000E+00  0.00000000000E+00  0.39200674792E+04  0.39200674792E+04  0.00000000000E+00 0. -1.
         -2   -1    0    0    0  501 -0.00000000000E+00 -0.00000000000E+00 -0.16902057589E+04  0.16902057589E+04  0.00000000000E+00 0.  1.
         23    2    1    2    0    0 -0.13954102642E+04  0.52384169069E+03 -0.11707040311E+04  0.18974000445E+04  0.89437566093E+02 0.  0.
         11    1    3    3    0    0 -0.71513835615E+03  0.30539002099E+03 -0.57411449790E+03  0.96658853193E+03  0.00000000000E+00 0. -1.
        -11    1    3    3    0    0 -0.68027190803E+03  0.21845166970E+03 -0.59658953319E+03  0.93081151258E+03  0.00000000000E+00 0.  1.
         22    1    1    2    0    0  0.13954102642E+04 -0.52384169069E+03  0.34005657514E+04  0.37128731936E+04  0.00000000000E+00 0. -1.
<mgrwt>
<rscale>  0 0.51480950E+04</rscale>
<asrwt>0</asrwt>
<pdfrwt beam="1">  1        2 0.60308730E+00 0.51480950E+04</pdfrwt>
<pdfrwt beam="2">  1       -2 0.26003166E+00 0.51480950E+04</pdfrwt>
<totfact> 0.15838755E-02</totfact>
</mgrwt>
</event>
<event>
 6    1  0.3017327E-006  0.4088352E+04  0.7818608E-02  0.7986957E-01
          2   -1    0    0  501    0  0.00000000000E+00  0.00000000000E+00  0.16981654577E+04  0.16981654577E+04  0.00000000000E+00 0. -1.
         -2   -1    0    0    0  501 -0.00000000000E+00 -0.00000000000E+00 -0.24606876415E+04  0.24606876415E+04  0.00000000000E+00 0.  1.
         23    2    1    2    0    0 -0.14771912229E+04 -0.75556551001E+03  0.83113095234E+03  0.18582654639E+04  0.96947025366E+02 0.  0.
         11    1    3    3    0    0 -0.33885215125E+03 -0.18431665703E+03  0.14943238215E+03  0.41367069911E+03  0.00000000000E+00 0.  1.
        -11    1    3    3    0    0 -0.11383390716E+04 -0.57124885299E+03  0.68169857019E+03  0.14445947648E+04  0.00000000000E+00 0. -1.
         22    1    1    2    0    0  0.14771912229E+04  0.75556551001E+03 -0.15936531362E+04  0.23005876352E+04  0.00000000000E+00 0.  1.
<mgrwt>
<rscale>  0 0.40883516E+04</rscale>
<asrwt>0</asrwt>
<pdfrwt beam="1">  1        2 0.26125622E+00 0.40883516E+04</pdfrwt>
<pdfrwt beam="2">  1       -2 0.37856733E+00 0.40883516E+04</pdfrwt>
<totfact> 0.78721521E-02</totfact>
</mgrwt>
</event>
<event>
 6    1  0.3017327E-006  0.2207611E+04  0.7818608E-02  0.8515267E-01
         -2   -1    0    0    0  501 -0.00000000000E+00  0.00000000000E+00  0.36570314684E+03  0.36570314684E+03  0.00000000000E+00 0.  1.
          2   -1    0    0  501    0  0.00000000000E+00 -0.00000000000E+00 -0.33316273056E+04  0.33316273056E+04  0.00000000000E+00 0. -1.
         23    2    1    2    0    0  0.75604048108E+03  0.53209830596E+03 -0.24895717912E+04  0.26573124746E+04  0.92822776264E+02 0.  0.
         11    1    3    3    0    0  0.32741270140E+03  0.27922478501E+03 -0.10875700643E+04  0.11696042930E+04  0.00000000000E+00 0.  1.
        -11    1    3    3    0    0  0.42862777967E+03  0.25287352095E+03 -0.14020017269E+04  0.14877081816E+04  0.00000000000E+00 0. -1.
         22    1    1    2    0    0 -0.75604048108E+03 -0.53209830596E+03 -0.47635236758E+03  0.10400179779E+04  0.00000000000E+00 0. -1.
<mgrwt>
<rscale>  0 0.22076110E+04</rscale>
<asrwt>0</asrwt>
<pdfrwt beam="1">  1        2 0.51255805E+00 0.22076110E+04</pdfrwt>
<pdfrwt beam="2">  1       -2 0.56262022E-01 0.22076110E+04</pdfrwt>
<totfact> 0.28806819E+00</totfact>
</mgrwt>
</event>
<event>
 6    1  0.3017327E-006  0.2037388E+04  0.7818608E-02  0.8589337E-01
         -2   -1    0    0    0  501 -0.00000000000E+00  0.00000000000E+00  0.40301788951E+03  0.40301788951E+03  0.00000000000E+00 0.  1.
          2   -1    0    0  501    0  0.00000000000E+00 -0.00000000000E+00 -0.25749177509E+04  0.25749177509E+04  0.00000000000E+00 0. -1.
         23    2    1    2    0    0  0.73604589021E+03 -0.21201900115E+03 -0.20652897659E+04  0.22045784643E+04  0.89603452828E+02 0.  0.
         13    1    3    3    0    0  0.52740873796E+03 -0.12424464998E+03 -0.13647900786E+04  0.14684170622E+04  0.00000000000E+00 0. -1.
        -13    1    3    3    0    0  0.20863715225E+03 -0.87774351173E+02 -0.70049968728E+03  0.73616140207E+03  0.00000000000E+00 0.  1.
         22    1    1    2    0    0 -0.73604589021E+03  0.21201900115E+03 -0.10661009546E+03  0.77335717608E+03  0.00000000000E+00 0.  1.
<mgrwt>
<rscale>  0 0.20373884E+04</rscale>
<asrwt>0</asrwt>
<pdfrwt beam="1">  1        2 0.39614120E+00 0.20373884E+04</pdfrwt>
<pdfrwt beam="2">  1       -2 0.62002752E-01 0.20373884E+04</pdfrwt>
<totfact> 0.70478054E+00</totfact>
</mgrwt>
</event>
<event>
 6    1  0.3017327E-006  0.3904891E+04  0.7818608E-02  0.8024013E-01
         -2   -1    0    0    0  501 -0.00000000000E+00  0.00000000000E+00  0.12539750534E+04  0.12539750534E+04  0.00000000000E+00 0.  1.
          2   -1    0    0  501    0  0.00000000000E+00 -0.00000000000E+00 -0.30399681348E+04  0.30399681348E+04  0.00000000000E+00 0. -1.
         23    2    1    2    0    0 -0.83728040994E+03  0.74553419244E+03 -0.26497451442E+04  0.28786950323E+04  0.94212751357E+02 0.  0.
         11    1    3    3    0    0 -0.22938979161E+03  0.25363130120E+03 -0.86544847450E+03  0.93056411679E+03  0.00000000000E+00 0. -1.
        -11    1    3    3    0    0 -0.60789061833E+03  0.49190289125E+03 -0.17842966697E+04  0.19481309155E+04  0.00000000000E+00 0.  1.
         22    1    1    2    0    0  0.83728040994E+03 -0.74553419244E+03  0.86375206281E+03  0.14152481560E+04  0.00000000000E+00 0.  1.
<mgrwt>
<rscale>  0 0.39048914E+04</rscale>
<asrwt>0</asrwt>
<pdfrwt beam="1">  1        2 0.46768741E+00 0.39048914E+04</pdfrwt>
<pdfrwt beam="2">  1       -2 0.19291924E+00 0.39048914E+04</pdfrwt>
<totfact> 0.19341493E-01</totfact>
</mgrwt>
</event>
<event>
 6    1  0.3017327E-006  0.4806903E+04  0.7818608E-02  0.7859005E-01
         -2   -1    0    0    0  501 -0.00000000000E+00  0.00000000000E+00  0.41044797978E+04  0.41044797978E+04  0.00000000000E+00 0. -1.
          2   -1    0    0  501    0  0.00000000000E+00 -0.00000000000E+00 -0.14073841283E+04  0.14073841283E+04  0.00000000000E+00 0.  1.
         23    2    1    2    0    0  0.17907264723E+04 -0.11748200422E+04  0.10047214573E+03  0.21459528824E+04  0.90087131020E+02 0.  0.
         11    1    3    3    0    0  0.96977946090E+03 -0.60675374319E+03  0.91265723899E+02  0.11475851777E+04  0.00000000000E+00 0.  1.
        -11    1    3    3    0    0  0.82094701145E+03 -0.56806629901E+03  0.92064218304E+01  0.99836770475E+03  0.00000000000E+00 0. -1.
         22    1    1    2    0    0 -0.17907264723E+04  0.11748200422E+04  0.25966235238E+04  0.33659110438E+04  0.00000000000E+00 0. -1.
<mgrwt>
<rscale>  0 0.48069033E+04</rscale>
<asrwt>0</asrwt>
<pdfrwt beam="1">  1        2 0.21652064E+00 0.48069033E+04</pdfrwt>
<pdfrwt beam="2">  1       -2 0.63145843E+00 0.48069033E+04</pdfrwt>
<totfact> 0.41507073E-03</totfact>
</mgrwt>
</event>
<event>
 6    1  0.3017327E-006  0.2468181E+04  0.7818608E-02  0.8414410E-01
         -2   -1    0    0    0  501 -0.00000000000E+00  0.00000000000E+00  0.84957176764E+03  0.84957176764E+03  0.00000000000E+00 0.  1.
          2   -1    0    0  501    0  0.00000000000E+00 -0.00000000000E+00 -0.17926428678E+04  0.17926428678E+04  0.00000000000E+00 0. -1.
         23    2    1    2    0    0 -0.91611179223E+03 -0.82391032924E+03 -0.50330136553E+03  0.13339767114E+04  0.89958631658E+02 0.  0.
         13    1    3    3    0    0 -0.20250101399E+02 -0.25481865149E+02  0.34045661113E+00  0.32550084007E+02  0.00000000000E+00 0. -1.
        -13    1    3    3    0    0 -0.89586169083E+03 -0.79842846409E+03 -0.50364182214E+03  0.13014266274E+04  0.00000000000E+00 0.  1.
         22    1    1    2    0    0  0.91611179223E+03  0.82391032924E+03 -0.43976973462E+03  0.13082379241E+04  0.00000000000E+00 0.  1.
<mgrwt>
<rscale>  0 0.24681805E+04</rscale>
<asrwt>0</asrwt>
<pdfrwt beam="1">  1        2 0.27579121E+00 0.24681805E+04</pdfrwt>
<pdfrwt beam="2">  1       -2 0.13070335E+00 0.24681805E+04</pdfrwt>
<totfact> 0.33371292E+00</totfact>
</mgrwt>
</event>
<event>
 6    1  0.3017327E-006  0.2144899E+04  0.7818608E-02  0.8541719E-01
          2   -1    0    0  501    0  0.00000000000E+00  0.00000000000E+00  0.15171245216E+04  0.15171245216E+04  0.00000000000E+00 0. -1.
         -2   -1    0    0    0  501 -0.00000000000E+00 -0.00000000000E+00 -0.75811071104E+03  0.75811071104E+03  0.00000000000E+00 0.  1.
         23    2    1    2    0    0 -0.95789447605E+03 -0.47660758008E+03  0.34818497406E+03  0.11291562888E+04  0.95102763592E+02 0.  0.
         11    1    3    3    0    0 -0.10396870037E+03 -0.28300545882E+02  0.55889920618E+02  0.12138407960E+03  0.00000000000E+00 0. -1.
        -11    1    3    3    0    0 -0.85392577568E+03 -0.44830703420E+03  0.29229505344E+03  0.10077722092E+04  0.00000000000E+00 0.  1.
         22    1    1    2    0    0  0.95789447605E+03  0.47660758008E+03  0.41082883645E+03  0.11460789438E+04  0.00000000000E+00 0. -1.
<mgrwt>
<rscale>  0 0.21448994E+04</rscale>
<asrwt>0</asrwt>
<pdfrwt beam="1">  1        2 0.23340377E+00 0.21448994E+04</pdfrwt>
<pdfrwt beam="2">  1       -2 0.11663242E+00 0.21448994E+04</pdfrwt>
<totfact> 0.64942466E+00</totfact>
</mgrwt>
</event>
<event>
 6    1  0.3017327E-006  0.1270324E+04  0.7818608E-02  0.9053436E-01
         -2   -1    0    0    0  501 -0.00000000000E+00  0.00000000000E+00  0.16703662570E+03  0.16703662570E+03  0.00000000000E+00 0.  1.
          2   -1    0    0  501    0  0.00000000000E+00 -0.00000000000E+00 -0.24152222442E+04  0.24152222442E+04  0.00000000000E+00 0. -1.
         23    2    1    2    0    0  0.42787517070E+03  0.24724441860E+03 -0.19305787479E+04  0.19948228406E+04  0.89313490111E+02 0.  0.
         11    1    3    3    0    0  0.19880396173E+03  0.11525173514E+03 -0.10768404063E+04  0.11010863900E+04  0.00000000000E+00 0.  1.
        -11    1    3    3    0    0  0.22907120897E+03  0.13199268345E+03 -0.85373834157E+03  0.89373645060E+03  0.00000000000E+00 0. -1.
         22    1    1    2    0    0 -0.42787517070E+03 -0.24724441860E+03 -0.31760687064E+03  0.58743602929E+03  0.00000000000E+00 0.  1.
<mgrwt>
<rscale>  0 0.12703237E+04</rscale>
<asrwt>0</asrwt>
<pdfrwt beam="1">  1        2 0.37157262E+00 0.12703237E+04</pdfrwt>
<pdfrwt beam="2">  1       -2 0.25697944E-01 0.12703237E+04</pdfrwt>
<totfact> 0.52439966E+01</totfact>
</mgrwt>
</event>
<event>
 6    1  0.3017327E-006  0.2197513E+04  0.7818608E-02  0.8519464E-01
         -1   -1    0    0    0  501 -0.00000000000E+00  0.00000000000E+00  0.56047406145E+03  0.56047406145E+03  0.00000000000E+00 0.  1.
          1   -1    0    0  501    0  0.00000000000E+00 -0.00000000000E+00 -0.21540076252E+04  0.21540076252E+04  0.00000000000E+00 0. -1.
         23    2    1    2    0    0 -0.21347412249E+03  0.10736468084E+04 -0.70998974667E+03  0.13077342513E+04  0.88287947335E+02 0.  0.
         11    1    3    3    0    0 -0.18090818477E+03  0.69595414417E+03 -0.47029928770E+03  0.85922136968E+03  0.00000000000E+00 0. -1.
        -11    1    3    3    0    0 -0.32565937723E+02  0.37769266420E+03 -0.23969045897E+03  0.44851288165E+03  0.00000000000E+00 0.  1.
         22    1    1    2    0    0  0.21347412249E+03 -0.10736468084E+04 -0.88354381709E+03  0.14067474353E+04  0.00000000000E+00 0.  1.
<mgrwt>
<rscale>  0 0.21975126E+04</rscale>
<asrwt>0</asrwt>
<pdfrwt beam="1">  1        1 0.33138579E+00 0.21975126E+04</pdfrwt>
<pdfrwt beam="2">  1       -1 0.86226777E-01 0.21975126E+04</pdfrwt>
<totfact> 0.28332989E+00</totfact>
</mgrwt>
</event>
<event>
 6    1  0.3017327E-006  0.4542335E+04  0.7818608E-02  0.7903267E-01
         -2   -1    0    0    0  501 -0.00000000000E+00  0.00000000000E+00  0.29072133623E+04  0.29072133623E+04  0.00000000000E+00 0.  1.
          2   -1    0    0  501    0  0.00000000000E+00 -0.00000000000E+00 -0.17742766934E+04  0.17742766934E+04  0.00000000000E+00 0. -1.
         23    2    1    2    0    0 -0.10491106139E+04  0.53066740207E+03  0.25683011296E+04  0.28260892616E+04  0.91481418224E+02 0.  0.
         13    1    3    3    0    0 -0.38423876427E+03  0.16416843943E+03  0.83042558482E+03  0.92962215787E+03  0.00000000000E+00 0. -1.
        -13    1    3    3    0    0 -0.66487184967E+03  0.36649896264E+03  0.17378755448E+04  0.18964671037E+04  0.00000000000E+00 0.  1.
         22    1    1    2    0    0  0.10491106139E+04 -0.53066740207E+03 -0.14353644607E+04  0.18554007942E+04  0.00000000000E+00 0. -1.
<mgrwt>
<rscale>  0 0.45423346E+04</rscale>
<asrwt>0</asrwt>
<pdfrwt beam="1">  1        2 0.27296564E+00 0.45423346E+04</pdfrwt>
<pdfrwt beam="2">  1       -2 0.44726360E+00 0.45423346E+04</pdfrwt>
<totfact> 0.24398959E-02</totfact>
</mgrwt>
</event>
<event>
 6    1  0.3017327E-006  0.2040635E+04  0.7818608E-02  0.8587854E-01
         -2   -1    0    0    0  501 -0.00000000000E+00  0.00000000000E+00  0.82746079922E+03  0.82746079922E+03  0.00000000000E+00 0.  1.
          2   -1    0    0  501    0  0.00000000000E+00 -0.00000000000E+00 -0.12581240238E+04  0.12581240238E+04  0.00000000000E+00 0. -1.
         23    2    1    2    0    0  0.16290111606E+03  0.99819748557E+03 -0.33808838417E+03  0.10699544302E+04  0.86969726196E+02 0.  0.
         13    1    3    3    0    0  0.23949074130E+02  0.11938256252E+03 -0.71224957366E+02  0.14106292545E+03  0.00000000000E+00 0. -1.
        -13    1    3    3    0    0  0.13895204193E+03  0.87881492306E+03 -0.26686342681E+03  0.92889150470E+03  0.00000000000E+00 0.  1.
         22    1    1    2    0    0 -0.16290111606E+03 -0.99819748557E+03 -0.92574840402E+02  0.10156303929E+04  0.00000000000E+00 0.  1.
<mgrwt>
<rscale>  0 0.20406355E+04</rscale>
<asrwt>0</asrwt>
<pdfrwt beam="1">  1        2 0.19355754E+00 0.20406355E+04</pdfrwt>
<pdfrwt beam="2">  1       -2 0.12730166E+00 0.20406355E+04</pdfrwt>
<totfact> 0.74197260E+00</totfact>
</mgrwt>
</event>
<event>
 6    1  0.3017327E-006  0.7199730E+03  0.7818608E-02  0.9683672E-01
         -2   -1    0    0    0  501 -0.00000000000E+00  0.00000000000E+00  0.78729370263E+03  0.78729370263E+03  0.00000000000E+00 0.  1.
          2   -1    0    0  501    0  0.00000000000E+00 -0.00000000000E+00 -0.16460220682E+03  0.16460220682E+03  0.00000000000E+00 0. -1.
         23    2    1    2    0    0  0.20829200285E+03  0.65889956127E+01 -0.64367079593E+02  0.23392762370E+03  0.84557902523E+02 0.  0.
         11    1    3    3    0    0  0.12654844542E+03  0.34109858182E+02 -0.88717197611E+01  0.13136475507E+03  0.00000000000E+00 0.  1.
        -11    1    3    3    0    0  0.81743557426E+02 -0.27520862569E+02 -0.55495359832E+02  0.10256286862E+03  0.00000000000E+00 0. -1.
         22    1    1    2    0    0 -0.20829200285E+03 -0.65889956127E+01  0.68705857541E+03  0.71796828576E+03  0.00000000000E+00 0.  1.
<mgrwt>
<rscale>  0 0.71997300E+03</rscale>
<asrwt>0</asrwt>
<pdfrwt beam="1">  1        2 0.25323417E-01 0.71997300E+03</pdfrwt>
<pdfrwt beam="2">  1       -2 0.12112211E+00 0.71997300E+03</pdfrwt>
<totfact> 0.11319739E+02</totfact>
</mgrwt>
</event>
<event>
 6    1  0.3017327E-006  0.4159457E+04  0.7818608E-02  0.7973129E-01
          2   -1    0    0  501    0  0.00000000000E+00  0.00000000000E+00  0.15309135477E+04  0.15309135477E+04  0.00000000000E+00 0.  1.
         -2   -1    0    0    0  501 -0.00000000000E+00 -0.00000000000E+00 -0.28252877734E+04  0.28252877734E+04  0.00000000000E+00 0. -1.
         23    2    1    2    0    0  0.86657228529E+03 -0.67291740980E+03  0.12016430664E+04  0.16296893207E+04  0.90420445788E+02 0.  0.
         13    1    3    3    0    0  0.68042898878E+03 -0.51673533780E+03  0.98741136355E+03  0.13057489111E+04  0.00000000000E+00 0. -1.
        -13    1    3    3    0    0  0.18614329651E+03 -0.15618207201E+03  0.21423170286E+03  0.32394040958E+03  0.00000000000E+00 0.  1.
         22    1    1    2    0    0 -0.86657228529E+03  0.67291740980E+03 -0.24960172920E+04  0.27265120004E+04  0.00000000000E+00 0. -1.
<mgrwt>
<rscale>  0 0.41594573E+04</rscale>
<asrwt>0</asrwt>
<pdfrwt beam="1">  1        2 0.23552516E+00 0.41594573E+04</pdfrwt>
<pdfrwt beam="2">  1       -2 0.43465966E+00 0.41594573E+04</pdfrwt>
<totfact> 0.41649895E-02</totfact>
</mgrwt>
</event>
<event>
 6    1  0.3017327E-006  0.1386894E+04  0.7818608E-02  0.8963360E-01
          2   -1    0    0  501    0  0.00000000000E+00  0.00000000000E+00  0.87029487523E+03  0.87029487523E+03  0.00000000000E+00 0. -1.
         -2   -1    0    0    0  501 -0.00000000000E+00 -0.00000000000E+00 -0.55253545294E+03  0.55253545294E+03  0.00000000000E+00 0.  1.
         23    2    1    2    0    0  0.65344724688E+02 -0.36642315847E+03 -0.43690767554E+03  0.58136833102E+03  0.92547043506E+02 0.  0.
         13    1    3    3    0    0 -0.68423171906E+01 -0.18389347006E+03 -0.17389515095E+03  0.25318599716E+03  0.00000000000E+00 0. -1.
        -13    1    3    3    0    0  0.72187041878E+02 -0.18252968841E+03 -0.26301252459E+03  0.32818233386E+03  0.00000000000E+00 0.  1.
         22    1    1    2    0    0 -0.65344724688E+02  0.36642315847E+03  0.75466709783E+03  0.84146199715E+03  0.00000000000E+00 0. -1.
<mgrwt>
<rscale>  0 0.13868940E+04</rscale>
<asrwt>0</asrwt>
<pdfrwt beam="1">  1        2 0.13389152E+00 0.13868940E+04</pdfrwt>
<pdfrwt beam="2">  1       -2 0.85005455E-01 0.13868940E+04</pdfrwt>
<totfact> 0.36073712E+01</totfact>
</mgrwt>
</event>
<event>
 6    1  0.3017327E-006  0.4033162E+04  0.7818608E-02  0.7997890E-01
          2   -1    0    0  501    0  0.00000000000E+00  0.00000000000E+00  0.21290560034E+04  0.21290560034E+04  0.00000000000E+00 0. -1.
         -2   -1    0    0    0  501 -0.00000000000E+00 -0.00000000000E+00 -0.19100477007E+04  0.19100477007E+04  0.00000000000E+00 0.  1.
         23    2    1    2    0    0  0.88028355984E+03 -0.17443989062E+04  0.60520720683E+03  0.20473767441E+04  0.87459016435E+02 0.  0.
         13    1    3    3    0    0  0.61593732071E+03 -0.11383636784E+04  0.38123199023E+03  0.13492918431E+04  0.00000000000E+00 0.  1.
        -13    1    3    3    0    0  0.26434623913E+03 -0.60603522776E+03  0.22397521659E+03  0.69808490105E+03  0.00000000000E+00 0. -1.
         22    1    1    2    0    0 -0.88028355984E+03  0.17443989062E+04 -0.38619890407E+03  0.19917269600E+04  0.00000000000E+00 0. -1.
<mgrwt>
<rscale>  0 0.40331618E+04</rscale>
<asrwt>0</asrwt>
<pdfrwt beam="1">  1        2 0.32754708E+00 0.40331618E+04</pdfrwt>
<pdfrwt beam="2">  1       -2 0.29385349E+00 0.40331618E+04</pdfrwt>
<totfact> 0.15434311E-01</totfact>
</mgrwt>
</event>
<event>
 6    1  0.3017327E-006  0.7752833E+03  0.7818608E-02  0.9596499E-01
          2   -1    0    0  501    0  0.00000000000E+00  0.00000000000E+00  0.74295184295E+03  0.74295184295E+03  0.00000000000E+00 0. -1.
         -2   -1    0    0    0  501 -0.00000000000E+00 -0.00000000000E+00 -0.20225541959E+03  0.20225541959E+03  0.00000000000E+00 0.  1.
         23    2    1    2    0    0 -0.12135811919E+03 -0.27654436722E+03 -0.11333627641E+02  0.31596823216E+03  0.92211129954E+02 0.  0.
         11    1    3    3    0    0 -0.29770177533E+02 -0.11300283019E+03 -0.45563918482E+02  0.12542716519E+03  0.00000000000E+00 0.  1.
        -11    1    3    3    0    0 -0.91587941659E+02 -0.16354153703E+03  0.34230290841E+02  0.19054106697E+03  0.00000000000E+00 0. -1.
         22    1    1    2    0    0  0.12135811919E+03  0.27654436722E+03  0.55203005101E+03  0.62923903037E+03  0.00000000000E+00 0. -1.
<mgrwt>
<rscale>  0 0.77528327E+03</rscale>
<asrwt>0</asrwt>
<pdfrwt beam="1">  1        2 0.11430028E+00 0.77528327E+03</pdfrwt>
<pdfrwt beam="2">  1       -2 0.31116219E-01 0.77528327E+03</pdfrwt>
<totfact> 0.36537224E+02</totfact>
</mgrwt>
</event>
<event>
 6    1  0.3017327E-006  0.2233567E+04  0.7818608E-02  0.8504585E-01
         -2   -1    0    0    0  501 -0.00000000000E+00  0.00000000000E+00  0.23885105422E+03  0.23885105422E+03  0.00000000000E+00 0.  1.
          2   -1    0    0  501    0  0.00000000000E+00 -0.00000000000E+00 -0.52216846726E+04  0.52216846726E+04  0.00000000000E+00 0. -1.
         23    2    1    2    0    0  0.25773958280E+03  0.57327357843E+03 -0.47468762318E+04  0.47891579073E+04  0.90151054713E+02 0.  0.
         11    1    3    3    0    0  0.20562391284E+03  0.48074490549E+03 -0.36704485668E+04  0.37075044894E+04  0.00000000000E+00 0.  1.
        -11    1    3    3    0    0  0.52115669961E+02  0.92528672941E+02 -0.10764276651E+04  0.10816534179E+04  0.00000000000E+00 0. -1.
         22    1    1    2    0    0 -0.25773958280E+03 -0.57327357843E+03 -0.23595738655E+03  0.67137781951E+03  0.00000000000E+00 0.  1.
<mgrwt>
<rscale>  0 0.22335666E+04</rscale>
<asrwt>0</asrwt>
<pdfrwt beam="1">  1        2 0.80333604E+00 0.22335666E+04</pdfrwt>
<pdfrwt beam="2">  1       -2 0.36746319E-01 0.22335666E+04</pdfrwt>
<totfact> 0.11128189E-01</totfact>
</mgrwt>
</event>
<event>
 6    1  0.3017327E-006  0.4454961E+04  0.7818608E-02  0.7918570E-01
         -2   -1    0    0    0  501 -0.00000000000E+00  0.00000000000E+00  0.12728885961E+04  0.12728885961E+04  0.00000000000E+00 0.  1.
          2   -1    0    0  501    0  0.00000000000E+00 -0.00000000000E+00 -0.38979600992E+04  0.38979600992E+04  0.00000000000E+00 0. -1.
         23    2    1    2    0    0  0.10649441647E+04 -0.17335579506E+04 -0.23629360219E+04  0.31194968842E+04  0.92005026338E+02 0.  0.
         13    1    3    3    0    0  0.43087965256E+03 -0.65360884741E+03 -0.85245444922E+03  0.11573851513E+04  0.00000000000E+00 0. -1.
        -13    1    3    3    0    0  0.63406451219E+03 -0.10799491032E+04 -0.15104815727E+04  0.19621117329E+04  0.00000000000E+00 0.  1.
         22    1    1    2    0    0 -0.10649441647E+04  0.17335579506E+04 -0.26213548123E+03  0.20513518110E+04  0.00000000000E+00 0.  1.
<mgrwt>
<rscale>  0 0.44549608E+04</rscale>
<asrwt>0</asrwt>
<pdfrwt beam="1">  1        2 0.59968616E+00 0.44549608E+04</pdfrwt>
<pdfrwt beam="2">  1       -2 0.19582902E+00 0.44549608E+04</pdfrwt>
<totfact> 0.44302402E-02</totfact>
</mgrwt>
</event>
<event>
 6    1  0.3017327E-006  0.1457243E+04  0.7818608E-02  0.8913394E-01
          2   -1    0    0  501    0  0.00000000000E+00  0.00000000000E+00  0.17367227423E+04  0.17367227423E+04  0.00000000000E+00 0.  1.
         -2   -1    0    0    0  501 -0.00000000000E+00 -0.00000000000E+00 -0.30568452117E+03  0.30568452117E+03  0.00000000000E+00 0. -1.
         23    2    1    2    0    0  0.42290266129E+03 -0.58853295587E+03  0.66409034050E+03  0.98721687656E+03  0.91452063687E+02 0.  0.
         11    1    3    3    0    0  0.26764687363E+03 -0.34577697869E+03  0.45606700869E+03  0.63181776200E+03  0.00000000000E+00 0. -1.
        -11    1    3    3    0    0  0.15525578766E+03 -0.24275597718E+03  0.20802333181E+03  0.35539911456E+03  0.00000000000E+00 0.  1.
         22    1    1    2    0    0 -0.42290266129E+03  0.58853295587E+03  0.76694788067E+03  0.10551903870E+04  0.00000000000E+00 0.  1.
<mgrwt>
<rscale>  0 0.14572430E+04</rscale>
<asrwt>0</asrwt>
<pdfrwt beam="1">  1        2 0.26718811E+00 0.14572430E+04</pdfrwt>
<pdfrwt beam="2">  1       -2 0.47028389E-01 0.14572430E+04</pdfrwt>
<totfact> 0.38863189E+01</totfact>
</mgrwt>
</event>
<event>
 6    1  0.3017327E-006  0.2598486E+04  0.7818608E-02  0.8368716E-01
         -2   -1    0    0    0  501 -0.00000000000E+00  0.00000000000E+00  0.12898378328E+04  0.12898378328E+04  0.00000000000E+00 0.  1.
          2   -1    0    0  501    0  0.00000000000E+00 -0.00000000000E+00 -0.13087165214E+04  0.13087165214E+04  0.00000000000E+00 0. -1.
         23    2    1    2    0    0  0.96438214735E+03 -0.27891868055E+03  0.81311108557E+03  0.12947002440E+04  0.85267390472E+02 0.  0.
         13    1    3    3    0    0  0.52156548874E+03 -0.19379614525E+03  0.43656354636E+03  0.70723068016E+03  0.00000000000E+00 0. -1.
        -13    1    3    3    0    0  0.44281665861E+03 -0.85122535303E+02  0.37654753921E+03  0.58746956385E+03  0.00000000000E+00 0.  1.
         22    1    1    2    0    0 -0.96438214735E+03  0.27891868055E+03 -0.83198977413E+03  0.13038541102E+04  0.00000000000E+00 0. -1.
<mgrwt>
<rscale>  0 0.25984858E+04</rscale>
<asrwt>0</asrwt>
<pdfrwt beam="1">  1        2 0.20134100E+00 0.25984858E+04</pdfrwt>
<pdfrwt beam="2">  1       -2 0.19843659E+00 0.25984858E+04</pdfrwt>
<totfact> 0.19686647E+00</totfact>
</mgrwt>
</event>
<event>
 6    1  0.3017327E-006  0.3029381E+04  0.7818608E-02  0.8235390E-01
          2   -1    0    0  501    0  0.00000000000E+00  0.00000000000E+00  0.18688194187E+04  0.18688194187E+04  0.00000000000E+00 0. -1.
         -2   -1    0    0    0  501 -0.00000000000E+00 -0.00000000000E+00 -0.12276668756E+04  0.12276668756E+04  0.00000000000E+00 0.  1.
         23    2    1    2    0    0 -0.67500326929E+03  0.53354747856E+03 -0.95128370218E+03  0.12864709572E+04  0.98815566726E+02 0.  0.
         11    1    3    3    0    0 -0.15789718415E+03  0.94619519171E+02 -0.15653602817E+03  0.24163588783E+03  0.00000000000E+00 0.  1.
        -11    1    3    3    0    0 -0.51710608514E+03  0.43892795939E+03 -0.79474767401E+03  0.10448350694E+04  0.00000000000E+00 0. -1.
         22    1    1    2    0    0  0.67500326929E+03 -0.53354747856E+03  0.15924362453E+04  0.18100153371E+04  0.00000000000E+00 0. -1.
<mgrwt>
<rscale>  0 0.30293813E+04</rscale>
<asrwt>0</asrwt>
<pdfrwt beam="1">  1        2 0.28751068E+00 0.30293813E+04</pdfrwt>
<pdfrwt beam="2">  1       -2 0.18887183E+00 0.30293813E+04</pdfrwt>
<totfact> 0.10645237E+00</totfact>
</mgrwt>
</event>
<event>
 6    1  0.3017327E-006  0.4515920E+04  0.7818608E-02  0.7907856E-01
         -2   -1    0    0    0  501 -0.00000000000E+00  0.00000000000E+00  0.21271725306E+04  0.21271725306E+04  0.00000000000E+00 0.  1.
          2   -1    0    0  501    0  0.00000000000E+00 -0.00000000000E+00 -0.23967890840E+04  0.23967890840E+04  0.00000000000E+00 0. -1.
         23    2    1    2    0    0  0.39521028215E+03  0.16641773189E+04 -0.16098346096E+04  0.23509770877E+04  0.99239513016E+02 0.  0.
         13    1    3    3    0    0  0.22279526505E+03  0.72947834467E+03 -0.73096358540E+03  0.10564488386E+04  0.00000000000E+00 0.  1.
        -13    1    3    3    0    0  0.17241501710E+03  0.93469897422E+03 -0.87887102415E+03  0.12945282491E+04  0.00000000000E+00 0. -1.
         22    1    1    2    0    0 -0.39521028215E+03 -0.16641773189E+04  0.13402180562E+04  0.21729845269E+04  0.00000000000E+00 0.  1.
<mgrwt>
<rscale>  0 0.45159202E+04</rscale>
<asrwt>0</asrwt>
<pdfrwt beam="1">  1        2 0.36873678E+00 0.45159202E+04</pdfrwt>
<pdfrwt beam="2">  1       -2 0.32725731E+00 0.45159202E+04</pdfrwt>
<totfact> 0.65225945E-02</totfact>
</mgrwt>
</event>
<event>
 6    1  0.3017327E-006  0.5118034E+03  0.7818608E-02  0.1010743E+00
         -2   -1    0    0    0  501 -0.00000000000E+00  0.00000000000E+00  0.79337698720E+02  0.79337698720E+02  0.00000000000E+00 0. -1.
          2   -1    0    0  501    0  0.00000000000E+00 -0.00000000000E+00 -0.82540429357E+03  0.82540429357E+03  0.00000000000E+00 0.  1.
         23    2    1    2    0    0 -0.44837473073E+02  0.19015542051E+03 -0.65423967461E+03  0.68886780157E+03  0.91322578074E+02 0.  0.
         13    1    3    3    0    0 -0.74888101876E+01  0.13482788182E+03 -0.30875179351E+03  0.33699007402E+03  0.00000000000E+00 0. -1.
        -13    1    3    3    0    0 -0.37348662886E+02  0.55327538684E+02 -0.34548788110E+03  0.35187772754E+03  0.00000000000E+00 0.  1.
         22    1    1    2    0    0  0.44837473073E+02 -0.19015542051E+03 -0.91826920243E+02  0.21587419072E+03  0.00000000000E+00 0. -1.
<mgrwt>
<rscale>  0 0.51180339E+03</rscale>
<asrwt>0</asrwt>
<pdfrwt beam="1">  1        2 0.12698527E+00 0.51180339E+03</pdfrwt>
<pdfrwt beam="2">  1       -2 0.12205800E-01 0.51180339E+03</pdfrwt>
<totfact> 0.16399258E+03</totfact>
</mgrwt>
</event>
<event>
 6    1  0.3017327E-006  0.3547320E+04  0.7818608E-02  0.8102666E-01
          2   -1    0    0  501    0  0.00000000000E+00  0.00000000000E+00  0.22169896355E+04  0.22169896355E+04  0.00000000000E+00 0. -1.
         -2   -1    0    0    0  501 -0.00000000000E+00 -0.00000000000E+00 -0.14189829062E+04  0.14189829062E+04  0.00000000000E+00 0.  1.
         23    2    1    2    0    0  0.87468849739E+02  0.13965440850E+04  0.15144374901E+04  0.20639486182E+04  0.91524893448E+02 0.  0.
         13    1    3    3    0    0  0.63281953870E+02  0.38025587950E+03  0.43239761104E+03  0.57928130784E+03  0.00000000000E+00 0.  1.
        -13    1    3    3    0    0  0.24186895869E+02  0.10162882055E+04  0.10820398790E+04  0.14846673103E+04  0.00000000000E+00 0. -1.
         22    1    1    2    0    0 -0.87468849739E+02 -0.13965440850E+04 -0.71643076075E+03  0.15720239235E+04  0.00000000000E+00 0.  1.
<mgrwt>
<rscale>  0 0.35473203E+04</rscale>
<asrwt>0</asrwt>
<pdfrwt beam="1">  1        2 0.34107533E+00 0.35473203E+04</pdfrwt>
<pdfrwt beam="2">  1       -2 0.21830506E+00 0.35473203E+04</pdfrwt>
<totfact> 0.41891801E-01</totfact>
</mgrwt>
</event>
<event>
 6    1  0.3017327E-006  0.3063663E+04  0.7818608E-02  0.8225782E-01
          2   -1    0    0  501    0  0.00000000000E+00  0.00000000000E+00  0.34483710329E+04  0.34483710329E+04  0.00000000000E+00 0.  1.
         -2   -1    0    0    0  501 -0.00000000000E+00 -0.00000000000E+00 -0.68046849169E+03  0.68046849169E+03  0.00000000000E+00 0. -1.
         23    2    1    2    0    0  0.35758286387E+03  0.13410930229E+04  0.22543724579E+04  0.26489377889E+04  0.90995770620E+02 0.  0.
         11    1    3    3    0    0  0.10835991111E+03  0.32288461045E+03  0.61685991327E+03  0.70463642725E+03  0.00000000000E+00 0. -1.
        -11    1    3    3    0    0  0.24922295276E+03  0.10182084125E+04  0.16375125446E+04  0.19443013617E+04  0.00000000000E+00 0.  1.
         22    1    1    2    0    0 -0.35758286387E+03 -0.13410930229E+04  0.51353008331E+03  0.14799017356E+04  0.00000000000E+00 0. -1.
<mgrwt>
<rscale>  0 0.30636631E+04</rscale>
<asrwt>0</asrwt>
<pdfrwt beam="1">  1        2 0.53051861E+00 0.30636631E+04</pdfrwt>
<pdfrwt beam="2">  1       -2 0.10468746E+00 0.30636631E+04</pdfrwt>
<totfact> 0.55624376E-01</totfact>
</mgrwt>
</event>
<event>
 6    1  0.3017327E-006  0.1759263E+04  0.7818608E-02  0.8728268E-01
         -2   -1    0    0    0  501 -0.00000000000E+00  0.00000000000E+00  0.97507109765E+03  0.97507109765E+03  0.00000000000E+00 0.  1.
          2   -1    0    0  501    0  0.00000000000E+00 -0.00000000000E+00 -0.79353390165E+03  0.79353390165E+03  0.00000000000E+00 0. -1.
         23    2    1    2    0    0  0.86117271457E+03 -0.50736705858E+02 -0.69818591998E+02  0.87006596854E+03  0.89148730680E+02 0.  0.
         13    1    3    3    0    0  0.34155092480E+03 -0.31551500953E+02 -0.70075108286E+02  0.35009006304E+03  0.00000000000E+00 0.  1.
        -13    1    3    3    0    0  0.51962178977E+03 -0.19185204905E+02  0.25651628747E+00  0.51997590549E+03  0.00000000000E+00 0. -1.
         22    1    1    2    0    0 -0.86117271457E+03  0.50736705858E+02  0.25135578800E+03  0.89853903076E+03  0.00000000000E+00 0.  1.
<mgrwt>
<rscale>  0 0.17592635E+04</rscale>
<asrwt>0</asrwt>
<pdfrwt beam="1">  1        2 0.12208214E+00 0.17592635E+04</pdfrwt>
<pdfrwt beam="2">  1       -2 0.15001094E+00 0.17592635E+04</pdfrwt>
<totfact> 0.98752919E+00</totfact>
</mgrwt>
</event>
<event>
 6    1  0.3017327E-006  0.2269650E+04  0.7818608E-02  0.8489985E-01
          2   -1    0    0  501    0  0.00000000000E+00  0.00000000000E+00  0.21577270062E+04  0.21577270062E+04  0.00000000000E+00 0. -1.
         -2   -1    0    0    0  501 -0.00000000000E+00 -0.00000000000E+00 -0.59684485069E+03  0.59684485069E+03  0.00000000000E+00 0.  1.
         23    2    1    2    0    0  0.72068693309E+02  0.11147965001E+04  0.10108147162E+04  0.15093653195E+04  0.92044249477E+02 0.  0.
         13    1    3    3    0    0  0.11258585163E+02  0.51961637402E+03  0.52413138542E+03  0.73813389102E+03  0.00000000000E+00 0. -1.
        -13    1    3    3    0    0  0.60810108146E+02  0.59518012606E+03  0.48668333082E+03  0.77123142843E+03  0.00000000000E+00 0.  1.
         22    1    1    2    0    0 -0.72068693309E+02 -0.11147965001E+04  0.55006743929E+03  0.12452065375E+04  0.00000000000E+00 0.  1.
<mgrwt>
<rscale>  0 0.22696504E+04</rscale>
<asrwt>0</asrwt>
<pdfrwt beam="1">  1        2 0.33195800E+00 0.22696504E+04</pdfrwt>
<pdfrwt beam="2">  1       -2 0.91822286E-01 0.22696504E+04</pdfrwt>
<totfact> 0.50005560E+00</totfact>
</mgrwt>
</event>
<event>
 6    1  0.3017327E-006  0.2499008E+04  0.7818608E-02  0.8403339E-01
         -2   -1    0    0    0  501 -0.00000000000E+00  0.00000000000E+00  0.20243478922E+04  0.20243478922E+04  0.00000000000E+00 0.  1.
          2   -1    0    0  501    0  0.00000000000E+00 -0.00000000000E+00 -0.77124126336E+03  0.77124126336E+03  0.00000000000E+00 0. -1.
         23    2    1    2    0    0 -0.11249920252E+04 -0.45069462682E+02  0.12293615512E+04  0.16694443417E+04  0.89868087699E+02 0.  0.
         11    1    3    3    0    0 -0.23380583576E+03 -0.32566524579E+02  0.30059770852E+03  0.38221032132E+03  0.00000000000E+00 0. -1.
        -11    1    3    3    0    0 -0.89118618940E+03 -0.12502938102E+02  0.92876384269E+03  0.12872340203E+04  0.00000000000E+00 0.  1.
         22    1    1    2    0    0  0.11249920252E+04  0.45069462682E+02  0.23745077624E+02  0.11261448139E+04  0.00000000000E+00 0. -1.
<mgrwt>
<rscale>  0 0.24990083E+04</rscale>
<asrwt>0</asrwt>
<pdfrwt beam="1">  1        2 0.11865250E+00 0.24990083E+04</pdfrwt>
<pdfrwt beam="2">  1       -2 0.31143814E+00 0.24990083E+04</pdfrwt>
<totfact> 0.87222572E-01</totfact>
</mgrwt>
</event>
<event>
 6    1  0.3017327E-006  0.1522483E+04  0.7818608E-02  0.8869638E-01
         -1   -1    0    0    0  501 -0.00000000000E+00  0.00000000000E+00  0.24975469220E+03  0.24975469220E+03  0.00000000000E+00 0.  1.
          1   -1    0    0  501    0  0.00000000000E+00 -0.00000000000E+00 -0.23202321469E+04  0.23202321469E+04  0.00000000000E+00 0. -1.
         23    2    1    2    0    0 -0.47120483310E+03  0.58412625226E+03 -0.12231140316E+04  0.14380582883E+04  0.93628162794E+02 0.  0.
         11    1    3    3    0    0 -0.35796686155E+02  0.91217691576E+02 -0.17929734046E+03  0.20432720400E+03  0.00000000000E+00 0.  1.
        -11    1    3    3    0    0 -0.43540814695E+03  0.49290856068E+03 -0.10438166912E+04  0.12337310843E+04  0.00000000000E+00 0. -1.
         22    1    1    2    0    0  0.47120483310E+03 -0.58412625226E+03 -0.84736342304E+03  0.11319285508E+04  0.00000000000E+00 0.  1.
<mgrwt>
<rscale>  0 0.15224833E+04</rscale>
<asrwt>0</asrwt>
<pdfrwt beam="1">  1        1 0.35695878E+00 0.15224833E+04</pdfrwt>
<pdfrwt beam="2">  1       -1 0.38423801E-01 0.15224833E+04</pdfrwt>
<totfact> 0.11428397E+01</totfact>
</mgrwt>
</event>
<event>
 6    1  0.3017327E-006  0.2272490E+04  0.7818608E-02  0.8488848E-01
          2   -1    0    0  501    0  0.00000000000E+00  0.00000000000E+00  0.17861086657E+04  0.17861086657E+04  0.00000000000E+00 0.  1.
         -2   -1    0    0    0  501 -0.00000000000E+00 -0.00000000000E+00 -0.72282985589E+03  0.72282985589E+03  0.00000000000E+00 0. -1.
         23    2    1    2    0    0  0.94705960048E+03 -0.60584121100E+03  0.36495176747E+03  0.11854483940E+04  0.90181163982E+02 0.  0.
         13    1    3    3    0    0  0.88478840371E+03 -0.53981769367E+03  0.32439014483E+03  0.10860398831E+04  0.00000000000E+00 0.  1.
        -13    1    3    3    0    0  0.62271196776E+02 -0.66023517335E+02  0.40561622646E+02  0.99408510807E+02  0.00000000000E+00 0. -1.
         22    1    1    2    0    0 -0.94705960048E+03  0.60584121100E+03  0.69832704230E+03  0.13234901276E+04  0.00000000000E+00 0. -1.
<mgrwt>
<rscale>  0 0.22724900E+04</rscale>
<asrwt>0</asrwt>
<pdfrwt beam="1">  1        2 0.27478595E+00 0.22724900E+04</pdfrwt>
<pdfrwt beam="2">  1       -2 0.11120459E+00 0.22724900E+04</pdfrwt>
<totfact> 0.51072102E+00</totfact>
</mgrwt>
</event>
<event>
 6    1  0.3017327E-006  0.4404349E+04  0.7818608E-02  0.7927600E-01
          1   -1    0    0  501    0  0.00000000000E+00  0.00000000000E+00  0.22178180537E+04  0.22178180537E+04  0.00000000000E+00 0. -1.
         -1   -1    0    0    0  501 -0.00000000000E+00 -0.00000000000E+00 -0.21866416339E+04  0.21866416339E+04  0.00000000000E+00 0.  1.
         23    2    1    2    0    0  0.39569174346E+03 -0.13404325133E+04  0.17162436011E+04  0.22152171966E+04  0.91454094007E+02 0.  0.
         11    1    3    3    0    0  0.14651324880E+03 -0.52755968117E+03  0.60384180035E+03  0.81511365411E+03  0.00000000000E+00 0. -1.
        -11    1    3    3    0    0  0.24917849466E+03 -0.81287283211E+03  0.11124018008E+04  0.14001035425E+04  0.00000000000E+00 0.  1.
         22    1    1    2    0    0 -0.39569174346E+03  0.13404325133E+04 -0.16850671813E+04  0.21892424909E+04  0.00000000000E+00 0.  1.
<mgrwt>
<rscale>  0 0.44043493E+04</rscale>
<asrwt>0</asrwt>
<pdfrwt beam="1">  1        1 0.34120278E+00 0.44043493E+04</pdfrwt>
<pdfrwt beam="2">  1       -1 0.33640640E+00 0.44043493E+04</pdfrwt>
<totfact> 0.30650930E-02</totfact>
</mgrwt>
</event>
<event>
 6    1  0.3017327E-006  0.5041412E+04  0.7818608E-02  0.7822151E-01
         -2   -1    0    0    0  501 -0.00000000000E+00  0.00000000000E+00  0.32080835786E+04  0.32080835786E+04  0.00000000000E+00 0.  1.
          2   -1    0    0  501    0  0.00000000000E+00 -0.00000000000E+00 -0.19806084773E+04  0.19806084773E+04  0.00000000000E+00 0. -1.
         23    2    1    2    0    0 -0.23355233832E+04  0.56043648870E+03  0.13984171054E+04  0.27807926187E+04  0.92079617566E+02 0.  0.
         13    1    3    3    0    0 -0.40611023808E+03  0.13077283655E+03  0.23252434489E+03  0.48589569993E+03  0.00000000000E+00 0. -1.
        -13    1    3    3    0    0 -0.19294131451E+04  0.42966365216E+03  0.11658927605E+04  0.22948969187E+04  0.00000000000E+00 0.  1.
         22    1    1    2    0    0  0.23355233832E+04 -0.56043648870E+03 -0.17094200413E+03  0.24078994373E+04  0.00000000000E+00 0. -1.
<mgrwt>
<rscale>  0 0.50414115E+04</rscale>
<asrwt>0</asrwt>
<pdfrwt beam="1">  1        2 0.30470900E+00 0.50414115E+04</pdfrwt>
<pdfrwt beam="2">  1       -2 0.49355132E+00 0.50414115E+04</pdfrwt>
<totfact> 0.90532928E-03</totfact>
</mgrwt>
</event>
<event>
 6    1  0.3017327E-006  0.2682308E+04  0.7818608E-02  0.8340768E-01
          2   -1    0    0  501    0  0.00000000000E+00  0.00000000000E+00  0.11567872331E+04  0.11567872331E+04  0.00000000000E+00 0. -1.
         -2   -1    0    0    0  501 -0.00000000000E+00 -0.00000000000E+00 -0.15549052486E+04  0.15549052486E+04  0.00000000000E+00 0.  1.
         23    2    1    2    0    0  0.12762880683E+04  0.38229319288E+03 -0.34061423988E+03  0.13781385822E+04  0.90490732575E+02 0.  0.
         13    1    3    3    0    0  0.85029550659E+03  0.29676494228E+03 -0.21618656873E+03  0.92617952471E+03  0.00000000000E+00 0. -1.
        -13    1    3    3    0    0  0.42599256171E+03  0.85528250602E+02 -0.12442767115E+03  0.45195905747E+03  0.00000000000E+00 0.  1.
         22    1    1    2    0    0 -0.12762880683E+04 -0.38229319288E+03 -0.57503775669E+02  0.13335538995E+04  0.00000000000E+00 0. -1.
<mgrwt>
<rscale>  0 0.26823084E+04</rscale>
<asrwt>0</asrwt>
<pdfrwt beam="1">  1        2 0.17796727E+00 0.26823084E+04</pdfrwt>
<pdfrwt beam="2">  1       -2 0.23921619E+00 0.26823084E+04</pdfrwt>
<totfact> 0.13234770E+00</totfact>
</mgrwt>
</event>
<event>
 6    1  0.3017327E-006  0.1505906E+04  0.7818608E-02  0.8880535E-01
         -1   -1    0    0    0  501 -0.00000000000E+00  0.00000000000E+00  0.60511768357E+03  0.60511768357E+03  0.00000000000E+00 0. -1.
          1   -1    0    0  501    0  0.00000000000E+00 -0.00000000000E+00 -0.93690556195E+03  0.93690556195E+03  0.00000000000E+00 0.  1.
         23    2    1    2    0    0 -0.66744375064E+03 -0.25662313045E+03  0.65839669582E+02  0.72382751207E+03  0.90856005855E+02 0.  0.
         11    1    3    3    0    0 -0.48716210320E+03 -0.22255565190E+03  0.26885690277E+02  0.53626558097E+03  0.00000000000E+00 0. -1.
        -11    1    3    3    0    0 -0.18028164744E+03 -0.34067478544E+02  0.38953979306E+02  0.18756193111E+03  0.00000000000E+00 0.  1.
         22    1    1    2    0    0  0.66744375064E+03  0.25662313045E+03 -0.39762754796E+03  0.81819573345E+03  0.00000000000E+00 0. -1.
<mgrwt>
<rscale>  0 0.15059059E+04</rscale>
<asrwt>0</asrwt>
<pdfrwt beam="1">  1        1 0.14413932E+00 0.15059059E+04</pdfrwt>
<pdfrwt beam="2">  1       -1 0.93095028E-01 0.15059059E+04</pdfrwt>
<totfact> 0.18402848E+01</totfact>
</mgrwt>
</event>
<event>
 6    1  0.3017327E-006  0.4758499E+04  0.7818608E-02  0.7866881E-01
         -2   -1    0    0    0  501 -0.00000000000E+00  0.00000000000E+00  0.23047903902E+04  0.23047903902E+04  0.00000000000E+00 0.  1.
          2   -1    0    0  501    0  0.00000000000E+00 -0.00000000000E+00 -0.24561137875E+04  0.24561137875E+04  0.00000000000E+00 0. -1.
         23    2    1    2    0    0  0.98430978187E+03  0.97691321256E+03  0.18574289236E+04  0.23199389878E+04  0.94071936228E+02 0.  0.
         11    1    3    3    0    0  0.64467871300E+03  0.67956939261E+03  0.11960118144E+04  0.15191673583E+04  0.00000000000E+00 0.  1.
        -11    1    3    3    0    0  0.33963106888E+03  0.29734381994E+03  0.66141710922E+03  0.80077162947E+03  0.00000000000E+00 0. -1.
         22    1    1    2    0    0 -0.98430978187E+03 -0.97691321256E+03 -0.20087523210E+04  0.24409651900E+04  0.00000000000E+00 0. -1.
<mgrwt>
<rscale>  0 0.47584987E+04</rscale>
<asrwt>0</asrwt>
<pdfrwt beam="1">  1        2 0.37786366E+00 0.47584987E+04</pdfrwt>
<pdfrwt beam="2">  1       -2 0.35458314E+00 0.47584987E+04</pdfrwt>
<totfact> 0.39866691E-02</totfact>
</mgrwt>
</event>
<event>
 6    1  0.3017327E-006  0.1199767E+04  0.7818608E-02  0.9113060E-01
         -1   -1    0    0    0  501 -0.00000000000E+00  0.00000000000E+00  0.54302117154E+03  0.54302117154E+03  0.00000000000E+00 0.  1.
          1   -1    0    0  501    0  0.00000000000E+00 -0.00000000000E+00 -0.66270028231E+03  0.66270028231E+03  0.00000000000E+00 0. -1.
         23    2    1    2    0    0  0.41380574075E+03 -0.41959568837E+03  0.31018030824E+02  0.59744079390E+03  0.93153911359E+02 0.  0.
         11    1    3    3    0    0  0.22093039456E+03 -0.21885043287E+03  0.62773853491E+02  0.31724802267E+03  0.00000000000E+00 0. -1.
        -11    1    3    3    0    0  0.19287534619E+03 -0.20074525550E+03 -0.31755822667E+02  0.28019277123E+03  0.00000000000E+00 0.  1.
         22    1    1    2    0    0 -0.41380574075E+03  0.41959568837E+03 -0.15069714159E+03  0.60828065995E+03  0.00000000000E+00 0. -1.
<mgrwt>
<rscale>  0 0.11997671E+04</rscale>
<asrwt>0</asrwt>
<pdfrwt beam="1">  1        1 0.10195389E+00 0.11997671E+04</pdfrwt>
<pdfrwt beam="2">  1       -1 0.83541719E-01 0.11997671E+04</pdfrwt>
<totfact> 0.41650363E+01</totfact>
</mgrwt>
</event>
<event>
 6    1  0.3017327E-006  0.2593425E+04  0.7818608E-02  0.8370438E-01
          2   -1    0    0  501    0  0.00000000000E+00  0.00000000000E+00  0.33043839045E+04  0.33043839045E+04  0.00000000000E+00 0. -1.
         -2   -1    0    0    0  501 -0.00000000000E+00 -0.00000000000E+00 -0.50885838264E+03  0.50885838264E+03  0.00000000000E+00 0.  1.
         23    2    1    2    0    0 -0.13454770360E+03 -0.11910728626E+04  0.21206302406E+04  0.24376546712E+04  0.91268996607E+02 0.  0.
         13    1    3    3    0    0 -0.31734239418E+02 -0.18434788715E+03  0.27099194097E+03  0.32928382516E+03  0.00000000000E+00 0. -1.
        -13    1    3    3    0    0 -0.10281346419E+03 -0.10067249755E+04  0.18496382997E+04  0.21083708460E+04  0.00000000000E+00 0.  1.
         22    1    1    2    0    0  0.13454770360E+03  0.11910728626E+04  0.67489528122E+03  0.13755876160E+04  0.00000000000E+00 0.  1.
<mgrwt>
<rscale>  0 0.25934251E+04</rscale>
<asrwt>0</asrwt>
<pdfrwt beam="1">  1        2 0.50836674E+00 0.25934251E+04</pdfrwt>
<pdfrwt beam="2">  1       -2 0.78285907E-01 0.25934251E+04</pdfrwt>
<totfact> 0.14214622E+00</totfact>
</mgrwt>
</event>
<event>
 6    1  0.3017327E-006  0.1494538E+04  0.7818608E-02  0.8888093E-01
         -2   -1    0    0    0  501 -0.00000000000E+00  0.00000000000E+00  0.55904423702E+03  0.55904423702E+03  0.00000000000E+00 0. -1.
          2   -1    0    0  501    0  0.00000000000E+00 -0.00000000000E+00 -0.99886762389E+03  0.99886762389E+03  0.00000000000E+00 0.  1.
         23    2    1    2    0    0 -0.23868222265E+03 -0.24365854536E+02 -0.95537841738E+03  0.98926444135E+03  0.91286999276E+02 0.  0.
         11    1    3    3    0    0 -0.73235936399E+02  0.33964578446E+02 -0.33181807578E+03  0.34149718942E+03  0.00000000000E+00 0.  1.
        -11    1    3    3    0    0 -0.16544628625E+03 -0.58330432982E+02 -0.62356034160E+03  0.64776725193E+03  0.00000000000E+00 0. -1.
         22    1    1    2    0    0  0.23868222265E+03  0.24365854536E+02  0.51555503052E+03  0.56864741956E+03  0.00000000000E+00 0. -1.
<mgrwt>
<rscale>  0 0.14945383E+04</rscale>
<asrwt>0</asrwt>
<pdfrwt beam="1">  1        2 0.15367194E+00 0.14945383E+04</pdfrwt>
<pdfrwt beam="2">  1       -2 0.86006806E-01 0.14945383E+04</pdfrwt>
<totfact> 0.28612800E+01</totfact>
</mgrwt>
</event>
<event>
 6    1  0.3017327E-006  0.1872602E+04  0.7818608E-02  0.8668616E-01
         -2   -1    0    0    0  501 -0.00000000000E+00  0.00000000000E+00  0.66245673348E+03  0.66245673348E+03  0.00000000000E+00 0.  1.
          2   -1    0    0  501    0  0.00000000000E+00 -0.00000000000E+00 -0.13233462637E+04  0.13233462637E+04  0.00000000000E+00 0. -1.
         23    2    1    2    0    0 -0.20478589988E+03 -0.11145050195E+03  0.62798908946E+03  0.67600661017E+03  0.90863421346E+02 0.  0.
         11    1    3    3    0    0 -0.15995677326E+03 -0.79691248167E+02  0.56416830768E+03  0.59179620119E+03  0.00000000000E+00 0.  1.
        -11    1    3    3    0    0 -0.44829126619E+02 -0.31759253788E+02  0.63820781778E+02  0.84210408985E+02  0.00000000000E+00 0. -1.
         22    1    1    2    0    0  0.20478589988E+03  0.11145050195E+03 -0.12888786197E+04  0.13097963870E+04  0.00000000000E+00 0. -1.
<mgrwt>
<rscale>  0 0.18726021E+04</rscale>
<asrwt>0</asrwt>
<pdfrwt beam="1">  1        2 0.20359173E+00 0.18726021E+04</pdfrwt>
<pdfrwt beam="2">  1       -2 0.10191642E+00 0.18726021E+04</pdfrwt>
<totfact> 0.11874439E+01</totfact>
</mgrwt>
</event>
<event>
 6    1  0.3017327E-006  0.2132975E+04  0.7818608E-02  0.8546855E-01
         -1   -1    0    0    0  501 -0.00000000000E+00  0.00000000000E+00  0.10354630041E+04  0.10354630041E+04  0.00000000000E+00 0.  1.
          1   -1    0    0  501    0  0.00000000000E+00 -0.00000000000E+00 -0.10984416432E+04  0.10984416432E+04  0.00000000000E+00 0. -1.
         23    2    1    2    0    0 -0.67836692563E+03 -0.80834909136E+03  0.10896693130E+03  0.10647109237E+04  0.90142219591E+02 0.  0.
         11    1    3    3    0    0 -0.33382570830E+03 -0.39810029331E+03  0.83501423657E+01  0.51960867192E+03  0.00000000000E+00 0. -1.
        -11    1    3    3    0    0 -0.34454121732E+03 -0.41024879804E+03  0.10061678893E+03  0.54510225182E+03  0.00000000000E+00 0.  1.
         22    1    1    2    0    0  0.67836692563E+03  0.80834909136E+03 -0.17194557037E+03  0.10691937235E+04  0.00000000000E+00 0.  1.
<mgrwt>
<rscale>  0 0.21329751E+04</rscale>
<asrwt>0</asrwt>
<pdfrwt beam="1">  1        1 0.16899102E+00 0.21329751E+04</pdfrwt>
<pdfrwt beam="2">  1       -1 0.15930200E+00 0.21329751E+04</pdfrwt>
<totfact> 0.34491742E+00</totfact>
</mgrwt>
</event>
<event>
 6    1  0.3234221E-006  0.2767794E+04  0.7818608E-02  0.8313337E-01
          2   -1    0    0  501    0  0.00000000000E+00  0.00000000000E+00  0.14941082001E+04  0.14941082001E+04  0.00000000000E+00 0. -1.
         -2   -1    0    0    0  501 -0.00000000000E+00 -0.00000000000E+00 -0.12818150078E+04  0.12818150078E+04  0.00000000000E+00 0.  1.
         23    2    1    2    0    0  0.11967142819E+04  0.65200583186E+03  0.34059592773E+03  0.14070922216E+04  0.81647148130E+02 0.  0.
         11    1    3    3    0    0  0.70887714512E+03  0.42683441809E+03  0.22488619809E+03  0.85747783028E+03  0.00000000000E+00 0.  1.
        -11    1    3    3    0    0  0.48783713674E+03  0.22517141378E+03  0.11570972965E+03  0.54961439128E+03  0.00000000000E+00 0. -1.
         22    1    1    2    0    0 -0.11967142819E+04 -0.65200583186E+03 -0.12830273538E+03  0.13688309863E+04  0.00000000000E+00 0.  1.
<mgrwt>
<rscale>  0 0.27677936E+04</rscale>
<asrwt>0</asrwt>
<pdfrwt beam="1">  1        2 0.22986280E+00 0.27677936E+04</pdfrwt>
<pdfrwt beam="2">  1       -2 0.19720231E+00 0.27677936E+04</pdfrwt>
<totfact> 0.15488574E+00</totfact>
</mgrwt>
</event>
<event>
 6    1  0.3017327E-006  0.2828076E+04  0.7818608E-02  0.8294605E-01
         -1   -1    0    0    0  501 -0.00000000000E+00  0.00000000000E+00  0.11283779473E+04  0.11283779473E+04  0.00000000000E+00 0.  1.
          1   -1    0    0  501    0  0.00000000000E+00 -0.00000000000E+00 -0.17720156576E+04  0.17720156576E+04  0.00000000000E+00 0. -1.
         23    2    1    2    0    0  0.17824177536E+03 -0.11466543657E+04 -0.11484225525E+04  0.16349315937E+04  0.86836582423E+02 0.  0.
         11    1    3    3    0    0 -0.76078793970E+01 -0.10409258207E+03 -0.92622396537E+02  0.13954230116E+03  0.00000000000E+00 0.  1.
        -11    1    3    3    0    0  0.18584965475E+03 -0.10425617836E+04 -0.10558001560E+04  0.14953892925E+04  0.00000000000E+00 0. -1.
         22    1    1    2    0    0 -0.17824177536E+03  0.11466543657E+04  0.50478484225E+03  0.12654620112E+04  0.00000000000E+00 0.  1.
<mgrwt>
<rscale>  0 0.28280759E+04</rscale>
<asrwt>0</asrwt>
<pdfrwt beam="1">  1        1 0.27261779E+00 0.28280759E+04</pdfrwt>
<pdfrwt beam="2">  1       -1 0.17359661E+00 0.28280759E+04</pdfrwt>
<totfact> 0.85136840E-01</totfact>
</mgrwt>
</event>
<event>
 6    1  0.3017327E-006  0.6085337E+03  0.7818608E-02  0.9887858E-01
         -2   -1    0    0    0  501 -0.00000000000E+00  0.00000000000E+00  0.17276582258E+03  0.17276582258E+03  0.00000000000E+00 0.  1.
          2   -1    0    0  501    0  0.00000000000E+00 -0.00000000000E+00 -0.53586007675E+03  0.53586007675E+03  0.00000000000E+00 0. -1.
         23    2    1    2    0    0 -0.17698908813E+02  0.10491272265E+03 -0.50916667180E+03  0.52791319380E+03  0.90120529097E+02 0.  0.
         13    1    3    3    0    0 -0.24573558458E+02 -0.19882179092E+01 -0.18184341419E+03  0.18350705727E+03  0.00000000000E+00 0.  1.
        -13    1    3    3    0    0  0.68746496447E+01  0.10690094056E+03 -0.32732325761E+03  0.34440613652E+03  0.00000000000E+00 0. -1.
         22    1    1    2    0    0  0.17698908813E+02 -0.10491272265E+03  0.14607241763E+03  0.18071270553E+03  0.00000000000E+00 0.  1.
<mgrwt>
<rscale>  0 0.60853367E+03</rscale>
<asrwt>0</asrwt>
<pdfrwt beam="1">  1        2 0.82440010E-01 0.60853367E+03</pdfrwt>
<pdfrwt beam="2">  1       -2 0.26579358E-01 0.60853367E+03</pdfrwt>
<totfact> 0.73171653E+02</totfact>
</mgrwt>
</event>
<event>
 6    1  0.3017327E-006  0.3083034E+04  0.7818608E-02  0.8220409E-01
          1   -1    0    0  501    0  0.00000000000E+00  0.00000000000E+00  0.22039721466E+04  0.22039721466E+04  0.00000000000E+00 0. -1.
         -1   -1    0    0    0  501 -0.00000000000E+00 -0.00000000000E+00 -0.10781783340E+04  0.10781783340E+04  0.00000000000E+00 0.  1.
         23    2    1    2    0    0  0.14081600432E+04 -0.46743534757E+03  0.12358748964E+03  0.14916678570E+04  0.91589391045E+02 0.  0.
         11    1    3    3    0    0  0.10119638864E+04 -0.31427413952E+03  0.52074493176E+02  0.10609198344E+04  0.00000000000E+00 0.  1.
        -11    1    3    3    0    0  0.39619615680E+03 -0.15316120805E+03  0.71512996459E+02  0.43074802261E+03  0.00000000000E+00 0. -1.
         22    1    1    2    0    0 -0.14081600432E+04  0.46743534757E+03  0.10022063230E+04  0.17904826235E+04  0.00000000000E+00 0. -1.
<mgrwt>
<rscale>  0 0.30830342E+04</rscale>
<asrwt>0</asrwt>
<pdfrwt beam="1">  1        1 0.33907264E+00 0.30830342E+04</pdfrwt>
<pdfrwt beam="2">  1       -1 0.16587359E+00 0.30830342E+04</pdfrwt>
<totfact> 0.48292524E-01</totfact>
</mgrwt>
</event>
<event>
 6    1  0.3017327E-006  0.2884446E+04  0.7818608E-02  0.8277520E-01
         -2   -1    0    0    0  501 -0.00000000000E+00  0.00000000000E+00  0.10326790287E+04  0.10326790287E+04  0.00000000000E+00 0. -1.
          2   -1    0    0  501    0  0.00000000000E+00 -0.00000000000E+00 -0.20141856837E+04  0.20141856837E+04  0.00000000000E+00 0.  1.
         23    2    1    2    0    0  0.23814022079E+03  0.67266778194E+03 -0.18133873243E+04  0.19508637281E+04  0.91120734390E+02 0.  0.
         11    1    3    3    0    0  0.83461392392E+02  0.26860464597E+03 -0.83440047231E+03  0.88053302496E+03  0.00000000000E+00 0.  1.
        -11    1    3    3    0    0  0.15467882839E+03  0.40406313597E+03 -0.97898685197E+03  0.10703307032E+04  0.00000000000E+00 0. -1.
         22    1    1    2    0    0 -0.23814022079E+03 -0.67266778194E+03  0.83188066925E+03  0.10960009843E+04  0.00000000000E+00 0. -1.
<mgrwt>
<rscale>  0 0.28844461E+04</rscale>
<asrwt>0</asrwt>
<pdfrwt beam="1">  1        2 0.30987472E+00 0.28844461E+04</pdfrwt>
<pdfrwt beam="2">  1       -2 0.15887370E+00 0.28844461E+04</pdfrwt>
<totfact> 0.14559660E+00</totfact>
</mgrwt>
</event>
<event>
 6    1  0.3017327E-006  0.1099690E+04  0.7818608E-02  0.9205494E-01
         -2   -1    0    0    0  501 -0.00000000000E+00  0.00000000000E+00  0.58564940853E+03  0.58564940853E+03  0.00000000000E+00 0.  1.
          2   -1    0    0  501    0  0.00000000000E+00 -0.00000000000E+00 -0.51622995997E+03  0.51622995997E+03  0.00000000000E+00 0. -1.
         23    2    1    2    0    0  0.31334257882E+03  0.97989163806E+02  0.47197996063E+03  0.58241771081E+03  0.93058361761E+02 0.  0.
         13    1    3    3    0    0  0.20921150372E+03  0.56706510849E+02  0.38000448259E+03  0.43747970062E+03  0.00000000000E+00 0. -1.
        -13    1    3    3    0    0  0.10413107510E+03  0.41282652957E+02  0.91975478044E+02  0.14493801019E+03  0.00000000000E+00 0.  1.
         22    1    1    2    0    0 -0.31334257882E+03 -0.97989163806E+02 -0.40256051207E+03  0.51946165769E+03  0.00000000000E+00 0. -1.
<mgrwt>
<rscale>  0 0.10996904E+04</rscale>
<asrwt>0</asrwt>
<pdfrwt beam="1">  1        2 0.79419994E-01 0.10996904E+04</pdfrwt>
<pdfrwt beam="2">  1       -2 0.90099909E-01 0.10996904E+04</pdfrwt>
<totfact> 0.62118519E+01</totfact>
</mgrwt>
</event>
<event>
 6    1  0.3017327E-006  0.7118481E+03  0.7818608E-02  0.9697182E-01
         -2   -1    0    0    0  501 -0.00000000000E+00  0.00000000000E+00  0.78953261466E+02  0.78953261466E+02  0.00000000000E+00 0.  1.
          2   -1    0    0  501    0  0.00000000000E+00 -0.00000000000E+00 -0.16045181931E+04  0.16045181931E+04  0.00000000000E+00 0. -1.
         23    2    1    2    0    0  0.33909157868E+03 -0.85056483384E+02 -0.81858567904E+03  0.89477799847E+03  0.91254854738E+02 0.  0.
         11    1    3    3    0    0  0.25684384850E+03 -0.67629717328E+02 -0.70568939701E+03  0.75401595887E+03  0.00000000000E+00 0. -1.
        -11    1    3    3    0    0  0.82247730183E+02 -0.17426766056E+02 -0.11289628203E+03  0.14076203960E+03  0.00000000000E+00 0.  1.
         22    1    1    2    0    0 -0.33909157868E+03  0.85056483384E+02 -0.70697925259E+03  0.78869345609E+03  0.00000000000E+00 0. -1.
<mgrwt>
<rscale>  0 0.71184814E+03</rscale>
<asrwt>0</asrwt>
<pdfrwt beam="1">  1        2 0.24684896E+00 0.71184814E+03</pdfrwt>
<pdfrwt beam="2">  1       -2 0.12146655E-01 0.71184814E+03</pdfrwt>
<totfact> 0.56219569E+02</totfact>
</mgrwt>
</event>
<event>
 6    1  0.3017327E-006  0.3175776E+04  0.7818608E-02  0.8195244E-01
         -2   -1    0    0    0  501 -0.00000000000E+00  0.00000000000E+00  0.19429907276E+04  0.19429907276E+04  0.00000000000E+00 0.  1.
          2   -1    0    0  501    0  0.00000000000E+00 -0.00000000000E+00 -0.12976840856E+04  0.12976840856E+04  0.00000000000E+00 0. -1.
         23    2    1    2    0    0  0.66375681114E+03 -0.12229563093E+04 -0.45495740169E+03  0.14667593122E+04  0.90561601652E+02 0.  0.
         13    1    3    3    0    0  0.50713883653E+03 -0.90427517571E+03 -0.37718368277E+03  0.11032546956E+04  0.00000000000E+00 0. -1.
        -13    1    3    3    0    0  0.15661797461E+03 -0.31868113363E+03 -0.77773718924E+02  0.36350461656E+03  0.00000000000E+00 0.  1.
         22    1    1    2    0    0 -0.66375681114E+03  0.12229563093E+04  0.11002640437E+04  0.17739155010E+04  0.00000000000E+00 0.  1.
<mgrwt>
<rscale>  0 0.31757759E+04</rscale>
<asrwt>0</asrwt>
<pdfrwt beam="1">  1        2 0.19964371E+00 0.31757759E+04</pdfrwt>
<pdfrwt beam="2">  1       -2 0.29892165E+00 0.31757759E+04</pdfrwt>
<totfact> 0.45147460E-01</totfact>
</mgrwt>
</event>
<event>
 6    1  0.3017327E-006  0.5598636E+03  0.7818608E-02  0.9992363E-01
         -1   -1    0    0    0  501 -0.00000000000E+00  0.00000000000E+00  0.20128713352E+03  0.20128713352E+03  0.00000000000E+00 0.  1.
          1   -1    0    0  501    0  0.00000000000E+00 -0.00000000000E+00 -0.38930367945E+03  0.38930367945E+03  0.00000000000E+00 0. -1.
         23    2    1    2    0    0  0.23331748502E+02 -0.25487372653E+03 -0.19553036120E+03  0.33454112173E+03  0.90446962455E+02 0.  0.
         11    1    3    3    0    0 -0.13000706677E+02 -0.14440736511E+03 -0.15282196828E+03  0.21065863254E+03  0.00000000000E+00 0. -1.
        -11    1    3    3    0    0  0.36332455180E+02 -0.11046636141E+03 -0.42708392916E+02  0.12388248919E+03  0.00000000000E+00 0.  1.
         22    1    1    2    0    0 -0.23331748502E+02  0.25487372653E+03  0.75138152712E+01  0.25604969124E+03  0.00000000000E+00 0.  1.
<mgrwt>
<rscale>  0 0.55986363E+03</rscale>
<asrwt>0</asrwt>
<pdfrwt beam="1">  1        1 0.59892874E-01 0.55986363E+03</pdfrwt>
<pdfrwt beam="2">  1       -1 0.30967251E-01 0.55986363E+03</pdfrwt>
<totfact> 0.60565121E+02</totfact>
</mgrwt>
</event>
<event>
 6    1  0.3017327E-006  0.2012867E+04  0.7818608E-02  0.8600628E-01
         -2   -1    0    0    0  501 -0.00000000000E+00  0.00000000000E+00  0.49646669207E+03  0.49646669207E+03  0.00000000000E+00 0.  1.
          2   -1    0    0  501    0  0.00000000000E+00 -0.00000000000E+00 -0.20402350687E+04  0.20402350687E+04  0.00000000000E+00 0. -1.
         23    2    1    2    0    0  0.23839064293E+03  0.52836553382E+02 -0.20012470548E+04  0.20181378390E+04  0.90932737137E+02 0.  0.
         11    1    3    3    0    0  0.16340379251E+03  0.62888748784E+00 -0.10679567435E+04  0.10803854872E+04  0.00000000000E+00 0.  1.
        -11    1    3    3    0    0  0.74986850415E+02  0.52207665894E+02 -0.93329031131E+03  0.93775235179E+03  0.00000000000E+00 0. -1.
         22    1    1    2    0    0 -0.23839064293E+03 -0.52836553382E+02  0.45747867818E+03  0.51856392180E+03  0.00000000000E+00 0.  1.
<mgrwt>
<rscale>  0 0.20128674E+04</rscale>
<asrwt>0</asrwt>
<pdfrwt beam="1">  1        2 0.31388232E+00 0.20128674E+04</pdfrwt>
<pdfrwt beam="2">  1       -2 0.76379491E-01 0.20128674E+04</pdfrwt>
<totfact> 0.90292136E+00</totfact>
</mgrwt>
</event>
<event>
 6    1  0.3017327E-006  0.4785841E+04  0.7818608E-02  0.7862420E-01
          2   -1    0    0  501    0  0.00000000000E+00  0.00000000000E+00  0.19610289989E+04  0.19610289989E+04  0.00000000000E+00 0. -1.
         -2   -1    0    0    0  501 -0.00000000000E+00 -0.00000000000E+00 -0.29199302035E+04  0.29199302035E+04  0.00000000000E+00 0.  1.
         23    2    1    2    0    0  0.45887232149E+03  0.10202539649E+04 -0.26360044239E+04  0.28649837143E+04  0.90168730474E+02 0.  0.
         13    1    3    3    0    0  0.31881654115E+03  0.61021452384E+03 -0.15740680175E+04  0.17180500213E+04  0.00000000000E+00 0. -1.
        -13    1    3    3    0    0  0.14005578035E+03  0.41003944111E+03 -0.10619364064E+04  0.11469336930E+04  0.00000000000E+00 0.  1.
         22    1    1    2    0    0 -0.45887232149E+03 -0.10202539649E+04  0.16771032193E+04  0.20159754881E+04  0.00000000000E+00 0. -1.
<mgrwt>
<rscale>  0 0.47858407E+04</rscale>
<asrwt>0</asrwt>
<pdfrwt beam="1">  1        2 0.30169677E+00 0.47858407E+04</pdfrwt>
<pdfrwt beam="2">  1       -2 0.44922003E+00 0.47858407E+04</pdfrwt>
<totfact> 0.18305116E-02</totfact>
</mgrwt>
</event>
<event>
 6    1  0.3017327E-006  0.1637939E+04  0.7818608E-02  0.8797574E-01
         -2   -1    0    0    0  501 -0.00000000000E+00  0.00000000000E+00  0.22609699572E+03  0.22609699572E+03  0.00000000000E+00 0.  1.
          2   -1    0    0  501    0  0.00000000000E+00 -0.00000000000E+00 -0.29664758005E+04  0.29664758005E+04  0.00000000000E+00 0. -1.
         23    2    1    2    0    0 -0.14241250022E+03 -0.71300614501E+03 -0.66172629174E+03  0.99042490087E+03  0.12000298350E+03 0.  0.
         11    1    3    3    0    0 -0.54917365471E+02 -0.33067874869E+03 -0.22654994473E+03  0.40458525594E+03  0.00000000000E+00 0. -1.
        -11    1    3    3    0    0 -0.87495134753E+02 -0.38232739632E+03 -0.43517634700E+03  0.58583964493E+03  0.00000000000E+00 0.  1.
         22    1    1    2    0    0  0.14241250022E+03  0.71300614501E+03 -0.20786525131E+04  0.22021478954E+04  0.00000000000E+00 0. -1.
<mgrwt>
<rscale>  0 0.16379393E+04</rscale>
<asrwt>0</asrwt>
<pdfrwt beam="1">  1        2 0.45638088E+00 0.16379393E+04</pdfrwt>
<pdfrwt beam="2">  1       -2 0.34784154E-01 0.16379393E+04</pdfrwt>
<totfact> 0.13614902E+01</totfact>
</mgrwt>
</event>
<event>
 6    1  0.3017327E-006  0.1415479E+04  0.7818608E-02  0.8942689E-01
         -2   -1    0    0    0  501 -0.00000000000E+00  0.00000000000E+00  0.36775753719E+03  0.36775753719E+03  0.00000000000E+00 0. -1.
          2   -1    0    0  501    0  0.00000000000E+00 -0.00000000000E+00 -0.13620266130E+04  0.13620266130E+04  0.00000000000E+00 0.  1.
         23    2    1    2    0    0 -0.29621145472E+03 -0.23764315287E+03  0.22625700367E+03  0.45154340420E+03  0.92107112370E+02 0.  0.
         11    1    3    3    0    0 -0.80627212488E+02 -0.12138558944E+03  0.79210776617E+02  0.16586004898E+03  0.00000000000E+00 0. -1.
        -11    1    3    3    0    0 -0.21558424223E+03 -0.11625756343E+03  0.14704622705E+03  0.28568335521E+03  0.00000000000E+00 0.  1.
         22    1    1    2    0    0  0.29621145472E+03  0.23764315287E+03 -0.12205260795E+04  0.12782407460E+04  0.00000000000E+00 0.  1.
<mgrwt>
<rscale>  0 0.14154795E+04</rscale>
<asrwt>0</asrwt>
<pdfrwt beam="1">  1        2 0.20954255E+00 0.14154795E+04</pdfrwt>
<pdfrwt beam="2">  1       -2 0.56578083E-01 0.14154795E+04</pdfrwt>
<totfact> 0.43350659E+01</totfact>
</mgrwt>
</event>
<event>
 6    1  0.3017327E-006  0.4078600E+04  0.7818608E-02  0.7988875E-01
          2   -1    0    0  501    0  0.00000000000E+00  0.00000000000E+00  0.29626883983E+04  0.29626883983E+04  0.00000000000E+00 0. -1.
         -2   -1    0    0    0  501 -0.00000000000E+00 -0.00000000000E+00 -0.14037066294E+04  0.14037066294E+04  0.00000000000E+00 0.  1.
         23    2    1    2    0    0  0.10762280898E+04  0.31379559551E+02  0.26325116713E+04  0.28459615273E+04  0.10063665924E+03 0.  0.
         11    1    3    3    0    0  0.19034877907E+03 -0.17114930769E+01  0.57196731206E+03  0.60281190513E+03  0.00000000000E+00 0. -1.
        -11    1    3    3    0    0  0.88587931072E+03  0.33091052628E+02  0.20605443592E+04  0.22431496221E+04  0.00000000000E+00 0.  1.
         22    1    1    2    0    0 -0.10762280898E+04 -0.31379559551E+02 -0.10735299024E+04  0.15204335004E+04  0.00000000000E+00 0.  1.
<mgrwt>
<rscale>  0 0.40786004E+04</rscale>
<asrwt>0</asrwt>
<pdfrwt beam="1">  1        2 0.45579821E+00 0.40786004E+04</pdfrwt>
<pdfrwt beam="2">  1       -2 0.21595487E+00 0.40786004E+04</pdfrwt>
<totfact> 0.15095211E-01</totfact>
</mgrwt>
</event>
<event>
 6    1  0.3017327E-006  0.2249844E+04  0.7818608E-02  0.8497964E-01
          2   -1    0    0  501    0  0.00000000000E+00  0.00000000000E+00  0.13490863242E+04  0.13490863242E+04  0.00000000000E+00 0. -1.
         -2   -1    0    0    0  501 -0.00000000000E+00 -0.00000000000E+00 -0.93800500232E+03  0.93800500232E+03  0.00000000000E+00 0.  1.
         23    2    1    2    0    0  0.67804012734E+03  0.77323971494E+03 -0.25292320091E+03  0.10629426111E+04  0.90767714295E+02 0.  0.
         13    1    3    3    0    0  0.57715755945E+03  0.65226659917E+03 -0.24705006455E+03  0.90531557990E+03  0.00000000000E+00 0.  1.
        -13    1    3    3    0    0  0.10088256790E+03  0.12097311577E+03 -0.58731363614E+01  0.15762703123E+03  0.00000000000E+00 0. -1.
         22    1    1    2    0    0 -0.67804012734E+03 -0.77323971494E+03  0.66400452274E+03  0.12241487153E+04  0.00000000000E+00 0.  1.
<mgrwt>
<rscale>  0 0.22498442E+04</rscale>
<asrwt>0</asrwt>
<pdfrwt beam="1">  1        2 0.20755174E+00 0.22498442E+04</pdfrwt>
<pdfrwt beam="2">  1       -2 0.14430846E+00 0.22498442E+04</pdfrwt>
<totfact> 0.46768770E+00</totfact>
</mgrwt>
</event>
<event>
 6    1  0.3017327E-006  0.3312587E+04  0.7818608E-02  0.8159700E-01
          2   -1    0    0  501    0  0.00000000000E+00  0.00000000000E+00  0.13694352198E+04  0.13694352198E+04  0.00000000000E+00 0. -1.
         -2   -1    0    0    0  501 -0.00000000000E+00 -0.00000000000E+00 -0.20032410884E+04  0.20032410884E+04  0.00000000000E+00 0.  1.
         23    2    1    2    0    0  0.90253705385E+03 -0.10418331312E+03 -0.17256191856E+04  0.19522948047E+04  0.90918285865E+02 0.  0.
         13    1    3    3    0    0  0.31535182674E+03 -0.36186973324E+02 -0.51274286877E+03  0.60304354830E+03  0.00000000000E+00 0. -1.
        -13    1    3    3    0    0  0.58718522710E+03 -0.67996339799E+02 -0.12128763168E+04  0.13492512564E+04  0.00000000000E+00 0.  1.
         22    1    1    2    0    0 -0.90253705385E+03  0.10418331312E+03  0.10918133170E+04  0.14203815035E+04  0.00000000000E+00 0. -1.
<mgrwt>
<rscale>  0 0.33125874E+04</rscale>
<asrwt>0</asrwt>
<pdfrwt beam="1">  1        2 0.21068234E+00 0.33125874E+04</pdfrwt>
<pdfrwt beam="2">  1       -2 0.30819094E+00 0.33125874E+04</pdfrwt>
<totfact> 0.35586573E-01</totfact>
</mgrwt>
</event>
<event>
 6    1  0.3017327E-006  0.1860772E+04  0.7818608E-02  0.8674633E-01
         -1   -1    0    0    0  501 -0.00000000000E+00  0.00000000000E+00  0.40395227361E+03  0.40395227361E+03  0.00000000000E+00 0.  1.
          1   -1    0    0  501    0  0.00000000000E+00 -0.00000000000E+00 -0.21428726667E+04  0.21428726667E+04  0.00000000000E+00 0. -1.
         23    2    1    2    0    0  0.44288994817E+03  0.70997071377E+03 -0.14201737164E+04  0.16513868551E+04  0.99876121504E+02 0.  0.
         13    1    3    3    0    0  0.45172123630E+02  0.98250890476E+02 -0.24978048080E+03  0.27218384746E+03  0.00000000000E+00 0. -1.
        -13    1    3    3    0    0  0.39771782454E+03  0.61171982329E+03 -0.11703932356E+04  0.13792030076E+04  0.00000000000E+00 0.  1.
         22    1    1    2    0    0 -0.44288994817E+03 -0.70997071377E+03 -0.31874667664E+03  0.89543808523E+03  0.00000000000E+00 0. -1.
<mgrwt>
<rscale>  0 0.18607722E+04</rscale>
<asrwt>0</asrwt>
<pdfrwt beam="1">  1        1 0.32967272E+00 0.18607722E+04</pdfrwt>
<pdfrwt beam="2">  1       -1 0.62146503E-01 0.18607722E+04</pdfrwt>
<totfact> 0.58756569E+00</totfact>
</mgrwt>
</event>
<event>
 6    1  0.3017327E-006  0.2121185E+04  0.7818608E-02  0.8551968E-01
          2   -1    0    0  501    0  0.00000000000E+00  0.00000000000E+00  0.20562123593E+04  0.20562123593E+04  0.00000000000E+00 0. -1.
         -2   -1    0    0    0  501 -0.00000000000E+00 -0.00000000000E+00 -0.54705254402E+03  0.54705254402E+03  0.00000000000E+00 0.  1.
         23    2    1    2    0    0 -0.52438457832E+03 -0.76754115541E+03  0.13777438846E+04  0.16644524843E+04  0.90140168140E+02 0.  0.
         13    1    3    3    0    0 -0.13555327024E+02 -0.50848766741E+02  0.98799966356E+02  0.11194095462E+03  0.00000000000E+00 0. -1.
        -13    1    3    3    0    0 -0.51082925130E+03 -0.71669238867E+03  0.12789439182E+04  0.15525115297E+04  0.00000000000E+00 0.  1.
         22    1    1    2    0    0  0.52438457832E+03  0.76754115541E+03  0.13141593074E+03  0.93881241901E+03  0.00000000000E+00 0.  1.
<mgrwt>
<rscale>  0 0.21211848E+04</rscale>
<asrwt>0</asrwt>
<pdfrwt beam="1">  1        2 0.31634036E+00 0.21211848E+04</pdfrwt>
<pdfrwt beam="2">  1       -2 0.84161931E-01 0.21211848E+04</pdfrwt>
<totfact> 0.70470753E+00</totfact>
</mgrwt>
</event>
<event>
 6    1  0.3017327E-006  0.6528390E+04  0.7818608E-02  0.7628130E-01
          2   -1    0    0  501    0  0.00000000000E+00  0.00000000000E+00  0.35040483652E+04  0.35040483652E+04  0.00000000000E+00 0. -1.
         -2   -1    0    0    0  501 -0.00000000000E+00 -0.00000000000E+00 -0.30407597762E+04  0.30407597762E+04  0.00000000000E+00 0.  1.
         23    2    1    2    0    0 -0.23664494170E+04  0.90606896756E+03 -0.18301099197E+04  0.31271012294E+04  0.91738558795E+02 0.  0.
         11    1    3    3    0    0 -0.14659843082E+04  0.51769203095E+03 -0.11448590229E+04  0.19307556068E+04  0.00000000000E+00 0.  1.
        -11    1    3    3    0    0 -0.90046510877E+03  0.38837693661E+03 -0.68525089682E+03  0.11963456225E+04  0.00000000000E+00 0. -1.
         22    1    1    2    0    0  0.23664494170E+04 -0.90606896756E+03  0.22933985087E+04  0.34177069121E+04  0.00000000000E+00 0. -1.
<mgrwt>
<rscale>  0 0.65283901E+04</rscale>
<asrwt>0</asrwt>
<pdfrwt beam="1">  1        2 0.53908436E+00 0.65283901E+04</pdfrwt>
<pdfrwt beam="2">  1       -2 0.46780920E+00 0.65283901E+04</pdfrwt>
<totfact> 0.13914181E-03</totfact>
</mgrwt>
</event>
<event>
 6    1  0.3017327E-006  0.8942252E+03  0.7818608E-02  0.9432829E-01
          4   -1    0    0  501    0  0.00000000000E+00  0.00000000000E+00  0.88351205661E+03  0.88351205661E+03  0.00000000000E+00 0. -1.
         -4   -1    0    0    0  501 -0.00000000000E+00 -0.00000000000E+00 -0.22626707855E+03  0.22626707855E+03  0.00000000000E+00 0.  1.
         23    2    1    2    0    0 -0.10868581679E+03 -0.41481873568E+03  0.19633418297E+03  0.48023489424E+03  0.90505535741E+02 0.  0.
         13    1    3    3    0    0 -0.70696295589E+02 -0.22104257715E+03  0.15330230006E+03  0.27813554668E+03  0.00000000000E+00 0. -1.
        -13    1    3    3    0    0 -0.37989521197E+02 -0.19377615854E+03  0.43031882901E+02  0.20209934756E+03  0.00000000000E+00 0.  1.
         22    1    1    2    0    0  0.10868581679E+03  0.41481873568E+03  0.46091079510E+03  0.62954424093E+03  0.00000000000E+00 0. -1.
<mgrwt>
<rscale>  0 0.89422523E+03</rscale>
<asrwt>0</asrwt>
<pdfrwt beam="1">  1        4 0.13592493E+00 0.89422523E+03</pdfrwt>
<pdfrwt beam="2">  1       -4 0.34810320E-01 0.89422523E+03</pdfrwt>
<totfact> 0.61803444E+00</totfact>
</mgrwt>
</event>
<event>
 6    1  0.3017327E-006  0.1084211E+04  0.7818608E-02  0.9220719E-01
          2   -1    0    0  501    0  0.00000000000E+00  0.00000000000E+00  0.36710256050E+03  0.36710256050E+03  0.00000000000E+00 0. -1.
         -2   -1    0    0    0  501 -0.00000000000E+00 -0.00000000000E+00 -0.80053413163E+03  0.80053413163E+03  0.00000000000E+00 0.  1.
         23    2    1    2    0    0 -0.22644064435E+03  0.47314990212E+03 -0.89094640732E+02  0.54017026520E+03  0.93273067428E+02 0.  0.
         11    1    3    3    0    0 -0.60572749380E+02  0.15754877994E+03  0.13043536651E+02  0.16929503796E+03  0.00000000000E+00 0.  1.
        -11    1    3    3    0    0 -0.16586789497E+03  0.31560112218E+03 -0.10213817738E+03  0.37087522724E+03  0.00000000000E+00 0. -1.
         22    1    1    2    0    0  0.22644064435E+03 -0.47314990212E+03 -0.34433693040E+03  0.62746642693E+03  0.00000000000E+00 0.  1.
<mgrwt>
<rscale>  0 0.10842106E+04</rscale>
<asrwt>0</asrwt>
<pdfrwt beam="1">  1        2 0.56477317E-01 0.10842106E+04</pdfrwt>
<pdfrwt beam="2">  1       -2 0.12315910E+00 0.10842106E+04</pdfrwt>
<totfact> 0.43297512E+01</totfact>
</mgrwt>
</event>
<event>
 6    1  0.3017327E-006  0.2555775E+03  0.7818608E-02  0.1109830E+00
          2   -1    0    0  501    0  0.00000000000E+00  0.00000000000E+00  0.31838201200E+03  0.31838201200E+03  0.00000000000E+00 0. -1.
         -2   -1    0    0    0  501 -0.00000000000E+00 -0.00000000000E+00 -0.51290463284E+02  0.51290463284E+02  0.00000000000E+00 0.  1.
         23    2    1    2    0    0  0.53906987662E+02 -0.56621583631E+02  0.40302369237E+02  0.12978646281E+03  0.95437298324E+02 0.  0.
         11    1    3    3    0    0 -0.25606031520E+02 -0.20626002181E+02  0.24694424708E+02  0.41120742063E+02  0.00000000000E+00 0. -1.
        -11    1    3    3    0    0  0.79513019182E+02 -0.35995581450E+02  0.15607944528E+02  0.88665720748E+02  0.00000000000E+00 0.  1.
         22    1    1    2    0    0 -0.53906987662E+02  0.56621583631E+02  0.22678917948E+03  0.23988601248E+03  0.00000000000E+00 0. -1.
<mgrwt>
<rscale>  0 0.25557747E+03</rscale>
<asrwt>0</asrwt>
<pdfrwt beam="1">  1        2 0.48981847E-01 0.25557747E+03</pdfrwt>
<pdfrwt beam="2">  1       -2 0.78908407E-02 0.25557747E+03</pdfrwt>
<totfact> 0.97810588E+03</totfact>
</mgrwt>
</event>
<event>
 6    1  0.3017327E-006  0.2665335E+04  0.7818608E-02  0.8346341E-01
          1   -1    0    0  501    0  0.00000000000E+00  0.00000000000E+00  0.20338422237E+04  0.20338422237E+04  0.00000000000E+00 0.  1.
         -1   -1    0    0    0  501 -0.00000000000E+00 -0.00000000000E+00 -0.87322514122E+03  0.87322514122E+03  0.00000000000E+00 0. -1.
         23    2    1    2    0    0 -0.12051732423E+04 -0.54085909793E+02 -0.32491274138E+02  0.12103424667E+04  0.92224584523E+02 0.  0.
         13    1    3    3    0    0 -0.91114547316E+03 -0.45670831900E+01 -0.40638084000E+02  0.91206270912E+03  0.00000000000E+00 0.  1.
        -13    1    3    3    0    0 -0.29402776919E+03 -0.49518826603E+02  0.81468098618E+01  0.29827975753E+03  0.00000000000E+00 0. -1.
         22    1    1    2    0    0  0.12051732423E+04  0.54085909793E+02  0.11931083566E+04  0.16967248982E+04  0.00000000000E+00 0.  1.
<mgrwt>
<rscale>  0 0.26653346E+04</rscale>
<asrwt>0</asrwt>
<pdfrwt beam="1">  1        1 0.31289880E+00 0.26653346E+04</pdfrwt>
<pdfrwt beam="2">  1       -1 0.13434233E+00 0.26653346E+04</pdfrwt>
<totfact> 0.11544015E+00</totfact>
</mgrwt>
</event>
<event>
 6    1  0.3017327E-006  0.3697880E+04  0.7818608E-02  0.8068432E-01
         -2   -1    0    0    0  501 -0.00000000000E+00  0.00000000000E+00  0.99615454839E+03  0.99615454839E+03  0.00000000000E+00 0.  1.
          2   -1    0    0  501    0  0.00000000000E+00 -0.00000000000E+00 -0.34317766790E+04  0.34317766790E+04  0.00000000000E+00 0. -1.
         23    2    1    2    0    0 -0.11663629979E+04  0.84609621299E+03 -0.26036911677E+04  0.29772318631E+04  0.91762873682E+02 0.  0.
         11    1    3    3    0    0 -0.79309154323E+03  0.56392182666E+03 -0.16699337661E+04  0.19327909368E+04  0.00000000000E+00 0. -1.
        -11    1    3    3    0    0 -0.37327145467E+03  0.28217438633E+03 -0.93375740169E+03  0.10444409262E+04  0.00000000000E+00 0.  1.
         22    1    1    2    0    0  0.11663629979E+04 -0.84609621299E+03  0.16806903710E+03  0.14506993644E+04  0.00000000000E+00 0.  1.
<mgrwt>
<rscale>  0 0.36978804E+04</rscale>
<asrwt>0</asrwt>
<pdfrwt beam="1">  1        2 0.52796564E+00 0.36978804E+04</pdfrwt>
<pdfrwt beam="2">  1       -2 0.15325455E+00 0.36978804E+04</pdfrwt>
<totfact> 0.20712893E-01</totfact>
</mgrwt>
</event>
<event>
 6    1  0.3017327E-006  0.3048406E+04  0.7818608E-02  0.8230042E-01
         -2   -1    0    0    0  501 -0.00000000000E+00  0.00000000000E+00  0.12019503357E+04  0.12019503357E+04  0.00000000000E+00 0.  1.
          2   -1    0    0  501    0  0.00000000000E+00 -0.00000000000E+00 -0.19328540070E+04  0.19328540070E+04  0.00000000000E+00 0. -1.
         23    2    1    2    0    0 -0.32899573437E+03  0.41316528125E+03  0.11029939547E+04  0.12263693175E+04  0.91881967506E+02 0.  0.
         11    1    3    3    0    0 -0.21555697127E+03  0.30412725717E+03  0.68710300263E+03  0.78170885413E+03  0.00000000000E+00 0. -1.
        -11    1    3    3    0    0 -0.11343876310E+03  0.10903802408E+03  0.41589095205E+03  0.44466046335E+03  0.00000000000E+00 0.  1.
         22    1    1    2    0    0  0.32899573437E+03 -0.41316528125E+03 -0.18338976260E+04  0.19084350252E+04  0.00000000000E+00 0. -1.
<mgrwt>
<rscale>  0 0.30484058E+04</rscale>
<asrwt>0</asrwt>
<pdfrwt beam="1">  1        2 0.29736215E+00 0.30484058E+04</pdfrwt>
<pdfrwt beam="2">  1       -2 0.18491544E+00 0.30484058E+04</pdfrwt>
<totfact> 0.10416413E+00</totfact>
</mgrwt>
</event>
<event>
 6    1  0.3017327E-006  0.2985572E+04  0.7818608E-02  0.8247863E-01
          2   -1    0    0  501    0  0.00000000000E+00  0.00000000000E+00  0.16478534713E+04  0.16478534713E+04  0.00000000000E+00 0. -1.
         -2   -1    0    0    0  501 -0.00000000000E+00 -0.00000000000E+00 -0.13523108745E+04  0.13523108745E+04  0.00000000000E+00 0.  1.
         23    2    1    2    0    0 -0.42998289360E+03  0.75253602697E+03  0.13675313385E+04  0.16216304786E+04  0.91365675224E+02 0.  0.
         13    1    3    3    0    0 -0.88315870753E+02  0.21565455509E+03  0.31819815275E+03  0.39440669945E+03  0.00000000000E+00 0. -1.
        -13    1    3    3    0    0 -0.34166702285E+03  0.53688147188E+03  0.10493331857E+04  0.12272237791E+04  0.00000000000E+00 0.  1.
         22    1    1    2    0    0  0.42998289360E+03 -0.75253602697E+03 -0.10719887417E+04  0.13785338672E+04  0.00000000000E+00 0.  1.
<mgrwt>
<rscale>  0 0.29855721E+04</rscale>
<asrwt>0</asrwt>
<pdfrwt beam="1">  1        2 0.25351592E+00 0.29855721E+04</pdfrwt>
<pdfrwt beam="2">  1       -2 0.20804783E+00 0.29855721E+04</pdfrwt>
<totfact> 0.10594161E+00</totfact>
</mgrwt>
</event>
<event>
 6    1  0.3017327E-006  0.1230603E+04  0.7818608E-02  0.9086484E-01
          2   -1    0    0  501    0  0.00000000000E+00  0.00000000000E+00  0.20125863548E+04  0.20125863548E+04  0.00000000000E+00 0. -1.
         -2   -1    0    0    0  501 -0.00000000000E+00 -0.00000000000E+00 -0.18811404565E+03  0.18811404565E+03  0.00000000000E+00 0.  1.
         23    2    1    2    0    0 -0.51193885432E+02  0.11593482167E+02  0.20075086105E+04  0.20102863506E+04  0.91679699001E+02 0.  0.
         11    1    3    3    0    0 -0.52792867102E+02  0.45824834655E+02  0.11805275195E+04  0.11825955465E+04  0.00000000000E+00 0.  1.
        -11    1    3    3    0    0  0.15989816701E+01 -0.34231352489E+02  0.82698109108E+03  0.82769080413E+03  0.00000000000E+00 0. -1.
         22    1    1    2    0    0  0.51193885432E+02 -0.11593482167E+02 -0.18303630143E+03  0.19041404983E+03  0.00000000000E+00 0.  1.
<mgrwt>
<rscale>  0 0.12306027E+04</rscale>
<asrwt>0</asrwt>
<pdfrwt beam="1">  1        2 0.30962866E+00 0.12306027E+04</pdfrwt>
<pdfrwt beam="2">  1       -2 0.28940624E-01 0.12306027E+04</pdfrwt>
<totfact> 0.71077581E+01</totfact>
</mgrwt>
</event>
<event>
 6    1  0.3017327E-006  0.1402136E+04  0.7818608E-02  0.8952274E-01
         -2   -1    0    0    0  501 -0.00000000000E+00  0.00000000000E+00  0.14980172002E+03  0.14980172002E+03  0.00000000000E+00 0.  1.
          2   -1    0    0  501    0  0.00000000000E+00 -0.00000000000E+00 -0.32809814700E+04  0.32809814700E+04  0.00000000000E+00 0. -1.
         23    2    1    2    0    0 -0.44766668916E+03  0.27259654037E+03 -0.44359865523E+03  0.69257091205E+03  0.90334726895E+02 0.  0.
         11    1    3    3    0    0 -0.25971865358E+03  0.11344117931E+03 -0.26835733451E+03  0.39030544343E+03  0.00000000000E+00 0.  1.
        -11    1    3    3    0    0 -0.18794803558E+03  0.15915536106E+03 -0.17524132072E+03  0.30226546862E+03  0.00000000000E+00 0. -1.
         22    1    1    2    0    0  0.44766668916E+03 -0.27259654037E+03 -0.26875810948E+04  0.27382122780E+04  0.00000000000E+00 0. -1.
<mgrwt>
<rscale>  0 0.14021365E+04</rscale>
<asrwt>0</asrwt>
<pdfrwt beam="1">  1        2 0.50476636E+00 0.14021365E+04</pdfrwt>
<pdfrwt beam="2">  1       -2 0.23046419E-01 0.14021365E+04</pdfrwt>
<totfact> 0.18792118E+01</totfact>
</mgrwt>
</event>
<event>
 6    1  0.3017327E-006  0.1808042E+04  0.7818608E-02  0.8702035E-01
         -2   -1    0    0    0  501 -0.00000000000E+00  0.00000000000E+00  0.34264620356E+03  0.34264620356E+03  0.00000000000E+00 0.  1.
          2   -1    0    0  501    0  0.00000000000E+00 -0.00000000000E+00 -0.23851236906E+04  0.23851236906E+04  0.00000000000E+00 0. -1.
         23    2    1    2    0    0 -0.61603767049E+03 -0.51145436476E+03 -0.39886470768E+03  0.89950543103E+03  0.94493315723E+02 0.  0.
         11    1    3    3    0    0 -0.38144011358E+03 -0.35798070692E+03 -0.29489046541E+03  0.60050573133E+03  0.00000000000E+00 0.  1.
        -11    1    3    3    0    0 -0.23459755691E+03 -0.15347365784E+03 -0.10397424226E+03  0.29899969969E+03  0.00000000000E+00 0. -1.
         22    1    1    2    0    0  0.61603767049E+03  0.51145436476E+03 -0.16436127794E+04  0.18282644632E+04  0.00000000000E+00 0. -1.
<mgrwt>
<rscale>  0 0.18080416E+04</rscale>
<asrwt>0</asrwt>
<pdfrwt beam="1">  1        2 0.36694210E+00 0.18080416E+04</pdfrwt>
<pdfrwt beam="2">  1       -2 0.52714801E-01 0.18080416E+04</pdfrwt>
<totfact> 0.12995380E+01</totfact>
</mgrwt>
</event>
<event>
 6    1  0.3017327E-006  0.2924980E+04  0.7818608E-02  0.8265484E-01
         -2   -1    0    0    0  501 -0.00000000000E+00  0.00000000000E+00  0.46612127437E+03  0.46612127437E+03  0.00000000000E+00 0.  1.
          2   -1    0    0  501    0  0.00000000000E+00 -0.00000000000E+00 -0.45886705501E+04  0.45886705501E+04  0.00000000000E+00 0. -1.
         23    2    1    2    0    0  0.14020455503E+04 -0.19523324744E+03 -0.14407389739E+04  0.20223086438E+04  0.10077556209E+03 0.  0.
         11    1    3    3    0    0  0.89770651287E+03 -0.16263249870E+03 -0.88301292770E+03  0.12696606410E+04  0.00000000000E+00 0.  1.
        -11    1    3    3    0    0  0.50433903742E+03 -0.32600748742E+02 -0.55772604620E+03  0.75264800278E+03  0.00000000000E+00 0. -1.
         22    1    1    2    0    0 -0.14020455503E+04  0.19523324744E+03 -0.26818103018E+04  0.30324831806E+04  0.00000000000E+00 0. -1.
<mgrwt>
<rscale>  0 0.29249800E+04</rscale>
<asrwt>0</asrwt>
<pdfrwt beam="1">  1        2 0.70594930E+00 0.29249800E+04</pdfrwt>
<pdfrwt beam="2">  1       -2 0.71710967E-01 0.29249800E+04</pdfrwt>
<totfact> 0.15242275E-01</totfact>
</mgrwt>
</event>
<event>
 6    1  0.3017327E-006  0.3760349E+04  0.7818608E-02  0.8054718E-01
         -2   -1    0    0    0  501 -0.00000000000E+00  0.00000000000E+00  0.11375637091E+04  0.11375637091E+04  0.00000000000E+00 0.  1.
          2   -1    0    0  501    0  0.00000000000E+00 -0.00000000000E+00 -0.31075675120E+04  0.31075675120E+04  0.00000000000E+00 0. -1.
         23    2    1    2    0    0  0.61550073886E+03  0.13575334135E+04 -0.22773179120E+04  0.27232310634E+04  0.89846670028E+02 0.  0.
         11    1    3    3    0    0  0.25443969672E+03  0.66609654364E+03 -0.10662116678E+04  0.12826657730E+04  0.00000000000E+00 0. -1.
        -11    1    3    3    0    0  0.36106104214E+03  0.69143686984E+03 -0.12111062442E+04  0.14405652904E+04  0.00000000000E+00 0.  1.
         22    1    1    2    0    0 -0.61550073886E+03 -0.13575334135E+04  0.30731410907E+03  0.15219001577E+04  0.00000000000E+00 0.  1.
<mgrwt>
<rscale>  0 0.37603489E+04</rscale>
<asrwt>0</asrwt>
<pdfrwt beam="1">  1        2 0.47808731E+00 0.37603489E+04</pdfrwt>
<pdfrwt beam="2">  1       -2 0.17500980E+00 0.37603489E+04</pdfrwt>
<totfact> 0.23496752E-01</totfact>
</mgrwt>
</event>
<event>
 6    1  0.3017327E-006  0.3658634E+04  0.7818608E-02  0.8077191E-01
         -2   -1    0    0    0  501 -0.00000000000E+00  0.00000000000E+00  0.15526391220E+04  0.15526391220E+04  0.00000000000E+00 0.  1.
          2   -1    0    0  501    0  0.00000000000E+00 -0.00000000000E+00 -0.21552987443E+04  0.21552987443E+04  0.00000000000E+00 0. -1.
         23    2    1    2    0    0 -0.10927149682E+04 -0.92305173375E+01 -0.17867996688E+04  0.20966344020E+04  0.95454464707E+02 0.  0.
         11    1    3    3    0    0 -0.87746261745E+03 -0.45429329981E+02 -0.14329815500E+04  0.16809046944E+04  0.00000000000E+00 0. -1.
        -11    1    3    3    0    0 -0.21525235077E+03  0.36198812644E+02 -0.35381811879E+03  0.41572970754E+03  0.00000000000E+00 0.  1.
         22    1    1    2    0    0  0.10927149682E+04  0.92305173375E+01  0.11841400466E+04  0.16113034643E+04  0.00000000000E+00 0.  1.
<mgrwt>
<rscale>  0 0.36586343E+04</rscale>
<asrwt>0</asrwt>
<pdfrwt beam="1">  1        2 0.33158442E+00 0.36586343E+04</pdfrwt>
<pdfrwt beam="2">  1       -2 0.23886756E+00 0.36586343E+04</pdfrwt>
<totfact> 0.33412645E-01</totfact>
</mgrwt>
</event>
<event>
 6    1  0.3017327E-006  0.2014263E+04  0.7818608E-02  0.8599981E-01
         -2   -1    0    0    0  501 -0.00000000000E+00  0.00000000000E+00  0.78696496709E+03  0.78696496709E+03  0.00000000000E+00 0.  1.
          2   -1    0    0  501    0  0.00000000000E+00 -0.00000000000E+00 -0.12888927639E+04  0.12888927639E+04  0.00000000000E+00 0. -1.
         23    2    1    2    0    0  0.73639041252E+03 -0.58215461569E+03 -0.62189934212E+03  0.11295131806E+04  0.88692712836E+02 0.  0.
         11    1    3    3    0    0  0.17515185272E+03 -0.17840080623E+03 -0.19376495136E+03  0.31630661636E+03  0.00000000000E+00 0. -1.
        -11    1    3    3    0    0  0.56123855979E+03 -0.40375380946E+03 -0.42813439076E+03  0.81320656429E+03  0.00000000000E+00 0.  1.
         22    1    1    2    0    0 -0.73639041252E+03  0.58215461569E+03  0.11997154535E+03  0.94634455031E+03  0.00000000000E+00 0.  1.
<mgrwt>
<rscale>  0 0.20142626E+04</rscale>
<asrwt>0</asrwt>
<pdfrwt beam="1">  1        2 0.19829119E+00 0.20142626E+04</pdfrwt>
<pdfrwt beam="2">  1       -2 0.12107153E+00 0.20142626E+04</pdfrwt>
<totfact> 0.80891614E+00</totfact>
</mgrwt>
</event>
<event>
 6    1  0.3017327E-006  0.4991459E+04  0.7818608E-02  0.7829826E-01
         -2   -1    0    0    0  501 -0.00000000000E+00  0.00000000000E+00  0.15932668073E+04  0.15932668073E+04  0.00000000000E+00 0.  1.
          2   -1    0    0  501    0  0.00000000000E+00 -0.00000000000E+00 -0.39093670860E+04  0.39093670860E+04  0.00000000000E+00 0. -1.
         23    2    1    2    0    0  0.19449946723E+04 -0.12473040478E+04 -0.21959088435E+04  0.31889317422E+04  0.92186465331E+02 0.  0.
         13    1    3    3    0    0  0.73740866407E+03 -0.43728383711E+03 -0.76930591708E+03  0.11518768537E+04  0.00000000000E+00 0. -1.
        -13    1    3    3    0    0  0.12075860082E+04 -0.81002021073E+03 -0.14266029264E+04  0.20370548885E+04  0.00000000000E+00 0.  1.
         22    1    1    2    0    0 -0.19449946723E+04  0.12473040478E+04 -0.12019143528E+03  0.23137021511E+04  0.00000000000E+00 0.  1.
<mgrwt>
<rscale>  0 0.49914586E+04</rscale>
<asrwt>0</asrwt>
<pdfrwt beam="1">  1        2 0.60144110E+00 0.49914586E+04</pdfrwt>
<pdfrwt beam="2">  1       -2 0.24511797E+00 0.49914586E+04</pdfrwt>
<totfact> 0.20196431E-02</totfact>
</mgrwt>
</event>
<event>
 6    1  0.3017327E-006  0.1256268E+04  0.7818608E-02  0.9064983E-01
          2   -1    0    0  501    0  0.00000000000E+00  0.00000000000E+00  0.33501501139E+04  0.33501501139E+04  0.00000000000E+00 0. -1.
         -2   -1    0    0    0  501 -0.00000000000E+00 -0.00000000000E+00 -0.11777148071E+03  0.11777148071E+03  0.00000000000E+00 0.  1.
         23    2    1    2    0    0  0.21235331612E+03 -0.50869600435E+03  0.24367197420E+04  0.24999656933E+04  0.91432002195E+02 0.  0.
         11    1    3    3    0    0  0.14778942427E+03 -0.24393709093E+03  0.11697896541E+04  0.12040576618E+04  0.00000000000E+00 0. -1.
        -11    1    3    3    0    0  0.64563891849E+02 -0.26475891343E+03  0.12669300879E+04  0.12959080315E+04  0.00000000000E+00 0.  1.
         22    1    1    2    0    0 -0.21235331612E+03  0.50869600435E+03  0.79565889116E+03  0.96795590127E+03  0.00000000000E+00 0.  1.
<mgrwt>
<rscale>  0 0.12562677E+04</rscale>
<asrwt>0</asrwt>
<pdfrwt beam="1">  1        2 0.51540764E+00 0.12562677E+04</pdfrwt>
<pdfrwt beam="2">  1       -2 0.18118692E-01 0.12562677E+04</pdfrwt>
<totfact> 0.26245137E+01</totfact>
</mgrwt>
</event>
<event>
 6    1  0.3017327E-006  0.2761895E+04  0.7818608E-02  0.8315197E-01
         -2   -1    0    0    0  501 -0.00000000000E+00  0.00000000000E+00  0.12800596047E+04  0.12800596047E+04  0.00000000000E+00 0.  1.
          2   -1    0    0  501    0  0.00000000000E+00 -0.00000000000E+00 -0.14897866965E+04  0.14897866965E+04  0.00000000000E+00 0. -1.
         23    2    1    2    0    0 -0.51892908795E+03  0.48648146961E+03 -0.12902359569E+04  0.14762269498E+04  0.92658319306E+02 0.  0.
         11    1    3    3    0    0 -0.11636682249E+03  0.75865027137E+02 -0.31144974696E+03  0.34102446334E+03  0.00000000000E+00 0.  1.
        -11    1    3    3    0    0 -0.40256226547E+03  0.41061644248E+03 -0.97878620998E+03  0.11352024865E+04  0.00000000000E+00 0. -1.
         22    1    1    2    0    0  0.51892908795E+03 -0.48648146961E+03  0.10805088652E+04  0.12936193514E+04  0.00000000000E+00 0.  1.
<mgrwt>
<rscale>  0 0.27618948E+04</rscale>
<asrwt>0</asrwt>
<pdfrwt beam="1">  1        2 0.22919795E+00 0.27618948E+04</pdfrwt>
<pdfrwt beam="2">  1       -2 0.19693225E+00 0.27618948E+04</pdfrwt>
<totfact> 0.15647791E+00</totfact>
</mgrwt>
</event>
<event>
 6    1  0.3017327E-006  0.1324117E+04  0.7818608E-02  0.9010656E-01
         -2   -1    0    0    0  501 -0.00000000000E+00  0.00000000000E+00  0.49289240133E+03  0.49289240133E+03  0.00000000000E+00 0.  1.
          2   -1    0    0  501    0  0.00000000000E+00 -0.00000000000E+00 -0.88928380928E+03  0.88928380928E+03  0.00000000000E+00 0. -1.
         23    2    1    2    0    0 -0.41202988566E+03 -0.51448185275E+03 -0.19272317369E+03  0.69229147159E+03  0.87550308264E+02 0.  0.
         11    1    3    3    0    0 -0.16008402089E+03 -0.15439346599E+03 -0.33786247902E+02  0.22495721067E+03  0.00000000000E+00 0.  1.
        -11    1    3    3    0    0 -0.25194586477E+03 -0.36008838676E+03 -0.15893692579E+03  0.46733426093E+03  0.00000000000E+00 0. -1.
         22    1    1    2    0    0  0.41202988566E+03  0.51448185275E+03 -0.20366823426E+03  0.68988473902E+03  0.00000000000E+00 0.  1.
<mgrwt>
<rscale>  0 0.13241167E+04</rscale>
<asrwt>0</asrwt>
<pdfrwt beam="1">  1        2 0.13681289E+00 0.13241167E+04</pdfrwt>
<pdfrwt beam="2">  1       -2 0.75829600E-01 0.13241167E+04</pdfrwt>
<totfact> 0.45482373E+01</totfact>
</mgrwt>
</event>
<event>
 6    1  0.3017327E-006  0.4082914E+04  0.7818608E-02  0.7988026E-01
          2   -1    0    0  501    0  0.00000000000E+00  0.00000000000E+00  0.29080087275E+04  0.29080087275E+04  0.00000000000E+00 0. -1.
         -2   -1    0    0    0  501 -0.00000000000E+00 -0.00000000000E+00 -0.14331275646E+04  0.14331275646E+04  0.00000000000E+00 0.  1.
         23    2    1    2    0    0  0.17525877298E+04 -0.71180833985E+02  0.18462585182E+04  0.25482192271E+04  0.90112436810E+02 0.  0.
         11    1    3    3    0    0  0.53340700389E+03 -0.25985549038E+02  0.50319990023E+03  0.73376319078E+03  0.00000000000E+00 0.  1.
        -11    1    3    3    0    0  0.12191807260E+04 -0.45195284947E+02  0.13430586180E+04  0.18144560363E+04  0.00000000000E+00 0. -1.
         22    1    1    2    0    0 -0.17525877298E+04  0.71180833985E+02 -0.37137735529E+03  0.17929170650E+04  0.00000000000E+00 0.  1.
<mgrwt>
<rscale>  0 0.40829144E+04</rscale>
<asrwt>0</asrwt>
<pdfrwt beam="1">  1        2 0.44738596E+00 0.40829144E+04</pdfrwt>
<pdfrwt beam="2">  1       -2 0.22048116E+00 0.40829144E+04</pdfrwt>
<totfact> 0.15270173E-01</totfact>
</mgrwt>
</event>
<event>
 6    1  0.3017327E-006  0.2039133E+04  0.7818608E-02  0.8588540E-01
         -2   -1    0    0    0  501 -0.00000000000E+00  0.00000000000E+00  0.78616497180E+03  0.78616497180E+03  0.00000000000E+00 0.  1.
          2   -1    0    0  501    0  0.00000000000E+00 -0.00000000000E+00 -0.13222619056E+04  0.13222619056E+04  0.00000000000E+00 0. -1.
         23    2    1    2    0    0 -0.22755353443E+03  0.48489010626E+03 -0.11631134164E+04  0.12837762268E+04  0.91375899552E+02 0.  0.
         13    1    3    3    0    0 -0.17865649212E+03  0.32595210422E+03 -0.71584924093E+03  0.80659968520E+03  0.00000000000E+00 0. -1.
        -13    1    3    3    0    0 -0.48897042315E+02  0.15893800204E+03 -0.44726417544E+03  0.47717654161E+03  0.00000000000E+00 0.  1.
         22    1    1    2    0    0  0.22755353443E+03 -0.48489010626E+03  0.62701648254E+03  0.82465065062E+03  0.00000000000E+00 0.  1.
<mgrwt>
<rscale>  0 0.20391331E+04</rscale>
<asrwt>0</asrwt>
<pdfrwt beam="1">  1        2 0.20342491E+00 0.20391331E+04</pdfrwt>
<pdfrwt beam="2">  1       -2 0.12094846E+00 0.20391331E+04</pdfrwt>
<totfact> 0.77387072E+00</totfact>
</mgrwt>
</event>
<event>
 6    1  0.3017327E-006  0.1484410E+04  0.7818608E-02  0.8894887E-01
         -2   -1    0    0    0  501 -0.00000000000E+00  0.00000000000E+00  0.21234008771E+04  0.21234008771E+04  0.00000000000E+00 0. -1.
          2   -1    0    0  501    0  0.00000000000E+00 -0.00000000000E+00 -0.25942722145E+03  0.25942722145E+03  0.00000000000E+00 0.  1.
         23    2    1    2    0    0  0.52817764393E+02 -0.72906795727E+03  0.76029471179E+03  0.10590316589E+04  0.95761177706E+02 0.  0.
         11    1    3    3    0    0  0.47766015845E+02 -0.64001914573E+03  0.61720592529E+03  0.89042082937E+03  0.00000000000E+00 0.  1.
        -11    1    3    3    0    0  0.50517485484E+01 -0.89048811540E+02  0.14308878651E+03  0.16861082950E+03  0.00000000000E+00 0. -1.
         22    1    1    2    0    0 -0.52817764393E+02  0.72906795727E+03  0.11036789438E+04  0.13237964396E+04  0.00000000000E+00 0. -1.
<mgrwt>
<rscale>  0 0.14844096E+04</rscale>
<asrwt>0</asrwt>
<pdfrwt beam="1">  1        2 0.39911882E-01 0.14844096E+04</pdfrwt>
<pdfrwt beam="2">  1       -2 0.32667705E+00 0.14844096E+04</pdfrwt>
<totfact> 0.27350264E+00</totfact>
</mgrwt>
</event>
<event>
 6    1  0.3017327E-006  0.1169160E+04  0.7818608E-02  0.9140288E-01
          2   -1    0    0  501    0  0.00000000000E+00  0.00000000000E+00  0.24492700263E+04  0.24492700263E+04  0.00000000000E+00 0.  1.
         -2   -1    0    0    0  501 -0.00000000000E+00 -0.00000000000E+00 -0.13952468559E+03  0.13952468559E+03  0.00000000000E+00 0. -1.
         23    2    1    2    0    0  0.52497505445E+03  0.16607770364E+03  0.75301359211E+03  0.93755446634E+03  0.93799232432E+02 0.  0.
         13    1    3    3    0    0  0.14106686852E+03  0.17856987825E+02  0.25041876922E+03  0.28797273028E+03  0.00000000000E+00 0.  1.
        -13    1    3    3    0    0  0.38390818593E+03  0.14822071581E+03  0.50259482290E+03  0.64958173606E+03  0.00000000000E+00 0. -1.
         22    1    1    2    0    0 -0.52497505445E+03 -0.16607770364E+03  0.15567317486E+04  0.16512402455E+04  0.00000000000E+00 0. -1.
<mgrwt>
<rscale>  0 0.11691598E+04</rscale>
<asrwt>0</asrwt>
<pdfrwt beam="1">  1        2 0.37681074E+00 0.11691598E+04</pdfrwt>
<pdfrwt beam="2">  1       -2 0.21465338E-01 0.11691598E+04</pdfrwt>
<totfact> 0.69903315E+01</totfact>
</mgrwt>
</event>
<event>
 6    1  0.3017327E-006  0.2918706E+04  0.7818608E-02  0.8267334E-01
          1   -1    0    0  501    0  0.00000000000E+00  0.00000000000E+00  0.21545510359E+04  0.21545510359E+04  0.00000000000E+00 0. -1.
         -1   -1    0    0    0  501 -0.00000000000E+00 -0.00000000000E+00 -0.98847097541E+03  0.98847097541E+03  0.00000000000E+00 0.  1.
         23    2    1    2    0    0 -0.33494430411E+03 -0.13987685578E+04  0.84046303249E+03  0.16683126792E+04  0.90265837956E+02 0.  0.
         11    1    3    3    0    0 -0.20404252442E+03 -0.91069548894E+03  0.59212354761E+03  0.11052646384E+04  0.00000000000E+00 0. -1.
        -11    1    3    3    0    0 -0.13090177969E+03 -0.48807306885E+03  0.24833948488E+03  0.56304804077E+03  0.00000000000E+00 0.  1.
         22    1    1    2    0    0  0.33494430411E+03  0.13987685578E+04  0.32561702795E+03  0.14747093320E+04  0.00000000000E+00 0.  1.
<mgrwt>
<rscale>  0 0.29187060E+04</rscale>
<asrwt>0</asrwt>
<pdfrwt beam="1">  1        1 0.33146939E+00 0.29187060E+04</pdfrwt>
<pdfrwt beam="2">  1       -1 0.15207246E+00 0.29187060E+04</pdfrwt>
<totfact> 0.67393933E-01</totfact>
</mgrwt>
</event>
<event>
 6    1  0.3017327E-006  0.1632521E+04  0.7818608E-02  0.8800815E-01
         -1   -1    0    0    0  501 -0.00000000000E+00  0.00000000000E+00  0.92031468369E+03  0.92031468369E+03  0.00000000000E+00 0.  1.
          1   -1    0    0  501    0  0.00000000000E+00 -0.00000000000E+00 -0.72397099239E+03  0.72397099239E+03  0.00000000000E+00 0. -1.
         23    2    1    2    0    0 -0.38910779095E+03  0.70792922066E+03  0.19668333431E+03  0.83646838869E+03  0.91795298633E+02 0.  0.
         11    1    3    3    0    0 -0.10922335738E+03  0.28452487230E+03  0.57061753950E+02  0.31006481341E+03  0.00000000000E+00 0.  1.
        -11    1    3    3    0    0 -0.27988443358E+03  0.42340434836E+03  0.13962158036E+03  0.52640357528E+03  0.00000000000E+00 0. -1.
         22    1    1    2    0    0  0.38910779095E+03 -0.70792922066E+03 -0.33964300697E+00  0.80781728738E+03  0.00000000000E+00 0. -1.
<mgrwt>
<rscale>  0 0.16325209E+04</rscale>
<asrwt>0</asrwt>
<pdfrwt beam="1">  1        1 0.11138015E+00 0.16325209E+04</pdfrwt>
<pdfrwt beam="2">  1       -1 0.14158687E+00 0.16325209E+04</pdfrwt>
<totfact> 0.10077222E+01</totfact>
</mgrwt>
</event>
<event>
 6    1  0.3017327E-006  0.3139986E+03  0.7818608E-02  0.1078445E+00
         -1   -1    0    0    0  501 -0.00000000000E+00  0.00000000000E+00  0.24669284265E+03  0.24669284265E+03  0.00000000000E+00 0.  1.
          1   -1    0    0  501    0  0.00000000000E+00 -0.00000000000E+00 -0.99916883327E+02  0.99916883327E+02  0.00000000000E+00 0. -1.
         23    2    1    2    0    0  0.15591984225E+02 -0.51073235502E+02  0.22708263855E+03  0.25016933980E+03  0.90369178862E+02 0.  0.
         11    1    3    3    0    0 -0.11679803271E+02  0.15598474555E+02  0.11700923653E+03  0.11862078927E+03  0.00000000000E+00 0. -1.
        -11    1    3    3    0    0  0.27271787496E+02 -0.66671710057E+02  0.11007340202E+03  0.13154855054E+03  0.00000000000E+00 0.  1.
         22    1    1    2    0    0 -0.15591984225E+02  0.51073235502E+02 -0.80306679229E+02  0.96440386175E+02  0.00000000000E+00 0. -1.
<mgrwt>
<rscale>  0 0.31399860E+03</rscale>
<asrwt>0</asrwt>
<pdfrwt beam="1">  1        1 0.15371828E-01 0.31399860E+03</pdfrwt>
<pdfrwt beam="2">  1       -1 0.37952745E-01 0.31399860E+03</pdfrwt>
<totfact> 0.24475303E+03</totfact>
</mgrwt>
</event>
<event>
 6    1  0.3017327E-006  0.2968114E+04  0.7818608E-02  0.8252895E-01
          2   -1    0    0  501    0  0.00000000000E+00  0.00000000000E+00  0.11282289237E+04  0.11282289237E+04  0.00000000000E+00 0. -1.
         -2   -1    0    0    0  501 -0.00000000000E+00 -0.00000000000E+00 -0.19521084651E+04  0.19521084651E+04  0.00000000000E+00 0.  1.
         23    2    1    2    0    0  0.11061506982E+04  0.42296501765E+03 -0.13380890147E+04  0.17892602587E+04  0.92202433244E+02 0.  0.
         13    1    3    3    0    0  0.22550204806E+03  0.94132359052E+02 -0.33351761023E+03  0.41345625044E+03  0.00000000000E+00 0. -1.
        -13    1    3    3    0    0  0.88064865018E+03  0.32883265860E+03 -0.10045714045E+04  0.13758040083E+04  0.00000000000E+00 0.  1.
         22    1    1    2    0    0 -0.11061506982E+04 -0.42296501765E+03  0.51420947329E+03  0.12910771301E+04  0.00000000000E+00 0. -1.
<mgrwt>
<rscale>  0 0.29681140E+04</rscale>
<asrwt>0</asrwt>
<pdfrwt beam="1">  1        2 0.17357368E+00 0.29681140E+04</pdfrwt>
<pdfrwt beam="2">  1       -2 0.30032437E+00 0.29681140E+04</pdfrwt>
<totfact> 0.56836844E-01</totfact>
</mgrwt>
</event>
<event>
 6    1  0.5827613E-006  0.3247620E+04  0.7818608E-02  0.8176353E-01
         -2   -1    0    0    0  501 -0.00000000000E+00  0.00000000000E+00  0.10408862141E+04  0.10408862141E+04  0.00000000000E+00 0.  1.
          2   -1    0    0  501    0  0.00000000000E+00 -0.00000000000E+00 -0.25331864927E+04  0.25331864927E+04  0.00000000000E+00 0. -1.
         23    2    1    2    0    0  0.14156189756E+04  0.79166969136E+03 -0.79214642537E+03  0.18074563358E+04  0.93190463754E+02 0.  0.
         13    1    3    3    0    0  0.43558421849E+03  0.26455575562E+03 -0.20560685631E+03  0.54954302706E+03  0.00000000000E+00 0. -1.
        -13    1    3    3    0    0  0.98003475707E+03  0.52711393574E+03 -0.58653956905E+03  0.12579133088E+04  0.00000000000E+00 0.  1.
         22    1    1    2    0    0 -0.14156189756E+04 -0.79166969136E+03 -0.70015385323E+03  0.17666163710E+04  0.00000000000E+00 0. -1.
<mgrwt>
<rscale>  0 0.32476200E+04</rscale>
<asrwt>0</asrwt>
<pdfrwt beam="1">  1        2 0.38972099E+00 0.32476200E+04</pdfrwt>
<pdfrwt beam="2">  1       -2 0.16013634E+00 0.32476200E+04</pdfrwt>
<totfact> 0.70175432E-01</totfact>
</mgrwt>
</event>
<event>
 6    1  0.3017327E-006  0.1331138E+04  0.7818608E-02  0.9005230E-01
          1   -1    0    0  501    0  0.00000000000E+00  0.00000000000E+00  0.12789658547E+04  0.12789658547E+04  0.00000000000E+00 0. -1.
         -1   -1    0    0    0  501 -0.00000000000E+00 -0.00000000000E+00 -0.34635969458E+03  0.34635969458E+03  0.00000000000E+00 0.  1.
         23    2    1    2    0    0 -0.12863004438E+03 -0.47631332506E+02  0.12597851680E+04  0.12705572652E+04  0.91883961329E+02 0.  0.
         13    1    3    3    0    0 -0.13207837002E+02 -0.44013545960E+02  0.49126675982E+03  0.49341125696E+03  0.00000000000E+00 0.  1.
        -13    1    3    3    0    0 -0.11542220738E+03 -0.36177865459E+01  0.76851840819E+03  0.77714600820E+03  0.00000000000E+00 0. -1.
         22    1    1    2    0    0  0.12863004438E+03  0.47631332506E+02 -0.32717900793E+03  0.35476828408E+03  0.00000000000E+00 0.  1.
<mgrwt>
<rscale>  0 0.13311382E+04</rscale>
<asrwt>0</asrwt>
<pdfrwt beam="1">  1        1 0.19676398E+00 0.13311382E+04</pdfrwt>
<pdfrwt beam="2">  1       -1 0.53286108E-01 0.13311382E+04</pdfrwt>
<totfact> 0.32607039E+01</totfact>
</mgrwt>
</event>
<event>
 6    1  0.3017327E-006  0.2110393E+04  0.7818608E-02  0.8556679E-01
         -2   -1    0    0    0  501 -0.00000000000E+00  0.00000000000E+00  0.65778646331E+03  0.65778646331E+03  0.00000000000E+00 0. -1.
          2   -1    0    0  501    0  0.00000000000E+00 -0.00000000000E+00 -0.16927062022E+04  0.16927062022E+04  0.00000000000E+00 0.  1.
         23    2    1    2    0    0 -0.82219735407E+03  0.29023933320E+03  0.13976009868E+03  0.88757773963E+03  0.89520942452E+02 0.  0.
         13    1    3    3    0    0 -0.38288014446E+03  0.14820146174E+03  0.22321259726E+02  0.41116799112E+03  0.00000000000E+00 0. -1.
        -13    1    3    3    0    0 -0.43931720961E+03  0.14203787146E+03  0.11743883895E+03  0.47640974852E+03  0.00000000000E+00 0.  1.
         22    1    1    2    0    0  0.82219735407E+03 -0.29023933320E+03 -0.11746798375E+04  0.14629149259E+04  0.00000000000E+00 0.  1.
<mgrwt>
<rscale>  0 0.21103926E+04</rscale>
<asrwt>0</asrwt>
<pdfrwt beam="1">  1        2 0.26041634E+00 0.21103926E+04</pdfrwt>
<pdfrwt beam="2">  1       -2 0.10119792E+00 0.21103926E+04</pdfrwt>
<totfact> 0.73188425E+00</totfact>
</mgrwt>
</event>
<event>
 6    1  0.3856640E-006  0.2942265E+04  0.7818608E-02  0.8260412E-01
          2   -1    0    0  501    0  0.00000000000E+00  0.00000000000E+00  0.18331066817E+04  0.18331066817E+04  0.00000000000E+00 0. -1.
         -2   -1    0    0    0  501 -0.00000000000E+00 -0.00000000000E+00 -0.11806358035E+04  0.11806358035E+04  0.00000000000E+00 0.  1.
         23    2    1    2    0    0  0.75650854380E+03 -0.80932854936E+03  0.13159115105E+04  0.17224364215E+04  0.88579032555E+02 0.  0.
         11    1    3    3    0    0  0.40866598011E+03 -0.39360557638E+03  0.62213213264E+03  0.84201046521E+03  0.00000000000E+00 0. -1.
        -11    1    3    3    0    0  0.34784256368E+03 -0.41572297298E+03  0.69377937783E+03  0.88042595627E+03  0.00000000000E+00 0.  1.
         22    1    1    2    0    0 -0.75650854380E+03  0.80932854936E+03 -0.66344063229E+03  0.12913060637E+04  0.00000000000E+00 0.  1.
<mgrwt>
<rscale>  0 0.29422654E+04</rscale>
<asrwt>0</asrwt>
<pdfrwt beam="1">  1        2 0.28201641E+00 0.29422654E+04</pdfrwt>
<pdfrwt beam="2">  1       -2 0.18163628E+00 0.29422654E+04</pdfrwt>
<totfact> 0.12570178E+00</totfact>
</mgrwt>
</event>
<event>
 6    1  0.3017327E-006  0.3547800E+04  0.7818608E-02  0.8102554E-01
         -2   -1    0    0    0  501 -0.00000000000E+00  0.00000000000E+00  0.10476929225E+04  0.10476929225E+04  0.00000000000E+00 0.  1.
          2   -1    0    0  501    0  0.00000000000E+00 -0.00000000000E+00 -0.30034770195E+04  0.30034770195E+04  0.00000000000E+00 0. -1.
         23    2    1    2    0    0  0.13043660865E+04  0.95617507482E+03 -0.14958479469E+03  0.16267117384E+04  0.90409112693E+02 0.  0.
         11    1    3    3    0    0  0.94672527309E+03  0.65932885476E+03 -0.13655525111E+03  0.11617446441E+04  0.00000000000E+00 0.  1.
        -11    1    3    3    0    0  0.35764081339E+03  0.29684622006E+03 -0.13029543581E+02  0.46496709429E+03  0.00000000000E+00 0. -1.
         22    1    1    2    0    0 -0.13043660865E+04 -0.95617507482E+03 -0.18061993024E+04  0.24244582036E+04  0.00000000000E+00 0. -1.
<mgrwt>
<rscale>  0 0.35478002E+04</rscale>
<asrwt>0</asrwt>
<pdfrwt beam="1">  1        2 0.46207338E+00 0.35478002E+04</pdfrwt>
<pdfrwt beam="2">  1       -2 0.16118353E+00 0.35478002E+04</pdfrwt>
<totfact> 0.34982477E-01</totfact>
</mgrwt>
</event>
<event>
 6    1  0.3017327E-006  0.4261217E+03  0.7818608E-02  0.1035092E+00
         -2   -1    0    0    0  501 -0.00000000000E+00  0.00000000000E+00  0.80171816576E+02  0.80171816576E+02  0.00000000000E+00 0.  1.
          2   -1    0    0  501    0  0.00000000000E+00 -0.00000000000E+00 -0.56622045222E+03  0.56622045222E+03  0.00000000000E+00 0. -1.
         23    2    1    2    0    0 -0.49109181637E+02  0.81169322544E+02  0.15949604262E+02  0.13550832551E+03  0.95435558166E+02 0.  0.
         13    1    3    3    0    0 -0.57217356347E+02  0.98464845297E+02  0.61714093798E+01  0.11404927847E+03  0.00000000000E+00 0. -1.
        -13    1    3    3    0    0  0.81081747097E+01 -0.17295522753E+02  0.97781948818E+01  0.21459047033E+02  0.00000000000E+00 0.  1.
         22    1    1    2    0    0  0.49109181637E+02 -0.81169322544E+02 -0.50199823990E+03  0.51088394329E+03  0.00000000000E+00 0. -1.
<mgrwt>
<rscale>  0 0.42612168E+03</rscale>
<asrwt>0</asrwt>
<pdfrwt beam="1">  1        2 0.87110834E-01 0.42612168E+03</pdfrwt>
<pdfrwt beam="2">  1       -2 0.12334126E-01 0.42612168E+03</pdfrwt>
<totfact> 0.25673267E+03</totfact>
</mgrwt>
</event>
<event>
 6    1  0.3017327E-006  0.1833849E+04  0.7818608E-02  0.8688503E-01
          2   -1    0    0  501    0  0.00000000000E+00  0.00000000000E+00  0.13238122408E+04  0.13238122408E+04  0.00000000000E+00 0. -1.
         -2   -1    0    0    0  501 -0.00000000000E+00 -0.00000000000E+00 -0.63509833940E+03  0.63509833940E+03  0.00000000000E+00 0.  1.
         23    2    1    2    0    0 -0.70984760344E+03  0.51670567748E+03  0.71510309171E+02  0.88568709393E+03  0.91975685850E+02 0.  0.
         13    1    3    3    0    0 -0.25738218749E+03  0.18696928359E+03  0.70391123720E+02  0.32581898923E+03  0.00000000000E+00 0. -1.
        -13    1    3    3    0    0 -0.45246541595E+03  0.32973639389E+03  0.11191854505E+01  0.55986810470E+03  0.00000000000E+00 0.  1.
         22    1    1    2    0    0  0.70984760344E+03 -0.51670567748E+03  0.61720359225E+03  0.10732234863E+04  0.00000000000E+00 0. -1.
<mgrwt>
<rscale>  0 0.18338495E+04</rscale>
<asrwt>0</asrwt>
<pdfrwt beam="1">  1        2 0.20366342E+00 0.18338495E+04</pdfrwt>
<pdfrwt beam="2">  1       -2 0.97707437E-01 0.18338495E+04</pdfrwt>
<totfact> 0.13155551E+01</totfact>
</mgrwt>
</event>
<event>
 6    1  0.3017327E-006  0.2940054E+04  0.7818608E-02  0.8261059E-01
         -2   -1    0    0    0  501 -0.00000000000E+00  0.00000000000E+00  0.16623253036E+04  0.16623253036E+04  0.00000000000E+00 0.  1.
          2   -1    0    0  501    0  0.00000000000E+00 -0.00000000000E+00 -0.12999734181E+04  0.12999734181E+04  0.00000000000E+00 0. -1.
         23    2    1    2    0    0  0.12383794552E+04  0.23868533414E+03 -0.57702571106E+03  0.13897261057E+04  0.88462500225E+02 0.  0.
         13    1    3    3    0    0  0.58563845683E+03  0.15641707789E+03 -0.28900707320E+03  0.67153837771E+03  0.00000000000E+00 0. -1.
        -13    1    3    3    0    0  0.65274099832E+03  0.82268256257E+02 -0.28801863786E+03  0.71818772799E+03  0.00000000000E+00 0.  1.
         22    1    1    2    0    0 -0.12383794552E+04 -0.23868533414E+03  0.93937759650E+03  0.15725726160E+04  0.00000000000E+00 0.  1.
<mgrwt>
<rscale>  0 0.29400535E+04</rscale>
<asrwt>0</asrwt>
<pdfrwt beam="1">  1        2 0.19999591E+00 0.29400535E+04</pdfrwt>
<pdfrwt beam="2">  1       -2 0.25574236E+00 0.29400535E+04</pdfrwt>
<totfact> 0.84257616E-01</totfact>
</mgrwt>
</event>
<event>
 6    1  0.3017327E-006  0.8500296E+03  0.7818608E-02  0.9490297E-01
         -1   -1    0    0    0  501 -0.00000000000E+00  0.00000000000E+00  0.10731388760E+03  0.10731388760E+03  0.00000000000E+00 0.  1.
          1   -1    0    0  501    0  0.00000000000E+00 -0.00000000000E+00 -0.16832636124E+04  0.16832636124E+04  0.00000000000E+00 0. -1.
         23    2    1    2    0    0  0.35219113478E+03 -0.14712684552E+03 -0.11669615405E+04  0.12311525819E+04  0.90843485188E+02 0.  0.
         11    1    3    3    0    0  0.85178929538E+02 -0.64655405906E+01 -0.18315569173E+03  0.20209715650E+03  0.00000000000E+00 0.  1.
        -11    1    3    3    0    0  0.26701220524E+03 -0.14066130493E+03 -0.98380584881E+03  0.10290554254E+04  0.00000000000E+00 0. -1.
         22    1    1    2    0    0 -0.35219113478E+03  0.14712684552E+03 -0.40898818428E+03  0.55942491808E+03  0.00000000000E+00 0. -1.
<mgrwt>
<rscale>  0 0.85002956E+03</rscale>
<asrwt>0</asrwt>
<pdfrwt beam="1">  1        1 0.25896362E+00 0.85002956E+03</pdfrwt>
<pdfrwt beam="2">  1       -1 0.16509829E-01 0.85002956E+03</pdfrwt>
<totfact> 0.13960390E+02</totfact>
</mgrwt>
</event>
<event>
 6    1  0.3017327E-006  0.2158833E+04  0.7818608E-02  0.8535761E-01
          1   -1    0    0  501    0  0.00000000000E+00  0.00000000000E+00  0.12008708608E+04  0.12008708608E+04  0.00000000000E+00 0. -1.
         -1   -1    0    0    0  501 -0.00000000000E+00 -0.00000000000E+00 -0.97024558950E+03  0.97024558950E+03  0.00000000000E+00 0.  1.
         23    2    1    2    0    0  0.49532208028E+02  0.66948158477E+03 -0.73207683304E+03  0.99746642850E+03  0.91344154382E+02 0.  0.
         11    1    3    3    0    0  0.30614574307E+01  0.40858688130E+03 -0.39096594919E+03  0.56551479691E+03  0.00000000000E+00 0.  1.
        -11    1    3    3    0    0  0.46470750598E+02  0.26089470346E+03 -0.34111088384E+03  0.43195163159E+03  0.00000000000E+00 0. -1.
         22    1    1    2    0    0 -0.49532208028E+02 -0.66948158477E+03  0.96270210435E+03  0.11736500218E+04  0.00000000000E+00 0. -1.
<mgrwt>
<rscale>  0 0.21588327E+04</rscale>
<asrwt>0</asrwt>
<pdfrwt beam="1">  1        1 0.18474936E+00 0.21588327E+04</pdfrwt>
<pdfrwt beam="2">  1       -1 0.14926855E+00 0.21588327E+04</pdfrwt>
<totfact> 0.34518030E+00</totfact>
</mgrwt>
</event>
<event>
 6    1  0.3017327E-006  0.1322424E+04  0.7818608E-02  0.9011970E-01
         -2   -1    0    0    0  501 -0.00000000000E+00  0.00000000000E+00  0.21437194637E+03  0.21437194637E+03  0.00000000000E+00 0.  1.
          2   -1    0    0  501    0  0.00000000000E+00 -0.00000000000E+00 -0.20394511602E+04  0.20394511602E+04  0.00000000000E+00 0. -1.
         23    2    1    2    0    0  0.61169301647E+03  0.19017916476E+03 -0.11734041462E+04  0.13400305399E+04  0.92022260915E+02 0.  0.
         13    1    3    3    0    0  0.53589252843E+03  0.19284783108E+03 -0.10010552678E+04  0.11517303231E+04  0.00000000000E+00 0. -1.
        -13    1    3    3    0    0  0.75800488040E+02 -0.26686663167E+01 -0.17234887840E+03  0.18830021681E+03  0.00000000000E+00 0.  1.
         22    1    1    2    0    0 -0.61169301647E+03 -0.19017916476E+03 -0.65167506768E+03  0.91379256669E+03  0.00000000000E+00 0. -1.
<mgrwt>
<rscale>  0 0.13224237E+04</rscale>
<asrwt>0</asrwt>
<pdfrwt beam="1">  1        2 0.31376173E+00 0.13224237E+04</pdfrwt>
<pdfrwt beam="2">  1       -2 0.32980298E-01 0.13224237E+04</pdfrwt>
<totfact> 0.53386821E+01</totfact>
</mgrwt>
</event>
<event>
 6    1  0.3017327E-006  0.3256916E+04  0.7818608E-02  0.8173946E-01
         -2   -1    0    0    0  501 -0.00000000000E+00  0.00000000000E+00  0.19750100341E+04  0.19750100341E+04  0.00000000000E+00 0.  1.
          2   -1    0    0  501    0  0.00000000000E+00 -0.00000000000E+00 -0.13427147554E+04  0.13427147554E+04  0.00000000000E+00 0. -1.
         23    2    1    2    0    0 -0.68669085931E+03 -0.27574799480E+02 -0.11858100938E+04  0.13740653926E+04  0.98007239130E+02 0.  0.
         13    1    3    3    0    0 -0.60511473831E+03  0.55079586052E+01 -0.10089662169E+04  0.11765232726E+04  0.00000000000E+00 0.  1.
        -13    1    3    3    0    0 -0.81576120999E+02 -0.33082758085E+02 -0.17684387691E+03  0.19754212007E+03  0.00000000000E+00 0. -1.
         22    1    1    2    0    0  0.68669085931E+03  0.27574799480E+02  0.18181053725E+04  0.19436593969E+04  0.00000000000E+00 0.  1.
<mgrwt>
<rscale>  0 0.32569158E+04</rscale>
<asrwt>0</asrwt>
<pdfrwt beam="1">  1        2 0.20657150E+00 0.32569158E+04</pdfrwt>
<pdfrwt beam="2">  1       -2 0.30384770E+00 0.32569158E+04</pdfrwt>
<totfact> 0.39387667E-01</totfact>
</mgrwt>
</event>
<event>
 6    1  0.3017327E-006  0.3983072E+04  0.7818608E-02  0.8007970E-01
         -1   -1    0    0    0  501 -0.00000000000E+00  0.00000000000E+00  0.11045415985E+04  0.11045415985E+04  0.00000000000E+00 0.  1.
          1   -1    0    0  501    0  0.00000000000E+00 -0.00000000000E+00 -0.35908257848E+04  0.35908257848E+04  0.00000000000E+00 0. -1.
         23    2    1    2    0    0  0.11827254198E+03 -0.19205059088E+04 -0.64238248492E+03  0.20303524069E+04  0.85698886628E+02 0.  0.
         13    1    3    3    0    0 -0.89651597145E+01 -0.31612823976E+03 -0.90614541171E+02  0.32898090086E+03  0.00000000000E+00 0.  1.
        -13    1    3    3    0    0  0.12723770169E+03 -0.16043776691E+04 -0.55176794375E+03  0.17013715060E+04  0.00000000000E+00 0. -1.
         22    1    1    2    0    0 -0.11827254198E+03  0.19205059088E+04 -0.18439017015E+04  0.26650149764E+04  0.00000000000E+00 0.  1.
<mgrwt>
<rscale>  0 0.39830724E+04</rscale>
<asrwt>0</asrwt>
<pdfrwt beam="1">  1        1 0.55243474E+00 0.39830724E+04</pdfrwt>
<pdfrwt beam="2">  1       -1 0.16992948E+00 0.39830724E+04</pdfrwt>
<totfact> 0.40776248E-02</totfact>
</mgrwt>
</event>
<event>
 6    1  0.3017327E-006  0.5448679E+03  0.7818608E-02  0.1002689E+00
          2   -1    0    0  501    0  0.00000000000E+00  0.00000000000E+00  0.56467292659E+03  0.56467292659E+03  0.00000000000E+00 0. -1.
         -2   -1    0    0    0  501 -0.00000000000E+00 -0.00000000000E+00 -0.13143939479E+03  0.13143939479E+03  0.00000000000E+00 0.  1.
         23    2    1    2    0    0  0.17039275482E+02  0.19543637423E+03  0.45022859716E+03  0.49919978871E+03  0.89492603390E+02 0.  0.
         11    1    3    3    0    0  0.45716274490E+02  0.15407201768E+03  0.29393349165E+03  0.33500009239E+03  0.00000000000E+00 0. -1.
        -11    1    3    3    0    0 -0.28676999008E+02  0.41364356550E+02  0.15629510551E+03  0.16419969632E+03  0.00000000000E+00 0.  1.
         22    1    1    2    0    0 -0.17039275482E+02 -0.19543637423E+03 -0.16995065364E+02  0.19691253268E+03  0.00000000000E+00 0.  1.
<mgrwt>
<rscale>  0 0.54486794E+03</rscale>
<asrwt>0</asrwt>
<pdfrwt beam="1">  1        2 0.86872757E-01 0.54486794E+03</pdfrwt>
<pdfrwt beam="2">  1       -2 0.20221446E-01 0.54486794E+03</pdfrwt>
<totfact> 0.11193466E+03</totfact>
</mgrwt>
</event>
<event>
 6    1  0.3017327E-006  0.2092675E+04  0.7818608E-02  0.8564477E-01
          2   -1    0    0  501    0  0.00000000000E+00  0.00000000000E+00  0.83441830044E+03  0.83441830044E+03  0.00000000000E+00 0. -1.
         -2   -1    0    0    0  501 -0.00000000000E+00 -0.00000000000E+00 -0.13120781011E+04  0.13120781011E+04  0.00000000000E+00 0.  1.
         23    2    1    2    0    0 -0.59965229331E+03  0.10988371717E+03  0.63029441383E+03  0.88189375819E+03  0.93852269359E+02 0.  0.
         13    1    3    3    0    0 -0.30014669416E+03  0.96340168825E+02  0.35644741895E+03  0.47584054957E+03  0.00000000000E+00 0. -1.
        -13    1    3    3    0    0 -0.29950559915E+03  0.13543548345E+02  0.27384699488E+03  0.40605320862E+03  0.00000000000E+00 0.  1.
         22    1    1    2    0    0  0.59965229331E+03 -0.10988371717E+03 -0.11079542145E+04  0.12646026434E+04  0.00000000000E+00 0.  1.
<mgrwt>
<rscale>  0 0.20926748E+04</rscale>
<asrwt>0</asrwt>
<pdfrwt beam="1">  1        2 0.12837205E+00 0.20926748E+04</pdfrwt>
<pdfrwt beam="2">  1       -2 0.20185817E+00 0.20926748E+04</pdfrwt>
<totfact> 0.38795820E+00</totfact>
</mgrwt>
</event>
<event>
 6    1  0.3017327E-006  0.1340875E+04  0.7818608E-02  0.8997764E-01
          2   -1    0    0  501    0  0.00000000000E+00  0.00000000000E+00  0.10061472892E+04  0.10061472892E+04  0.00000000000E+00 0.  1.
         -2   -1    0    0    0  501 -0.00000000000E+00 -0.00000000000E+00 -0.44674030812E+03  0.44674030812E+03  0.00000000000E+00 0. -1.
         23    2    1    2    0    0  0.30303324594E+03 -0.41707145544E+03 -0.17811095368E+03  0.55304847216E+03  0.91440437755E+02 0.  0.
         11    1    3    3    0    0  0.20158218947E+03 -0.21024344612E+03 -0.75728506055E+02  0.30095264142E+03  0.00000000000E+00 0. -1.
        -11    1    3    3    0    0  0.10145105647E+03 -0.20682800932E+03 -0.10238244762E+03  0.25209583074E+03  0.00000000000E+00 0.  1.
         22    1    1    2    0    0 -0.30303324594E+03  0.41707145544E+03  0.73751793479E+03  0.89983912519E+03  0.00000000000E+00 0.  1.
<mgrwt>
<rscale>  0 0.13408752E+04</rscale>
<asrwt>0</asrwt>
<pdfrwt beam="1">  1        2 0.15479189E+00 0.13408752E+04</pdfrwt>
<pdfrwt beam="2">  1       -2 0.68729279E-01 0.13408752E+04</pdfrwt>
<totfact> 0.47211173E+01</totfact>
</mgrwt>
</event>
<event>
 6    1  0.3017327E-006  0.4617419E+04  0.7818608E-02  0.7890397E-01
         -2   -1    0    0    0  501 -0.00000000000E+00  0.00000000000E+00  0.12103788062E+04  0.12103788062E+04  0.00000000000E+00 0.  1.
          2   -1    0    0  501    0  0.00000000000E+00 -0.00000000000E+00 -0.44036957889E+04  0.44036957889E+04  0.00000000000E+00 0. -1.
         23    2    1    2    0    0  0.11380465223E+03  0.13007899919E+04  0.71637352984E+03  0.14920986120E+04  0.90338981895E+02 0.  0.
         13    1    3    3    0    0  0.36714446751E+02  0.64785276472E+03  0.30961278739E+03  0.71897234541E+03  0.00000000000E+00 0. -1.
        -13    1    3    3    0    0  0.77090205481E+02  0.65293722719E+03  0.40676074245E+03  0.77312626655E+03  0.00000000000E+00 0.  1.
         22    1    1    2    0    0 -0.11380465223E+03 -0.13007899919E+04 -0.39096905126E+04  0.41219759832E+04  0.00000000000E+00 0. -1.
<mgrwt>
<rscale>  0 0.46174192E+04</rscale>
<asrwt>0</asrwt>
<pdfrwt beam="1">  1        2 0.67749166E+00 0.46174192E+04</pdfrwt>
<pdfrwt beam="2">  1       -2 0.18621212E+00 0.46174192E+04</pdfrwt>
<totfact> 0.18640233E-02</totfact>
</mgrwt>
</event>
<event>
 6    1  0.3017327E-006  0.3095889E+04  0.7818608E-02  0.8216867E-01
          2   -1    0    0  501    0  0.00000000000E+00  0.00000000000E+00  0.25089016286E+04  0.25089016286E+04  0.00000000000E+00 0.  1.
         -2   -1    0    0    0  501 -0.00000000000E+00 -0.00000000000E+00 -0.95505203631E+03  0.95505203631E+03  0.00000000000E+00 0. -1.
         23    2    1    2    0    0  0.23041714069E+03 -0.15313193424E+03  0.24801507970E+04  0.24972192806E+04  0.91731738637E+02 0.  0.
         11    1    3    3    0    0  0.71690795921E+01  0.36303699837E+01  0.29468016746E+03  0.29478971553E+03  0.00000000000E+00 0.  1.
        -11    1    3    3    0    0  0.22324806110E+03 -0.15676230422E+03  0.21854706295E+04  0.22024295651E+04  0.00000000000E+00 0. -1.
         22    1    1    2    0    0 -0.23041714069E+03  0.15313193424E+03 -0.92630120467E+03  0.96673438429E+03  0.00000000000E+00 0. -1.
<mgrwt>
<rscale>  0 0.30958886E+04</rscale>
<asrwt>0</asrwt>
<pdfrwt beam="1">  1        2 0.38598486E+00 0.30958886E+04</pdfrwt>
<pdfrwt beam="2">  1       -2 0.14693108E+00 0.30958886E+04</pdfrwt>
<totfact> 0.92436330E-01</totfact>
</mgrwt>
</event>
<event>
 6    1  0.3017327E-006  0.2939784E+04  0.7818608E-02  0.8261138E-01
         -2   -1    0    0    0  501 -0.00000000000E+00  0.00000000000E+00  0.13550516417E+04  0.13550516417E+04  0.00000000000E+00 0.  1.
          2   -1    0    0  501    0  0.00000000000E+00 -0.00000000000E+00 -0.15944647749E+04  0.15944647749E+04  0.00000000000E+00 0. -1.
         23    2    1    2    0    0  0.11825405000E+03  0.98938441383E+03 -0.12020913751E+04  0.15640147255E+04  0.90845191099E+02 0.  0.
         13    1    3    3    0    0  0.17316510965E+01  0.19132234760E+03 -0.27781148917E+03  0.33732249083E+03  0.00000000000E+00 0.  1.
        -13    1    3    3    0    0  0.11652239891E+03  0.79806206623E+03 -0.92427988598E+03  0.12266922347E+04  0.00000000000E+00 0. -1.
         22    1    1    2    0    0 -0.11825405000E+03 -0.98938441383E+03  0.96267824187E+03  0.13855016911E+04  0.00000000000E+00 0.  1.
<mgrwt>
<rscale>  0 0.29397837E+04</rscale>
<asrwt>0</asrwt>
<pdfrwt beam="1">  1        2 0.24530227E+00 0.29397837E+04</pdfrwt>
<pdfrwt beam="2">  1       -2 0.20846948E+00 0.29397837E+04</pdfrwt>
<totfact> 0.11319421E+00</totfact>
</mgrwt>
</event>
<event>
 6    1  0.3017327E-006  0.2591953E+04  0.7818608E-02  0.8370940E-01
         -2   -1    0    0    0  501 -0.00000000000E+00  0.00000000000E+00  0.45712765461E+03  0.45712765461E+03  0.00000000000E+00 0.  1.
          2   -1    0    0  501    0  0.00000000000E+00 -0.00000000000E+00 -0.36741477605E+04  0.36741477605E+04  0.00000000000E+00 0. -1.
         23    2    1    2    0    0 -0.83647177522E+03 -0.84412902915E+03 -0.24281351720E+04  0.27048889712E+04  0.91351432716E+02 0.  0.
         13    1    3    3    0    0 -0.44676842326E+03 -0.39420807562E+03 -0.11641132888E+04  0.13077315398E+04  0.00000000000E+00 0. -1.
        -13    1    3    3    0    0 -0.38970335196E+03 -0.44992095353E+03 -0.12640218832E+04  0.13971574314E+04  0.00000000000E+00 0.  1.
         22    1    1    2    0    0  0.83647177522E+03  0.84412902915E+03 -0.78888493393E+03  0.14263864440E+04  0.00000000000E+00 0.  1.
<mgrwt>
<rscale>  0 0.25919526E+04</rscale>
<asrwt>0</asrwt>
<pdfrwt beam="1">  1        2 0.56525348E+00 0.25919526E+04</pdfrwt>
<pdfrwt beam="2">  1       -2 0.70327335E-01 0.25919526E+04</pdfrwt>
<totfact> 0.99453833E-01</totfact>
</mgrwt>
</event>
<event>
 6    1  0.3017327E-006  0.1950977E+04  0.7818608E-02  0.8629890E-01
         -2   -1    0    0    0  501 -0.00000000000E+00  0.00000000000E+00  0.55223588391E+03  0.55223588391E+03  0.00000000000E+00 0.  1.
          2   -1    0    0  501    0  0.00000000000E+00 -0.00000000000E+00 -0.17231363834E+04  0.17231363834E+04  0.00000000000E+00 0. -1.
         23    2    1    2    0    0 -0.70990905874E+02 -0.97066183640E+03 -0.60568676757E+03  0.11498987349E+04  0.90479449421E+02 0.  0.
         13    1    3    3    0    0 -0.65631938183E+02 -0.33742602007E+03 -0.19665633264E+03  0.39602725095E+03  0.00000000000E+00 0.  1.
        -13    1    3    3    0    0 -0.53589676916E+01 -0.63323581634E+03 -0.40903043493E+03  0.75387148396E+03  0.00000000000E+00 0. -1.
         22    1    1    2    0    0  0.70990905874E+02  0.97066183640E+03 -0.56521373192E+03  0.11254735324E+04  0.00000000000E+00 0.  1.
<mgrwt>
<rscale>  0 0.19509769E+04</rscale>
<asrwt>0</asrwt>
<pdfrwt beam="1">  1        2 0.26509790E+00 0.19509769E+04</pdfrwt>
<pdfrwt beam="2">  1       -2 0.84959368E-01 0.19509769E+04</pdfrwt>
<totfact> 0.10710950E+01</totfact>
</mgrwt>
</event>
<event>
 6    1  0.3017327E-006  0.4215751E+04  0.7818608E-02  0.7962383E-01
          2   -1    0    0  501    0  0.00000000000E+00  0.00000000000E+00  0.43035640085E+04  0.43035640085E+04  0.00000000000E+00 0. -1.
         -2   -1    0    0    0  501 -0.00000000000E+00 -0.00000000000E+00 -0.10324326248E+04  0.10324326248E+04  0.00000000000E+00 0.  1.
         23    2    1    2    0    0  0.22097247813E+03 -0.16961903197E+04  0.79159575354E+02  0.17145915935E+04  0.87565159153E+02 0.  0.
         11    1    3    3    0    0  0.11400674228E+03 -0.56506088458E+03  0.37017014671E+02  0.57763448645E+03  0.00000000000E+00 0.  1.
        -11    1    3    3    0    0  0.10696573586E+03 -0.11311294352E+04  0.42142560682E+02  0.11369571070E+04  0.00000000000E+00 0. -1.
         22    1    1    2    0    0 -0.22097247813E+03  0.16961903197E+04  0.31919718084E+04  0.36214050398E+04  0.00000000000E+00 0. -1.
<mgrwt>
<rscale>  0 0.42157514E+04</rscale>
<asrwt>0</asrwt>
<pdfrwt beam="1">  1        2 0.66208676E+00 0.42157514E+04</pdfrwt>
<pdfrwt beam="2">  1       -2 0.15883579E+00 0.42157514E+04</pdfrwt>
<totfact> 0.37280887E-02</totfact>
</mgrwt>
</event>
<event>
 6    1  0.3017327E-006  0.7152438E+03  0.7818608E-02  0.9691513E-01
         -3   -1    0    0    0  501 -0.00000000000E+00  0.00000000000E+00  0.65232136302E+03  0.65232136302E+03  0.00000000000E+00 0. -1.
          3   -1    0    0  501    0  0.00000000000E+00 -0.00000000000E+00 -0.19605890142E+03  0.19605890142E+03  0.00000000000E+00 0.  1.
         23    2    1    2    0    0 -0.13399317667E+03 -0.30666722806E+03  0.10287686114E+03  0.36167671733E+03  0.90705232179E+02 0.  0.
         13    1    3    3    0    0 -0.54484288326E+02 -0.50123933332E+02  0.45932145056E+02  0.87124671113E+02  0.00000000000E+00 0.  1.
        -13    1    3    3    0    0 -0.79508888346E+02 -0.25654329472E+03  0.56944716080E+02  0.27455204622E+03  0.00000000000E+00 0. -1.
         22    1    1    2    0    0  0.13399317667E+03  0.30666722806E+03  0.35338560046E+03  0.48670354711E+03  0.00000000000E+00 0.  1.
<mgrwt>
<rscale>  0 0.71524376E+03</rscale>
<asrwt>0</asrwt>
<pdfrwt beam="1">  1        3 0.30162908E-01 0.71524376E+03</pdfrwt>
<pdfrwt beam="2">  1       -3 0.10035713E+00 0.71524376E+03</pdfrwt>
<totfact> 0.24516756E+01</totfact>
</mgrwt>
</event>
<event>
 6    1  0.3017327E-006  0.2425970E+04  0.7818608E-02  0.8429844E-01
          2   -1    0    0  501    0  0.00000000000E+00  0.00000000000E+00  0.21050487942E+04  0.21050487942E+04  0.00000000000E+00 0. -1.
         -2   -1    0    0    0  501 -0.00000000000E+00 -0.00000000000E+00 -0.69895389363E+03  0.69895389363E+03  0.00000000000E+00 0.  1.
         23    2    1    2    0    0  0.83821371989E+03  0.40328785967E+03 -0.19275200747E+03  0.95425817216E+03  0.90620002034E+02 0.  0.
         13    1    3    3    0    0  0.60002970337E+03  0.29247585230E+03 -0.17947835177E+03  0.69122373213E+03  0.00000000000E+00 0. -1.
        -13    1    3    3    0    0  0.23818401652E+03  0.11081200737E+03 -0.13273655698E+02  0.26303444003E+03  0.00000000000E+00 0.  1.
         22    1    1    2    0    0 -0.83821371989E+03 -0.40328785967E+03  0.15988469081E+04  0.18497445157E+04  0.00000000000E+00 0. -1.
<mgrwt>
<rscale>  0 0.24259695E+04</rscale>
<asrwt>0</asrwt>
<pdfrwt beam="1">  1        2 0.32385366E+00 0.24259695E+04</pdfrwt>
<pdfrwt beam="2">  1       -2 0.10753137E+00 0.24259695E+04</pdfrwt>
<totfact> 0.36356231E+00</totfact>
</mgrwt>
</event>
<event>
 6    1  0.3017327E-006  0.2090424E+04  0.7818608E-02  0.8565473E-01
          2   -1    0    0  501    0  0.00000000000E+00  0.00000000000E+00  0.98019182034E+03  0.98019182034E+03  0.00000000000E+00 0. -1.
         -2   -1    0    0    0  501 -0.00000000000E+00 -0.00000000000E+00 -0.11145453240E+04  0.11145453240E+04  0.00000000000E+00 0.  1.
         23    2    1    2    0    0 -0.10557444950E+03  0.99734300965E+03  0.22050934759E+03  0.10308919082E+04  0.90965437179E+02 0.  0.
         11    1    3    3    0    0 -0.48940935218E+02  0.74704285985E+03  0.13744604887E+03  0.76115679458E+03  0.00000000000E+00 0. -1.
        -11    1    3    3    0    0 -0.56633514281E+02  0.25030014981E+03  0.83063298729E+02  0.26973511364E+03  0.00000000000E+00 0.  1.
         22    1    1    2    0    0  0.10557444950E+03 -0.99734300965E+03 -0.35486285130E+03  0.10638452362E+04  0.00000000000E+00 0.  1.
<mgrwt>
<rscale>  0 0.20904241E+04</rscale>
<asrwt>0</asrwt>
<pdfrwt beam="1">  1        2 0.15079874E+00 0.20904241E+04</pdfrwt>
<pdfrwt beam="2">  1       -2 0.17146851E+00 0.20904241E+04</pdfrwt>
<totfact> 0.49773055E+00</totfact>
</mgrwt>
</event>
<event>
 6    1  0.3749840E-006  0.4379209E+04  0.7818608E-02  0.7932132E-01
         -1   -1    0    0    0  501 -0.00000000000E+00  0.00000000000E+00  0.29507366246E+04  0.29507366246E+04  0.00000000000E+00 0.  1.
          1   -1    0    0  501    0  0.00000000000E+00 -0.00000000000E+00 -0.16248040698E+04  0.16248040698E+04  0.00000000000E+00 0. -1.
         23    2    1    2    0    0 -0.78481735325E+03 -0.97767634366E+03 -0.12108577979E+04  0.17458596869E+04  0.10030019229E+03 0.  0.
         13    1    3    3    0    0 -0.26424644759E+03 -0.33554891120E+03 -0.34793993747E+03  0.55089151106E+03  0.00000000000E+00 0.  1.
        -13    1    3    3    0    0 -0.52057090565E+03 -0.64212743247E+03 -0.86291786047E+03  0.11949681758E+04  0.00000000000E+00 0. -1.
         22    1    1    2    0    0  0.78481735325E+03  0.97767634366E+03  0.25367903527E+04  0.28296810076E+04  0.00000000000E+00 0.  1.
<mgrwt>
<rscale>  0 0.43792095E+04</rscale>
<asrwt>0</asrwt>
<pdfrwt beam="1">  1        1 0.24996986E+00 0.43792095E+04</pdfrwt>
<pdfrwt beam="2">  1       -1 0.45395948E+00 0.43792095E+04</pdfrwt>
<totfact> 0.12382856E-02</totfact>
</mgrwt>
</event>
<event>
 6    1  0.3017327E-006  0.2359969E+04  0.7818608E-02  0.8454644E-01
          2   -1    0    0  501    0  0.00000000000E+00  0.00000000000E+00  0.10694837943E+04  0.10694837943E+04  0.00000000000E+00 0.  1.
         -2   -1    0    0    0  501 -0.00000000000E+00 -0.00000000000E+00 -0.13019023492E+04  0.13019023492E+04  0.00000000000E+00 0. -1.
         23    2    1    2    0    0  0.11108014744E+04 -0.24594999469E+03 -0.42431184836E+03  0.12176121832E+04  0.90374601936E+02 0.  0.
         11    1    3    3    0    0  0.55963894440E+03 -0.79218916129E+02 -0.19767478612E+03  0.59878769680E+03  0.00000000000E+00 0. -1.
        -11    1    3    3    0    0  0.55116252995E+03 -0.16673107856E+03 -0.22663706224E+03  0.61882448640E+03  0.00000000000E+00 0.  1.
         22    1    1    2    0    0 -0.11108014744E+04  0.24594999469E+03  0.19189329349E+03  0.11537739603E+04  0.00000000000E+00 0.  1.
<mgrwt>
<rscale>  0 0.23599690E+04</rscale>
<asrwt>0</asrwt>
<pdfrwt beam="1">  1        2 0.16453597E+00 0.23599690E+04</pdfrwt>
<pdfrwt beam="2">  1       -2 0.20029267E+00 0.23599690E+04</pdfrwt>
<totfact> 0.27183399E+00</totfact>
</mgrwt>
</event>
<event>
 6    1  0.3017327E-006  0.4105560E+04  0.7818608E-02  0.7983584E-01
         -2   -1    0    0    0  501 -0.00000000000E+00  0.00000000000E+00  0.23185040744E+04  0.23185040744E+04  0.00000000000E+00 0.  1.
          2   -1    0    0  501    0  0.00000000000E+00 -0.00000000000E+00 -0.18175110003E+04  0.18175110003E+04  0.00000000000E+00 0. -1.
         23    2    1    2    0    0  0.98097735873E+03  0.12797768698E+04 -0.10274210182E+04  0.19142601260E+04  0.93018635529E+02 0.  0.
         11    1    3    3    0    0  0.73271890442E+03  0.90617070538E+03 -0.70754223403E+03  0.13633188743E+04  0.00000000000E+00 0.  1.
        -11    1    3    3    0    0  0.24825845431E+03  0.37360616444E+03 -0.31987878415E+03  0.55094125167E+03  0.00000000000E+00 0. -1.
         22    1    1    2    0    0 -0.98097735873E+03 -0.12797768698E+04  0.15284140922E+04  0.22217549487E+04  0.00000000000E+00 0.  1.
<mgrwt>
<rscale>  0 0.41055605E+04</rscale>
<asrwt>0</asrwt>
<pdfrwt beam="1">  1        2 0.27961708E+00 0.41055605E+04</pdfrwt>
<pdfrwt beam="2">  1       -2 0.35669294E+00 0.41055605E+04</pdfrwt>
<totfact> 0.93128574E-02</totfact>
</mgrwt>
</event>
<event>
 6    1  0.3017327E-006  0.1982924E+04  0.7818608E-02  0.8614646E-01
          2   -1    0    0  501    0  0.00000000000E+00  0.00000000000E+00  0.15938525563E+04  0.15938525563E+04  0.00000000000E+00 0. -1.
         -2   -1    0    0    0  501 -0.00000000000E+00 -0.00000000000E+00 -0.61674263327E+03  0.61674263327E+03  0.00000000000E+00 0.  1.
         23    2    1    2    0    0 -0.83530377049E+03 -0.42243634779E+03  0.84725556258E+03  0.12655835431E+04  0.87606275083E+02 0.  0.
         13    1    3    3    0    0 -0.25864474143E+03 -0.10684400821E+03  0.29972205663E+03  0.41005616151E+03  0.00000000000E+00 0.  1.
        -13    1    3    3    0    0 -0.57665902906E+03 -0.31559233958E+03  0.54753350595E+03  0.85552738164E+03  0.00000000000E+00 0. -1.
         22    1    1    2    0    0  0.83530377049E+03  0.42243634779E+03  0.12985436044E+03  0.94501164641E+03  0.00000000000E+00 0.  1.
<mgrwt>
<rscale>  0 0.19829239E+04</rscale>
<asrwt>0</asrwt>
<pdfrwt beam="1">  1        2 0.24520808E+00 0.19829239E+04</pdfrwt>
<pdfrwt beam="2">  1       -2 0.94883483E-01 0.19829239E+04</pdfrwt>
<totfact> 0.97751699E+00</totfact>
</mgrwt>
</event>
<event>
 6    1  0.3017327E-006  0.1857162E+04  0.7818608E-02  0.8676479E-01
         -2   -1    0    0    0  501 -0.00000000000E+00  0.00000000000E+00  0.58407395670E+03  0.58407395670E+03  0.00000000000E+00 0. -1.
          2   -1    0    0  501    0  0.00000000000E+00 -0.00000000000E+00 -0.14762896752E+04  0.14762896752E+04  0.00000000000E+00 0.  1.
         23    2    1    2    0    0 -0.22571332662E+03 -0.25979483404E+03 -0.14012529402E+04  0.14459055335E+04  0.93237051308E+02 0.  0.
         11    1    3    3    0    0 -0.27206212601E+02 -0.70492652573E+02 -0.43322940955E+03  0.43976938658E+03  0.00000000000E+00 0. -1.
        -11    1    3    3    0    0 -0.19850711402E+03 -0.18930218147E+03 -0.96802353065E+03  0.10061361469E+04  0.00000000000E+00 0.  1.
         22    1    1    2    0    0  0.22571332662E+03  0.25979483404E+03  0.50903722171E+03  0.61445809840E+03  0.00000000000E+00 0. -1.
<mgrwt>
<rscale>  0 0.18571617E+04</rscale>
<asrwt>0</asrwt>
<pdfrwt beam="1">  1        2 0.22712148E+00 0.18571617E+04</pdfrwt>
<pdfrwt beam="2">  1       -2 0.89857533E-01 0.18571617E+04</pdfrwt>
<totfact> 0.13051081E+01</totfact>
</mgrwt>
</event>
<event>
 6    1  0.3017327E-006  0.5710640E+04  0.7818608E-02  0.7727352E-01
          2   -1    0    0  501    0  0.00000000000E+00  0.00000000000E+00  0.37126091903E+04  0.37126091903E+04  0.00000000000E+00 0. -1.
         -2   -1    0    0    0  501 -0.00000000000E+00 -0.00000000000E+00 -0.21959895687E+04  0.21959895687E+04  0.00000000000E+00 0.  1.
         23    2    1    2    0    0  0.27454913860E+04 -0.65427543606E+03  0.31628696381E+03  0.28415810241E+04  0.93519925771E+02 0.  0.
         13    1    3    3    0    0  0.10206738071E+04 -0.26377364790E+03  0.77318875709E+02  0.10570382047E+04  0.00000000000E+00 0.  1.
        -13    1    3    3    0    0  0.17248175789E+04 -0.39050178816E+03  0.23896808811E+03  0.17845428194E+04  0.00000000000E+00 0. -1.
         22    1    1    2    0    0 -0.27454913860E+04  0.65427543606E+03  0.12003326578E+04  0.30670177349E+04  0.00000000000E+00 0.  1.
<mgrwt>
<rscale>  0 0.57106396E+04</rscale>
<asrwt>0</asrwt>
<pdfrwt beam="1">  1        2 0.57117064E+00 0.57106396E+04</pdfrwt>
<pdfrwt beam="2">  1       -2 0.33784455E+00 0.57106396E+04</pdfrwt>
<totfact> 0.72702969E-03</totfact>
</mgrwt>
</event>
<event>
 6    1  0.3017327E-006  0.2808275E+04  0.7818608E-02  0.8300704E-01
         -2   -1    0    0    0  501 -0.00000000000E+00  0.00000000000E+00  0.18202792229E+04  0.18202792229E+04  0.00000000000E+00 0.  1.
          2   -1    0    0  501    0  0.00000000000E+00 -0.00000000000E+00 -0.10831319012E+04  0.10831319012E+04  0.00000000000E+00 0. -1.
         23    2    1    2    0    0 -0.26953433623E+03 -0.13310399838E+04  0.73164037602E+03  0.15453439227E+04  0.92054346709E+02 0.  0.
         11    1    3    3    0    0 -0.71542025971E+02 -0.29205847884E+03  0.12162242221E+03  0.32435849014E+03  0.00000000000E+00 0. -1.
        -11    1    3    3    0    0 -0.19799231026E+03 -0.10389815050E+04  0.61001795381E+03  0.12209854326E+04  0.00000000000E+00 0.  1.
         22    1    1    2    0    0  0.26953433623E+03  0.13310399838E+04  0.55069457607E+01  0.13580672014E+04  0.00000000000E+00 0. -1.
<mgrwt>
<rscale>  0 0.28082753E+04</rscale>
<asrwt>0</asrwt>
<pdfrwt beam="1">  1        2 0.16663568E+00 0.28082753E+04</pdfrwt>
<pdfrwt beam="2">  1       -2 0.28004296E+00 0.28082753E+04</pdfrwt>
<totfact> 0.81672714E-01</totfact>
</mgrwt>
</event>
<event>
 6    1  0.3017327E-006  0.1793038E+04  0.7818608E-02  0.8710010E-01
         -2   -1    0    0    0  501 -0.00000000000E+00  0.00000000000E+00  0.52810977716E+03  0.52810977716E+03  0.00000000000E+00 0.  1.
          2   -1    0    0  501    0  0.00000000000E+00 -0.00000000000E+00 -0.15219309759E+04  0.15219309759E+04  0.00000000000E+00 0. -1.
         23    2    1    2    0    0 -0.63902684695E+03 -0.42822349439E+03 -0.10193740573E+04  0.12803761372E+04  0.92243762172E+02 0.  0.
         11    1    3    3    0    0 -0.43601968799E+03 -0.28326486021E+03 -0.75678172285E+03  0.91818882883E+03  0.00000000000E+00 0. -1.
        -11    1    3    3    0    0 -0.20300715896E+03 -0.14495863418E+03 -0.26259233449E+03  0.36218730837E+03  0.00000000000E+00 0.  1.
         22    1    1    2    0    0  0.63902684695E+03  0.42822349439E+03  0.25552858631E+02  0.76966461583E+03  0.00000000000E+00 0.  1.
<mgrwt>
<rscale>  0 0.17930383E+04</rscale>
<asrwt>0</asrwt>
<pdfrwt beam="1">  1        2 0.23414323E+00 0.17930383E+04</pdfrwt>
<pdfrwt beam="2">  1       -2 0.81247658E-01 0.17930383E+04</pdfrwt>
<totfact> 0.15555936E+01</totfact>
</mgrwt>
</event>
<event>
 6    1  0.3017327E-006  0.2720885E+04  0.7818608E-02  0.8328260E-01
         -2   -1    0    0    0  501 -0.00000000000E+00  0.00000000000E+00  0.14401479105E+04  0.14401479105E+04  0.00000000000E+00 0.  1.
          2   -1    0    0  501    0  0.00000000000E+00 -0.00000000000E+00 -0.12851483587E+04  0.12851483587E+04  0.00000000000E+00 0. -1.
         23    2    1    2    0    0  0.12403122564E+04 -0.21235790210E+03  0.59068708307E+03  0.13936454153E+04  0.99327446966E+02 0.  0.
         13    1    3    3    0    0  0.24026681324E+03 -0.80159739818E+02  0.12957105698E+03  0.28450375083E+03  0.00000000000E+00 0. -1.
        -13    1    3    3    0    0  0.10000454431E+04 -0.13219816228E+03  0.46111602609E+03  0.11091416645E+04  0.00000000000E+00 0.  1.
         22    1    1    2    0    0 -0.12403122564E+04  0.21235790210E+03 -0.43568753124E+03  0.13316508539E+04  0.00000000000E+00 0.  1.
<mgrwt>
<rscale>  0 0.27208849E+04</rscale>
<asrwt>0</asrwt>
<pdfrwt beam="1">  1        2 0.19771513E+00 0.27208849E+04</pdfrwt>
<pdfrwt beam="2">  1       -2 0.22156122E+00 0.27208849E+04</pdfrwt>
<totfact> 0.14270372E+00</totfact>
</mgrwt>
</event>
<event>
 6    1  0.3017327E-006  0.3048517E+04  0.7818608E-02  0.8230011E-01
          1   -1    0    0  501    0  0.00000000000E+00  0.00000000000E+00  0.16295415709E+04  0.16295415709E+04  0.00000000000E+00 0. -1.
         -1   -1    0    0    0  501 -0.00000000000E+00 -0.00000000000E+00 -0.14257778783E+04  0.14257778783E+04  0.00000000000E+00 0.  1.
         23    2    1    2    0    0 -0.14104461558E+04 -0.30401260426E+03  0.59004766267E+03  0.15616671043E+04  0.94158793510E+02 0.  0.
         13    1    3    3    0    0 -0.60287999781E+03 -0.17643624427E+03  0.24490012862E+03  0.67421814945E+03  0.00000000000E+00 0. -1.
        -13    1    3    3    0    0 -0.80756615798E+03 -0.12757635999E+03  0.34514753405E+03  0.88744895481E+03  0.00000000000E+00 0.  1.
         22    1    1    2    0    0  0.14104461558E+04  0.30401260426E+03 -0.38628397006E+03  0.14936523449E+04  0.00000000000E+00 0.  1.
<mgrwt>
<rscale>  0 0.30485172E+04</rscale>
<asrwt>0</asrwt>
<pdfrwt beam="1">  1        1 0.25069870E+00 0.30485172E+04</pdfrwt>
<pdfrwt beam="2">  1       -1 0.21935044E+00 0.30485172E+04</pdfrwt>
<totfact> 0.50175751E-01</totfact>
</mgrwt>
</event>
<event>
 6    1  0.3017327E-006  0.1892919E+04  0.7818608E-02  0.8658389E-01
          2   -1    0    0  501    0  0.00000000000E+00  0.00000000000E+00  0.25599221043E+04  0.25599221043E+04  0.00000000000E+00 0. -1.
         -2   -1    0    0    0  501 -0.00000000000E+00 -0.00000000000E+00 -0.34992679799E+03  0.34992679799E+03  0.00000000000E+00 0.  1.
         23    2    1    2    0    0  0.41308521605E+03 -0.52732502724E+03  0.84580498424E+02  0.68137427025E+03  0.91683997374E+02 0.  0.
         11    1    3    3    0    0  0.39495709976E+02 -0.10531222292E+03  0.15627550421E+02  0.11355525410E+03  0.00000000000E+00 0.  1.
        -11    1    3    3    0    0  0.37358950607E+03 -0.42201280432E+03  0.68952948003E+02  0.56781901615E+03  0.00000000000E+00 0. -1.
         22    1    1    2    0    0 -0.41308521605E+03  0.52732502724E+03  0.21254148079E+04  0.22284746321E+04  0.00000000000E+00 0. -1.
<mgrwt>
<rscale>  0 0.18929187E+04</rscale>
<asrwt>0</asrwt>
<pdfrwt beam="1">  1        2 0.39383416E+00 0.18929187E+04</pdfrwt>
<pdfrwt beam="2">  1       -2 0.53834894E-01 0.18929187E+04</pdfrwt>
<totfact> 0.97948368E+00</totfact>
</mgrwt>
</event>
<event>
 6    1  0.3017327E-006  0.3602014E+04  0.7818608E-02  0.8090031E-01
         -2   -1    0    0    0  501 -0.00000000000E+00  0.00000000000E+00  0.12193523555E+04  0.12193523555E+04  0.00000000000E+00 0.  1.
          2   -1    0    0  501    0  0.00000000000E+00 -0.00000000000E+00 -0.26601215349E+04  0.26601215349E+04  0.00000000000E+00 0. -1.
         23    2    1    2    0    0  0.18019318316E+02 -0.71584978335E+03 -0.24993276371E+04  0.26014630859E+04  0.90586651669E+02 0.  0.
         11    1    3    3    0    0 -0.36671731066E+02 -0.23739070362E+03 -0.83491901680E+03  0.86878589229E+03  0.00000000000E+00 0.  1.
        -11    1    3    3    0    0  0.54691049382E+02 -0.47845907973E+03 -0.16644086203E+04  0.17326771936E+04  0.00000000000E+00 0. -1.
         22    1    1    2    0    0 -0.18019318316E+02  0.71584978335E+03  0.10585584577E+04  0.12780108045E+04  0.00000000000E+00 0.  1.
<mgrwt>
<rscale>  0 0.36020136E+04</rscale>
<asrwt>0</asrwt>
<pdfrwt beam="1">  1        2 0.40924947E+00 0.36020136E+04</pdfrwt>
<pdfrwt beam="2">  1       -2 0.18759267E+00 0.36020136E+04</pdfrwt>
<totfact> 0.36763115E-01</totfact>
</mgrwt>
</event>
<event>
 6    1  0.3017327E-006  0.1456474E+04  0.7818608E-02  0.8913925E-01
         -2   -1    0    0    0  501 -0.00000000000E+00  0.00000000000E+00  0.20555690599E+03  0.20555690599E+03  0.00000000000E+00 0.  1.
          2   -1    0    0  501    0  0.00000000000E+00 -0.00000000000E+00 -0.25799621356E+04  0.25799621356E+04  0.00000000000E+00 0. -1.
         23    2    1    2    0    0 -0.55814836811E+03 -0.39004948093E+03 -0.16696595296E+04  0.18055523585E+04  0.92672412046E+02 0.  0.
         11    1    3    3    0    0 -0.19366754568E+03 -0.18437868962E+03 -0.59738507181E+03  0.65450098813E+03  0.00000000000E+00 0. -1.
        -11    1    3    3    0    0 -0.36448082243E+03 -0.20567079131E+03 -0.10722744578E+04  0.11510513703E+04  0.00000000000E+00 0.  1.
         22    1    1    2    0    0  0.55814836811E+03  0.39004948093E+03 -0.70474570005E+03  0.97996668318E+03  0.00000000000E+00 0.  1.
<mgrwt>
<rscale>  0 0.14564739E+04</rscale>
<asrwt>0</asrwt>
<pdfrwt beam="1">  1        2 0.39691724E+00 0.14564739E+04</pdfrwt>
<pdfrwt beam="2">  1       -2 0.31624140E-01 0.14564739E+04</pdfrwt>
<totfact> 0.28259478E+01</totfact>
</mgrwt>
</event>
<event>
 6    1  0.3017327E-006  0.1761202E+04  0.7818608E-02  0.8727208E-01
         -2   -1    0    0    0  501 -0.00000000000E+00  0.00000000000E+00  0.53673725086E+03  0.53673725086E+03  0.00000000000E+00 0.  1.
          2   -1    0    0  501    0  0.00000000000E+00 -0.00000000000E+00 -0.14447633821E+04  0.14447633821E+04  0.00000000000E+00 0. -1.
         23    2    1    2    0    0  0.44742737050E+03  0.62216410690E+03  0.26545686161E+02  0.77290479081E+03  0.96941809383E+02 0.  0.
         13    1    3    3    0    0  0.36211900746E+03  0.53820044757E+03  0.51179620429E+02  0.65069904785E+03  0.00000000000E+00 0.  1.
        -13    1    3    3    0    0  0.85308363046E+02  0.83963659331E+02 -0.24633934268E+02  0.12220574296E+03  0.00000000000E+00 0. -1.
         22    1    1    2    0    0 -0.44742737050E+03 -0.62216410690E+03 -0.93457181737E+03  0.12085958421E+04  0.00000000000E+00 0.  1.
<mgrwt>
<rscale>  0 0.17612022E+04</rscale>
<asrwt>0</asrwt>
<pdfrwt beam="1">  1        2 0.22227129E+00 0.17612022E+04</pdfrwt>
<pdfrwt beam="2">  1       -2 0.82574963E-01 0.17612022E+04</pdfrwt>
<totfact> 0.16626328E+01</totfact>
</mgrwt>
</event>
<event>
 6    1  0.3017327E-006  0.3768545E+04  0.7818608E-02  0.8052939E-01
          2   -1    0    0  501    0  0.00000000000E+00  0.00000000000E+00  0.25661302868E+04  0.25661302868E+04  0.00000000000E+00 0. -1.
         -2   -1    0    0    0  501 -0.00000000000E+00 -0.00000000000E+00 -0.13835938661E+04  0.13835938661E+04  0.00000000000E+00 0.  1.
         23    2    1    2    0    0  0.78154320174E+03 -0.17119885717E+04  0.66193656342E+03  0.19971005698E+04  0.92390615998E+02 0.  0.
         11    1    3    3    0    0  0.42221679818E+03 -0.95368531201E+03  0.31973825290E+03  0.10908782010E+04  0.00000000000E+00 0. -1.
        -11    1    3    3    0    0  0.35932640356E+03 -0.75830325971E+03  0.34219831052E+03  0.90622236879E+03  0.00000000000E+00 0.  1.
         22    1    1    2    0    0 -0.78154320174E+03  0.17119885717E+04  0.52059985734E+03  0.19526235831E+04  0.00000000000E+00 0.  1.
<mgrwt>
<rscale>  0 0.37685446E+04</rscale>
<asrwt>0</asrwt>
<pdfrwt beam="1">  1        2 0.39478927E+00 0.37685446E+04</pdfrwt>
<pdfrwt beam="2">  1       -2 0.21286060E+00 0.37685446E+04</pdfrwt>
<totfact> 0.28105312E-01</totfact>
</mgrwt>
</event>
<event>
 6    1  0.3017327E-006  0.3032441E+04  0.7818608E-02  0.8234527E-01
         -1   -1    0    0    0  501 -0.00000000000E+00  0.00000000000E+00  0.19790654774E+04  0.19790654774E+04  0.00000000000E+00 0.  1.
          1   -1    0    0  501    0  0.00000000000E+00 -0.00000000000E+00 -0.11616211699E+04  0.11616211699E+04  0.00000000000E+00 0. -1.
         23    2    1    2    0    0 -0.23390702985E+03  0.13989160497E+04  0.96016683074E+03  0.17151873202E+04  0.90931776506E+02 0.  0.
         11    1    3    3    0    0 -0.25737021220E+02  0.27098279559E+03  0.14860738751E+03  0.31012614431E+03  0.00000000000E+00 0. -1.
        -11    1    3    3    0    0 -0.20817000863E+03  0.11279332541E+04  0.81155944324E+03  0.14050611759E+04  0.00000000000E+00 0.  1.
         22    1    1    2    0    0  0.23390702985E+03 -0.13989160497E+04 -0.14272252324E+03  0.14254993270E+04  0.00000000000E+00 0. -1.
<mgrwt>
<rscale>  0 0.30324408E+04</rscale>
<asrwt>0</asrwt>
<pdfrwt beam="1">  1        1 0.17871095E+00 0.30324408E+04</pdfrwt>
<pdfrwt beam="2">  1       -1 0.30447161E+00 0.30324408E+04</pdfrwt>
<totfact> 0.29892875E-01</totfact>
</mgrwt>
</event>
<event>
 6    1  0.3017327E-006  0.1113214E+04  0.7818608E-02  0.9192407E-01
          2   -1    0    0  501    0  0.00000000000E+00  0.00000000000E+00  0.71753304598E+03  0.71753304598E+03  0.00000000000E+00 0.  1.
         -2   -1    0    0    0  501 -0.00000000000E+00 -0.00000000000E+00 -0.43177293431E+03  0.43177293431E+03  0.00000000000E+00 0. -1.
         23    2    1    2    0    0  0.17915144429E+03 -0.40714644304E+03 -0.19407802669E+03  0.49500627443E+03  0.97475459561E+02 0.  0.
         11    1    3    3    0    0  0.98697266807E+02 -0.11310973467E+03 -0.73995351689E+02  0.16736270380E+03  0.00000000000E+00 0. -1.
        -11    1    3    3    0    0  0.80454177488E+02 -0.29403670837E+03 -0.12008267500E+03  0.32764357063E+03  0.00000000000E+00 0.  1.
         22    1    1    2    0    0 -0.17915144429E+03  0.40714644304E+03  0.47983813835E+03  0.65429970586E+03  0.00000000000E+00 0.  1.
<mgrwt>
<rscale>  0 0.11132140E+04</rscale>
<asrwt>0</asrwt>
<pdfrwt beam="1">  1        2 0.11038970E+00 0.11132140E+04</pdfrwt>
<pdfrwt beam="2">  1       -2 0.66426606E-01 0.11132140E+04</pdfrwt>
<totfact> 0.82098426E+01</totfact>
</mgrwt>
</event>
<event>
 6    1  0.3017327E-006  0.2770893E+04  0.7818608E-02  0.8312362E-01
         -1   -1    0    0    0  501 -0.00000000000E+00  0.00000000000E+00  0.93977888956E+03  0.93977888956E+03  0.00000000000E+00 0.  1.
          1   -1    0    0  501    0  0.00000000000E+00 -0.00000000000E+00 -0.20424606756E+04  0.20424606756E+04  0.00000000000E+00 0. -1.
         23    2    1    2    0    0 -0.54537459556E+03 -0.12456806465E+04 -0.27350180600E+03  0.13895396054E+04  0.82845364181E+02 0.  0.
         11    1    3    3    0    0 -0.22285850524E+03 -0.49974120306E+03 -0.68885277199E+02  0.55150010409E+03  0.00000000000E+00 0.  1.
        -11    1    3    3    0    0 -0.32251609032E+03 -0.74593944347E+03 -0.20461652881E+03  0.83803950128E+03  0.00000000000E+00 0. -1.
         22    1    1    2    0    0  0.54537459556E+03  0.12456806465E+04 -0.82917998003E+03  0.15926999598E+04  0.00000000000E+00 0. -1.
<mgrwt>
<rscale>  0 0.27708926E+04</rscale>
<asrwt>0</asrwt>
<pdfrwt beam="1">  1        1 0.31422472E+00 0.27708926E+04</pdfrwt>
<pdfrwt beam="2">  1       -1 0.14458137E+00 0.27708926E+04</pdfrwt>
<totfact> 0.93170395E-01</totfact>
</mgrwt>
</event>
<event>
 6    1  0.3017327E-006  0.1256252E+04  0.7818608E-02  0.9064996E-01
          2   -1    0    0  501    0  0.00000000000E+00  0.00000000000E+00  0.11421313950E+04  0.11421313950E+04  0.00000000000E+00 0. -1.
         -2   -1    0    0    0  501 -0.00000000000E+00 -0.00000000000E+00 -0.34544362566E+03  0.34544362566E+03  0.00000000000E+00 0.  1.
         23    2    1    2    0    0  0.13453868335E+03  0.16807944243E+03  0.10949933334E+04  0.11196924771E+04  0.91375526329E+02 0.  0.
         11    1    3    3    0    0  0.77168263717E+02  0.34347000209E+02  0.50519751381E+03  0.51221009879E+03  0.00000000000E+00 0.  1.
        -11    1    3    3    0    0  0.57370419628E+02  0.13373244223E+03  0.58979581962E+03  0.60748237834E+03  0.00000000000E+00 0. -1.
         22    1    1    2    0    0 -0.13453868335E+03 -0.16807944243E+03 -0.29830556408E+03  0.36788254355E+03  0.00000000000E+00 0.  1.
<mgrwt>
<rscale>  0 0.12562516E+04</rscale>
<asrwt>0</asrwt>
<pdfrwt beam="1">  1        2 0.17571252E+00 0.12562516E+04</pdfrwt>
<pdfrwt beam="2">  1       -2 0.53145174E-01 0.12562516E+04</pdfrwt>
<totfact> 0.67358370E+01</totfact>
</mgrwt>
</event>
<event>
 6    1  0.3017327E-006  0.1871063E+04  0.7818608E-02  0.8669396E-01
         -2   -1    0    0    0  501 -0.00000000000E+00  0.00000000000E+00  0.94159050804E+03  0.94159050804E+03  0.00000000000E+00 0.  1.
          2   -1    0    0  501    0  0.00000000000E+00 -0.00000000000E+00 -0.92951168949E+03  0.92951168949E+03  0.00000000000E+00 0. -1.
         23    2    1    2    0    0  0.94029150735E+02  0.60900139964E+03 -0.69478178637E+03  0.93335164395E+03  0.93270438169E+02 0.  0.
         11    1    3    3    0    0  0.10629249670E+02  0.32227366755E+03 -0.39957343929E+03  0.51345129382E+03  0.00000000000E+00 0.  1.
        -11    1    3    3    0    0  0.83399901065E+02  0.28672773209E+03 -0.29520834708E+03  0.41990035012E+03  0.00000000000E+00 0. -1.
         22    1    1    2    0    0 -0.94029150735E+02 -0.60900139964E+03  0.70686060492E+03  0.93775055358E+03  0.00000000000E+00 0.  1.
<mgrwt>
<rscale>  0 0.18710632E+04</rscale>
<asrwt>0</asrwt>
<pdfrwt beam="1">  1        2 0.14300180E+00 0.18710632E+04</pdfrwt>
<pdfrwt beam="2">  1       -2 0.14486008E+00 0.18710632E+04</pdfrwt>
<totfact> 0.86371493E+00</totfact>
</mgrwt>
</event>
<event>
 6    1  0.3017327E-006  0.1858609E+04  0.7818608E-02  0.8675738E-01
         -2   -1    0    0    0  501 -0.00000000000E+00  0.00000000000E+00  0.37066424593E+03  0.37066424593E+03  0.00000000000E+00 0.  1.
          2   -1    0    0  501    0  0.00000000000E+00 -0.00000000000E+00 -0.23298887724E+04  0.23298887724E+04  0.00000000000E+00 0. -1.
         23    2    1    2    0    0  0.17356186677E+03  0.34473173908E+03  0.24269902489E+03  0.46505955614E+03  0.91727207254E+02 0.  0.
         11    1    3    3    0    0  0.11735786360E+03  0.23209277156E+03  0.21187943780E+03  0.33545911662E+03  0.00000000000E+00 0.  1.
        -11    1    3    3    0    0  0.56204003168E+02  0.11263896752E+03  0.30819587084E+02  0.12960043952E+03  0.00000000000E+00 0. -1.
         22    1    1    2    0    0 -0.17356186677E+03 -0.34473173908E+03 -0.22019235514E+04  0.22354934622E+04  0.00000000000E+00 0. -1.
<mgrwt>
<rscale>  0 0.18586086E+04</rscale>
<asrwt>0</asrwt>
<pdfrwt beam="1">  1        2 0.35844443E+00 0.18586086E+04</pdfrwt>
<pdfrwt beam="2">  1       -2 0.57025269E-01 0.18586086E+04</pdfrwt>
<totfact> 0.11814871E+01</totfact>
</mgrwt>
</event>
<event>
 6    1  0.3017327E-006  0.1695129E+04  0.7818608E-02  0.8764148E-01
         -2   -1    0    0    0  501 -0.00000000000E+00  0.00000000000E+00  0.87410053526E+03  0.87410053526E+03  0.00000000000E+00 0.  1.
          2   -1    0    0  501    0  0.00000000000E+00 -0.00000000000E+00 -0.82183358144E+03  0.82183358144E+03  0.00000000000E+00 0. -1.
         23    2    1    2    0    0  0.26873650617E+03 -0.35334624959E+03 -0.69346006159E+03  0.82807372276E+03  0.88013359588E+02 0.  0.
         13    1    3    3    0    0  0.10468498996E+03 -0.14498019524E+03 -0.36042734983E+03  0.40235069111E+03  0.00000000000E+00 0.  1.
        -13    1    3    3    0    0  0.16405151621E+03 -0.20836605435E+03 -0.33303271176E+03  0.42572303165E+03  0.00000000000E+00 0. -1.
         22    1    1    2    0    0 -0.26873650617E+03  0.35334624959E+03  0.74572701541E+03  0.86786039394E+03  0.00000000000E+00 0.  1.
<mgrwt>
<rscale>  0 0.16951285E+04</rscale>
<asrwt>0</asrwt>
<pdfrwt beam="1">  1        2 0.12643594E+00 0.16951285E+04</pdfrwt>
<pdfrwt beam="2">  1       -2 0.13447700E+00 0.16951285E+04</pdfrwt>
<totfact> 0.12599063E+01</totfact>
</mgrwt>
</event>
<event>
 6    1  0.3017327E-006  0.1509153E+04  0.7818608E-02  0.8878389E-01
          2   -1    0    0  501    0  0.00000000000E+00  0.00000000000E+00  0.10331660823E+04  0.10331660823E+04  0.00000000000E+00 0.  1.
         -2   -1    0    0    0  501 -0.00000000000E+00 -0.00000000000E+00 -0.55110761023E+03  0.55110761023E+03  0.00000000000E+00 0. -1.
         23    2    1    2    0    0  0.12414971125E+03  0.60305152833E+03  0.69467037273E+03  0.93289967025E+03  0.93008447822E+02 0.  0.
         11    1    3    3    0    0  0.19831742426E+02  0.98302899782E+02  0.66444027406E+02  0.12029782580E+03  0.00000000000E+00 0. -1.
        -11    1    3    3    0    0  0.10431796882E+03  0.50474862855E+03  0.62822634532E+03  0.81260184445E+03  0.00000000000E+00 0.  1.
         22    1    1    2    0    0 -0.12414971125E+03 -0.60305152833E+03 -0.21261190064E+03  0.65137402230E+03  0.00000000000E+00 0. -1.
<mgrwt>
<rscale>  0 0.15091530E+04</rscale>
<asrwt>0</asrwt>
<pdfrwt beam="1">  1        2 0.15894863E+00 0.15091530E+04</pdfrwt>
<pdfrwt beam="2">  1       -2 0.84785786E-01 0.15091530E+04</pdfrwt>
<totfact> 0.28075673E+01</totfact>
</mgrwt>
</event>
<event>
 6    1  0.3017327E-006  0.3298173E+04  0.7818608E-02  0.8163360E-01
         -2   -1    0    0    0  501 -0.00000000000E+00  0.00000000000E+00  0.99964033836E+03  0.99964033836E+03  0.00000000000E+00 0.  1.
          2   -1    0    0  501    0  0.00000000000E+00 -0.00000000000E+00 -0.27204645094E+04  0.27204645094E+04  0.00000000000E+00 0. -1.
         23    2    1    2    0    0  0.63093450113E+03 -0.90517511098E+03 -0.22415649272E+04  0.25000264645E+04  0.89992632729E+02 0.  0.
         11    1    3    3    0    0  0.19361860811E+03 -0.21349184464E+03 -0.61675854071E+03  0.68077751922E+03  0.00000000000E+00 0. -1.
        -11    1    3    3    0    0  0.43731589301E+03 -0.69168326634E+03 -0.16248063865E+04  0.18192489453E+04  0.00000000000E+00 0.  1.
         22    1    1    2    0    0 -0.63093450113E+03  0.90517511098E+03  0.52074075616E+03  0.12200783833E+04  0.00000000000E+00 0.  1.
<mgrwt>
<rscale>  0 0.32981729E+04</rscale>
<asrwt>0</asrwt>
<pdfrwt beam="1">  1        2 0.41853300E+00 0.32981729E+04</pdfrwt>
<pdfrwt beam="2">  1       -2 0.15379082E+00 0.32981729E+04</pdfrwt>
<totfact> 0.60438252E-01</totfact>
</mgrwt>
</event>
<event>
 6    1  0.3017327E-006  0.1746519E+04  0.7818608E-02  0.8735269E-01
          2   -1    0    0  501    0  0.00000000000E+00  0.00000000000E+00  0.24424187363E+04  0.24424187363E+04  0.00000000000E+00 0. -1.
         -2   -1    0    0    0  501 -0.00000000000E+00 -0.00000000000E+00 -0.31222404926E+03  0.31222404926E+03  0.00000000000E+00 0.  1.
         23    2    1    2    0    0  0.61629098858E+03  0.60018467187E+03  0.85479535900E+03  0.12162411251E+04  0.92364201331E+02 0.  0.
         13    1    3    3    0    0  0.11384827981E+03  0.13378119277E+03  0.22374617452E+03  0.28446649885E+03  0.00000000000E+00 0. -1.
        -13    1    3    3    0    0  0.50244270877E+03  0.46640347909E+03  0.63104918448E+03  0.93177462626E+03  0.00000000000E+00 0.  1.
         22    1    1    2    0    0 -0.61629098858E+03 -0.60018467187E+03  0.12753993281E+04  0.15384016605E+04  0.00000000000E+00 0. -1.
<mgrwt>
<rscale>  0 0.17465187E+04</rscale>
<asrwt>0</asrwt>
<pdfrwt beam="1">  1        2 0.37575672E+00 0.17465187E+04</pdfrwt>
<pdfrwt beam="2">  1       -2 0.48034471E-01 0.17465187E+04</pdfrwt>
<totfact> 0.14648548E+01</totfact>
</mgrwt>
</event>
<event>
 6    1  0.3017327E-006  0.2225521E+04  0.7818608E-02  0.8507880E-01
          2   -1    0    0  501    0  0.00000000000E+00  0.00000000000E+00  0.74712776559E+03  0.74712776559E+03  0.00000000000E+00 0. -1.
         -2   -1    0    0    0  501 -0.00000000000E+00 -0.00000000000E+00 -0.16573284181E+04  0.16573284181E+04  0.00000000000E+00 0.  1.
         23    2    1    2    0    0 -0.67416833443E+03 -0.26260647731E+03  0.45480704223E+03  0.85955776897E+03  0.92330967003E+02 0.  0.
         13    1    3    3    0    0 -0.50320092612E+03 -0.23752132169E+03  0.33991526433E+03  0.65205056340E+03  0.00000000000E+00 0.  1.
        -13    1    3    3    0    0 -0.17096740830E+03 -0.25085155627E+02  0.11489177791E+03  0.20750720557E+03  0.00000000000E+00 0. -1.
         22    1    1    2    0    0  0.67416833443E+03  0.26260647731E+03 -0.13650076947E+04  0.15448984147E+04  0.00000000000E+00 0.  1.
<mgrwt>
<rscale>  0 0.22255211E+04</rscale>
<asrwt>0</asrwt>
<pdfrwt beam="1">  1        2 0.11494273E+00 0.22255211E+04</pdfrwt>
<pdfrwt beam="2">  1       -2 0.25497360E+00 0.22255211E+04</pdfrwt>
<totfact> 0.20585900E+00</totfact>
</mgrwt>
</event>
<event>
 6    1  0.3017327E-006  0.1285254E+04  0.7818608E-02  0.9041341E-01
         -1   -1    0    0    0  501 -0.00000000000E+00  0.00000000000E+00  0.75277590482E+03  0.75277590482E+03  0.00000000000E+00 0.  1.
          1   -1    0    0  501    0  0.00000000000E+00 -0.00000000000E+00 -0.54859587143E+03  0.54859587143E+03  0.00000000000E+00 0. -1.
         23    2    1    2    0    0 -0.31565697043E+03  0.43827062898E+03  0.44887468401E+03  0.70841651718E+03  0.92978560232E+02 0.  0.
         13    1    3    3    0    0 -0.20110471964E+03  0.23399230909E+03  0.30333238454E+03  0.43267313816E+03  0.00000000000E+00 0. -1.
        -13    1    3    3    0    0 -0.11455225079E+03  0.20427831990E+03  0.14554229947E+03  0.27574337902E+03  0.00000000000E+00 0.  1.
         22    1    1    2    0    0  0.31565697043E+03 -0.43827062898E+03 -0.24469465062E+03  0.59295525907E+03  0.00000000000E+00 0. -1.
<mgrwt>
<rscale>  0 0.12852545E+04</rscale>
<asrwt>0</asrwt>
<pdfrwt beam="1">  1        1 0.84399365E-01 0.12852545E+04</pdfrwt>
<pdfrwt beam="2">  1       -1 0.11581168E+00 0.12852545E+04</pdfrwt>
<totfact> 0.25854579E+01</totfact>
</mgrwt>
</event>
<event>
 6    1  0.3017327E-006  0.1463523E+04  0.7818608E-02  0.8909079E-01
         -1   -1    0    0    0  501 -0.00000000000E+00  0.00000000000E+00  0.18209079125E+04  0.18209079125E+04  0.00000000000E+00 0.  1.
          1   -1    0    0  501    0  0.00000000000E+00 -0.00000000000E+00 -0.29407015684E+03  0.29407015684E+03  0.00000000000E+00 0. -1.
         23    2    1    2    0    0  0.61698174831E+03 -0.38322509869E+03  0.85615341950E+03  0.11263702438E+04  0.90461562618E+02 0.  0.
         13    1    3    3    0    0  0.21872994966E+03 -0.18294053445E+03  0.36290432239E+03  0.46152960602E+03  0.00000000000E+00 0. -1.
        -13    1    3    3    0    0  0.39825179866E+03 -0.20028456424E+03  0.49324909711E+03  0.66484063775E+03  0.00000000000E+00 0.  1.
         22    1    1    2    0    0 -0.61698174831E+03  0.38322509869E+03  0.67068433616E+03  0.98860782557E+03  0.00000000000E+00 0. -1.
<mgrwt>
<rscale>  0 0.14635227E+04</rscale>
<asrwt>0</asrwt>
<pdfrwt beam="1">  1        1 0.45241564E-01 0.14635227E+04</pdfrwt>
<pdfrwt beam="2">  1       -1 0.28013967E+00 0.14635227E+04</pdfrwt>
<totfact> 0.38852267E+00</totfact>
</mgrwt>
</event>
<event>
 6    1  0.3017327E-006  0.1125476E+04  0.7818608E-02  0.9180711E-01
          1   -1    0    0  501    0  0.00000000000E+00  0.00000000000E+00  0.12645737637E+04  0.12645737637E+04  0.00000000000E+00 0. -1.
         -1   -1    0    0    0  501 -0.00000000000E+00 -0.00000000000E+00 -0.25041976700E+03  0.25041976700E+03  0.00000000000E+00 0.  1.
         23    2    1    2    0    0  0.24860117348E+03 -0.44818881678E+03  0.81112425388E+03  0.96372514287E+03  0.90376085435E+02 0.  0.
         13    1    3    3    0    0  0.65113147134E+02 -0.20567716075E+03  0.31429231154E+03  0.38121184855E+03  0.00000000000E+00 0.  1.
        -13    1    3    3    0    0  0.18348802635E+03 -0.24251165603E+03  0.49683194234E+03  0.58251329432E+03  0.00000000000E+00 0. -1.
         22    1    1    2    0    0 -0.24860117348E+03  0.44818881678E+03  0.20302974281E+03  0.55126838782E+03  0.00000000000E+00 0.  1.
<mgrwt>
<rscale>  0 0.11254764E+04</rscale>
<asrwt>0</asrwt>
<pdfrwt beam="1">  1        1 0.19454981E+00 0.11254764E+04</pdfrwt>
<pdfrwt beam="2">  1       -1 0.38526119E-01 0.11254764E+04</pdfrwt>
<totfact> 0.62205771E+01</totfact>
</mgrwt>
</event>
<event>
 6    1  0.3017327E-006  0.4935973E+04  0.7818608E-02  0.7838461E-01
         -2   -1    0    0    0  501 -0.00000000000E+00  0.00000000000E+00  0.26650723883E+04  0.26650723883E+04  0.00000000000E+00 0.  1.
          2   -1    0    0  501    0  0.00000000000E+00 -0.00000000000E+00 -0.22854756073E+04  0.22854756073E+04  0.00000000000E+00 0. -1.
         23    2    1    2    0    0 -0.87847412060E+03 -0.15426918505E+04 -0.15284334240E+04  0.23443641592E+04  0.91212131841E+02 0.  0.
         11    1    3    3    0    0 -0.69692477236E+03 -0.11498985344E+04 -0.11744271111E+04  0.17852870406E+04  0.00000000000E+00 0. -1.
        -11    1    3    3    0    0 -0.18154934824E+03 -0.39279331609E+03 -0.35400631282E+03  0.55907711859E+03  0.00000000000E+00 0.  1.
         22    1    1    2    0    0  0.87847412060E+03  0.15426918505E+04  0.19080302050E+04  0.26061838364E+04  0.00000000000E+00 0. -1.
<mgrwt>
<rscale>  0 0.49359732E+04</rscale>
<asrwt>0</asrwt>
<pdfrwt beam="1">  1        2 0.35161163E+00 0.49359732E+04</pdfrwt>
<pdfrwt beam="2">  1       -2 0.41001114E+00 0.49359732E+04</pdfrwt>
<totfact> 0.21591961E-02</totfact>
</mgrwt>
</event>
<event>
 6    1  0.3017327E-006  0.2712691E+04  0.7818608E-02  0.8330899E-01
          2   -1    0    0  501    0  0.00000000000E+00  0.00000000000E+00  0.23001483027E+04  0.23001483027E+04  0.00000000000E+00 0. -1.
         -2   -1    0    0    0  501 -0.00000000000E+00 -0.00000000000E+00 -0.79980601884E+03  0.79980601884E+03  0.00000000000E+00 0.  1.
         23    2    1    2    0    0 -0.32438142340E+03 -0.54490099587E+03 -0.61698887917E+03  0.88969830535E+03  0.93527505978E+02 0.  0.
         13    1    3    3    0    0 -0.89665140607E+02 -0.89232424848E+02 -0.95664217575E+02  0.15859982853E+03  0.00000000000E+00 0. -1.
        -13    1    3    3    0    0 -0.23471628279E+03 -0.45566857102E+03 -0.52132466160E+03  0.73109847682E+03  0.00000000000E+00 0.  1.
         22    1    1    2    0    0  0.32438142340E+03  0.54490099587E+03  0.21173311630E+04  0.22102560161E+04  0.00000000000E+00 0. -1.
<mgrwt>
<rscale>  0 0.27126905E+04</rscale>
<asrwt>0</asrwt>
<pdfrwt beam="1">  1        2 0.35386897E+00 0.27126905E+04</pdfrwt>
<pdfrwt beam="2">  1       -2 0.12304708E+00 0.27126905E+04</pdfrwt>
<totfact> 0.19811556E+00</totfact>
</mgrwt>
</event>
<event>
 6    1  0.3017327E-006  0.8334802E+03  0.7818608E-02  0.9512781E-01
         -2   -1    0    0    0  501 -0.00000000000E+00  0.00000000000E+00  0.29650190108E+03  0.29650190108E+03  0.00000000000E+00 0.  1.
          2   -1    0    0  501    0  0.00000000000E+00 -0.00000000000E+00 -0.58573757409E+03  0.58573757409E+03  0.00000000000E+00 0. -1.
         23    2    1    2    0    0 -0.33743947913E+03  0.74738279796E+02 -0.38328278149E+03  0.52405506575E+03  0.90976968565E+02 0.  0.
         11    1    3    3    0    0 -0.25176125110E+03  0.78747465451E+02 -0.23771058593E+03  0.35509324625E+03  0.00000000000E+00 0.  1.
        -11    1    3    3    0    0 -0.85678228028E+02 -0.40091856546E+01 -0.14557219556E+03  0.16896181950E+03  0.00000000000E+00 0. -1.
         22    1    1    2    0    0  0.33743947913E+03 -0.74738279796E+02  0.94047108480E+02  0.35818440942E+03  0.00000000000E+00 0.  1.
<mgrwt>
<rscale>  0 0.83348018E+03</rscale>
<asrwt>0</asrwt>
<pdfrwt beam="1">  1        2 0.90113472E-01 0.83348018E+03</pdfrwt>
<pdfrwt beam="2">  1       -2 0.45615678E-01 0.83348018E+03</pdfrwt>
<totfact> 0.23398500E+02</totfact>
</mgrwt>
</event>
<event>
 6    1  0.3017327E-006  0.1042657E+04  0.7818608E-02  0.9262958E-01
          1   -1    0    0  501    0  0.00000000000E+00  0.00000000000E+00  0.23210805741E+04  0.23210805741E+04  0.00000000000E+00 0. -1.
         -1   -1    0    0    0  501 -0.00000000000E+00 -0.00000000000E+00 -0.11709357484E+03  0.11709357484E+03  0.00000000000E+00 0.  1.
         23    2    1    2    0    0  0.44488455151E+03  0.12622497626E+03  0.16527107877E+04  0.17186184039E+04  0.91330507249E+02 0.  0.
         13    1    3    3    0    0  0.30984825445E+03  0.10603018667E+03  0.10176751063E+04  0.10690701395E+04  0.00000000000E+00 0.  1.
        -13    1    3    3    0    0  0.13503629706E+03  0.20194789587E+02  0.63503568142E+03  0.64954826435E+03  0.00000000000E+00 0. -1.
         22    1    1    2    0    0 -0.44488455151E+03 -0.12622497626E+03  0.55127621153E+03  0.71955574503E+03  0.00000000000E+00 0.  1.
<mgrwt>
<rscale>  0 0.10426574E+04</rscale>
<asrwt>0</asrwt>
<pdfrwt beam="1">  1        1 0.35708929E+00 0.10426574E+04</pdfrwt>
<pdfrwt beam="2">  1       -1 0.18014398E-01 0.10426574E+04</pdfrwt>
<totfact> 0.44192755E+01</totfact>
</mgrwt>
</event>
<event>
 6    1  0.3017327E-006  0.4570298E+03  0.7818608E-02  0.1025646E+00
         -2   -1    0    0    0  501 -0.00000000000E+00  0.00000000000E+00  0.48488755104E+02  0.48488755104E+02  0.00000000000E+00 0.  1.
          2   -1    0    0  501    0  0.00000000000E+00 -0.00000000000E+00 -0.10769311022E+04  0.10769311022E+04  0.00000000000E+00 0. -1.
         23    2    1    2    0    0  0.17980618523E+03 -0.42864100562E+02 -0.25102009098E+03  0.32632476930E+03  0.96484058899E+02 0.  0.
         13    1    3    3    0    0  0.11436486267E+03 -0.47641233954E+02 -0.92046895598E+02  0.15434260583E+03  0.00000000000E+00 0. -1.
        -13    1    3    3    0    0  0.65441322558E+02  0.47771333920E+01 -0.15897319538E+03  0.17198216347E+03  0.00000000000E+00 0.  1.
         22    1    1    2    0    0 -0.17980618523E+03  0.42864100562E+02 -0.77742225612E+03  0.79909508801E+03  0.00000000000E+00 0. -1.
<mgrwt>
<rscale>  0 0.45702975E+03</rscale>
<asrwt>0</asrwt>
<pdfrwt beam="1">  1        2 0.16568170E+00 0.45702975E+03</pdfrwt>
<pdfrwt beam="2">  1       -2 0.74598087E-02 0.45702975E+03</pdfrwt>
<totfact> 0.24914927E+03</totfact>
</mgrwt>
</event>
<event>
 6    1  0.3017327E-006  0.2026246E+04  0.7818608E-02  0.8594447E-01
         -2   -1    0    0    0  501 -0.00000000000E+00  0.00000000000E+00  0.12627175989E+04  0.12627175989E+04  0.00000000000E+00 0.  1.
          2   -1    0    0  501    0  0.00000000000E+00 -0.00000000000E+00 -0.81286476259E+03  0.81286476259E+03  0.00000000000E+00 0. -1.
         23    2    1    2    0    0  0.29510295632E+02 -0.34458986590E+03 -0.74784932599E+03  0.82894548461E+03  0.90878869071E+02 0.  0.
         11    1    3    3    0    0  0.60348423521E+02 -0.20428481797E+03 -0.47549934852E+03  0.52103152449E+03  0.00000000000E+00 0.  1.
        -11    1    3    3    0    0 -0.30838127888E+02 -0.14030504793E+03 -0.27234997747E+03  0.30791396011E+03  0.00000000000E+00 0. -1.
         22    1    1    2    0    0 -0.29510295632E+02  0.34458986590E+03  0.11977021623E+04  0.12466368769E+04  0.00000000000E+00 0.  1.
<mgrwt>
<rscale>  0 0.20262464E+04</rscale>
<asrwt>0</asrwt>
<pdfrwt beam="1">  1        2 0.12505612E+00 0.20262464E+04</pdfrwt>
<pdfrwt beam="2">  1       -2 0.19426425E+00 0.20262464E+04</pdfrwt>
<totfact> 0.45350637E+00</totfact>
</mgrwt>
</event>
<event>
 6    1  0.3017327E-006  0.2368240E+04  0.7818608E-02  0.8451491E-01
          2   -1    0    0  501    0  0.00000000000E+00  0.00000000000E+00  0.13969291701E+04  0.13969291701E+04  0.00000000000E+00 0. -1.
         -2   -1    0    0    0  501 -0.00000000000E+00 -0.00000000000E+00 -0.10037305181E+04  0.10037305181E+04  0.00000000000E+00 0.  1.
         23    2    1    2    0    0 -0.29704590269E+03  0.73135602089E+03 -0.69558034754E+03  0.10558334514E+04  0.88511917844E+02 0.  0.
         13    1    3    3    0    0 -0.25041133435E+03  0.67425325460E+03 -0.61204092887E+03  0.94441377919E+03  0.00000000000E+00 0. -1.
        -13    1    3    3    0    0 -0.46634568337E+02  0.57102766283E+02 -0.83539418670E+02  0.11141967220E+03  0.00000000000E+00 0.  1.
         22    1    1    2    0    0  0.29704590269E+03 -0.73135602089E+03  0.10887789995E+04  0.13448262369E+04  0.00000000000E+00 0. -1.
<mgrwt>
<rscale>  0 0.23682402E+04</rscale>
<asrwt>0</asrwt>
<pdfrwt beam="1">  1        2 0.21491218E+00 0.23682402E+04</pdfrwt>
<pdfrwt beam="2">  1       -2 0.15442008E+00 0.23682402E+04</pdfrwt>
<totfact> 0.36329379E+00</totfact>
</mgrwt>
</event>
<event>
 6    1  0.3017327E-006  0.2615574E+04  0.7818608E-02  0.8362930E-01
          2   -1    0    0  501    0  0.00000000000E+00  0.00000000000E+00  0.36367156510E+04  0.36367156510E+04  0.00000000000E+00 0. -1.
         -2   -1    0    0    0  501 -0.00000000000E+00 -0.00000000000E+00 -0.47028889068E+03  0.47028889068E+03  0.00000000000E+00 0.  1.
         23    2    1    2    0    0  0.58071286030E+03 -0.42072393331E+03  0.32993026250E+04  0.33776952454E+04  0.95871293651E+02 0.  0.
         13    1    3    3    0    0  0.20362999074E+03 -0.17799275940E+03  0.10625852983E+04  0.10964643686E+04  0.00000000000E+00 0.  1.
        -13    1    3    3    0    0  0.37708286955E+03 -0.24273117391E+03  0.22367173268E+04  0.22812308768E+04  0.00000000000E+00 0. -1.
         22    1    1    2    0    0 -0.58071286030E+03  0.42072393331E+03 -0.13287586475E+03  0.72930929626E+03  0.00000000000E+00 0.  1.
<mgrwt>
<rscale>  0 0.26155741E+04</rscale>
<asrwt>0</asrwt>
<pdfrwt beam="1">  1        2 0.55949470E+00 0.26155741E+04</pdfrwt>
<pdfrwt beam="2">  1       -2 0.72352139E-01 0.26155741E+04</pdfrwt>
<totfact> 0.99293658E-01</totfact>
</mgrwt>
</event>
<event>
 6    1  0.3600903E-006  0.4269693E+04  0.7818608E-02  0.7952246E-01
          2   -1    0    0  501    0  0.00000000000E+00  0.00000000000E+00  0.27096671592E+04  0.27096671592E+04  0.00000000000E+00 0. -1.
         -2   -1    0    0    0  501 -0.00000000000E+00 -0.00000000000E+00 -0.16819669059E+04  0.16819669059E+04  0.00000000000E+00 0.  1.
         23    2    1    2    0    0 -0.19160455782E+02  0.66501537409E+03 -0.15713071782E+04  0.17088272886E+04  0.92042833099E+02 0.  0.
         11    1    3    3    0    0 -0.53487361661E+02  0.46671189434E+03 -0.11328072099E+04  0.12263494873E+04  0.00000000000E+00 0. -1.
        -11    1    3    3    0    0  0.34326905879E+02  0.19830347974E+03 -0.43849996832E+03  0.48247780132E+03  0.00000000000E+00 0.  1.
         22    1    1    2    0    0  0.19160455782E+02 -0.66501537409E+03  0.25990074315E+04  0.26828067765E+04  0.00000000000E+00 0. -1.
<mgrwt>
<rscale>  0 0.42696934E+04</rscale>
<asrwt>0</asrwt>
<pdfrwt beam="1">  1        2 0.41687187E+00 0.42696934E+04</pdfrwt>
<pdfrwt beam="2">  1       -2 0.25876414E+00 0.42696934E+04</pdfrwt>
<totfact> 0.11482484E-01</totfact>
</mgrwt>
</event>
<event>
 6    1  0.3017327E-006  0.1299265E+04  0.7818608E-02  0.9030148E-01
         -2   -1    0    0    0  501 -0.00000000000E+00  0.00000000000E+00  0.15207281927E+03  0.15207281927E+03  0.00000000000E+00 0.  1.
          2   -1    0    0  501    0  0.00000000000E+00 -0.00000000000E+00 -0.27751338155E+04  0.27751338155E+04  0.00000000000E+00 0. -1.
         23    2    1    2    0    0 -0.19711193981E+03 -0.60442970382E+03 -0.10551466756E+04  0.12353012885E+04  0.91904204638E+02 0.  0.
         11    1    3    3    0    0 -0.18498298570E+03 -0.47240749203E+03 -0.79037034417E+03  0.93918732129E+03  0.00000000000E+00 0.  1.
        -11    1    3    3    0    0 -0.12128954117E+02 -0.13202221179E+03 -0.26477633140E+03  0.29611396725E+03  0.00000000000E+00 0. -1.
         22    1    1    2    0    0  0.19711193981E+03  0.60442970382E+03 -0.15679143207E+04  0.16919053462E+04  0.00000000000E+00 0. -1.
<mgrwt>
<rscale>  0 0.12992651E+04</rscale>
<asrwt>0</asrwt>
<pdfrwt beam="1">  1        2 0.42694364E+00 0.12992651E+04</pdfrwt>
<pdfrwt beam="2">  1       -2 0.23395820E-01 0.12992651E+04</pdfrwt>
<totfact> 0.38257872E+01</totfact>
</mgrwt>
</event>
<event>
 6    1  0.3017327E-006  0.2003196E+04  0.7818608E-02  0.8605128E-01
         -2   -1    0    0    0  501 -0.00000000000E+00  0.00000000000E+00  0.39391911216E+03  0.39391911216E+03  0.00000000000E+00 0.  1.
          2   -1    0    0  501    0  0.00000000000E+00 -0.00000000000E+00 -0.25467126670E+04  0.25467126670E+04  0.00000000000E+00 0. -1.
         23    2    1    2    0    0 -0.15467363312E+03 -0.95343742327E+03 -0.14559245111E+04  0.17495846277E+04  0.91451269102E+02 0.  0.
         11    1    3    3    0    0 -0.37418796692E+02 -0.35334179813E+03 -0.46527609611E+03  0.58543354726E+03  0.00000000000E+00 0.  1.
        -11    1    3    3    0    0 -0.11725483643E+03 -0.60009562514E+03 -0.99064841500E+03  0.11641510805E+04  0.00000000000E+00 0. -1.
         22    1    1    2    0    0  0.15467363312E+03  0.95343742327E+03 -0.69686904375E+03  0.11910471515E+04  0.00000000000E+00 0. -1.
<mgrwt>
<rscale>  0 0.20031962E+04</rscale>
<asrwt>0</asrwt>
<pdfrwt beam="1">  1        2 0.39180194E+00 0.20031962E+04</pdfrwt>
<pdfrwt beam="2">  1       -2 0.60602941E-01 0.20031962E+04</pdfrwt>
<totfact> 0.77063091E+00</totfact>
</mgrwt>
</event>
<event>
 6    1  0.3151878E-006  0.1660006E+04  0.7818608E-02  0.8784509E-01
          2   -1    0    0  501    0  0.00000000000E+00  0.00000000000E+00  0.13447890232E+04  0.13447890232E+04  0.00000000000E+00 0. -1.
         -2   -1    0    0    0  501 -0.00000000000E+00 -0.00000000000E+00 -0.51227734079E+03  0.51227734079E+03  0.00000000000E+00 0.  1.
         23    2    1    2    0    0 -0.34385254434E+03  0.75209714926E+03  0.38826811853E+03  0.91832409999E+03  0.93179002896E+02 0.  0.
         13    1    3    3    0    0 -0.21343227531E+03  0.36251282382E+03  0.21518038835E+03  0.47251611942E+03  0.00000000000E+00 0.  1.
        -13    1    3    3    0    0 -0.13042026902E+03  0.38958432544E+03  0.17308773017E+03  0.44580798057E+03  0.00000000000E+00 0. -1.
         22    1    1    2    0    0  0.34385254434E+03 -0.75209714926E+03  0.44424356388E+03  0.93874226400E+03  0.00000000000E+00 0. -1.
<mgrwt>
<rscale>  0 0.16600060E+04</rscale>
<asrwt>0</asrwt>
<pdfrwt beam="1">  1        2 0.20689062E+00 0.16600060E+04</pdfrwt>
<pdfrwt beam="2">  1       -2 0.78811899E-01 0.16600060E+04</pdfrwt>
<totfact> 0.21246524E+01</totfact>
</mgrwt>
</event>
<event>
 6    1  0.3017327E-006  0.4429993E+04  0.7818608E-02  0.7923009E-01
         -2   -1    0    0    0  501 -0.00000000000E+00  0.00000000000E+00  0.16351444254E+04  0.16351444254E+04  0.00000000000E+00 0. -1.
          2   -1    0    0  501    0  0.00000000000E+00 -0.00000000000E+00 -0.30004747170E+04  0.30004747170E+04  0.00000000000E+00 0.  1.
         23    2    1    2    0    0 -0.62066272193E+03 -0.18101023330E+04 -0.18483117535E+04  0.26620528874E+04  0.92609754063E+02 0.  0.
         11    1    3    3    0    0 -0.33429382970E+03 -0.96176293908E+03 -0.91940663664E+03  0.13718778659E+04  0.00000000000E+00 0.  1.
        -11    1    3    3    0    0 -0.28636889224E+03 -0.84833939396E+03 -0.92890511690E+03  0.12901750215E+04  0.00000000000E+00 0. -1.
         22    1    1    2    0    0  0.62066272193E+03  0.18101023330E+04  0.48298146194E+03  0.19735662551E+04  0.00000000000E+00 0.  1.
<mgrwt>
<rscale>  0 0.44299930E+04</rscale>
<asrwt>0</asrwt>
<pdfrwt beam="1">  1        2 0.46161149E+00 0.44299930E+04</pdfrwt>
<pdfrwt beam="2">  1       -2 0.25156068E+00 0.44299930E+04</pdfrwt>
<totfact> 0.83292922E-02</totfact>
</mgrwt>
</event>
<event>
 6    1  0.3017327E-006  0.2900689E+04  0.7818608E-02  0.8272672E-01
         -2   -1    0    0    0  501 -0.00000000000E+00  0.00000000000E+00  0.21127558342E+04  0.21127558342E+04  0.00000000000E+00 0.  1.
          2   -1    0    0  501    0  0.00000000000E+00 -0.00000000000E+00 -0.99561887010E+03  0.99561887010E+03  0.00000000000E+00 0. -1.
         23    2    1    2    0    0  0.13015036763E+04  0.31104355300E+03 -0.36478742159E+02  0.13416010603E+04  0.88897667299E+02 0.  0.
         11    1    3    3    0    0  0.80187135177E+03  0.22752179653E+03 -0.47986717152E+02  0.83490511898E+03  0.00000000000E+00 0.  1.
        -11    1    3    3    0    0  0.49963232452E+03  0.83521756467E+02  0.11507974993E+02  0.50669594137E+03  0.00000000000E+00 0. -1.
         22    1    1    2    0    0 -0.13015036763E+04 -0.31104355300E+03  0.11536157063E+04  0.17667736440E+04  0.00000000000E+00 0.  1.
<mgrwt>
<rscale>  0 0.29006893E+04</rscale>
<asrwt>0</asrwt>
<pdfrwt beam="1">  1        2 0.15317214E+00 0.29006893E+04</pdfrwt>
<pdfrwt beam="2">  1       -2 0.32503936E+00 0.29006893E+04</pdfrwt>
<totfact> 0.48753707E-01</totfact>
</mgrwt>
</event>
<event>
 6    1  0.3017327E-006  0.1739088E+04  0.7818608E-02  0.8739380E-01
          2   -1    0    0  501    0  0.00000000000E+00  0.00000000000E+00  0.38113746253E+04  0.38113746253E+04  0.00000000000E+00 0. -1.
         -2   -1    0    0    0  501 -0.00000000000E+00 -0.00000000000E+00 -0.19838169407E+03  0.19838169407E+03  0.00000000000E+00 0.  1.
         23    2    1    2    0    0  0.65039491402E+02  0.85766346241E+03  0.15581857172E+04  0.17821905096E+04  0.91888698349E+02 0.  0.
         11    1    3    3    0    0 -0.14836953941E+02  0.35915690000E+03  0.61311504875E+03  0.71072067440E+03  0.00000000000E+00 0.  1.
        -11    1    3    3    0    0  0.79876445343E+02  0.49850656241E+03  0.94507066849E+03  0.10714698352E+04  0.00000000000E+00 0. -1.
         22    1    1    2    0    0 -0.65039491402E+02 -0.85766346241E+03  0.20548072140E+04  0.22275658097E+04  0.00000000000E+00 0. -1.
<mgrwt>
<rscale>  0 0.17390882E+04</rscale>
<asrwt>0</asrwt>
<pdfrwt beam="1">  1        2 0.58636527E+00 0.17390882E+04</pdfrwt>
<pdfrwt beam="2">  1       -2 0.30520263E-01 0.17390882E+04</pdfrwt>
<totfact> 0.45956784E+00</totfact>
</mgrwt>
</event>
<event>
 6    1  0.3017327E-006  0.2521772E+04  0.7818608E-02  0.8395270E-01
         -1   -1    0    0    0  501 -0.00000000000E+00  0.00000000000E+00  0.80587820135E+03  0.80587820135E+03  0.00000000000E+00 0.  1.
          1   -1    0    0  501    0  0.00000000000E+00 -0.00000000000E+00 -0.19727955505E+04  0.19727955505E+04  0.00000000000E+00 0. -1.
         23    2    1    2    0    0  0.10934648292E+04  0.38709924831E+03 -0.11242315173E+04  0.16179269057E+04  0.90993444801E+02 0.  0.
         13    1    3    3    0    0  0.88295794099E+02  0.94164941400E+01 -0.10400405733E+03  0.13675401843E+03  0.00000000000E+00 0.  1.
        -13    1    3    3    0    0  0.10051690351E+04  0.37768275417E+03 -0.10202274600E+04  0.14811728872E+04  0.00000000000E+00 0. -1.
         22    1    1    2    0    0 -0.10934648292E+04 -0.38709924831E+03 -0.42685831888E+02  0.11607468462E+04  0.00000000000E+00 0.  1.
<mgrwt>
<rscale>  0 0.25217715E+04</rscale>
<asrwt>0</asrwt>
<pdfrwt beam="1">  1        1 0.30350700E+00 0.25217715E+04</pdfrwt>
<pdfrwt beam="2">  1       -1 0.12398126E+00 0.25217715E+04</pdfrwt>
<totfact> 0.15745259E+00</totfact>
</mgrwt>
</event>
<event>
 6    1  0.3017327E-006  0.4071640E+04  0.7818608E-02  0.7990248E-01
         -2   -1    0    0    0  501 -0.00000000000E+00  0.00000000000E+00  0.15762410101E+04  0.15762410101E+04  0.00000000000E+00 0.  1.
          2   -1    0    0  501    0  0.00000000000E+00 -0.00000000000E+00 -0.26293968160E+04  0.26293968160E+04  0.00000000000E+00 0. -1.
         23    2    1    2    0    0 -0.11084536776E+04 -0.15244788536E+04  0.26503481862E+03  0.19055656853E+04  0.90729241651E+02 0.  0.
         11    1    3    3    0    0 -0.25126211127E+03 -0.36993119169E+03  0.99210348225E+02  0.45806596505E+03  0.00000000000E+00 0. -1.
        -11    1    3    3    0    0 -0.85719156634E+03 -0.11545476619E+04  0.16582447040E+03  0.14474997202E+04  0.00000000000E+00 0.  1.
         22    1    1    2    0    0  0.11084536776E+04  0.15244788536E+04 -0.13181906245E+04  0.23000721408E+04  0.00000000000E+00 0. -1.
<mgrwt>
<rscale>  0 0.40716400E+04</rscale>
<asrwt>0</asrwt>
<pdfrwt beam="1">  1        2 0.40452258E+00 0.40716400E+04</pdfrwt>
<pdfrwt beam="2">  1       -2 0.24249862E+00 0.40716400E+04</pdfrwt>
<totfact> 0.16394690E-01</totfact>
</mgrwt>
</event>
<event>
 6    1  0.3017327E-006  0.2372030E+04  0.7818608E-02  0.8450050E-01
         -1   -1    0    0    0  501 -0.00000000000E+00  0.00000000000E+00  0.10457581195E+04  0.10457581195E+04  0.00000000000E+00 0.  1.
          1   -1    0    0  501    0  0.00000000000E+00 -0.00000000000E+00 -0.13450825840E+04  0.13450825840E+04  0.00000000000E+00 0. -1.
         23    2    1    2    0    0  0.10546842716E+04  0.22273212540E+03  0.34433632186E+03  0.11353456933E+04  0.92053399054E+02 0.  0.
         11    1    3    3    0    0  0.62206183471E+03  0.17657742796E+03  0.21523867783E+03  0.68151904060E+03  0.00000000000E+00 0.  1.
        -11    1    3    3    0    0  0.43262243694E+03  0.46154697436E+02  0.12909764403E+03  0.45382665274E+03  0.00000000000E+00 0. -1.
         22    1    1    2    0    0 -0.10546842716E+04 -0.22273212540E+03 -0.64366078639E+03  0.12554950101E+04  0.00000000000E+00 0. -1.
<mgrwt>
<rscale>  0 0.23720295E+04</rscale>
<asrwt>0</asrwt>
<pdfrwt beam="1">  1        1 0.20693578E+00 0.23720295E+04</pdfrwt>
<pdfrwt beam="2">  1       -1 0.16088587E+00 0.23720295E+04</pdfrwt>
<totfact> 0.21716409E+00</totfact>
</mgrwt>
</event>
<event>
 6    1  0.3017327E-006  0.2199136E+04  0.7818608E-02  0.8518788E-01
         -2   -1    0    0    0  501 -0.00000000000E+00  0.00000000000E+00  0.10481257561E+04  0.10481257561E+04  0.00000000000E+00 0.  1.
          2   -1    0    0  501    0  0.00000000000E+00 -0.00000000000E+00 -0.11535351641E+04  0.11535351641E+04  0.00000000000E+00 0. -1.
         23    2    1    2    0    0  0.80818975449E+03 -0.30883605637E+03 -0.72920017356E+03  0.11350469749E+04  0.89712614640E+02 0.  0.
         13    1    3    3    0    0  0.50324014137E+03 -0.17772367274E+03 -0.50285373647E+03  0.73327909013E+03  0.00000000000E+00 0. -1.
        -13    1    3    3    0    0  0.30494961312E+03 -0.13111238363E+03 -0.22634643709E+03  0.40176788481E+03  0.00000000000E+00 0.  1.
         22    1    1    2    0    0 -0.80818975449E+03  0.30883605637E+03  0.62379076556E+03  0.10666139452E+04  0.00000000000E+00 0.  1.
<mgrwt>
<rscale>  0 0.21991361E+04</rscale>
<asrwt>0</asrwt>
<pdfrwt beam="1">  1        2 0.17746695E+00 0.21991361E+04</pdfrwt>
<pdfrwt beam="2">  1       -2 0.16125012E+00 0.21991361E+04</pdfrwt>
<totfact> 0.45539857E+00</totfact>
</mgrwt>
</event>
<event>
 6    1  0.3017327E-006  0.3493894E+04  0.7818608E-02  0.8115239E-01
          2   -1    0    0  501    0  0.00000000000E+00  0.00000000000E+00  0.37248623330E+04  0.37248623330E+04  0.00000000000E+00 0. -1.
         -2   -1    0    0    0  501 -0.00000000000E+00 -0.00000000000E+00 -0.81931180089E+03  0.81931180089E+03  0.00000000000E+00 0.  1.
         23    2    1    2    0    0  0.10937289887E+04  0.27156753374E+02 -0.31572859013E+03  0.11421718156E+04  0.88833124175E+02 0.  0.
         13    1    3    3    0    0  0.59060977318E+03  0.10372204305E+02 -0.12452491346E+03  0.60368364303E+03  0.00000000000E+00 0.  1.
        -13    1    3    3    0    0  0.50311921548E+03  0.16784549068E+02 -0.19120367667E+03  0.53848817261E+03  0.00000000000E+00 0. -1.
         22    1    1    2    0    0 -0.10937289887E+04 -0.27156753374E+02  0.32212791223E+04  0.34020023183E+04  0.00000000000E+00 0. -1.
<mgrwt>
<rscale>  0 0.34938939E+04</rscale>
<asrwt>0</asrwt>
<pdfrwt beam="1">  1        2 0.57305573E+00 0.34938939E+04</pdfrwt>
<pdfrwt beam="2">  1       -2 0.12604797E+00 0.34938939E+04</pdfrwt>
<totfact> 0.21549745E-01</totfact>
</mgrwt>
</event>
<event>
 6    1  0.3017327E-006  0.2213248E+04  0.7818608E-02  0.8512934E-01
          1   -1    0    0  501    0  0.00000000000E+00  0.00000000000E+00  0.22025525382E+04  0.22025525382E+04  0.00000000000E+00 0. -1.
         -1   -1    0    0    0  501 -0.00000000000E+00 -0.00000000000E+00 -0.55599866910E+03  0.55599866910E+03  0.00000000000E+00 0.  1.
         23    2    1    2    0    0 -0.85832705042E+03 -0.43075564559E+03  0.15052296275E+04  0.17878564598E+04  0.91862601186E+02 0.  0.
         11    1    3    3    0    0 -0.47792727385E+03 -0.20181516649E+03  0.86771646709E+03  0.10109776000E+04  0.00000000000E+00 0.  1.
        -11    1    3    3    0    0 -0.38039977657E+03 -0.22894047909E+03  0.63751316041E+03  0.77687885972E+03  0.00000000000E+00 0. -1.
         22    1    1    2    0    0  0.85832705042E+03  0.43075564559E+03  0.14132424163E+03  0.97069474757E+03  0.00000000000E+00 0.  1.
<mgrwt>
<rscale>  0 0.22132476E+04</rscale>
<asrwt>0</asrwt>
<pdfrwt beam="1">  1        1 0.33885423E+00 0.22132476E+04</pdfrwt>
<pdfrwt beam="2">  1       -1 0.85538258E-01 0.22132476E+04</pdfrwt>
<totfact> 0.26679958E+00</totfact>
</mgrwt>
</event>
<event>
 6    1  0.3017327E-006  0.2165640E+04  0.7818608E-02  0.8532867E-01
         -2   -1    0    0    0  501 -0.00000000000E+00  0.00000000000E+00  0.79692786208E+03  0.79692786208E+03  0.00000000000E+00 0.  1.
          2   -1    0    0  501    0  0.00000000000E+00 -0.00000000000E+00 -0.14712742949E+04  0.14712742949E+04  0.00000000000E+00 0. -1.
         23    2    1    2    0    0  0.26394273352E+03  0.22086061132E+03 -0.14108985114E+04  0.14552112956E+04  0.92520965397E+02 0.  0.
         13    1    3    3    0    0  0.69474088812E+02  0.21502135987E+02 -0.20335060833E+03  0.21596402658E+03  0.00000000000E+00 0. -1.
        -13    1    3    3    0    0  0.19446864470E+03  0.19935847533E+03 -0.12075479031E+04  0.12392472690E+04  0.00000000000E+00 0.  1.
         22    1    1    2    0    0 -0.26394273352E+03 -0.22086061132E+03  0.73655207861E+03  0.81299086140E+03  0.00000000000E+00 0.  1.
<mgrwt>
<rscale>  0 0.21656403E+04</rscale>
<asrwt>0</asrwt>
<pdfrwt beam="1">  1        2 0.22634989E+00 0.21656403E+04</pdfrwt>
<pdfrwt beam="2">  1       -2 0.12260429E+00 0.21656403E+04</pdfrwt>
<totfact> 0.60807875E+00</totfact>
</mgrwt>
</event>
<event>
 6    1  0.3017327E-006  0.2394185E+04  0.7818608E-02  0.8441684E-01
          2   -1    0    0  501    0  0.00000000000E+00  0.00000000000E+00  0.12451038053E+04  0.12451038053E+04  0.00000000000E+00 0. -1.
         -2   -1    0    0    0  501 -0.00000000000E+00 -0.00000000000E+00 -0.11509324390E+04  0.11509324390E+04  0.00000000000E+00 0.  1.
         23    2    1    2    0    0  0.10327226995E+04 -0.57908899706E+03  0.21191584117E+03  0.12061942372E+04  0.90199631737E+02 0.  0.
         13    1    3    3    0    0  0.75889639862E+03 -0.42767718625E+03  0.19601529677E+03  0.89289053979E+03  0.00000000000E+00 0. -1.
        -13    1    3    3    0    0  0.27382630088E+03 -0.15141181081E+03  0.15900544399E+02  0.31330369742E+03  0.00000000000E+00 0.  1.
         22    1    1    2    0    0 -0.10327226995E+04  0.57908899706E+03 -0.11774447491E+03  0.11898420071E+04  0.00000000000E+00 0. -1.
<mgrwt>
<rscale>  0 0.23941849E+04</rscale>
<asrwt>0</asrwt>
<pdfrwt beam="1">  1        2 0.19155443E+00 0.23941849E+04</pdfrwt>
<pdfrwt beam="2">  1       -2 0.17706653E+00 0.23941849E+04</pdfrwt>
<totfact> 0.30444202E+00</totfact>
</mgrwt>
</event>
<event>
 6    1  0.3017327E-006  0.1441429E+04  0.7818608E-02  0.8924365E-01
          1   -1    0    0  501    0  0.00000000000E+00  0.00000000000E+00  0.39237558692E+03  0.39237558692E+03  0.00000000000E+00 0. -1.
         -1   -1    0    0    0  501 -0.00000000000E+00 -0.00000000000E+00 -0.13238057233E+04  0.13238057233E+04  0.00000000000E+00 0.  1.
         23    2    1    2    0    0  0.71727404954E+03  0.33616140784E+02 -0.47438391007E+03  0.86500367892E+03  0.87058390459E+02 0.  0.
         13    1    3    3    0    0  0.40914072613E+03  0.51574516596E+02 -0.30509221746E+03  0.51296912743E+03  0.00000000000E+00 0.  1.
        -13    1    3    3    0    0  0.30813332341E+03 -0.17958375812E+02 -0.16929169261E+03  0.35203455149E+03  0.00000000000E+00 0. -1.
         22    1    1    2    0    0 -0.71727404954E+03 -0.33616140784E+02 -0.45704622632E+03  0.85117763132E+03  0.00000000000E+00 0. -1.
<mgrwt>
<rscale>  0 0.14414285E+04</rscale>
<asrwt>0</asrwt>
<pdfrwt beam="1">  1        1 0.60365475E-01 0.14414285E+04</pdfrwt>
<pdfrwt beam="2">  1       -1 0.20366242E+00 0.14414285E+04</pdfrwt>
<totfact> 0.84956473E+00</totfact>
</mgrwt>
</event>
<event>
 6    1  0.3017327E-006  0.1260735E+04  0.7818608E-02  0.9061296E-01
         -2   -1    0    0    0  501 -0.00000000000E+00  0.00000000000E+00  0.74763916630E+03  0.74763916630E+03  0.00000000000E+00 0.  1.
          2   -1    0    0  501    0  0.00000000000E+00 -0.00000000000E+00 -0.53149033743E+03  0.53149033743E+03  0.00000000000E+00 0. -1.
         23    2    1    2    0    0  0.67251725900E+02  0.23059018860E+03  0.69649875190E+03  0.74207207825E+03  0.88689504483E+02 0.  0.
         13    1    3    3    0    0  0.49198455646E+02  0.23151682139E+03  0.62476543797E+03  0.66809608523E+03  0.00000000000E+00 0.  1.
        -13    1    3    3    0    0  0.18053270254E+02 -0.92663279064E+00  0.71733313932E+02  0.73975993017E+02  0.00000000000E+00 0. -1.
         22    1    1    2    0    0 -0.67251725900E+02 -0.23059018860E+03 -0.48034992303E+03  0.53705742549E+03  0.00000000000E+00 0. -1.
<mgrwt>
<rscale>  0 0.12607347E+04</rscale>
<asrwt>0</asrwt>
<pdfrwt beam="1">  1        2 0.81767744E-01 0.12607347E+04</pdfrwt>
<pdfrwt beam="2">  1       -2 0.11502141E+00 0.12607347E+04</pdfrwt>
<totfact> 0.33201307E+01</totfact>
</mgrwt>
</event>
<event>
 6    1  0.3017327E-006  0.9488231E+03  0.7818608E-02  0.9366527E-01
         -2   -1    0    0    0  501 -0.00000000000E+00  0.00000000000E+00  0.24244419806E+03  0.24244419806E+03  0.00000000000E+00 0.  1.
          2   -1    0    0  501    0  0.00000000000E+00 -0.00000000000E+00 -0.92832222050E+03  0.92832222050E+03  0.00000000000E+00 0. -1.
         23    2    1    2    0    0  0.23406616329E+03 -0.14506512852E+03  0.12410944080E+03  0.31524870926E+03  0.90264805333E+02 0.  0.
         13    1    3    3    0    0  0.79075607635E+02 -0.49050495920E+02 -0.28195697953E+01  0.93095933567E+02  0.00000000000E+00 0. -1.
        -13    1    3    3    0    0  0.15499055565E+03 -0.96014632605E+02  0.12692901060E+03  0.22215277569E+03  0.00000000000E+00 0.  1.
         22    1    1    2    0    0 -0.23406616329E+03  0.14506512852E+03 -0.80998746324E+03  0.85551770930E+03  0.00000000000E+00 0. -1.
<mgrwt>
<rscale>  0 0.94882314E+03</rscale>
<asrwt>0</asrwt>
<pdfrwt beam="1">  1        2 0.14281880E+00 0.94882314E+03</pdfrwt>
<pdfrwt beam="2">  1       -2 0.37299107E-01 0.94882314E+03</pdfrwt>
<totfact> 0.19015141E+02</totfact>
</mgrwt>
</event>
<event>
 6    1  0.3017327E-006  0.1798532E+04  0.7818608E-02  0.8707080E-01
         -2   -1    0    0    0  501 -0.00000000000E+00  0.00000000000E+00  0.28981026515E+03  0.28981026515E+03  0.00000000000E+00 0.  1.
          2   -1    0    0  501    0  0.00000000000E+00 -0.00000000000E+00 -0.27903754622E+04  0.27903754622E+04  0.00000000000E+00 0. -1.
         23    2    1    2    0    0 -0.39275972587E+03 -0.75501651531E+03 -0.76933439049E+03  0.11510744692E+04  0.93738405363E+02 0.  0.
         11    1    3    3    0    0 -0.32786064810E+03 -0.58353466099E+03 -0.64506754120E+03  0.92957917246E+03  0.00000000000E+00 0.  1.
        -11    1    3    3    0    0 -0.64899077763E+02 -0.17148185432E+03 -0.12426684929E+03  0.22149529676E+03  0.00000000000E+00 0. -1.
         22    1    1    2    0    0  0.39275972587E+03  0.75501651531E+03 -0.17312308066E+04  0.19291112581E+04  0.00000000000E+00 0. -1.
<mgrwt>
<rscale>  0 0.17985321E+04</rscale>
<asrwt>0</asrwt>
<pdfrwt beam="1">  1        2 0.42928853E+00 0.17985321E+04</pdfrwt>
<pdfrwt beam="2">  1       -2 0.44586195E-01 0.17985321E+04</pdfrwt>
<totfact> 0.10583372E+01</totfact>
</mgrwt>
</event>
<event>
 6    1  0.3017327E-006  0.2620912E+04  0.7818608E-02  0.8361132E-01
         -2   -1    0    0    0  501 -0.00000000000E+00  0.00000000000E+00  0.11806536490E+04  0.11806536490E+04  0.00000000000E+00 0.  1.
          2   -1    0    0  501    0  0.00000000000E+00 -0.00000000000E+00 -0.14545290090E+04  0.14545290090E+04  0.00000000000E+00 0. -1.
         23    2    1    2    0    0  0.10847038205E+04  0.23858361263E+03 -0.83316879829E+03  0.13916740459E+04  0.95298926092E+02 0.  0.
         13    1    3    3    0    0  0.64236606129E+03  0.11764908936E+03 -0.43807210444E+03  0.78637308805E+03  0.00000000000E+00 0.  1.
        -13    1    3    3    0    0  0.44233775916E+03  0.12093452327E+03 -0.39509669385E+03  0.60530095786E+03  0.00000000000E+00 0. -1.
         22    1    1    2    0    0 -0.10847038205E+04 -0.23858361263E+03  0.55929343823E+03  0.12435086121E+04  0.00000000000E+00 0.  1.
<mgrwt>
<rscale>  0 0.26209120E+04</rscale>
<asrwt>0</asrwt>
<pdfrwt beam="1">  1        2 0.22377369E+00 0.26209120E+04</pdfrwt>
<pdfrwt beam="2">  1       -2 0.18163902E+00 0.26209120E+04</pdfrwt>
<totfact> 0.21016431E+00</totfact>
</mgrwt>
</event>
<event>
 6    1  0.3017327E-006  0.6265912E+03  0.7818608E-02  0.9851723E-01
          2   -1    0    0  501    0  0.00000000000E+00  0.00000000000E+00  0.19505738363E+03  0.19505738363E+03  0.00000000000E+00 0. -1.
         -2   -1    0    0    0  501 -0.00000000000E+00 -0.00000000000E+00 -0.50320652635E+03  0.50320652635E+03  0.00000000000E+00 0.  1.
         23    2    1    2    0    0 -0.19477461451E+03  0.37434780892E+02 -0.41814265202E+03  0.47146645549E+03  0.89993488315E+02 0.  0.
         13    1    3    3    0    0 -0.25076716837E+02  0.40868313335E+02 -0.85746246914E+02  0.98241944311E+02  0.00000000000E+00 0. -1.
        -13    1    3    3    0    0 -0.16969789767E+03 -0.34335324435E+01 -0.33239640510E+03  0.37322451118E+03  0.00000000000E+00 0.  1.
         22    1    1    2    0    0  0.19477461451E+03 -0.37434780892E+02  0.10999350930E+03  0.22679745449E+03  0.00000000000E+00 0. -1.
<mgrwt>
<rscale>  0 0.62659125E+03</rscale>
<asrwt>0</asrwt>
<pdfrwt beam="1">  1        2 0.30008829E-01 0.62659125E+03</pdfrwt>
<pdfrwt beam="2">  1       -2 0.77416387E-01 0.62659125E+03</pdfrwt>
<totfact> 0.26756885E+02</totfact>
</mgrwt>
</event>
<event>
 6    1  0.3017327E-006  0.1737728E+04  0.7818608E-02  0.8740135E-01
          2   -1    0    0  501    0  0.00000000000E+00  0.00000000000E+00  0.13736711405E+04  0.13736711405E+04  0.00000000000E+00 0. -1.
         -2   -1    0    0    0  501 -0.00000000000E+00 -0.00000000000E+00 -0.54956721285E+03  0.54956721285E+03  0.00000000000E+00 0.  1.
         23    2    1    2    0    0 -0.72659537052E+03  0.18501780817E+03 -0.67315493802E+02  0.75842033892E+03  0.92182498257E+02 0.  0.
         13    1    3    3    0    0 -0.58197947504E+03  0.18129961334E+03 -0.37510317694E+02  0.61071816994E+03  0.00000000000E+00 0. -1.
        -13    1    3    3    0    0 -0.14461589548E+03  0.37181948264E+01 -0.29805176108E+02  0.14770216898E+03  0.00000000000E+00 0.  1.
         22    1    1    2    0    0  0.72659537052E+03 -0.18501780817E+03  0.89141942142E+03  0.11648180144E+04  0.00000000000E+00 0. -1.
<mgrwt>
<rscale>  0 0.17377280E+04</rscale>
<asrwt>0</asrwt>
<pdfrwt beam="1">  1        2 0.21133402E+00 0.17377280E+04</pdfrwt>
<pdfrwt beam="2">  1       -2 0.84548802E-01 0.17377280E+04</pdfrwt>
<totfact> 0.17338192E+01</totfact>
</mgrwt>
</event>
<event>
 6    1  0.3017327E-006  0.6695595E+03  0.7818608E-02  0.9770754E-01
          2   -1    0    0  501    0  0.00000000000E+00  0.00000000000E+00  0.21739319762E+03  0.21739319762E+03  0.00000000000E+00 0. -1.
         -2   -1    0    0    0  501 -0.00000000000E+00 -0.00000000000E+00 -0.51555186587E+03  0.51555186587E+03  0.00000000000E+00 0.  1.
         23    2    1    2    0    0  0.32524062110E+03 -0.25110371567E+02 -0.19334513257E+03  0.39031133830E+03  0.92458683433E+02 0.  0.
         13    1    3    3    0    0  0.21279898314E+03 -0.37627127399E+02 -0.16961028267E+03  0.27471231485E+03  0.00000000000E+00 0.  1.
        -13    1    3    3    0    0  0.11244163796E+03  0.12516755831E+02 -0.23734849907E+02  0.11559902345E+03  0.00000000000E+00 0. -1.
         22    1    1    2    0    0 -0.32524062110E+03  0.25110371567E+02 -0.10481353568E+03  0.34263372519E+03  0.00000000000E+00 0. -1.
<mgrwt>
<rscale>  0 0.66955946E+03</rscale>
<asrwt>0</asrwt>
<pdfrwt beam="1">  1        2 0.33445108E-01 0.66955946E+03</pdfrwt>
<pdfrwt beam="2">  1       -2 0.79315671E-01 0.66955946E+03</pdfrwt>
<totfact> 0.22415451E+02</totfact>
</mgrwt>
</event>
<event>
 6    1  0.3017327E-006  0.2603636E+04  0.7818608E-02  0.8366967E-01
         -2   -1    0    0    0  501 -0.00000000000E+00  0.00000000000E+00  0.62210302105E+03  0.62210302105E+03  0.00000000000E+00 0.  1.
          2   -1    0    0  501    0  0.00000000000E+00 -0.00000000000E+00 -0.27241944216E+04  0.27241944216E+04  0.00000000000E+00 0. -1.
         23    2    1    2    0    0  0.69748343255E+03 -0.10834187175E+04 -0.82877295705E+03  0.15347734669E+04  0.91573600429E+02 0.  0.
         13    1    3    3    0    0  0.55995782049E+03 -0.87308346134E+03 -0.62274628387E+03  0.12098100782E+04  0.00000000000E+00 0. -1.
        -13    1    3    3    0    0  0.13752561206E+03 -0.21033525617E+03 -0.20602667318E+03  0.32496338874E+03  0.00000000000E+00 0.  1.
         22    1    1    2    0    0 -0.69748343255E+03  0.10834187175E+04 -0.12733184435E+04  0.18115239758E+04  0.00000000000E+00 0.  1.
<mgrwt>
<rscale>  0 0.26036356E+04</rscale>
<asrwt>0</asrwt>
<pdfrwt beam="1">  1        2 0.41910684E+00 0.26036356E+04</pdfrwt>
<pdfrwt beam="2">  1       -2 0.95708156E-01 0.26036356E+04</pdfrwt>
<totfact> 0.20800139E+00</totfact>
</mgrwt>
</event>
<event>
 6    1  0.3017327E-006  0.1198764E+04  0.7818608E-02  0.9113939E-01
         -2   -1    0    0    0  501 -0.00000000000E+00  0.00000000000E+00  0.64043010271E+03  0.64043010271E+03  0.00000000000E+00 0. -1.
          2   -1    0    0  501    0  0.00000000000E+00 -0.00000000000E+00 -0.56096472721E+03  0.56096472721E+03  0.00000000000E+00 0.  1.
         23    2    1    2    0    0  0.10700567577E+03 -0.58089284312E+03 -0.38894083256E+02  0.59898660345E+03  0.91572329723E+02 0.  0.
         13    1    3    3    0    0  0.68109628169E+02 -0.48847241133E+03 -0.52659186825E+01  0.49322606174E+03  0.00000000000E+00 0.  1.
        -13    1    3    3    0    0  0.38896047603E+02 -0.92420431793E+02 -0.33628164574E+02  0.10576054172E+03  0.00000000000E+00 0. -1.
         22    1    1    2    0    0 -0.10700567577E+03  0.58089284312E+03  0.11835945876E+03  0.60240822646E+03  0.00000000000E+00 0. -1.
<mgrwt>
<rscale>  0 0.11987639E+04</rscale>
<asrwt>0</asrwt>
<pdfrwt beam="1">  1        2 0.86302266E-01 0.11987639E+04</pdfrwt>
<pdfrwt beam="2">  1       -2 0.98527708E-01 0.11987639E+04</pdfrwt>
<totfact> 0.45409215E+01</totfact>
</mgrwt>
</event>
<event>
 6    1  0.3017327E-006  0.1403875E+04  0.7818608E-02  0.8951019E-01
         -2   -1    0    0    0  501 -0.00000000000E+00  0.00000000000E+00  0.45581331954E+03  0.45581331954E+03  0.00000000000E+00 0.  1.
          2   -1    0    0  501    0  0.00000000000E+00 -0.00000000000E+00 -0.10809599080E+04  0.10809599080E+04  0.00000000000E+00 0. -1.
         23    2    1    2    0    0  0.11641316871E+03  0.45027359049E+03 -0.88492102360E+03  0.10040621526E+04  0.93580212468E+02 0.  0.
         13    1    3    3    0    0  0.81732617966E+02  0.20484233754E+03 -0.33793892006E+03  0.40353849603E+03  0.00000000000E+00 0. -1.
        -13    1    3    3    0    0  0.34680550745E+02  0.24543125295E+03 -0.54698210354E+03  0.60052365658E+03  0.00000000000E+00 0.  1.
         22    1    1    2    0    0 -0.11641316871E+03 -0.45027359049E+03  0.25977443518E+03  0.53271107489E+03  0.00000000000E+00 0.  1.
<mgrwt>
<rscale>  0 0.14038745E+04</rscale>
<asrwt>0</asrwt>
<pdfrwt beam="1">  1        2 0.16630152E+00 0.14038745E+04</pdfrwt>
<pdfrwt beam="2">  1       -2 0.70125127E-01 0.14038745E+04</pdfrwt>
<totfact> 0.40341915E+01</totfact>
</mgrwt>
</event>
<event>
 6    1  0.3017327E-006  0.2448362E+04  0.7818608E-02  0.8421616E-01
          2   -1    0    0  501    0  0.00000000000E+00  0.00000000000E+00  0.24572617880E+04  0.24572617880E+04  0.00000000000E+00 0. -1.
         -2   -1    0    0    0  501 -0.00000000000E+00 -0.00000000000E+00 -0.60987367547E+03  0.60987367547E+03  0.00000000000E+00 0.  1.
         23    2    1    2    0    0  0.40404837291E+03 -0.72081698140E+03 -0.20352878122E+03  0.85600626929E+03  0.92144234493E+02 0.  0.
         13    1    3    3    0    0  0.36040757674E+03 -0.65891937637E+03 -0.15750288044E+03  0.76738225369E+03  0.00000000000E+00 0. -1.
        -13    1    3    3    0    0  0.43640796170E+02 -0.61897605034E+02 -0.46025900779E+02  0.88624015604E+02  0.00000000000E+00 0.  1.
         22    1    1    2    0    0 -0.40404837291E+03  0.72081698140E+03  0.20509168938E+04  0.22111291942E+04  0.00000000000E+00 0. -1.
<mgrwt>
<rscale>  0 0.24483621E+04</rscale>
<asrwt>0</asrwt>
<pdfrwt beam="1">  1        2 0.37804027E+00 0.24483621E+04</pdfrwt>
<pdfrwt beam="2">  1       -2 0.93826720E-01 0.24483621E+04</pdfrwt>
<totfact> 0.31663326E+00</totfact>
</mgrwt>
</event>
<event>
 6    1  0.3214725E-006  0.4505408E+04  0.7818608E-02  0.7909691E-01
          2   -1    0    0  501    0  0.00000000000E+00  0.00000000000E+00  0.23106848405E+04  0.23106848405E+04  0.00000000000E+00 0. -1.
         -2   -1    0    0    0  501 -0.00000000000E+00 -0.00000000000E+00 -0.21961782571E+04  0.21961782571E+04  0.00000000000E+00 0.  1.
         23    2    1    2    0    0 -0.19950789820E+03  0.22145335490E+04 -0.29852653683E+03  0.22453241085E+04  0.91651612471E+02 0.  0.
         13    1    3    3    0    0 -0.34579910026E+02  0.87528309062E+03 -0.12535047996E+03  0.88488925959E+03  0.00000000000E+00 0.  1.
        -13    1    3    3    0    0 -0.16492798817E+03  0.13392504584E+04 -0.17317605688E+03  0.13604348489E+04  0.00000000000E+00 0. -1.
         22    1    1    2    0    0  0.19950789820E+03 -0.22145335490E+04  0.41303312024E+03  0.22615389891E+04  0.00000000000E+00 0. -1.
<mgrwt>
<rscale>  0 0.45054082E+04</rscale>
<asrwt>0</asrwt>
<pdfrwt beam="1">  1        2 0.35548997E+00 0.45054082E+04</pdfrwt>
<pdfrwt beam="2">  1       -2 0.33787358E+00 0.45054082E+04</pdfrwt>
<totfact> 0.62777204E-02</totfact>
</mgrwt>
</event>
<event>
 6    1  0.3017327E-006  0.1431963E+04  0.7818608E-02  0.8931001E-01
          2   -1    0    0  501    0  0.00000000000E+00  0.00000000000E+00  0.14156952554E+04  0.14156952554E+04  0.00000000000E+00 0. -1.
         -2   -1    0    0    0  501 -0.00000000000E+00 -0.00000000000E+00 -0.36210464279E+03  0.36210464279E+03  0.00000000000E+00 0.  1.
         23    2    1    2    0    0  0.20202388008E+02  0.40824274156E+03  0.12546784338E+04  0.13222709920E+04  0.84334640637E+02 0.  0.
         13    1    3    3    0    0  0.14734984735E+02  0.20442599021E+03  0.76170321901E+03  0.78879585388E+03  0.00000000000E+00 0.  1.
        -13    1    3    3    0    0  0.54674032731E+01  0.20381675136E+03  0.49297521480E+03  0.53347513817E+03  0.00000000000E+00 0. -1.
         22    1    1    2    0    0 -0.20202388008E+02 -0.40824274156E+03 -0.20108782119E+03  0.45552890616E+03  0.00000000000E+00 0.  1.
<mgrwt>
<rscale>  0 0.14319634E+04</rscale>
<asrwt>0</asrwt>
<pdfrwt beam="1">  1        2 0.21779927E+00 0.14319634E+04</pdfrwt>
<pdfrwt beam="2">  1       -2 0.55708408E-01 0.14319634E+04</pdfrwt>
<totfact> 0.41659468E+01</totfact>
</mgrwt>
</event>
<event>
 6    1  0.3017327E-006  0.5233037E+04  0.7818608E-02  0.7793531E-01
          2   -1    0    0  501    0  0.00000000000E+00  0.00000000000E+00  0.29964999589E+04  0.29964999589E+04  0.00000000000E+00 0. -1.
         -2   -1    0    0    0  501 -0.00000000000E+00 -0.00000000000E+00 -0.22847222404E+04  0.22847222404E+04  0.00000000000E+00 0.  1.
         23    2    1    2    0    0  0.12284590991E+04  0.30059716510E+03 -0.19547584353E+04  0.23299706897E+04  0.90622626334E+02 0.  0.
         13    1    3    3    0    0  0.78185818032E+03  0.21450199580E+03 -0.13195864364E+04  0.15487484248E+04  0.00000000000E+00 0.  1.
        -13    1    3    3    0    0  0.44660091880E+03  0.86095169306E+02 -0.63517199894E+03  0.78122226484E+03  0.00000000000E+00 0. -1.
         22    1    1    2    0    0 -0.12284590991E+04 -0.30059716510E+03  0.26665361538E+04  0.29512515097E+04  0.00000000000E+00 0. -1.
<mgrwt>
<rscale>  0 0.52330374E+04</rscale>
<asrwt>0</asrwt>
<pdfrwt beam="1">  1        2 0.46100000E+00 0.52330374E+04</pdfrwt>
<pdfrwt beam="2">  1       -2 0.35149573E+00 0.52330374E+04</pdfrwt>
<totfact> 0.19034105E-02</totfact>
</mgrwt>
</event>
<event>
 6    1  0.3017327E-006  0.2202049E+04  0.7818608E-02  0.8517576E-01
          2   -1    0    0  501    0  0.00000000000E+00  0.00000000000E+00  0.13249052527E+04  0.13249052527E+04  0.00000000000E+00 0.  1.
         -2   -1    0    0    0  501 -0.00000000000E+00 -0.00000000000E+00 -0.91497455303E+03  0.91497455303E+03  0.00000000000E+00 0. -1.
         23    2    1    2    0    0  0.39206924410E+03 -0.11840075052E+03  0.12428660733E+04  0.13116996689E+04  0.90016194417E+02 0.  0.
         11    1    3    3    0    0  0.24388014161E+03 -0.53707452225E+02  0.87341772056E+03  0.90841649505E+03  0.00000000000E+00 0.  1.
        -11    1    3    3    0    0  0.14818910249E+03 -0.64693298295E+02  0.36944835275E+03  0.40328317383E+03  0.00000000000E+00 0. -1.
         22    1    1    2    0    0 -0.39206924410E+03  0.11840075052E+03 -0.83293537360E+03  0.92818013688E+03  0.00000000000E+00 0. -1.
<mgrwt>
<rscale>  0 0.22020487E+04</rscale>
<asrwt>0</asrwt>
<pdfrwt beam="1">  1        2 0.20383158E+00 0.22020487E+04</pdfrwt>
<pdfrwt beam="2">  1       -2 0.14076532E+00 0.22020487E+04</pdfrwt>
<totfact> 0.51747995E+00</totfact>
</mgrwt>
</event>
<event>
 6    1  0.3017327E-006  0.1504010E+04  0.7818608E-02  0.8881791E-01
         -2   -1    0    0    0  501 -0.00000000000E+00  0.00000000000E+00  0.34342124194E+03  0.34342124194E+03  0.00000000000E+00 0.  1.
          2   -1    0    0  501    0  0.00000000000E+00 -0.00000000000E+00 -0.16466991492E+04  0.16466991492E+04  0.00000000000E+00 0. -1.
         23    2    1    2    0    0  0.60886509539E+02  0.28963453812E+03 -0.15648087133E+04  0.15951600195E+04  0.91180293095E+02 0.  0.
         13    1    3    3    0    0  0.18471699216E+02  0.23098614842E+03 -0.10483515707E+04  0.10736558202E+04  0.00000000000E+00 0. -1.
        -13    1    3    3    0    0  0.42414810323E+02  0.58648389699E+02 -0.51645714258E+03  0.52150419929E+03  0.00000000000E+00 0.  1.
         22    1    1    2    0    0 -0.60886509539E+02 -0.28963453812E+03  0.26153080601E+03  0.39496037169E+03  0.00000000000E+00 0.  1.
<mgrwt>
<rscale>  0 0.15040099E+04</rscale>
<asrwt>0</asrwt>
<pdfrwt beam="1">  1        2 0.25333833E+00 0.15040099E+04</pdfrwt>
<pdfrwt beam="2">  1       -2 0.52834037E-01 0.15040099E+04</pdfrwt>
<totfact> 0.34269382E+01</totfact>
</mgrwt>
</event>
<event>
 6    1  0.3017327E-006  0.1956789E+04  0.7818608E-02  0.8627094E-01
          2   -1    0    0  501    0  0.00000000000E+00  0.00000000000E+00  0.12409335857E+04  0.12409335857E+04  0.00000000000E+00 0.  1.
         -2   -1    0    0    0  501 -0.00000000000E+00 -0.00000000000E+00 -0.77139940412E+03  0.77139940412E+03  0.00000000000E+00 0. -1.
         23    2    1    2    0    0 -0.95235032282E+03  0.88854322506E+02  0.34187435620E+02  0.96143193970E+03  0.91194111216E+02 0.  0.
         11    1    3    3    0    0 -0.55289699724E+03  0.32060045590E+02 -0.20888889281E+02  0.55421952489E+03  0.00000000000E+00 0. -1.
        -11    1    3    3    0    0 -0.39945332558E+03  0.56794276916E+02  0.55076324901E+02  0.40721241480E+03  0.00000000000E+00 0.  1.
         22    1    1    2    0    0  0.95235032282E+03 -0.88854322506E+02  0.43534674600E+03  0.10509010502E+04  0.00000000000E+00 0.  1.
<mgrwt>
<rscale>  0 0.19567886E+04</rscale>
<asrwt>0</asrwt>
<pdfrwt beam="1">  1        2 0.19091286E+00 0.19567886E+04</pdfrwt>
<pdfrwt beam="2">  1       -2 0.11867683E+00 0.19567886E+04</pdfrwt>
<totfact> 0.91143364E+00</totfact>
</mgrwt>
</event>
<event>
 6    1  0.3017327E-006  0.1896751E+04  0.7818608E-02  0.8656475E-01
          2   -1    0    0  501    0  0.00000000000E+00  0.00000000000E+00  0.15878279625E+04  0.15878279625E+04  0.00000000000E+00 0.  1.
         -2   -1    0    0    0  501 -0.00000000000E+00 -0.00000000000E+00 -0.56644441135E+03  0.56644441135E+03  0.00000000000E+00 0. -1.
         23    2    1    2    0    0  0.83549544471E+03 -0.44434425924E+03  0.51132547018E+03  0.10792590228E+04  0.88610626170E+02 0.  0.
         13    1    3    3    0    0  0.63739662893E+03 -0.32030845700E+03  0.42339750085E+03  0.82954048360E+03  0.00000000000E+00 0.  1.
        -13    1    3    3    0    0  0.19809881578E+03 -0.12403580224E+03  0.87927969330E+02  0.24971853924E+03  0.00000000000E+00 0. -1.
         22    1    1    2    0    0 -0.83549544471E+03  0.44434425924E+03  0.51005808095E+03  0.10750133510E+04  0.00000000000E+00 0.  1.
<mgrwt>
<rscale>  0 0.18967512E+04</rscale>
<asrwt>0</asrwt>
<pdfrwt beam="1">  1        2 0.24428122E+00 0.18967512E+04</pdfrwt>
<pdfrwt beam="2">  1       -2 0.87145295E-01 0.18967512E+04</pdfrwt>
<totfact> 0.12078948E+01</totfact>
</mgrwt>
</event>
<event>
 6    1  0.3017327E-006  0.3292495E+04  0.7818608E-02  0.8164808E-01
          2   -1    0    0  501    0  0.00000000000E+00  0.00000000000E+00  0.22354647984E+04  0.22354647984E+04  0.00000000000E+00 0. -1.
         -2   -1    0    0    0  501 -0.00000000000E+00 -0.00000000000E+00 -0.12123345812E+04  0.12123345812E+04  0.00000000000E+00 0.  1.
         23    2    1    2    0    0 -0.12522769830E+04 -0.57217417640E+03  0.14548285224E+04  0.20049049424E+04  0.86815138461E+02 0.  0.
         13    1    3    3    0    0 -0.78722153564E+03 -0.39818805352E+03  0.89782299923E+03  0.12587126797E+04  0.00000000000E+00 0.  1.
        -13    1    3    3    0    0 -0.46505544735E+03 -0.17398612289E+03  0.55700552318E+03  0.74619226270E+03  0.00000000000E+00 0. -1.
         22    1    1    2    0    0  0.12522769830E+04  0.57217417640E+03 -0.43169830523E+03  0.14428944372E+04  0.00000000000E+00 0.  1.
<mgrwt>
<rscale>  0 0.32924953E+04</rscale>
<asrwt>0</asrwt>
<pdfrwt beam="1">  1        2 0.34391766E+00 0.32924953E+04</pdfrwt>
<pdfrwt beam="2">  1       -2 0.18651301E+00 0.32924953E+04</pdfrwt>
<totfact> 0.67437599E-01</totfact>
</mgrwt>
</event>
<event>
 6    1  0.3017327E-006  0.6473253E+03  0.7818608E-02  0.9811811E-01
         -2   -1    0    0    0  501 -0.00000000000E+00  0.00000000000E+00  0.12841905271E+03  0.12841905271E+03  0.00000000000E+00 0.  1.
          2   -1    0    0  501    0  0.00000000000E+00 -0.00000000000E+00 -0.81574744280E+03  0.81574744280E+03  0.00000000000E+00 0. -1.
         23    2    1    2    0    0 -0.13334579654E+03  0.14140143820E+03 -0.71614637649E+03  0.74768254065E+03  0.91586466539E+02 0.  0.
         13    1    3    3    0    0 -0.41931390305E+02  0.38480372513E+02 -0.89257814863E+02  0.10585810350E+03  0.00000000000E+00 0. -1.
        -13    1    3    3    0    0 -0.91414406232E+02  0.10292106569E+03 -0.62688856162E+03  0.64182443715E+03  0.00000000000E+00 0.  1.
         22    1    1    2    0    0  0.13334579654E+03 -0.14140143820E+03  0.28817986403E+02  0.19648395487E+03  0.00000000000E+00 0.  1.
<mgrwt>
<rscale>  0 0.64732531E+03</rscale>
<asrwt>0</asrwt>
<pdfrwt beam="1">  1        2 0.12549961E+00 0.64732531E+03</pdfrwt>
<pdfrwt beam="2">  1       -2 0.19756777E-01 0.64732531E+03</pdfrwt>
<totfact> 0.73605333E+02</totfact>
</mgrwt>
</event>
<event>
 6    1  0.3017327E-006  0.3098107E+04  0.7818608E-02  0.8216258E-01
          2   -1    0    0  501    0  0.00000000000E+00  0.00000000000E+00  0.16228499950E+04  0.16228499950E+04  0.00000000000E+00 0. -1.
         -2   -1    0    0    0  501 -0.00000000000E+00 -0.00000000000E+00 -0.14786123157E+04  0.14786123157E+04  0.00000000000E+00 0.  1.
         23    2    1    2    0    0 -0.10429397724E+04 -0.51300076375E+03  0.10952908129E+04  0.15996649824E+04  0.91503762029E+02 0.  0.
         11    1    3    3    0    0 -0.21796011580E+03 -0.11823590194E+03  0.28509693125E+03  0.37784467814E+03  0.00000000000E+00 0.  1.
        -11    1    3    3    0    0 -0.82497965659E+03 -0.39476486180E+03  0.81019388167E+03  0.12218203042E+04  0.00000000000E+00 0. -1.
         22    1    1    2    0    0  0.10429397724E+04  0.51300076375E+03 -0.95105313357E+03  0.15017973283E+04  0.00000000000E+00 0.  1.
<mgrwt>
<rscale>  0 0.30981065E+04</rscale>
<asrwt>0</asrwt>
<pdfrwt beam="1">  1        2 0.24966923E+00 0.30981065E+04</pdfrwt>
<pdfrwt beam="2">  1       -2 0.22747882E+00 0.30981065E+04</pdfrwt>
<totfact> 0.81534752E-01</totfact>
</mgrwt>
</event>
<event>
 6    1  0.3017327E-006  0.1987659E+04  0.7818608E-02  0.8612412E-01
         -2   -1    0    0    0  501 -0.00000000000E+00  0.00000000000E+00  0.36791403639E+03  0.36791403639E+03  0.00000000000E+00 0.  1.
          2   -1    0    0  501    0  0.00000000000E+00 -0.00000000000E+00 -0.26845855932E+04  0.26845855932E+04  0.00000000000E+00 0. -1.
         23    2    1    2    0    0  0.71127153458E+03  0.63171401393E+03 -0.73043957379E+03  0.12028775884E+04  0.91666408259E+02 0.  0.
         13    1    3    3    0    0  0.54572583730E+03  0.48528633987E+03 -0.51012954249E+03  0.89081517235E+03  0.00000000000E+00 0. -1.
        -13    1    3    3    0    0  0.16554569728E+03  0.14642767406E+03 -0.22031003130E+03  0.31206241605E+03  0.00000000000E+00 0.  1.
         22    1    1    2    0    0 -0.71127153458E+03 -0.63171401393E+03 -0.15862319830E+04  0.18496220412E+04  0.00000000000E+00 0. -1.
<mgrwt>
<rscale>  0 0.19876586E+04</rscale>
<asrwt>0</asrwt>
<pdfrwt beam="1">  1        2 0.41301317E+00 0.19876586E+04</pdfrwt>
<pdfrwt beam="2">  1       -2 0.56602160E-01 0.19876586E+04</pdfrwt>
<totfact> 0.73940240E+00</totfact>
</mgrwt>
</event>
<event>
 6    1  0.3126644E-006  0.3913928E+04  0.7818608E-02  0.8022139E-01
          2   -1    0    0  501    0  0.00000000000E+00  0.00000000000E+00  0.22394098027E+04  0.22394098027E+04  0.00000000000E+00 0. -1.
         -2   -1    0    0    0  501 -0.00000000000E+00 -0.00000000000E+00 -0.17101413186E+04  0.17101413186E+04  0.00000000000E+00 0.  1.
         23    2    1    2    0    0 -0.12665724336E+04  0.23796027644E+03 -0.12199142011E+04  0.17768866536E+04  0.91130121789E+02 0.  0.
         13    1    3    3    0    0 -0.82725920234E+03  0.13094898881E+03 -0.84142659811E+03  0.11872253979E+04  0.00000000000E+00 0. -1.
        -13    1    3    3    0    0 -0.43931323126E+03  0.10701128763E+03 -0.37848760301E+03  0.58966125570E+03  0.00000000000E+00 0.  1.
         22    1    1    2    0    0  0.12665724336E+04 -0.23796027644E+03  0.17491826852E+04  0.21726644677E+04  0.00000000000E+00 0. -1.
<mgrwt>
<rscale>  0 0.39139276E+04</rscale>
<asrwt>0</asrwt>
<pdfrwt beam="1">  1        2 0.34452458E+00 0.39139276E+04</pdfrwt>
<pdfrwt beam="2">  1       -2 0.26309866E+00 0.39139276E+04</pdfrwt>
<totfact> 0.20817689E-01</totfact>
</mgrwt>
</event>
<event>
 6    1  0.3017327E-006  0.1594492E+04  0.7818608E-02  0.8823939E-01
         -2   -1    0    0    0  501 -0.00000000000E+00  0.00000000000E+00  0.26822468246E+03  0.26822468246E+03  0.00000000000E+00 0.  1.
          2   -1    0    0  501    0  0.00000000000E+00 -0.00000000000E+00 -0.23696586613E+04  0.23696586613E+04  0.00000000000E+00 0. -1.
         23    2    1    2    0    0  0.72512333314E+03  0.13934806561E+03 -0.15396097889E+04  0.17100535360E+04  0.93075573885E+02 0.  0.
         11    1    3    3    0    0  0.26897104544E+03  0.86190427880E+02 -0.51884158046E+03  0.59073750411E+03  0.00000000000E+00 0.  1.
        -11    1    3    3    0    0  0.45615228770E+03  0.53157637733E+02 -0.10207682084E+04  0.11193160319E+04  0.00000000000E+00 0. -1.
         22    1    1    2    0    0 -0.72512333314E+03 -0.13934806561E+03 -0.56182418996E+03  0.92782980771E+03  0.00000000000E+00 0.  1.
<mgrwt>
<rscale>  0 0.15944917E+04</rscale>
<asrwt>0</asrwt>
<pdfrwt beam="1">  1        2 0.36456287E+00 0.15944917E+04</pdfrwt>
<pdfrwt beam="2">  1       -2 0.41265335E-01 0.15944917E+04</pdfrwt>
<totfact> 0.22115179E+01</totfact>
</mgrwt>
</event>
<event>
 6    1  0.3017327E-006  0.2656231E+04  0.7818608E-02  0.8349348E-01
         -2   -1    0    0    0  501 -0.00000000000E+00  0.00000000000E+00  0.98278647468E+03  0.98278647468E+03  0.00000000000E+00 0.  1.
          2   -1    0    0  501    0  0.00000000000E+00 -0.00000000000E+00 -0.17947859753E+04  0.17947859753E+04  0.00000000000E+00 0. -1.
         23    2    1    2    0    0  0.10152363353E+04 -0.17619781247E+03  0.46717692665E+03  0.11350004370E+04  0.90670973680E+02 0.  0.
         13    1    3    3    0    0  0.55946276405E+03 -0.96824050178E+02  0.30672759293E+03  0.64533347760E+03  0.00000000000E+00 0.  1.
        -13    1    3    3    0    0  0.45577357129E+03 -0.79373762289E+02  0.16044933372E+03  0.48966695939E+03  0.00000000000E+00 0. -1.
         22    1    1    2    0    0 -0.10152363353E+04  0.17619781247E+03 -0.12791764272E+04  0.16425720129E+04  0.00000000000E+00 0. -1.
<mgrwt>
<rscale>  0 0.26562315E+04</rscale>
<asrwt>0</asrwt>
<pdfrwt beam="1">  1        2 0.27612092E+00 0.26562315E+04</pdfrwt>
<pdfrwt beam="2">  1       -2 0.15119792E+00 0.26562315E+04</pdfrwt>
<totfact> 0.22439169E+00</totfact>
</mgrwt>
</event>
<event>
 6    1  0.3017327E-006  0.1555001E+04  0.7818608E-02  0.8848680E-01
         -3   -1    0    0    0  501 -0.00000000000E+00  0.00000000000E+00  0.82852690149E+03  0.82852690149E+03  0.00000000000E+00 0.  1.
          3   -1    0    0  501    0  0.00000000000E+00 -0.00000000000E+00 -0.72961619091E+03  0.72961619091E+03  0.00000000000E+00 0. -1.
         23    2    1    2    0    0 -0.15135317721E+03  0.64537633547E+03 -0.35231789691E+03  0.75625428786E+03  0.91510921661E+02 0.  0.
         11    1    3    3    0    0 -0.10344768099E+03  0.27763591000E+03 -0.12724644529E+03  0.32245120416E+03  0.00000000000E+00 0. -1.
        -11    1    3    3    0    0 -0.47905496218E+02  0.36774042547E+03 -0.22507145161E+03  0.43380308370E+03  0.00000000000E+00 0.  1.
         22    1    1    2    0    0  0.15135317721E+03 -0.64537633547E+03  0.45122860749E+03  0.80188880454E+03  0.00000000000E+00 0.  1.
<mgrwt>
<rscale>  0 0.15550005E+04</rscale>
<asrwt>0</asrwt>
<pdfrwt beam="1">  1        3 0.11224864E+00 0.15550005E+04</pdfrwt>
<pdfrwt beam="2">  1       -3 0.12746568E+00 0.15550005E+04</pdfrwt>
<totfact> 0.81708295E-01</totfact>
</mgrwt>
</event>
<event>
 6    1  0.3017327E-006  0.5139036E+03  0.7818608E-02  0.1010212E+00
          2   -1    0    0  501    0  0.00000000000E+00  0.00000000000E+00  0.81640355972E+03  0.81640355972E+03  0.00000000000E+00 0. -1.
         -2   -1    0    0    0  501 -0.00000000000E+00 -0.00000000000E+00 -0.80872052026E+02  0.80872052026E+02  0.00000000000E+00 0.  1.
         23    2    1    2    0    0  0.97796707881E+02 -0.89541414785E+02  0.74674825057E+03  0.76420541841E+03  0.93782251848E+02 0.  0.
         13    1    3    3    0    0  0.60925928793E+01  0.14572104307E+02  0.18121944423E+03  0.18190643990E+03  0.00000000000E+00 0. -1.
        -13    1    3    3    0    0  0.91704115002E+02 -0.10411351909E+03  0.56552880634E+03  0.58229897851E+03  0.00000000000E+00 0.  1.
         22    1    1    2    0    0 -0.97796707881E+02  0.89541414785E+02 -0.11216742876E+02  0.13307019334E+03  0.00000000000E+00 0.  1.
<mgrwt>
<rscale>  0 0.51390361E+03</rscale>
<asrwt>0</asrwt>
<pdfrwt beam="1">  1        2 0.12560054E+00 0.51390361E+03</pdfrwt>
<pdfrwt beam="2">  1       -2 0.12441855E-01 0.51390361E+03</pdfrwt>
<totfact> 0.16122022E+03</totfact>
</mgrwt>
</event>
<event>
 6    1  0.3017327E-006  0.1459855E+04  0.7818608E-02  0.8911596E-01
          1   -1    0    0  501    0  0.00000000000E+00  0.00000000000E+00  0.34915212339E+03  0.34915212339E+03  0.00000000000E+00 0. -1.
         -1   -1    0    0    0  501 -0.00000000000E+00 -0.00000000000E+00 -0.15259666857E+04  0.15259666857E+04  0.00000000000E+00 0.  1.
         23    2    1    2    0    0 -0.24210514970E+03  0.20993969743E+03 -0.14299053684E+04  0.14667751594E+04  0.64112600109E+02 0.  0.
         11    1    3    3    0    0 -0.17889993641E+03  0.11498503241E+03 -0.91615569888E+03  0.94051475774E+03  0.00000000000E+00 0. -1.
        -11    1    3    3    0    0 -0.63205213293E+02  0.94954665024E+02 -0.51374966955E+03  0.52626040166E+03  0.00000000000E+00 0.  1.
         22    1    1    2    0    0  0.24210514970E+03 -0.20993969743E+03  0.25309080615E+03  0.40834364967E+03  0.00000000000E+00 0. -1.
<mgrwt>
<rscale>  0 0.14598555E+04</rscale>
<asrwt>0</asrwt>
<pdfrwt beam="1">  1        1 0.53715711E-01 0.14598555E+04</pdfrwt>
<pdfrwt beam="2">  1       -1 0.23476411E+00 0.14598555E+04</pdfrwt>
<totfact> 0.61227503E+00</totfact>
</mgrwt>
</event>
<event>
 6    1  0.3017327E-006  0.2893721E+04  0.7818608E-02  0.8274748E-01
         -2   -1    0    0    0  501 -0.00000000000E+00  0.00000000000E+00  0.94161093408E+03  0.94161093408E+03  0.00000000000E+00 0.  1.
          2   -1    0    0  501    0  0.00000000000E+00 -0.00000000000E+00 -0.22232169834E+04  0.22232169834E+04  0.00000000000E+00 0. -1.
         23    2    1    2    0    0  0.58542176550E+03 -0.12032442932E+04 -0.43672328371E+02  0.13419194255E+04  0.91241436220E+02 0.  0.
         13    1    3    3    0    0  0.39664944596E+03 -0.76309954876E+03 -0.65365025154E+02  0.86251045837E+03  0.00000000000E+00 0.  1.
        -13    1    3    3    0    0  0.18877231954E+03 -0.44014474444E+03  0.21692696783E+02  0.47940896715E+03  0.00000000000E+00 0. -1.
         22    1    1    2    0    0 -0.58542176550E+03  0.12032442932E+04 -0.12379337210E+04  0.18229084920E+04  0.00000000000E+00 0.  1.
<mgrwt>
<rscale>  0 0.28937211E+04</rscale>
<asrwt>0</asrwt>
<pdfrwt beam="1">  1        2 0.34203338E+00 0.28937211E+04</pdfrwt>
<pdfrwt beam="2">  1       -2 0.14486322E+00 0.28937211E+04</pdfrwt>
<totfact> 0.14212066E+00</totfact>
</mgrwt>
</event>
<event>
 6    1  0.3017327E-006  0.4035066E+04  0.7818608E-02  0.7997510E-01
          2   -1    0    0  501    0  0.00000000000E+00  0.00000000000E+00  0.14513379165E+04  0.14513379165E+04  0.00000000000E+00 0.  1.
         -2   -1    0    0    0  501 -0.00000000000E+00 -0.00000000000E+00 -0.28046111518E+04  0.28046111518E+04  0.00000000000E+00 0. -1.
         23    2    1    2    0    0  0.12134734238E+03 -0.19094404995E+04 -0.50814081963E+01  0.19153702079E+04  0.89045009894E+02 0.  0.
         13    1    3    3    0    0 -0.69480157552E+01 -0.50317806737E+03 -0.64197804038E+01  0.50326698281E+03  0.00000000000E+00 0. -1.
        -13    1    3    3    0    0  0.12829535813E+03 -0.14062624322E+04  0.13383722075E+01  0.14121032251E+04  0.00000000000E+00 0.  1.
         22    1    1    2    0    0 -0.12134734238E+03  0.19094404995E+04 -0.13481918272E+04  0.23405788604E+04  0.00000000000E+00 0.  1.
<mgrwt>
<rscale>  0 0.40350656E+04</rscale>
<asrwt>0</asrwt>
<pdfrwt beam="1">  1        2 0.22328276E+00 0.40350656E+04</pdfrwt>
<pdfrwt beam="2">  1       -2 0.43147863E+00 0.40350656E+04</pdfrwt>
<totfact> 0.48972609E-02</totfact>
</mgrwt>
</event>
<event>
 6    1  0.3017327E-006  0.1768353E+04  0.7818608E-02  0.8723312E-01
         -2   -1    0    0    0  501 -0.00000000000E+00  0.00000000000E+00  0.90387424475E+03  0.90387424475E+03  0.00000000000E+00 0.  1.
          2   -1    0    0  501    0  0.00000000000E+00 -0.00000000000E+00 -0.86490832148E+03  0.86490832148E+03  0.00000000000E+00 0. -1.
         23    2    1    2    0    0  0.52570120479E+02  0.70390616732E+03 -0.50963144098E+03  0.87479902163E+03  0.85449474350E+02 0.  0.
         13    1    3    3    0    0  0.31728626452E+02  0.16122553679E+03 -0.15707777921E+03  0.22731873695E+03  0.00000000000E+00 0. -1.
        -13    1    3    3    0    0  0.20841494026E+02  0.54268063053E+03 -0.35255366177E+03  0.64748028468E+03  0.00000000000E+00 0.  1.
         22    1    1    2    0    0 -0.52570120479E+02 -0.70390616732E+03  0.54859736425E+03  0.89398354460E+03  0.00000000000E+00 0.  1.
<mgrwt>
<rscale>  0 0.17683533E+04</rscale>
<asrwt>0</asrwt>
<pdfrwt beam="1">  1        2 0.13306282E+00 0.17683533E+04</pdfrwt>
<pdfrwt beam="2">  1       -2 0.13905758E+00 0.17683533E+04</pdfrwt>
<totfact> 0.10718564E+01</totfact>
</mgrwt>
</event>
<event>
 6    1  0.3017327E-006  0.3803928E+04  0.7818608E-02  0.8045312E-01
          2   -1    0    0  501    0  0.00000000000E+00  0.00000000000E+00  0.34321493445E+04  0.34321493445E+04  0.00000000000E+00 0. -1.
         -2   -1    0    0    0  501 -0.00000000000E+00 -0.00000000000E+00 -0.10539949243E+04  0.10539949243E+04  0.00000000000E+00 0.  1.
         23    2    1    2    0    0 -0.14278762252E+04  0.16162168016E+03 -0.27773014789E+03  0.14664298914E+04  0.91271623821E+02 0.  0.
         11    1    3    3    0    0 -0.13592354657E+04  0.15960991886E+03 -0.24489372433E+03  0.13903126675E+04  0.00000000000E+00 0.  1.
        -11    1    3    3    0    0 -0.68640759509E+02  0.20117613030E+01 -0.32836423554E+02  0.76117223815E+02  0.00000000000E+00 0. -1.
         22    1    1    2    0    0  0.14278762252E+04 -0.16162168016E+03  0.26558845682E+04  0.30197143775E+04  0.00000000000E+00 0. -1.
<mgrwt>
<rscale>  0 0.38039285E+04</rscale>
<asrwt>0</asrwt>
<pdfrwt beam="1">  1        2 0.52802297E+00 0.38039285E+04</pdfrwt>
<pdfrwt beam="2">  1       -2 0.16215307E+00 0.38039285E+04</pdfrwt>
<totfact> 0.17611967E-01</totfact>
</mgrwt>
</event>
<event>
 6    1  0.3017327E-006  0.3222564E+04  0.7818608E-02  0.8182883E-01
         -2   -1    0    0    0  501 -0.00000000000E+00  0.00000000000E+00  0.75897257935E+03  0.75897257935E+03  0.00000000000E+00 0. -1.
          2   -1    0    0  501    0  0.00000000000E+00 -0.00000000000E+00 -0.34207168403E+04  0.34207168403E+04  0.00000000000E+00 0.  1.
         23    2    1    2    0    0 -0.63119649041E+03 -0.78305312468E+03  0.29873526900E+03  0.10530266216E+04  0.89672176326E+02 0.  0.
         13    1    3    3    0    0 -0.25612305870E+03 -0.32244493874E+03  0.76633427771E+02  0.41885849874E+03  0.00000000000E+00 0. -1.
        -13    1    3    3    0    0 -0.37507343171E+03 -0.46060818594E+03  0.22210184123E+03  0.63416812283E+03  0.00000000000E+00 0.  1.
         22    1    1    2    0    0  0.63119649041E+03  0.78305312468E+03 -0.29604795299E+04  0.31266627980E+04  0.00000000000E+00 0.  1.
<mgrwt>
<rscale>  0 0.32225644E+04</rscale>
<asrwt>0</asrwt>
<pdfrwt beam="1">  1        2 0.52626413E+00 0.32225644E+04</pdfrwt>
<pdfrwt beam="2">  1       -2 0.11676501E+00 0.32225644E+04</pdfrwt>
<totfact> 0.44003535E-01</totfact>
</mgrwt>
</event>
<event>
 6    1  0.3017327E-006  0.3398010E+04  0.7818608E-02  0.8138395E-01
         -2   -1    0    0    0  501 -0.00000000000E+00  0.00000000000E+00  0.81371214149E+03  0.81371214149E+03  0.00000000000E+00 0.  1.
          2   -1    0    0  501    0  0.00000000000E+00 -0.00000000000E+00 -0.35474683796E+04  0.35474683796E+04  0.00000000000E+00 0. -1.
         23    2    1    2    0    0  0.14552184491E+04  0.91296863855E+02 -0.25161179436E+03  0.14824591223E+04  0.91546175914E+02 0.  0.
         13    1    3    3    0    0  0.11772323938E+04  0.87474709027E+02 -0.23720347596E+03  0.12040736783E+04  0.00000000000E+00 0. -1.
        -13    1    3    3    0    0  0.27798605532E+03  0.38221548281E+01 -0.14408318402E+02  0.27838544405E+03  0.00000000000E+00 0.  1.
         22    1    1    2    0    0 -0.14552184491E+04 -0.91296863855E+02 -0.24821444438E+04  0.28787213988E+04  0.00000000000E+00 0. -1.
<mgrwt>
<rscale>  0 0.33980101E+04</rscale>
<asrwt>0</asrwt>
<pdfrwt beam="1">  1        2 0.54576438E+00 0.33980101E+04</pdfrwt>
<pdfrwt beam="2">  1       -2 0.12518648E+00 0.33980101E+04</pdfrwt>
<totfact> 0.29743658E-01</totfact>
</mgrwt>
</event>
<event>
 6    1  0.3017327E-006  0.2368255E+04  0.7818608E-02  0.8451485E-01
          1   -1    0    0  501    0  0.00000000000E+00  0.00000000000E+00  0.97477697175E+03  0.97477697175E+03  0.00000000000E+00 0. -1.
         -1   -1    0    0    0  501 -0.00000000000E+00 -0.00000000000E+00 -0.14384393498E+04  0.14384393498E+04  0.00000000000E+00 0.  1.
         23    2    1    2    0    0 -0.25048399589E+03 -0.11134824471E+04 -0.54699486120E+03  0.12688694795E+04  0.90779874127E+02 0.  0.
         13    1    3    3    0    0 -0.12370053656E+03 -0.74516009659E+03 -0.36471039149E+03  0.83879619811E+03  0.00000000000E+00 0. -1.
        -13    1    3    3    0    0 -0.12678345932E+03 -0.36832235055E+03 -0.18228446971E+03  0.43007328139E+03  0.00000000000E+00 0.  1.
         22    1    1    2    0    0  0.25048399589E+03  0.11134824471E+04  0.83332483106E+02  0.11443468421E+04  0.00000000000E+00 0. -1.
<mgrwt>
<rscale>  0 0.23682547E+04</rscale>
<asrwt>0</asrwt>
<pdfrwt beam="1">  1        1 0.14996569E+00 0.23682547E+04</pdfrwt>
<pdfrwt beam="2">  1       -1 0.22129836E+00 0.23682547E+04</pdfrwt>
<totfact> 0.15351502E+00</totfact>
</mgrwt>
</event>
<event>
 6    1  0.3017327E-006  0.2816554E+04  0.7818608E-02  0.8298147E-01
         -2   -1    0    0    0  501 -0.00000000000E+00  0.00000000000E+00  0.19331372052E+04  0.19331372052E+04  0.00000000000E+00 0.  1.
          2   -1    0    0  501    0  0.00000000000E+00 -0.00000000000E+00 -0.10259199958E+04  0.10259199958E+04  0.00000000000E+00 0. -1.
         23    2    1    2    0    0 -0.21128639441E+03  0.13139074927E+04 -0.25097926217E+02  0.13341860210E+04  0.91801922123E+02 0.  0.
         13    1    3    3    0    0 -0.37843365895E+02  0.27243725137E+03 -0.41974454097E+02  0.27823736463E+03  0.00000000000E+00 0. -1.
        -13    1    3    3    0    0 -0.17344302851E+03  0.10414702413E+04  0.16876527881E+02  0.10559486563E+04  0.00000000000E+00 0.  1.
         22    1    1    2    0    0  0.21128639441E+03 -0.13139074927E+04  0.93231513555E+03  0.16248711800E+04  0.00000000000E+00 0.  1.
<mgrwt>
<rscale>  0 0.28165540E+04</rscale>
<asrwt>0</asrwt>
<pdfrwt beam="1">  1        2 0.15783385E+00 0.28165540E+04</pdfrwt>
<pdfrwt beam="2">  1       -2 0.29740572E+00 0.28165540E+04</pdfrwt>
<totfact> 0.69454051E-01</totfact>
</mgrwt>
</event>
<event>
 6    1  0.3017327E-006  0.2413114E+04  0.7818608E-02  0.8434610E-01
         -2   -1    0    0    0  501 -0.00000000000E+00  0.00000000000E+00  0.45057473481E+03  0.45057473481E+03  0.00000000000E+00 0. -1.
          2   -1    0    0  501    0  0.00000000000E+00 -0.00000000000E+00 -0.32309385629E+04  0.32309385629E+04  0.00000000000E+00 0.  1.
         23    2    1    2    0    0 -0.73473967174E+03 -0.19314743421E+03 -0.28189494851E+04  0.29208312553E+04  0.87353912379E+02 0.  0.
         13    1    3    3    0    0 -0.52719780712E+03 -0.15808320507E+03 -0.19019497956E+04  0.19799850638E+04  0.00000000000E+00 0.  1.
        -13    1    3    3    0    0 -0.20754186462E+03 -0.35064229142E+02 -0.91699968947E+03  0.94084619159E+03  0.00000000000E+00 0. -1.
         22    1    1    2    0    0  0.73473967174E+03  0.19314743421E+03  0.38585657069E+02  0.76068204232E+03  0.00000000000E+00 0. -1.
<mgrwt>
<rscale>  0 0.24131136E+04</rscale>
<asrwt>0</asrwt>
<pdfrwt beam="1">  1        2 0.49706749E+00 0.24131136E+04</pdfrwt>
<pdfrwt beam="2">  1       -2 0.69319187E-01 0.24131136E+04</pdfrwt>
<totfact> 0.21132097E+00</totfact>
</mgrwt>
</event>
<event>
 6    1  0.3017327E-006  0.2838886E+04  0.7818608E-02  0.8291296E-01
         -2   -1    0    0    0  501 -0.00000000000E+00  0.00000000000E+00  0.11780822126E+04  0.11780822126E+04  0.00000000000E+00 0.  1.
          2   -1    0    0  501    0  0.00000000000E+00 -0.00000000000E+00 -0.17102531896E+04  0.17102531896E+04  0.00000000000E+00 0. -1.
         23    2    1    2    0    0  0.10742725065E+04 -0.39656142407E+03 -0.11153776273E+04  0.16032469312E+04  0.12251975239E+03 0.  0.
         13    1    3    3    0    0  0.12209024478E+03 -0.18486660520E+02 -0.82850528737E+02  0.14870102420E+03  0.00000000000E+00 0. -1.
        -13    1    3    3    0    0  0.95218226171E+03 -0.37807476355E+03 -0.10325270986E+04  0.14545459070E+04  0.00000000000E+00 0.  1.
         22    1    1    2    0    0 -0.10742725065E+04  0.39656142407E+03  0.58320665037E+03  0.12850884710E+04  0.00000000000E+00 0.  1.
<mgrwt>
<rscale>  0 0.28388863E+04</rscale>
<asrwt>0</asrwt>
<pdfrwt beam="1">  1        2 0.26311587E+00 0.28388863E+04</pdfrwt>
<pdfrwt beam="2">  1       -2 0.18124342E+00 0.28388863E+04</pdfrwt>
<totfact> 0.14927440E+00</totfact>
</mgrwt>
</event>
<event>
 6    1  0.3017327E-006  0.2321948E+04  0.7818608E-02  0.8469317E-01
         -2   -1    0    0    0  501 -0.00000000000E+00  0.00000000000E+00  0.41763853063E+03  0.41763853063E+03  0.00000000000E+00 0.  1.
          2   -1    0    0  501    0  0.00000000000E+00 -0.00000000000E+00 -0.32273381797E+04  0.32273381797E+04  0.00000000000E+00 0. -1.
         23    2    1    2    0    0 -0.74574717981E+03  0.73057017192E+03 -0.21978587615E+04  0.24349267510E+04  0.91725215790E+02 0.  0.
         13    1    3    3    0    0 -0.26160963739E+03  0.26347858347E+03 -0.88539576348E+03  0.96009698693E+03  0.00000000000E+00 0. -1.
        -13    1    3    3    0    0 -0.48413754242E+03  0.46709158844E+03 -0.13124629980E+04  0.14748297641E+04  0.00000000000E+00 0.  1.
         22    1    1    2    0    0  0.74574717981E+03 -0.73057017192E+03 -0.61184088761E+03  0.12100499593E+04  0.00000000000E+00 0. -1.
<mgrwt>
<rscale>  0 0.23219481E+04</rscale>
<asrwt>0</asrwt>
<pdfrwt beam="1">  1        2 0.49651355E+00 0.23219481E+04</pdfrwt>
<pdfrwt beam="2">  1       -2 0.64252084E-01 0.23219481E+04</pdfrwt>
<totfact> 0.25240492E+00</totfact>
</mgrwt>
</event>
<event>
 6    1  0.3017327E-006  0.2370797E+04  0.7818608E-02  0.8450518E-01
          2   -1    0    0  501    0  0.00000000000E+00  0.00000000000E+00  0.16134512930E+04  0.16134512930E+04  0.00000000000E+00 0. -1.
         -2   -1    0    0    0  501 -0.00000000000E+00 -0.00000000000E+00 -0.87090891206E+03  0.87090891206E+03  0.00000000000E+00 0.  1.
         23    2    1    2    0    0  0.45441926074E+03 -0.17499393972E+01 -0.77342706833E+03  0.90174739773E+03  0.91972889919E+02 0.  0.
         13    1    3    3    0    0  0.20491645153E+03 -0.34255932311E+02 -0.28973049219E+03  0.35652205978E+03  0.00000000000E+00 0. -1.
        -13    1    3    3    0    0  0.24950280921E+03  0.32505992913E+02 -0.48369657614E+03  0.54522533796E+03  0.00000000000E+00 0.  1.
         22    1    1    2    0    0 -0.45441926074E+03  0.17499393972E+01  0.15159694492E+04  0.15826128073E+04  0.00000000000E+00 0. -1.
<mgrwt>
<rscale>  0 0.23707966E+04</rscale>
<asrwt>0</asrwt>
<pdfrwt beam="1">  1        2 0.24822328E+00 0.23707966E+04</pdfrwt>
<pdfrwt beam="2">  1       -2 0.13398599E+00 0.23707966E+04</pdfrwt>
<totfact> 0.39740206E+00</totfact>
</mgrwt>
</event>
<event>
 6    1  0.3017327E-006  0.7555502E+03  0.7818608E-02  0.9626683E-01
         -2   -1    0    0    0  501 -0.00000000000E+00  0.00000000000E+00  0.59320611025E+03  0.59320611025E+03  0.00000000000E+00 0.  1.
          2   -1    0    0  501    0  0.00000000000E+00 -0.00000000000E+00 -0.24058084336E+03  0.24058084336E+03  0.00000000000E+00 0. -1.
         23    2    1    2    0    0 -0.78780558081E+02 -0.10102213888E+03  0.56462041927E+03  0.58608997440E+03  0.91068058957E+02 0.  0.
         11    1    3    3    0    0  0.81527592509E+01 -0.35182307445E+02  0.61789333903E+02  0.71569434989E+02  0.00000000000E+00 0. -1.
        -11    1    3    3    0    0 -0.86933317332E+02 -0.65839831438E+02  0.50283108537E+03  0.51452053941E+03  0.00000000000E+00 0.  1.
         22    1    1    2    0    0  0.78780558081E+02  0.10102213888E+03 -0.21199515238E+03  0.24769697921E+03  0.00000000000E+00 0. -1.
<mgrwt>
<rscale>  0 0.75555020E+03</rscale>
<asrwt>0</asrwt>
<pdfrwt beam="1">  1        2 0.37012438E-01 0.75555020E+03</pdfrwt>
<pdfrwt beam="2">  1       -2 0.91262478E-01 0.75555020E+03</pdfrwt>
<totfact> 0.14501235E+02</totfact>
</mgrwt>
</event>
<event>
 6    1  0.3017327E-006  0.2562711E+04  0.7818608E-02  0.8380979E-01
          2   -1    0    0  501    0  0.00000000000E+00  0.00000000000E+00  0.19616778532E+04  0.19616778532E+04  0.00000000000E+00 0. -1.
         -2   -1    0    0    0  501 -0.00000000000E+00 -0.00000000000E+00 -0.83697311709E+03  0.83697311709E+03  0.00000000000E+00 0.  1.
         23    2    1    2    0    0 -0.59786335598E+03  0.79174442582E+03 -0.32030104039E+03  0.10458413621E+04  0.83015480849E+02 0.  0.
         13    1    3    3    0    0 -0.15968977297E+03  0.25187789235E+03 -0.12712958210E+03  0.32419936288E+03  0.00000000000E+00 0.  1.
        -13    1    3    3    0    0 -0.43817358301E+03  0.53986653347E+03 -0.19317145829E+03  0.72164199927E+03  0.00000000000E+00 0. -1.
         22    1    1    2    0    0  0.59786335598E+03 -0.79174442582E+03  0.14450057765E+04  0.17528096081E+04  0.00000000000E+00 0. -1.
<mgrwt>
<rscale>  0 0.25627108E+04</rscale>
<asrwt>0</asrwt>
<pdfrwt beam="1">  1        2 0.30179659E+00 0.25627108E+04</pdfrwt>
<pdfrwt beam="2">  1       -2 0.12876510E+00 0.25627108E+04</pdfrwt>
<totfact> 0.27703903E+00</totfact>
</mgrwt>
</event>
<event>
 6    1  0.3017327E-006  0.2961881E+04  0.7818608E-02  0.8254700E-01
          2   -1    0    0  501    0  0.00000000000E+00  0.00000000000E+00  0.18946801309E+04  0.18946801309E+04  0.00000000000E+00 0. -1.
         -2   -1    0    0    0  501 -0.00000000000E+00 -0.00000000000E+00 -0.11575490342E+04  0.11575490342E+04  0.00000000000E+00 0.  1.
         23    2    1    2    0    0 -0.14263441602E+04  0.23907800694E+02 -0.35417699867E+02  0.14299280557E+04  0.91709239456E+02 0.  0.
         11    1    3    3    0    0 -0.75226353507E+03 -0.26331074365E+02 -0.42763456198E+02  0.75393797150E+03  0.00000000000E+00 0. -1.
        -11    1    3    3    0    0 -0.67408062515E+03  0.50238875059E+02  0.73457563307E+01  0.67599008417E+03  0.00000000000E+00 0.  1.
         22    1    1    2    0    0  0.14263441602E+04 -0.23907800694E+02  0.77254879657E+03  0.16223011094E+04  0.00000000000E+00 0.  1.
<mgrwt>
<rscale>  0 0.29618813E+04</rscale>
<asrwt>0</asrwt>
<pdfrwt beam="1">  1        2 0.29148925E+00 0.29618813E+04</pdfrwt>
<pdfrwt beam="2">  1       -2 0.17808447E+00 0.29618813E+04</pdfrwt>
<totfact> 0.12275339E+00</totfact>
</mgrwt>
</event>
<event>
 6    1  0.3017327E-006  0.1630954E+04  0.7818608E-02  0.8801754E-01
          2   -1    0    0  501    0  0.00000000000E+00  0.00000000000E+00  0.28341892767E+04  0.28341892767E+04  0.00000000000E+00 0. -1.
         -2   -1    0    0    0  501 -0.00000000000E+00 -0.00000000000E+00 -0.23463591096E+03  0.23463591096E+03  0.00000000000E+00 0.  1.
         23    2    1    2    0    0  0.29313698206E+03  0.56943332361E+03  0.36302491653E+03  0.74240237475E+03  0.95867594791E+02 0.  0.
         13    1    3    3    0    0  0.20062015100E+03  0.29719967279E+03  0.17635718819E+03  0.39959723262E+03  0.00000000000E+00 0.  1.
        -13    1    3    3    0    0  0.92516831056E+02  0.27223365082E+03  0.18666772833E+03  0.34280514213E+03  0.00000000000E+00 0. -1.
         22    1    1    2    0    0 -0.29313698206E+03 -0.56943332361E+03  0.22365284492E+04  0.23264228129E+04  0.00000000000E+00 0.  1.
<mgrwt>
<rscale>  0 0.16309538E+04</rscale>
<asrwt>0</asrwt>
<pdfrwt beam="1">  1        2 0.43602909E+00 0.16309538E+04</pdfrwt>
<pdfrwt beam="2">  1       -2 0.36097835E-01 0.16309538E+04</pdfrwt>
<totfact> 0.15289503E+01</totfact>
</mgrwt>
</event>
<event>
 6    1  0.3017327E-006  0.1257515E+04  0.7818608E-02  0.9063952E-01
          2   -1    0    0  501    0  0.00000000000E+00  0.00000000000E+00  0.15234297935E+04  0.15234297935E+04  0.00000000000E+00 0. -1.
         -2   -1    0    0    0  501 -0.00000000000E+00 -0.00000000000E+00 -0.25950386458E+03  0.25950386458E+03  0.00000000000E+00 0.  1.
         23    2    1    2    0    0  0.22067571414E+03 -0.20148584082E+03 -0.14371598405E+03  0.34392355734E+03  0.91295204476E+02 0.  0.
         11    1    3    3    0    0  0.80182033640E+02 -0.13282250441E+03 -0.84858583158E+02  0.17683878345E+03  0.00000000000E+00 0. -1.
        -11    1    3    3    0    0  0.14049368050E+03 -0.68663336419E+02 -0.58857400893E+02  0.16708477390E+03  0.00000000000E+00 0.  1.
         22    1    1    2    0    0 -0.22067571414E+03  0.20148584082E+03  0.14076419130E+04  0.14390101008E+04  0.00000000000E+00 0. -1.
<mgrwt>
<rscale>  0 0.12575149E+04</rscale>
<asrwt>0</asrwt>
<pdfrwt beam="1">  1        2 0.23437381E+00 0.12575149E+04</pdfrwt>
<pdfrwt beam="2">  1       -2 0.39923672E-01 0.12575149E+04</pdfrwt>
<totfact> 0.71821527E+01</totfact>
</mgrwt>
</event>
<event>
 6    1  0.3017327E-006  0.3269583E+04  0.7818608E-02  0.8170678E-01
          2   -1    0    0  501    0  0.00000000000E+00  0.00000000000E+00  0.31912992693E+04  0.31912992693E+04  0.00000000000E+00 0. -1.
         -2   -1    0    0    0  501 -0.00000000000E+00 -0.00000000000E+00 -0.83744682213E+03  0.83744682213E+03  0.00000000000E+00 0.  1.
         23    2    1    2    0    0  0.94850590885E+03 -0.12600943589E+04  0.17014985556E+04  0.23219752069E+04  0.94711531978E+02 0.  0.
         11    1    3    3    0    0  0.72076830985E+03 -0.92814855749E+03  0.13209909119E+04  0.17680451608E+04  0.00000000000E+00 0. -1.
        -11    1    3    3    0    0  0.22773759899E+03 -0.33194580141E+03  0.38050764368E+03  0.55393004610E+03  0.00000000000E+00 0.  1.
         22    1    1    2    0    0 -0.94850590885E+03  0.12600943589E+04  0.65235389155E+03  0.17067708845E+04  0.00000000000E+00 0. -1.
<mgrwt>
<rscale>  0 0.32695831E+04</rscale>
<asrwt>0</asrwt>
<pdfrwt beam="1">  1        2 0.49096911E+00 0.32695831E+04</pdfrwt>
<pdfrwt beam="2">  1       -2 0.12883797E+00 0.32695831E+04</pdfrwt>
<totfact> 0.48825450E-01</totfact>
</mgrwt>
</event>
<event>
 6    1  0.3017327E-006  0.2532973E+04  0.7818608E-02  0.8391332E-01
          2   -1    0    0  501    0  0.00000000000E+00  0.00000000000E+00  0.17968351998E+04  0.17968351998E+04  0.00000000000E+00 0.  1.
         -2   -1    0    0    0  501 -0.00000000000E+00 -0.00000000000E+00 -0.89267419461E+03  0.89267419461E+03  0.00000000000E+00 0. -1.
         23    2    1    2    0    0 -0.73461736928E+03 -0.54526097433E+03  0.13800737287E+04  0.16582649376E+04  0.90922479658E+02 0.  0.
         11    1    3    3    0    0 -0.49587674957E+03 -0.35427088592E+03  0.99170313970E+03  0.11639917219E+04  0.00000000000E+00 0. -1.
        -11    1    3    3    0    0 -0.23874061971E+03 -0.19099008841E+03  0.38837058902E+03  0.49427321572E+03  0.00000000000E+00 0.  1.
         22    1    1    2    0    0  0.73461736928E+03  0.54526097433E+03 -0.47591272348E+03  0.10312444568E+04  0.00000000000E+00 0. -1.
<mgrwt>
<rscale>  0 0.25329733E+04</rscale>
<asrwt>0</asrwt>
<pdfrwt beam="1">  1        2 0.27643618E+00 0.25329733E+04</pdfrwt>
<pdfrwt beam="2">  1       -2 0.13733449E+00 0.25329733E+04</pdfrwt>
<totfact> 0.29095880E+00</totfact>
</mgrwt>
</event>
<event>
 6    1  0.3017327E-006  0.1306845E+04  0.7818608E-02  0.9024154E-01
         -2   -1    0    0    0  501 -0.00000000000E+00  0.00000000000E+00  0.26431911064E+03  0.26431911064E+03  0.00000000000E+00 0.  1.
          2   -1    0    0  501    0  0.00000000000E+00 -0.00000000000E+00 -0.16153243924E+04  0.16153243924E+04  0.00000000000E+00 0. -1.
         23    2    1    2    0    0  0.61023978806E+03 -0.88081791521E+02 -0.97582671724E+03  0.11579025826E+04  0.91376188854E+02 0.  0.
         11    1    3    3    0    0  0.21532312351E+03 -0.69911837524E+02 -0.31640208673E+03  0.38905268671E+03  0.00000000000E+00 0.  1.
        -11    1    3    3    0    0  0.39491666455E+03 -0.18169953998E+02 -0.65942463051E+03  0.76884989594E+03  0.00000000000E+00 0. -1.
         22    1    1    2    0    0 -0.61023978806E+03  0.88081791521E+02 -0.37517856456E+03  0.72174092044E+03  0.00000000000E+00 0.  1.
<mgrwt>
<rscale>  0 0.13068452E+04</rscale>
<asrwt>0</asrwt>
<pdfrwt beam="1">  1        2 0.24851145E+00 0.13068452E+04</pdfrwt>
<pdfrwt beam="2">  1       -2 0.40664479E-01 0.13068452E+04</pdfrwt>
<totfact> 0.61319700E+01</totfact>
</mgrwt>
</event>
<event>
 6    1  0.3017327E-006  0.2077517E+04  0.7818608E-02  0.8571212E-01
          2   -1    0    0  501    0  0.00000000000E+00  0.00000000000E+00  0.91970708603E+03  0.91970708603E+03  0.00000000000E+00 0. -1.
         -2   -1    0    0    0  501 -0.00000000000E+00 -0.00000000000E+00 -0.11732209051E+04  0.11732209051E+04  0.00000000000E+00 0.  1.
         23    2    1    2    0    0  0.13362439262E+03 -0.87439329080E+03 -0.67181857894E+03  0.11144608341E+04  0.90904578822E+02 0.  0.
         13    1    3    3    0    0  0.48128031470E+02 -0.53083858615E+03 -0.36538605743E+03  0.64622974470E+03  0.00000000000E+00 0.  1.
        -13    1    3    3    0    0  0.85496361150E+02 -0.34355470465E+03 -0.30643252151E+03  0.46823108942E+03  0.00000000000E+00 0. -1.
         22    1    1    2    0    0 -0.13362439262E+03  0.87439329080E+03  0.41830475985E+03  0.97846715705E+03  0.00000000000E+00 0. -1.
<mgrwt>
<rscale>  0 0.20775173E+04</rscale>
<asrwt>0</asrwt>
<pdfrwt beam="1">  1        2 0.14149340E+00 0.20775173E+04</pdfrwt>
<pdfrwt beam="2">  1       -2 0.18049552E+00 0.20775173E+04</pdfrwt>
<totfact> 0.47219212E+00</totfact>
</mgrwt>
</event>
<event>
 6    1  0.3017327E-006  0.1359408E+04  0.7818608E-02  0.8983737E-01
         -2   -1    0    0    0  501 -0.00000000000E+00  0.00000000000E+00  0.15681144794E+03  0.15681144794E+03  0.00000000000E+00 0.  1.
          2   -1    0    0  501    0  0.00000000000E+00 -0.00000000000E+00 -0.29461988204E+04  0.29461988204E+04  0.00000000000E+00 0. -1.
         23    2    1    2    0    0  0.45534963352E+03 -0.19321339022E+03 -0.34756229802E+03  0.61158810478E+03  0.92551369528E+02 0.  0.
         11    1    3    3    0    0  0.44529218730E+02  0.56366072997E+01 -0.16811297544E+02  0.47929556515E+02  0.00000000000E+00 0.  1.
        -11    1    3    3    0    0  0.41082041479E+03 -0.19884999752E+03 -0.33075100048E+03  0.56365854827E+03  0.00000000000E+00 0. -1.
         22    1    1    2    0    0 -0.45534963352E+03  0.19321339022E+03 -0.24418250745E+04  0.24914221636E+04  0.00000000000E+00 0. -1.
<mgrwt>
<rscale>  0 0.13594083E+04</rscale>
<asrwt>0</asrwt>
<pdfrwt beam="1">  1        2 0.45326136E+00 0.13594083E+04</pdfrwt>
<pdfrwt beam="2">  1       -2 0.24124838E-01 0.13594083E+04</pdfrwt>
<totfact> 0.28359796E+01</totfact>
</mgrwt>
</event>
<event>
 6    1  0.3017327E-006  0.3631045E+04  0.7818608E-02  0.8083417E-01
         -2   -1    0    0    0  501 -0.00000000000E+00  0.00000000000E+00  0.18736903214E+04  0.18736903214E+04  0.00000000000E+00 0.  1.
          2   -1    0    0  501    0  0.00000000000E+00 -0.00000000000E+00 -0.17591603257E+04  0.17591603257E+04  0.00000000000E+00 0. -1.
         23    2    1    2    0    0  0.11819081931E+04 -0.12815897757E+04  0.56048154864E+03  0.18333362355E+04  0.87194357317E+02 0.  0.
         11    1    3    3    0    0  0.10537613218E+04 -0.11028591014E+04  0.50071213931E+03  0.16054356940E+04  0.00000000000E+00 0.  1.
        -11    1    3    3    0    0  0.12814687124E+03 -0.17873067430E+03  0.59769409330E+02  0.22790054154E+03  0.00000000000E+00 0. -1.
         22    1    1    2    0    0 -0.11819081931E+04  0.12815897757E+04 -0.44595155296E+03  0.17995144116E+04  0.00000000000E+00 0. -1.
<mgrwt>
<rscale>  0 0.36310449E+04</rscale>
<asrwt>0</asrwt>
<pdfrwt beam="1">  1        2 0.27064005E+00 0.36310449E+04</pdfrwt>
<pdfrwt beam="2">  1       -2 0.28826005E+00 0.36310449E+04</pdfrwt>
<totfact> 0.27713358E-01</totfact>
</mgrwt>
</event>
<event>
 6    1  0.3017327E-006  0.9358259E+03  0.7818608E-02  0.9381873E-01
          2   -1    0    0  501    0  0.00000000000E+00  0.00000000000E+00  0.16685542625E+04  0.16685542625E+04  0.00000000000E+00 0. -1.
         -2   -1    0    0    0  501 -0.00000000000E+00 -0.00000000000E+00 -0.13121691365E+03  0.13121691365E+03  0.00000000000E+00 0.  1.
         23    2    1    2    0    0  0.26884544174E+03 -0.10397204664E+03  0.78490591029E+02  0.31271975780E+03  0.92438173995E+02 0.  0.
         13    1    3    3    0    0  0.12502748437E+03 -0.83860392831E+02  0.66251559126E+01  0.15069283336E+03  0.00000000000E+00 0.  1.
        -13    1    3    3    0    0  0.14381795736E+03 -0.20111653812E+02  0.71865435117E+02  0.16202692444E+03  0.00000000000E+00 0. -1.
         22    1    1    2    0    0 -0.26884544174E+03  0.10397204664E+03  0.14588467579E+04  0.14870514184E+04  0.00000000000E+00 0. -1.
<mgrwt>
<rscale>  0 0.93582593E+03</rscale>
<asrwt>0</asrwt>
<pdfrwt beam="1">  1        2 0.25670064E+00 0.93582593E+03</pdfrwt>
<pdfrwt beam="2">  1       -2 0.20187219E-01 0.93582593E+03</pdfrwt>
<totfact> 0.21519427E+02</totfact>
</mgrwt>
</event>
<event>
 6    1  0.3017327E-006  0.1209769E+04  0.7818608E-02  0.9104349E-01
         -2   -1    0    0    0  501 -0.00000000000E+00  0.00000000000E+00  0.16531772206E+03  0.16531772206E+03  0.00000000000E+00 0.  1.
          2   -1    0    0  501    0  0.00000000000E+00 -0.00000000000E+00 -0.22132237805E+04  0.22132237805E+04  0.00000000000E+00 0. -1.
         23    2    1    2    0    0 -0.30966542159E+03 -0.62744912237E+02 -0.20360430262E+04  0.20623606542E+04  0.89613983027E+02 0.  0.
         11    1    3    3    0    0 -0.25989301792E+03 -0.19751647637E+02 -0.15267319672E+04  0.15488205216E+04  0.00000000000E+00 0. -1.
        -11    1    3    3    0    0 -0.49772403669E+02 -0.42993264599E+02 -0.50931105899E+03  0.51354013259E+03  0.00000000000E+00 0.  1.
         22    1    1    2    0    0  0.30966542159E+03  0.62744912237E+02 -0.11863032212E+02  0.31618084837E+03  0.00000000000E+00 0.  1.
<mgrwt>
<rscale>  0 0.12097688E+04</rscale>
<asrwt>0</asrwt>
<pdfrwt beam="1">  1        2 0.34049595E+00 0.12097688E+04</pdfrwt>
<pdfrwt beam="2">  1       -2 0.25433497E-01 0.12097688E+04</pdfrwt>
<totfact> 0.69810043E+01</totfact>
</mgrwt>
</event>
<event>
 6    1  0.3017327E-006  0.1487237E+04  0.7818608E-02  0.8892985E-01
          2   -1    0    0  501    0  0.00000000000E+00  0.00000000000E+00  0.13672126323E+04  0.13672126323E+04  0.00000000000E+00 0. -1.
         -2   -1    0    0    0  501 -0.00000000000E+00 -0.00000000000E+00 -0.40444944556E+03  0.40444944556E+03  0.00000000000E+00 0.  1.
         23    2    1    2    0    0 -0.56890110690E+03  0.35466724845E+03  0.10803713976E+03  0.68538681719E+03  0.92982466371E+02 0.  0.
         13    1    3    3    0    0 -0.32098710136E+03  0.19653653505E+03  0.13897934965E+02  0.37663308596E+03  0.00000000000E+00 0.  1.
        -13    1    3    3    0    0 -0.24791400554E+03  0.15813071339E+03  0.94139204797E+02  0.30875373122E+03  0.00000000000E+00 0. -1.
         22    1    1    2    0    0  0.56890110690E+03 -0.35466724845E+03  0.85472604693E+03  0.10862752606E+04  0.00000000000E+00 0. -1.
<mgrwt>
<rscale>  0 0.14872369E+04</rscale>
<asrwt>0</asrwt>
<pdfrwt beam="1">  1        2 0.21034040E+00 0.14872369E+04</pdfrwt>
<pdfrwt beam="2">  1       -2 0.62222992E-01 0.14872369E+04</pdfrwt>
<totfact> 0.35033902E+01</totfact>
</mgrwt>
</event>
<event>
 6    1  0.3017327E-006  0.1073533E+04  0.7818608E-02  0.9231379E-01
          2   -1    0    0  501    0  0.00000000000E+00  0.00000000000E+00  0.17852001861E+04  0.17852001861E+04  0.00000000000E+00 0. -1.
         -2   -1    0    0    0  501 -0.00000000000E+00 -0.00000000000E+00 -0.16139284251E+03  0.16139284251E+03  0.00000000000E+00 0.  1.
         23    2    1    2    0    0 -0.25028718541E+03 -0.26489184682E+03  0.11410132617E+03  0.39352393011E+03  0.95029496714E+02 0.  0.
         13    1    3    3    0    0 -0.78370645502E+02 -0.59018782343E+02 -0.87808187185E+01  0.98500139711E+02  0.00000000000E+00 0. -1.
        -13    1    3    3    0    0 -0.17191653990E+03 -0.20587306448E+03  0.12288214488E+03  0.29502379040E+03  0.00000000000E+00 0.  1.
         22    1    1    2    0    0  0.25028718541E+03  0.26489184682E+03  0.15097060174E+04  0.15530690985E+04  0.00000000000E+00 0. -1.
<mgrwt>
<rscale>  0 0.10735335E+04</rscale>
<asrwt>0</asrwt>
<pdfrwt beam="1">  1        2 0.27464617E+00 0.10735335E+04</pdfrwt>
<pdfrwt beam="2">  1       -2 0.24829669E-01 0.10735335E+04</pdfrwt>
<totfact> 0.12708842E+02</totfact>
</mgrwt>
</event>
<event>
 6    1  0.3017327E-006  0.3030028E+04  0.7818608E-02  0.8235208E-01
          2   -1    0    0  501    0  0.00000000000E+00  0.00000000000E+00  0.30091054944E+04  0.30091054944E+04  0.00000000000E+00 0. -1.
         -2   -1    0    0    0  501 -0.00000000000E+00 -0.00000000000E+00 -0.76277396050E+03  0.76277396050E+03  0.00000000000E+00 0.  1.
         23    2    1    2    0    0 -0.24819228765E+03 -0.13975535534E+04  0.17782519831E+04  0.22772712079E+04  0.95019432397E+02 0.  0.
         11    1    3    3    0    0 -0.81337503901E+02 -0.31147153794E+03  0.35547285766E+03  0.47957404123E+03  0.00000000000E+00 0.  1.
        -11    1    3    3    0    0 -0.16685478375E+03 -0.10860820154E+04  0.14227791255E+04  0.17976971666E+04  0.00000000000E+00 0. -1.
         22    1    1    2    0    0  0.24819228765E+03  0.13975535534E+04  0.46807955074E+03  0.14946082470E+04  0.00000000000E+00 0.  1.
<mgrwt>
<rscale>  0 0.30300279E+04</rscale>
<asrwt>0</asrwt>
<pdfrwt beam="1">  1        2 0.46293930E+00 0.30300279E+04</pdfrwt>
<pdfrwt beam="2">  1       -2 0.11734984E+00 0.30300279E+04</pdfrwt>
<totfact> 0.82289241E-01</totfact>
</mgrwt>
</event>
<event>
 6    1  0.3017327E-006  0.9314800E+03  0.7818608E-02  0.9387063E-01
         -2   -1    0    0    0  501 -0.00000000000E+00  0.00000000000E+00  0.37626101363E+03  0.37626101363E+03  0.00000000000E+00 0.  1.
          2   -1    0    0  501    0  0.00000000000E+00 -0.00000000000E+00 -0.57649812558E+03  0.57649812558E+03  0.00000000000E+00 0. -1.
         23    2    1    2    0    0 -0.32194521169E+03 -0.19933689680E+03  0.16908503648E+03  0.42381418264E+03  0.87434513170E+02 0.  0.
         11    1    3    3    0    0 -0.26928494950E+03 -0.18998512274E+03  0.16892421771E+03  0.37032974795E+03  0.00000000000E+00 0. -1.
        -11    1    3    3    0    0 -0.52660262184E+02 -0.93517740647E+01  0.16081877106E+00  0.53484434690E+02  0.00000000000E+00 0.  1.
         22    1    1    2    0    0  0.32194521169E+03  0.19933689680E+03 -0.36932214843E+03  0.52894495657E+03  0.00000000000E+00 0.  1.
<mgrwt>
<rscale>  0 0.93148005E+03</rscale>
<asrwt>0</asrwt>
<pdfrwt beam="1">  1        2 0.88692019E-01 0.93148005E+03</pdfrwt>
<pdfrwt beam="2">  1       -2 0.57886310E-01 0.93148005E+03</pdfrwt>
<totfact> 0.14572886E+02</totfact>
</mgrwt>
</event>
<event>
 6    1  0.3017327E-006  0.9778232E+03  0.7818608E-02  0.9333208E-01
          2   -1    0    0  501    0  0.00000000000E+00  0.00000000000E+00  0.47070675038E+03  0.47070675038E+03  0.00000000000E+00 0. -1.
         -2   -1    0    0    0  501 -0.00000000000E+00 -0.00000000000E+00 -0.50782056869E+03  0.50782056869E+03  0.00000000000E+00 0.  1.
         23    2    1    2    0    0 -0.33127390551E+03  0.19281812610E+02  0.33471181417E+03  0.48016149987E+03  0.91699938085E+02 0.  0.
         13    1    3    3    0    0 -0.16208350178E+03  0.25620972273E+02  0.10506526062E+03  0.19484918465E+03  0.00000000000E+00 0. -1.
        -13    1    3    3    0    0 -0.16919040373E+03 -0.63391596632E+01  0.22964655355E+03  0.28531231523E+03  0.00000000000E+00 0.  1.
         22    1    1    2    0    0  0.33127390551E+03 -0.19281812610E+02 -0.37182563248E+03  0.49836581919E+03  0.00000000000E+00 0.  1.
<mgrwt>
<rscale>  0 0.97782323E+03</rscale>
<asrwt>0</asrwt>
<pdfrwt beam="1">  1        2 0.72416424E-01 0.97782323E+03</pdfrwt>
<pdfrwt beam="2">  1       -2 0.78126241E-01 0.97782323E+03</pdfrwt>
<totfact> 0.96309722E+01</totfact>
</mgrwt>
</event>
<event>
 6    1  0.3017327E-006  0.2097730E+04  0.7818608E-02  0.8562244E-01
         -1   -1    0    0    0  501 -0.00000000000E+00  0.00000000000E+00  0.11767684806E+04  0.11767684806E+04  0.00000000000E+00 0.  1.
          1   -1    0    0  501    0  0.00000000000E+00 -0.00000000000E+00 -0.93486297193E+03  0.93486297193E+03  0.00000000000E+00 0. -1.
         23    2    1    2    0    0  0.39710204724E+03 -0.75445382629E+03 -0.49012223860E+03  0.98790762759E+03  0.94080072032E+02 0.  0.
         11    1    3    3    0    0  0.25204665253E+03 -0.44520473354E+03 -0.24344001540E+03  0.56656668708E+03  0.00000000000E+00 0.  1.
        -11    1    3    3    0    0  0.14505539471E+03 -0.30924909276E+03 -0.24668222320E+03  0.42134094051E+03  0.00000000000E+00 0. -1.
         22    1    1    2    0    0 -0.39710204724E+03  0.75445382629E+03  0.73202774722E+03  0.11237238249E+04  0.00000000000E+00 0.  1.
<mgrwt>
<rscale>  0 0.20977295E+04</rscale>
<asrwt>0</asrwt>
<pdfrwt beam="1">  1        1 0.14382507E+00 0.20977295E+04</pdfrwt>
<pdfrwt beam="2">  1       -1 0.18104130E+00 0.20977295E+04</pdfrwt>
<totfact> 0.32073385E+00</totfact>
</mgrwt>
</event>
<event>
 6    1  0.3017327E-006  0.4186981E+03  0.7818608E-02  0.1037491E+00
          2   -1    0    0  501    0  0.00000000000E+00  0.00000000000E+00  0.21677091050E+04  0.21677091050E+04  0.00000000000E+00 0. -1.
         -2   -1    0    0    0  501 -0.00000000000E+00 -0.00000000000E+00 -0.20218125559E+02  0.20218125559E+02  0.00000000000E+00 0.  1.
         23    2    1    2    0    0 -0.80749822580E+02  0.17500570106E+03  0.13836154401E+04  0.14001116628E+04  0.93666711748E+02 0.  0.
         13    1    3    3    0    0 -0.98388837189E+02  0.11852432181E+03  0.10594746286E+04  0.10706142474E+04  0.00000000000E+00 0. -1.
        -13    1    3    3    0    0  0.17639014609E+02  0.56481379245E+02  0.32414081148E+03  0.32949741532E+03  0.00000000000E+00 0.  1.
         22    1    1    2    0    0  0.80749822580E+02 -0.17500570106E+03  0.76387553935E+03  0.78781556779E+03  0.00000000000E+00 0.  1.
<mgrwt>
<rscale>  0 0.41869805E+03</rscale>
<asrwt>0</asrwt>
<pdfrwt beam="1">  1        2 0.33349352E+00 0.41869805E+03</pdfrwt>
<pdfrwt beam="2">  1       -2 0.31104826E-02 0.41869805E+03</pdfrwt>
<totfact> 0.24092991E+03</totfact>
</mgrwt>
</event>
<event>
 6    1  0.3017327E-006  0.3008518E+04  0.7818608E-02  0.8241303E-01
         -2   -1    0    0    0  501 -0.00000000000E+00  0.00000000000E+00  0.15261827036E+04  0.15261827036E+04  0.00000000000E+00 0. -1.
          2   -1    0    0  501    0  0.00000000000E+00 -0.00000000000E+00 -0.14826506367E+04  0.14826506367E+04  0.00000000000E+00 0.  1.
         23    2    1    2    0    0  0.66663925059E+03  0.21514843447E+03  0.13515758745E+04  0.15250289928E+04  0.90880939649E+02 0.  0.
         13    1    3    3    0    0  0.33704984981E+03  0.13423122791E+03  0.78099915947E+03  0.86115057388E+03  0.00000000000E+00 0. -1.
        -13    1    3    3    0    0  0.32958940078E+03  0.80917206558E+02  0.57057671499E+03  0.66387841892E+03  0.00000000000E+00 0.  1.
         22    1    1    2    0    0 -0.66663925059E+03 -0.21514843447E+03 -0.13080438075E+04  0.14838043475E+04  0.00000000000E+00 0.  1.
<mgrwt>
<rscale>  0 0.30085184E+04</rscale>
<asrwt>0</asrwt>
<pdfrwt beam="1">  1        2 0.22810010E+00 0.30085184E+04</pdfrwt>
<pdfrwt beam="2">  1       -2 0.23479734E+00 0.30085184E+04</pdfrwt>
<totfact> 0.88634551E-01</totfact>
</mgrwt>
</event>
<event>
 6    1  0.6514150E-006  0.3603276E+04  0.7818608E-02  0.8089742E-01
          2   -1    0    0  501    0  0.00000000000E+00  0.00000000000E+00  0.30799131707E+04  0.30799131707E+04  0.00000000000E+00 0. -1.
         -2   -1    0    0    0  501 -0.00000000000E+00 -0.00000000000E+00 -0.10538932931E+04  0.10538932931E+04  0.00000000000E+00 0.  1.
         23    2    1    2    0    0  0.11925308437E+04 -0.92817168717E+03 -0.10927929898E+03  0.15178678048E+04  0.91368558467E+02 0.  0.
         11    1    3    3    0    0  0.71469094087E+03 -0.57246785639E+03 -0.10906127921E+03  0.92216969707E+03  0.00000000000E+00 0.  1.
        -11    1    3    3    0    0  0.47783990288E+03 -0.35570383077E+03 -0.21801976864E+00  0.59569810772E+03  0.00000000000E+00 0. -1.
         22    1    1    2    0    0 -0.11925308437E+04  0.92817168717E+03  0.21352991766E+04  0.26159386590E+04  0.00000000000E+00 0. -1.
<mgrwt>
<rscale>  0 0.36032762E+04</rscale>
<asrwt>0</asrwt>
<pdfrwt beam="1">  1        2 0.47383279E+00 0.36032762E+04</pdfrwt>
<pdfrwt beam="2">  1       -2 0.16213743E+00 0.36032762E+04</pdfrwt>
<totfact> 0.30653723E-01</totfact>
</mgrwt>
</event>
<event>
 6    1  0.3202719E-006  0.1958380E+04  0.7818608E-02  0.8626331E-01
          1   -1    0    0  501    0  0.00000000000E+00  0.00000000000E+00  0.10847347943E+04  0.10847347943E+04  0.00000000000E+00 0. -1.
         -1   -1    0    0    0  501 -0.00000000000E+00 -0.00000000000E+00 -0.88391442683E+03  0.88391442683E+03  0.00000000000E+00 0.  1.
         23    2    1    2    0    0  0.19138141965E+03  0.54013872243E+03  0.89634397655E+03  0.10674667878E+04  0.87613535432E+02 0.  0.
         13    1    3    3    0    0  0.10267084024E+03  0.36887466118E+03  0.65268837404E+03  0.75671125980E+03  0.00000000000E+00 0.  1.
        -13    1    3    3    0    0  0.88710579411E+02  0.17126406126E+03  0.24365560250E+03  0.31075552804E+03  0.00000000000E+00 0. -1.
         22    1    1    2    0    0 -0.19138141965E+03 -0.54013872243E+03 -0.69552360908E+03  0.90118243328E+03  0.00000000000E+00 0. -1.
<mgrwt>
<rscale>  0 0.19583797E+04</rscale>
<asrwt>0</asrwt>
<pdfrwt beam="1">  1        1 0.16688228E+00 0.19583797E+04</pdfrwt>
<pdfrwt beam="2">  1       -1 0.13598684E+00 0.19583797E+04</pdfrwt>
<totfact> 0.54806082E+00</totfact>
</mgrwt>
</event>
<event>
 6    1  0.3017327E-006  0.1710336E+04  0.7818608E-02  0.8755491E-01
          2   -1    0    0  501    0  0.00000000000E+00  0.00000000000E+00  0.26212515109E+04  0.26212515109E+04  0.00000000000E+00 0. -1.
         -2   -1    0    0    0  501 -0.00000000000E+00 -0.00000000000E+00 -0.27899355197E+03  0.27899355197E+03  0.00000000000E+00 0.  1.
         23    2    1    2    0    0  0.66028909331E+03  0.34746291393E+03  0.18745357509E+04  0.20196337824E+04  0.91236892209E+02 0.  0.
         13    1    3    3    0    0  0.36500895856E+03  0.19046369305E+03  0.91107018223E+03  0.99977839302E+03  0.00000000000E+00 0.  1.
        -13    1    3    3    0    0  0.29528013475E+03  0.15699922087E+03  0.96346556863E+03  0.10198553894E+04  0.00000000000E+00 0. -1.
         22    1    1    2    0    0 -0.66028909331E+03 -0.34746291393E+03  0.46772220803E+03  0.88061128041E+03  0.00000000000E+00 0.  1.
<mgrwt>
<rscale>  0 0.17103360E+04</rscale>
<asrwt>0</asrwt>
<pdfrwt beam="1">  1        2 0.40326945E+00 0.17103360E+04</pdfrwt>
<pdfrwt beam="2">  1       -2 0.42922087E-01 0.17103360E+04</pdfrwt>
<totfact> 0.14499256E+01</totfact>
</mgrwt>
</event>
<event>
 6    1  0.3017327E-006  0.3207408E+04  0.7818608E-02  0.8186863E-01
          2   -1    0    0  501    0  0.00000000000E+00  0.00000000000E+00  0.27270966951E+04  0.27270966951E+04  0.00000000000E+00 0. -1.
         -2   -1    0    0    0  501 -0.00000000000E+00 -0.00000000000E+00 -0.94307863619E+03  0.94307863619E+03  0.00000000000E+00 0.  1.
         23    2    1    2    0    0  0.13435099687E+02  0.29358980480E+03  0.26952222274E+04  0.27127472599E+04  0.91648054328E+02 0.  0.
         13    1    3    3    0    0  0.33967017982E+02  0.16279344124E+03  0.11652235254E+04  0.11770307248E+04  0.00000000000E+00 0. -1.
        -13    1    3    3    0    0 -0.20531918295E+02  0.13079636356E+03  0.15299987019E+04  0.15357165352E+04  0.00000000000E+00 0.  1.
         22    1    1    2    0    0 -0.13435099687E+02 -0.29358980480E+03 -0.91120416842E+03  0.95742807142E+03  0.00000000000E+00 0.  1.
<mgrwt>
<rscale>  0 0.32074081E+04</rscale>
<asrwt>0</asrwt>
<pdfrwt beam="1">  1        2 0.41955333E+00 0.32074081E+04</pdfrwt>
<pdfrwt beam="2">  1       -2 0.14508902E+00 0.32074081E+04</pdfrwt>
<totfact> 0.70405664E-01</totfact>
</mgrwt>
</event>
<event>
 6    1  0.3017327E-006  0.4200922E+04  0.7818608E-02  0.7965197E-01
          2   -1    0    0  501    0  0.00000000000E+00  0.00000000000E+00  0.23006070718E+04  0.23006070718E+04  0.00000000000E+00 0. -1.
         -2   -1    0    0    0  501 -0.00000000000E+00 -0.00000000000E+00 -0.19177274919E+04  0.19177274919E+04  0.00000000000E+00 0.  1.
         23    2    1    2    0    0 -0.47394316729E+03 -0.37064567165E+03  0.22112813513E+04  0.22934830429E+04  0.91098373810E+02 0.  0.
         13    1    3    3    0    0 -0.23590194336E+03 -0.21617236617E+03  0.13141311450E+04  0.13525238944E+04  0.00000000000E+00 0. -1.
        -13    1    3    3    0    0 -0.23804122393E+03 -0.15447330548E+03  0.89715020630E+03  0.94095914845E+03  0.00000000000E+00 0.  1.
         22    1    1    2    0    0  0.47394316729E+03  0.37064567165E+03 -0.18284017713E+04  0.19248515208E+04  0.00000000000E+00 0.  1.
<mgrwt>
<rscale>  0 0.42009225E+04</rscale>
<asrwt>0</asrwt>
<pdfrwt beam="1">  1        2 0.35393955E+00 0.42009225E+04</pdfrwt>
<pdfrwt beam="2">  1       -2 0.29503500E+00 0.42009225E+04</pdfrwt>
<totfact> 0.11986123E-01</totfact>
</mgrwt>
</event>
<event>
 6    1  0.3017327E-006  0.9997857E+03  0.7818608E-02  0.9308780E-01
         -2   -1    0    0    0  501 -0.00000000000E+00  0.00000000000E+00  0.14679731459E+03  0.14679731459E+03  0.00000000000E+00 0.  1.
          2   -1    0    0  501    0  0.00000000000E+00 -0.00000000000E+00 -0.17022984343E+04  0.17022984343E+04  0.00000000000E+00 0. -1.
         23    2    1    2    0    0 -0.49251184591E+03  0.55655408883E+02 -0.80354775635E+03  0.94848523176E+03  0.90938414478E+02 0.  0.
         11    1    3    3    0    0 -0.45042401488E+03  0.71379624070E+02 -0.75724949398E+03  0.88397038414E+03  0.00000000000E+00 0. -1.
        -11    1    3    3    0    0 -0.42087831027E+02 -0.15724215187E+02 -0.46298262372E+02  0.64514847613E+02  0.00000000000E+00 0.  1.
         22    1    1    2    0    0  0.49251184591E+03 -0.55655408883E+02 -0.75195336335E+03  0.90061051712E+03  0.00000000000E+00 0.  1.
<mgrwt>
<rscale>  0 0.99978565E+03</rscale>
<asrwt>0</asrwt>
<pdfrwt beam="1">  1        2 0.26189205E+00 0.99978565E+03</pdfrwt>
<pdfrwt beam="2">  1       -2 0.22584203E-01 0.99978565E+03</pdfrwt>
<totfact> 0.16828288E+02</totfact>
</mgrwt>
</event>
<event>
 6    1  0.3017327E-006  0.1808075E+04  0.7818608E-02  0.8702017E-01
          2   -1    0    0  501    0  0.00000000000E+00  0.00000000000E+00  0.18785350911E+04  0.18785350911E+04  0.00000000000E+00 0. -1.
         -2   -1    0    0    0  501 -0.00000000000E+00 -0.00000000000E+00 -0.43506453769E+03  0.43506453769E+03  0.00000000000E+00 0.  1.
         23    2    1    2    0    0 -0.75659178695E+03 -0.29870515919E+03  0.12216594792E+04  0.14704768282E+04  0.90522455600E+02 0.  0.
         13    1    3    3    0    0 -0.12018345856E+03 -0.79005846364E+02  0.24859052619E+03  0.28719895052E+03  0.00000000000E+00 0. -1.
        -13    1    3    3    0    0 -0.63640832840E+03 -0.21969931282E+03  0.97306895304E+03  0.11832778777E+04  0.00000000000E+00 0.  1.
         22    1    1    2    0    0  0.75659178695E+03  0.29870515919E+03  0.22181107421E+03  0.84312280058E+03  0.00000000000E+00 0.  1.
<mgrwt>
<rscale>  0 0.18080752E+04</rscale>
<asrwt>0</asrwt>
<pdfrwt beam="1">  1        2 0.28900539E+00 0.18080752E+04</pdfrwt>
<pdfrwt beam="2">  1       -2 0.66933007E-01 0.18080752E+04</pdfrwt>
<totfact> 0.15088469E+01</totfact>
</mgrwt>
</event>
<event>
 6    1  0.3017327E-006  0.1869571E+04  0.7818608E-02  0.8670153E-01
         -1   -1    0    0    0  501 -0.00000000000E+00  0.00000000000E+00  0.57834009348E+03  0.57834009348E+03  0.00000000000E+00 0.  1.
          1   -1    0    0  501    0  0.00000000000E+00 -0.00000000000E+00 -0.15109171389E+04  0.15109171389E+04  0.00000000000E+00 0. -1.
         23    2    1    2    0    0 -0.71063938680E+03 -0.45823423130E+03 -0.27720889595E+02  0.85080997408E+03  0.90123334806E+02 0.  0.
         11    1    3    3    0    0 -0.49733147827E+03 -0.27430728065E+03 -0.18207351232E+01  0.56796689919E+03  0.00000000000E+00 0.  1.
        -11    1    3    3    0    0 -0.21330790853E+03 -0.18392695064E+03 -0.25900154471E+02  0.28284307490E+03  0.00000000000E+00 0. -1.
         22    1    1    2    0    0  0.71063938680E+03  0.45823423130E+03 -0.90485615578E+03  0.12384472582E+04  0.00000000000E+00 0.  1.
<mgrwt>
<rscale>  0 0.18695710E+04</rscale>
<asrwt>0</asrwt>
<pdfrwt beam="1">  1        1 0.23244879E+00 0.18695710E+04</pdfrwt>
<pdfrwt beam="2">  1       -1 0.88975400E-01 0.18695710E+04</pdfrwt>
<totfact> 0.74702316E+00</totfact>
</mgrwt>
</event>
<event>
 6    1  0.3017327E-006  0.1772861E+04  0.7818608E-02  0.8720866E-01
          2   -1    0    0  501    0  0.00000000000E+00  0.00000000000E+00  0.31210149617E+04  0.31210149617E+04  0.00000000000E+00 0.  1.
         -2   -1    0    0    0  501 -0.00000000000E+00 -0.00000000000E+00 -0.25176406020E+03  0.25176406020E+03  0.00000000000E+00 0. -1.
         23    2    1    2    0    0 -0.11940604829E+02 -0.88163838109E+03  0.15591546309E+04  0.17936080207E+04  0.92939526070E+02 0.  0.
         11    1    3    3    0    0  0.25919375573E+02 -0.62653765305E+03  0.11530943546E+04  0.13125729828E+04  0.00000000000E+00 0. -1.
        -11    1    3    3    0    0 -0.37859980403E+02 -0.25510072805E+03  0.40606027635E+03  0.48103503781E+03  0.00000000000E+00 0.  1.
         22    1    1    2    0    0  0.11940604829E+02  0.88163838109E+03  0.13100962706E+04  0.15791710012E+04  0.00000000000E+00 0.  1.
<mgrwt>
<rscale>  0 0.17728614E+04</rscale>
<asrwt>0</asrwt>
<pdfrwt beam="1">  1        2 0.48015612E+00 0.17728614E+04</pdfrwt>
<pdfrwt beam="2">  1       -2 0.38732935E-01 0.17728614E+04</pdfrwt>
<totfact> 0.87374886E+00</totfact>
</mgrwt>
</event>
<event>
 6    1  0.3017327E-006  0.2206395E+04  0.7818608E-02  0.8515771E-01
         -1   -1    0    0    0  501 -0.00000000000E+00  0.00000000000E+00  0.12271415169E+04  0.12271415169E+04  0.00000000000E+00 0.  1.
          1   -1    0    0  501    0  0.00000000000E+00 -0.00000000000E+00 -0.99177167980E+03  0.99177167980E+03  0.00000000000E+00 0. -1.
         23    2    1    2    0    0  0.74100524004E+03 -0.81151058267E+03  0.18936102583E+03  0.11190245649E+04  0.93381942784E+02 0.  0.
         13    1    3    3    0    0  0.59997738060E+03 -0.69250993642E+03  0.13159379187E+03  0.92566721630E+03  0.00000000000E+00 0.  1.
        -13    1    3    3    0    0  0.14102785944E+03 -0.11900064625E+03  0.57767233962E+02  0.19335734863E+03  0.00000000000E+00 0. -1.
         22    1    1    2    0    0 -0.74100524004E+03  0.81151058267E+03  0.46008811259E+02  0.10998886318E+04  0.00000000000E+00 0. -1.
<mgrwt>
<rscale>  0 0.22063945E+04</rscale>
<asrwt>0</asrwt>
<pdfrwt beam="1">  1        1 0.15258026E+00 0.22063945E+04</pdfrwt>
<pdfrwt beam="2">  1       -1 0.18879100E+00 0.22063945E+04</pdfrwt>
<totfact> 0.25216075E+00</totfact>
</mgrwt>
</event>
<event>
 6    1  0.3017327E-006  0.3733438E+04  0.7818608E-02  0.8060592E-01
         -2   -1    0    0    0  501 -0.00000000000E+00  0.00000000000E+00  0.29176819889E+04  0.29176819889E+04  0.00000000000E+00 0.  1.
          2   -1    0    0  501    0  0.00000000000E+00 -0.00000000000E+00 -0.11943175806E+04  0.11943175806E+04  0.00000000000E+00 0. -1.
         23    2    1    2    0    0 -0.58461313712E+03 -0.60979161024E+03 -0.96984490346E+03  0.12894130385E+04  0.91479610717E+02 0.  0.
         13    1    3    3    0    0 -0.16128378436E+03 -0.13699230518E+03 -0.19406197373E+03  0.28712262263E+03  0.00000000000E+00 0.  1.
        -13    1    3    3    0    0 -0.42332935277E+03 -0.47279930506E+03 -0.77578292973E+03  0.10022904159E+04  0.00000000000E+00 0. -1.
         22    1    1    2    0    0  0.58461313712E+03  0.60979161024E+03  0.26932093118E+04  0.28225865310E+04  0.00000000000E+00 0.  1.
<mgrwt>
<rscale>  0 0.37334375E+04</rscale>
<asrwt>0</asrwt>
<pdfrwt beam="1">  1        2 0.18374117E+00 0.37334375E+04</pdfrwt>
<pdfrwt beam="2">  1       -2 0.44887415E+00 0.37334375E+04</pdfrwt>
<totfact> 0.54305909E-02</totfact>
</mgrwt>
</event>
<event>
 6    1  0.3017327E-006  0.6837486E+03  0.7818608E-02  0.9745435E-01
         -2   -1    0    0    0  501 -0.00000000000E+00  0.00000000000E+00  0.13375447949E+03  0.13375447949E+03  0.00000000000E+00 0.  1.
          2   -1    0    0  501    0  0.00000000000E+00 -0.00000000000E+00 -0.87382529763E+03  0.87382529763E+03  0.00000000000E+00 0. -1.
         23    2    1    2    0    0 -0.12452951969E+03 -0.23834443644E+03 -0.67305650863E+03  0.73043975956E+03  0.90672525510E+02 0.  0.
         13    1    3    3    0    0  0.33816944842E+01 -0.73830933475E+02 -0.21084640982E+03  0.22342482210E+03  0.00000000000E+00 0. -1.
        -13    1    3    3    0    0 -0.12791121417E+03 -0.16451350296E+03 -0.46221009881E+03  0.50701493746E+03  0.00000000000E+00 0.  1.
         22    1    1    2    0    0  0.12452951969E+03  0.23834443644E+03 -0.67014309512E+02  0.27714001756E+03  0.00000000000E+00 0.  1.
<mgrwt>
<rscale>  0 0.68374863E+03</rscale>
<asrwt>0</asrwt>
<pdfrwt beam="1">  1        2 0.13443466E+00 0.68374863E+03</pdfrwt>
<pdfrwt beam="2">  1       -2 0.20577612E-01 0.68374863E+03</pdfrwt>
<totfact> 0.62403545E+02</totfact>
</mgrwt>
</event>
<event>
 6    1  0.3017327E-006  0.2427862E+04  0.7818608E-02  0.8429146E-01
         -2   -1    0    0    0  501 -0.00000000000E+00  0.00000000000E+00  0.78284855327E+03  0.78284855327E+03  0.00000000000E+00 0.  1.
          2   -1    0    0  501    0  0.00000000000E+00 -0.00000000000E+00 -0.18823925535E+04  0.18823925535E+04  0.00000000000E+00 0. -1.
         23    2    1    2    0    0  0.99746279329E+02  0.78062135041E+03  0.46165192362E+03  0.91691284079E+03  0.91036509547E+02 0.  0.
         13    1    3    3    0    0  0.10609157352E+03  0.48899864944E+03  0.28302317192E+03  0.57487147866E+03  0.00000000000E+00 0.  1.
        -13    1    3    3    0    0 -0.63452941891E+01  0.29162270097E+03  0.17862875169E+03  0.34204136213E+03  0.00000000000E+00 0. -1.
         22    1    1    2    0    0 -0.99746279329E+02 -0.78062135041E+03 -0.15611959238E+04  0.17483282659E+04  0.00000000000E+00 0. -1.
<mgrwt>
<rscale>  0 0.24278618E+04</rscale>
<asrwt>0</asrwt>
<pdfrwt beam="1">  1        2 0.28959885E+00 0.24278618E+04</pdfrwt>
<pdfrwt beam="2">  1       -2 0.12043824E+00 0.24278618E+04</pdfrwt>
<totfact> 0.36666722E+00</totfact>
</mgrwt>
</event>
<event>
 6    1  0.3017327E-006  0.6449588E+03  0.7818608E-02  0.9816285E-01
          2   -1    0    0  501    0  0.00000000000E+00  0.00000000000E+00  0.87386007385E+03  0.87386007385E+03  0.00000000000E+00 0. -1.
         -2   -1    0    0    0  501 -0.00000000000E+00 -0.00000000000E+00 -0.11900412745E+03  0.11900412745E+03  0.00000000000E+00 0.  1.
         23    2    1    2    0    0  0.13110597445E+03 -0.16017379274E+03  0.17358459496E+02  0.22687009976E+03  0.91237632768E+02 0.  0.
         11    1    3    3    0    0  0.12854658415E+03 -0.92244627325E+02  0.13046026753E+02  0.15875608455E+03  0.00000000000E+00 0. -1.
        -11    1    3    3    0    0  0.25593903003E+01 -0.67929165411E+02  0.43124327428E+01  0.68114015212E+02  0.00000000000E+00 0.  1.
         22    1    1    2    0    0 -0.13110597445E+03  0.16017379274E+03  0.73749748689E+03  0.76599410154E+03  0.00000000000E+00 0. -1.
<mgrwt>
<rscale>  0 0.64495878E+03</rscale>
<asrwt>0</asrwt>
<pdfrwt beam="1">  1        2 0.13444001E+00 0.64495878E+03</pdfrwt>
<pdfrwt beam="2">  1       -2 0.18308328E-01 0.64495878E+03</pdfrwt>
<totfact> 0.76557271E+02</totfact>
</mgrwt>
</event>
<event>
 6    1  0.3017327E-006  0.2114594E+04  0.7818608E-02  0.8554842E-01
          2   -1    0    0  501    0  0.00000000000E+00  0.00000000000E+00  0.82811795507E+03  0.82811795507E+03  0.00000000000E+00 0. -1.
         -2   -1    0    0    0  501 -0.00000000000E+00 -0.00000000000E+00 -0.13499011012E+04  0.13499011012E+04  0.00000000000E+00 0.  1.
         23    2    1    2    0    0  0.20938051857E+03 -0.73214852395E+03 -0.10139113488E+04  0.12713372871E+04  0.91654850460E+02 0.  0.
         11    1    3    3    0    0  0.70441871168E+02 -0.32716788780E+03 -0.51127648321E+03  0.61106834831E+03  0.00000000000E+00 0.  1.
        -11    1    3    3    0    0  0.13893864740E+03 -0.40498063614E+03 -0.50263486558E+03  0.66026893876E+03  0.00000000000E+00 0. -1.
         22    1    1    2    0    0 -0.20938051857E+03  0.73214852395E+03  0.49212820269E+03  0.90668176917E+03  0.00000000000E+00 0. -1.
<mgrwt>
<rscale>  0 0.21145944E+04</rscale>
<asrwt>0</asrwt>
<pdfrwt beam="1">  1        2 0.12740276E+00 0.21145944E+04</pdfrwt>
<pdfrwt beam="2">  1       -2 0.20767709E+00 0.21145944E+04</pdfrwt>
<totfact> 0.35861589E+00</totfact>
</mgrwt>
</event>
<event>
 6    1  0.3017327E-006  0.1585099E+04  0.7818608E-02  0.8829755E-01
         -2   -1    0    0    0  501 -0.00000000000E+00  0.00000000000E+00  0.28845380619E+03  0.28845380619E+03  0.00000000000E+00 0.  1.
          2   -1    0    0  501    0  0.00000000000E+00 -0.00000000000E+00 -0.21775924939E+04  0.21775924939E+04  0.00000000000E+00 0. -1.
         23    2    1    2    0    0  0.30282225790E+03 -0.30928515374E+03 -0.19755974309E+04  0.20246465488E+04  0.94073440764E+02 0.  0.
         13    1    3    3    0    0  0.11900505323E+03 -0.99919211065E+02 -0.91311035863E+03  0.92623786279E+03  0.00000000000E+00 0. -1.
        -13    1    3    3    0    0  0.18381720467E+03 -0.20936594268E+03 -0.10624870723E+04  0.10984086860E+04  0.00000000000E+00 0.  1.
         22    1    1    2    0    0 -0.30282225790E+03  0.30928515374E+03  0.86458743171E+02  0.44139975133E+03  0.00000000000E+00 0.  1.
<mgrwt>
<rscale>  0 0.15850992E+04</rscale>
<asrwt>0</asrwt>
<pdfrwt beam="1">  1        2 0.33501422E+00 0.15850992E+04</pdfrwt>
<pdfrwt beam="2">  1       -2 0.44377510E-01 0.15850992E+04</pdfrwt>
<totfact> 0.24593287E+01</totfact>
</mgrwt>
</event>
<event>
 6    1  0.3017327E-006  0.1273622E+04  0.7818608E-02  0.9050749E-01
         -1   -1    0    0    0  501 -0.00000000000E+00  0.00000000000E+00  0.23802690327E+03  0.23802690327E+03  0.00000000000E+00 0.  1.
          1   -1    0    0  501    0  0.00000000000E+00 -0.00000000000E+00 -0.17037077951E+04  0.17037077951E+04  0.00000000000E+00 0. -1.
         23    2    1    2    0    0 -0.31282443676E+03 -0.54745609416E+03 -0.63965644364E+03  0.90256017392E+03  0.88809900284E+02 0.  0.
         13    1    3    3    0    0 -0.17994364384E+03 -0.39339616448E+03 -0.41497052459E+03  0.59945040951E+03  0.00000000000E+00 0. -1.
        -13    1    3    3    0    0 -0.13288079292E+03 -0.15405992969E+03 -0.22468591905E+03  0.30310976441E+03  0.00000000000E+00 0.  1.
         22    1    1    2    0    0  0.31282443676E+03  0.54745609416E+03 -0.82602444821E+03  0.10391745245E+04  0.00000000000E+00 0. -1.
<mgrwt>
<rscale>  0 0.12736221E+04</rscale>
<asrwt>0</asrwt>
<pdfrwt beam="1">  1        1 0.26210889E+00 0.12736221E+04</pdfrwt>
<pdfrwt beam="2">  1       -1 0.36619524E-01 0.12736221E+04</pdfrwt>
<totfact> 0.33371653E+01</totfact>
</mgrwt>
</event>
<event>
 6    1  0.3017327E-006  0.7713039E+03  0.7818608E-02  0.9602508E-01
          2   -1    0    0  501    0  0.00000000000E+00  0.00000000000E+00  0.40482008212E+03  0.40482008212E+03  0.00000000000E+00 0. -1.
         -2   -1    0    0    0  501 -0.00000000000E+00 -0.00000000000E+00 -0.36739139531E+03  0.36739139531E+03  0.00000000000E+00 0.  1.
         23    2    1    2    0    0  0.11077960890E+03 -0.29652126071E+03  0.22992514865E+03  0.40173628578E+03  0.91266037128E+02 0.  0.
         13    1    3    3    0    0  0.95623242611E+02 -0.16951510191E+03  0.97707643096E+02  0.21777501653E+03  0.00000000000E+00 0. -1.
        -13    1    3    3    0    0  0.15156366287E+02 -0.12700615880E+03  0.13221750556E+03  0.18396126926E+03  0.00000000000E+00 0.  1.
         22    1    1    2    0    0 -0.11077960890E+03  0.29652126071E+03 -0.19249646184E+03  0.37047519164E+03  0.00000000000E+00 0.  1.
<mgrwt>
<rscale>  0 0.77130387E+03</rscale>
<asrwt>0</asrwt>
<pdfrwt beam="1">  1        2 0.62280013E-01 0.77130387E+03</pdfrwt>
<pdfrwt beam="2">  1       -2 0.56521753E-01 0.77130387E+03</pdfrwt>
<totfact> 0.23230274E+02</totfact>
</mgrwt>
</event>
<event>
 6    1  0.3017327E-006  0.2335292E+04  0.7818608E-02  0.8464135E-01
          2   -1    0    0  501    0  0.00000000000E+00  0.00000000000E+00  0.40158873558E+04  0.40158873558E+04  0.00000000000E+00 0. -1.
         -2   -1    0    0    0  501 -0.00000000000E+00 -0.00000000000E+00 -0.33950076707E+03  0.33950076707E+03  0.00000000000E+00 0.  1.
         23    2    1    2    0    0 -0.95177091757E+03  0.57715847765E+03  0.11940943579E+04  0.16349553435E+04  0.90762612450E+02 0.  0.
         11    1    3    3    0    0 -0.75450733982E+03  0.41949154884E+03  0.89465362936E+03  0.12432455920E+04  0.00000000000E+00 0.  1.
        -11    1    3    3    0    0 -0.19726357775E+03  0.15766692881E+03  0.29944072853E+03  0.39170975154E+03  0.00000000000E+00 0. -1.
         22    1    1    2    0    0  0.95177091757E+03 -0.57715847765E+03  0.24822922308E+04  0.27204327794E+04  0.00000000000E+00 0.  1.
<mgrwt>
<rscale>  0 0.23352917E+04</rscale>
<asrwt>0</asrwt>
<pdfrwt beam="1">  1        2 0.61782879E+00 0.23352917E+04</pdfrwt>
<pdfrwt beam="2">  1       -2 0.52230890E-01 0.23352917E+04</pdfrwt>
<totfact> 0.10444932E+00</totfact>
</mgrwt>
</event>
<event>
 6    1  0.3017327E-006  0.2744427E+04  0.7818608E-02  0.8320732E-01
          1   -1    0    0  501    0  0.00000000000E+00  0.00000000000E+00  0.16295785088E+04  0.16295785088E+04  0.00000000000E+00 0. -1.
         -1   -1    0    0    0  501 -0.00000000000E+00 -0.00000000000E+00 -0.11554948290E+04  0.11554948290E+04  0.00000000000E+00 0.  1.
         23    2    1    2    0    0 -0.51333802920E+03  0.11411074496E+04  0.80621056929E+03  0.14904883023E+04  0.77056820128E+02 0.  0.
         11    1    3    3    0    0 -0.10885394244E+03  0.32243952959E+03  0.22981100438E+03  0.41064525903E+03  0.00000000000E+00 0. -1.
        -11    1    3    3    0    0 -0.40448408676E+03  0.81866791997E+03  0.57639956491E+03  0.10798430432E+04  0.00000000000E+00 0.  1.
         22    1    1    2    0    0  0.51333802920E+03 -0.11411074496E+04 -0.33212688951E+03  0.12945850356E+04  0.00000000000E+00 0.  1.
<mgrwt>
<rscale>  0 0.27444267E+04</rscale>
<asrwt>0</asrwt>
<pdfrwt beam="1">  1        1 0.25070439E+00 0.27444267E+04</pdfrwt>
<pdfrwt beam="2">  1       -1 0.17776843E+00 0.27444267E+04</pdfrwt>
<totfact> 0.10004212E+00</totfact>
</mgrwt>
</event>
<event>
 6    1  0.3017327E-006  0.4069819E+04  0.7818608E-02  0.7990608E-01
         -2   -1    0    0    0  501 -0.00000000000E+00  0.00000000000E+00  0.11708223129E+04  0.11708223129E+04  0.00000000000E+00 0.  1.
          2   -1    0    0  501    0  0.00000000000E+00 -0.00000000000E+00 -0.35367074687E+04  0.35367074687E+04  0.00000000000E+00 0. -1.
         23    2    1    2    0    0  0.46989446434E+03  0.94309283516E+03 -0.31958575732E+04  0.33662322319E+04  0.88254787254E+02 0.  0.
         13    1    3    3    0    0  0.19859556591E+03  0.36188192056E+03 -0.11265906343E+04  0.11998354806E+04  0.00000000000E+00 0.  1.
        -13    1    3    3    0    0  0.27129889843E+03  0.58121091460E+03 -0.20692669389E+04  0.21663967513E+04  0.00000000000E+00 0. -1.
         22    1    1    2    0    0 -0.46989446434E+03 -0.94309283516E+03  0.82997241732E+03  0.13412975497E+04  0.00000000000E+00 0.  1.
<mgrwt>
<rscale>  0 0.40698187E+04</rscale>
<asrwt>0</asrwt>
<pdfrwt beam="1">  1        2 0.54410883E+00 0.40698187E+04</pdfrwt>
<pdfrwt beam="2">  1       -2 0.18012651E+00 0.40698187E+04</pdfrwt>
<totfact> 0.10852961E-01</totfact>
</mgrwt>
</event>
<event>
 6    1  0.3017327E-006  0.3479559E+04  0.7818608E-02  0.8118651E-01
         -1   -1    0    0    0  501 -0.00000000000E+00  0.00000000000E+00  0.58271446781E+03  0.58271446781E+03  0.00000000000E+00 0.  1.
          1   -1    0    0  501    0  0.00000000000E+00 -0.00000000000E+00 -0.51943655081E+04  0.51943655081E+04  0.00000000000E+00 0. -1.
         23    2    1    2    0    0  0.84191896290E+03 -0.15153887423E+04 -0.20882717804E+04  0.27155977419E+04  0.91441163560E+02 0.  0.
         13    1    3    3    0    0  0.52225525961E+03 -0.92073535629E+03 -0.12062414638E+04  0.16048434881E+04  0.00000000000E+00 0. -1.
        -13    1    3    3    0    0  0.31966370329E+03 -0.59465338598E+03 -0.88203031665E+03  0.11107542537E+04  0.00000000000E+00 0.  1.
         22    1    1    2    0    0 -0.84191896290E+03  0.15153887423E+04 -0.25233792599E+04  0.30614822340E+04  0.00000000000E+00 0.  1.
<mgrwt>
<rscale>  0 0.34795586E+04</rscale>
<asrwt>0</asrwt>
<pdfrwt beam="1">  1        1 0.79913312E+00 0.34795586E+04</pdfrwt>
<pdfrwt beam="2">  1       -1 0.89648384E-01 0.34795586E+04</pdfrwt>
<totfact> 0.46613708E-03</totfact>
</mgrwt>
</event>
<event>
 6    1  0.3017327E-006  0.4016572E+04  0.7818608E-02  0.8001212E-01
         -2   -1    0    0    0  501 -0.00000000000E+00  0.00000000000E+00  0.24883127191E+04  0.24883127191E+04  0.00000000000E+00 0.  1.
          2   -1    0    0  501    0  0.00000000000E+00 -0.00000000000E+00 -0.16208628326E+04  0.16208628326E+04  0.00000000000E+00 0. -1.
         23    2    1    2    0    0  0.88640135671E+03  0.76139351344E+03  0.21036429372E+04  0.24081168501E+04  0.91025870394E+02 0.  0.
         13    1    3    3    0    0  0.17472131614E+03  0.12836163236E+03  0.45758673136E+03  0.50634954695E+03  0.00000000000E+00 0. -1.
        -13    1    3    3    0    0  0.71168004057E+03  0.63303188108E+03  0.16460562058E+04  0.19017673032E+04  0.00000000000E+00 0.  1.
         22    1    1    2    0    0 -0.88640135671E+03 -0.76139351344E+03 -0.12361930508E+04  0.17010587016E+04  0.00000000000E+00 0. -1.
<mgrwt>
<rscale>  0 0.40165725E+04</rscale>
<asrwt>0</asrwt>
<pdfrwt beam="1">  1        2 0.24936351E+00 0.40165725E+04</pdfrwt>
<pdfrwt beam="2">  1       -2 0.38281734E+00 0.40165725E+04</pdfrwt>
<totfact> 0.82082170E-02</totfact>
</mgrwt>
</event>
<event>
 6    1  0.3017327E-006  0.1409035E+04  0.7818608E-02  0.8947304E-01
          2   -1    0    0  501    0  0.00000000000E+00  0.00000000000E+00  0.79500246260E+03  0.79500246260E+03  0.00000000000E+00 0. -1.
         -2   -1    0    0    0  501 -0.00000000000E+00 -0.00000000000E+00 -0.62433125868E+03  0.62433125868E+03  0.00000000000E+00 0.  1.
         23    2    1    2    0    0  0.30969956274E+02  0.22043860731E+03  0.75587063515E+03  0.79322614897E+03  0.91186558988E+02 0.  0.
         13    1    3    3    0    0  0.37468439380E+02  0.44191114698E+02  0.27489786330E+03  0.28093695701E+03  0.00000000000E+00 0.  1.
        -13    1    3    3    0    0 -0.64984831060E+01  0.17624749261E+03  0.48097277186E+03  0.51228919196E+03  0.00000000000E+00 0. -1.
         22    1    1    2    0    0 -0.30969956274E+02 -0.22043860731E+03 -0.58519943123E+03  0.62610757231E+03  0.00000000000E+00 0.  1.
<mgrwt>
<rscale>  0 0.14090350E+04</rscale>
<asrwt>0</asrwt>
<pdfrwt beam="1">  1        2 0.12230807E+00 0.14090350E+04</pdfrwt>
<pdfrwt beam="2">  1       -2 0.96050963E-01 0.14090350E+04</pdfrwt>
<totfact> 0.30695722E+01</totfact>
</mgrwt>
</event>
<event>
 6    1  0.3017327E-006  0.4164144E+04  0.7818608E-02  0.7972228E-01
         -1   -1    0    0    0  501 -0.00000000000E+00  0.00000000000E+00  0.13296656093E+04  0.13296656093E+04  0.00000000000E+00 0.  1.
          1   -1    0    0  501    0  0.00000000000E+00 -0.00000000000E+00 -0.32602368481E+04  0.32602368481E+04  0.00000000000E+00 0. -1.
         23    2    1    2    0    0  0.13632235938E+04  0.10102101641E+03  0.76382724053E+03  0.15685837093E+04  0.91863961656E+02 0.  0.
         13    1    3    3    0    0  0.57475085975E+03  0.49315755703E+02  0.27120767018E+03  0.63743563981E+03  0.00000000000E+00 0. -1.
        -13    1    3    3    0    0  0.78847273400E+03  0.51705260708E+02  0.49261957035E+03  0.93114806951E+03  0.00000000000E+00 0.  1.
         22    1    1    2    0    0 -0.13632235938E+04 -0.10102101641E+03 -0.26943984793E+04  0.30213187481E+04  0.00000000000E+00 0. -1.
<mgrwt>
<rscale>  0 0.41641445E+04</rscale>
<asrwt>0</asrwt>
<pdfrwt beam="1">  1        1 0.50157490E+00 0.41641445E+04</pdfrwt>
<pdfrwt beam="2">  1       -1 0.20456394E+00 0.41641445E+04</pdfrwt>
<totfact> 0.41358293E-02</totfact>
</mgrwt>
</event>
<event>
 6    1  0.3017327E-006  0.2325944E+04  0.7818608E-02  0.8467762E-01
          2   -1    0    0  501    0  0.00000000000E+00  0.00000000000E+00  0.23814891797E+04  0.23814891797E+04  0.00000000000E+00 0. -1.
         -2   -1    0    0    0  501 -0.00000000000E+00 -0.00000000000E+00 -0.56792336431E+03  0.56792336431E+03  0.00000000000E+00 0.  1.
         23    2    1    2    0    0 -0.10201566314E+04 -0.18726762987E+03  0.24651663121E+03  0.10702021078E+04  0.93666345799E+02 0.  0.
         13    1    3    3    0    0 -0.69545017391E+03 -0.12342976745E+03  0.21219753196E+03  0.73750501317E+03  0.00000000000E+00 0. -1.
        -13    1    3    3    0    0 -0.32470645750E+03 -0.63837862420E+02  0.34319099248E+02  0.33269709466E+03  0.00000000000E+00 0.  1.
         22    1    1    2    0    0  0.10201566314E+04  0.18726762987E+03  0.15670491842E+04  0.18792104362E+04  0.00000000000E+00 0.  1.
<mgrwt>
<rscale>  0 0.23259435E+04</rscale>
<asrwt>0</asrwt>
<pdfrwt beam="1">  1        2 0.36638294E+00 0.23259435E+04</pdfrwt>
<pdfrwt beam="2">  1       -2 0.87372827E-01 0.23259435E+04</pdfrwt>
<totfact> 0.41692749E+00</totfact>
</mgrwt>
</event>
<event>
 6    1  0.3017327E-006  0.9458910E+03  0.7818608E-02  0.9369966E-01
         -2   -1    0    0    0  501 -0.00000000000E+00  0.00000000000E+00  0.25826337265E+03  0.25826337265E+03  0.00000000000E+00 0.  1.
          2   -1    0    0  501    0  0.00000000000E+00 -0.00000000000E+00 -0.86608266955E+03  0.86608266955E+03  0.00000000000E+00 0. -1.
         23    2    1    2    0    0  0.11157152231E+03 -0.94780656816E+02 -0.83584332065E+03  0.85337273556E+03  0.90439989079E+02 0.  0.
         13    1    3    3    0    0  0.86339595709E+02 -0.94750824339E+02 -0.48602252646E+03  0.50264315446E+03  0.00000000000E+00 0. -1.
        -13    1    3    3    0    0  0.25231926603E+02 -0.29832477041E-01 -0.34982079419E+03  0.35072958110E+03  0.00000000000E+00 0.  1.
         22    1    1    2    0    0 -0.11157152231E+03  0.94780656816E+02  0.22802402376E+03  0.27097330663E+03  0.00000000000E+00 0.  1.
<mgrwt>
<rscale>  0 0.94589097E+03</rscale>
<asrwt>0</asrwt>
<pdfrwt beam="1">  1        2 0.13324349E+00 0.94589097E+03</pdfrwt>
<pdfrwt beam="2">  1       -2 0.39732827E-01 0.94589097E+03</pdfrwt>
<totfact> 0.18538943E+02</totfact>
</mgrwt>
</event>
<event>
 6    1  0.3017327E-006  0.6869017E+03  0.7818608E-02  0.9739898E-01
         -4   -1    0    0    0  501 -0.00000000000E+00  0.00000000000E+00  0.71221395389E+03  0.71221395389E+03  0.00000000000E+00 0.  1.
          4   -1    0    0  501    0  0.00000000000E+00 -0.00000000000E+00 -0.16562228111E+03  0.16562228111E+03  0.00000000000E+00 0. -1.
         23    2    1    2    0    0  0.12087581556E+03  0.16377854001E+03 -0.66393211137E+02  0.23193775934E+03  0.89177871498E+02 0.  0.
         11    1    3    3    0    0  0.16142954985E+02  0.20229669864E+02 -0.46389879717E+02  0.53121139659E+02  0.00000000000E+00 0. -1.
        -11    1    3    3    0    0  0.10473286057E+03  0.14354887015E+03 -0.20003331420E+02  0.17881661968E+03  0.00000000000E+00 0.  1.
         22    1    1    2    0    0 -0.12087581556E+03 -0.16377854001E+03  0.61298488391E+03  0.64589847566E+03  0.00000000000E+00 0.  1.
<mgrwt>
<rscale>  0 0.68690174E+03</rscale>
<asrwt>0</asrwt>
<pdfrwt beam="1">  1        4 0.25480351E-01 0.68690174E+03</pdfrwt>
<pdfrwt beam="2">  1       -4 0.10957138E+00 0.68690174E+03</pdfrwt>
<totfact> 0.19328732E+01</totfact>
</mgrwt>
</event>
<event>
 6    1  0.3017327E-006  0.3949996E+04  0.7818608E-02  0.8014711E-01
          2   -1    0    0  501    0  0.00000000000E+00  0.00000000000E+00  0.35250830860E+04  0.35250830860E+04  0.00000000000E+00 0. -1.
         -2   -1    0    0    0  501 -0.00000000000E+00 -0.00000000000E+00 -0.11065321420E+04  0.11065321420E+04  0.00000000000E+00 0.  1.
         23    2    1    2    0    0  0.86740028790E+03  0.50920221775E+03  0.32014426321E+04  0.33570213502E+04  0.93205476032E+02 0.  0.
         11    1    3    3    0    0  0.47295618999E+03  0.22853550677E+03  0.17302255697E+04  0.18082025765E+04  0.00000000000E+00 0.  1.
        -11    1    3    3    0    0  0.39444409791E+03  0.28066671098E+03  0.14712170624E+04  0.15488187737E+04  0.00000000000E+00 0. -1.
         22    1    1    2    0    0 -0.86740028790E+03 -0.50920221775E+03 -0.78289168818E+03  0.12745938778E+04  0.00000000000E+00 0.  1.
<mgrwt>
<rscale>  0 0.39499963E+04</rscale>
<asrwt>0</asrwt>
<pdfrwt beam="1">  1        2 0.54232047E+00 0.39499963E+04</pdfrwt>
<pdfrwt beam="2">  1       -2 0.17023572E+00 0.39499963E+04</pdfrwt>
<totfact> 0.13102712E-01</totfact>
</mgrwt>
</event>
<event>
 6    1  0.3017327E-006  0.6279060E+04  0.7818608E-02  0.7656733E-01
         -2   -1    0    0    0  501 -0.00000000000E+00  0.00000000000E+00  0.31331232451E+04  0.31331232451E+04  0.00000000000E+00 0. -1.
          2   -1    0    0  501    0  0.00000000000E+00 -0.00000000000E+00 -0.31459501304E+04  0.31459501304E+04  0.00000000000E+00 0.  1.
         23    2    1    2    0    0  0.80340743565E+03  0.25130642372E+04  0.16939391347E+04  0.31367803251E+04  0.94898093273E+02 0.  0.
         11    1    3    3    0    0  0.44779159539E+03  0.15205405665E+04  0.10514138832E+04  0.19021125311E+04  0.00000000000E+00 0.  1.
        -11    1    3    3    0    0  0.35561584026E+03  0.99252367073E+03  0.64252525153E+03  0.12346677940E+04  0.00000000000E+00 0. -1.
         22    1    1    2    0    0 -0.80340743565E+03 -0.25130642372E+04 -0.17067660200E+04  0.31422930505E+04  0.00000000000E+00 0.  1.
<mgrwt>
<rscale>  0 0.62790603E+04</rscale>
<asrwt>0</asrwt>
<pdfrwt beam="1">  1        2 0.48399233E+00 0.62790603E+04</pdfrwt>
<pdfrwt beam="2">  1       -2 0.48201896E+00 0.62790603E+04</pdfrwt>
<totfact> 0.20025910E-03</totfact>
</mgrwt>
</event>
<event>
 6    1  0.3017327E-006  0.1292176E+04  0.7818608E-02  0.9035793E-01
         -2   -1    0    0    0  501 -0.00000000000E+00  0.00000000000E+00  0.28056773006E+03  0.28056773006E+03  0.00000000000E+00 0.  1.
          2   -1    0    0  501    0  0.00000000000E+00 -0.00000000000E+00 -0.14878033592E+04  0.14878033592E+04  0.00000000000E+00 0. -1.
         23    2    1    2    0    0  0.28050728217E+03 -0.37157625959E+03  0.33481859726E+00  0.47416104514E+03  0.89862854258E+02 0.  0.
         13    1    3    3    0    0  0.19010365770E+03 -0.22864011276E+03 -0.40721412386E+02  0.30012320014E+03  0.00000000000E+00 0. -1.
        -13    1    3    3    0    0  0.90403624477E+02 -0.14293614683E+03  0.41056230984E+02  0.17403784500E+03  0.00000000000E+00 0.  1.
         22    1    1    2    0    0 -0.28050728217E+03  0.37157625959E+03 -0.12075704477E+04  0.12942100441E+04  0.00000000000E+00 0. -1.
<mgrwt>
<rscale>  0 0.12921759E+04</rscale>
<asrwt>0</asrwt>
<pdfrwt beam="1">  1        2 0.22889282E+00 0.12921759E+04</pdfrwt>
<pdfrwt beam="2">  1       -2 0.43164267E-01 0.12921759E+04</pdfrwt>
<totfact> 0.64341137E+01</totfact>
</mgrwt>
</event>
<event>
 6    1  0.3017327E-006  0.2155469E+04  0.7818608E-02  0.8537195E-01
         -2   -1    0    0    0  501 -0.00000000000E+00  0.00000000000E+00  0.15564739106E+04  0.15564739106E+04  0.00000000000E+00 0. -1.
          2   -1    0    0  501    0  0.00000000000E+00 -0.00000000000E+00 -0.74624528807E+03  0.74624528807E+03  0.00000000000E+00 0.  1.
         23    2    1    2    0    0 -0.41890644435E+03 -0.27981213717E+01 -0.65334620919E+03  0.78037175914E+03  0.81414831540E+02 0.  0.
         13    1    3    3    0    0 -0.24840179993E+03 -0.37906246843E+02 -0.41657262095E+03  0.48649058191E+03  0.00000000000E+00 0. -1.
        -13    1    3    3    0    0 -0.17050464441E+03  0.35108125471E+02 -0.23677358824E+03  0.29388117723E+03  0.00000000000E+00 0.  1.
         22    1    1    2    0    0  0.41890644435E+03  0.27981213717E+01  0.14635748317E+04  0.15223474396E+04  0.00000000000E+00 0. -1.
<mgrwt>
<rscale>  0 0.21554687E+04</rscale>
<asrwt>0</asrwt>
<pdfrwt beam="1">  1        2 0.11480697E+00 0.21554687E+04</pdfrwt>
<pdfrwt beam="2">  1       -2 0.23945752E+00 0.21554687E+04</pdfrwt>
<totfact> 0.25841399E+00</totfact>
</mgrwt>
</event>
<event>
 6    1  0.3017327E-006  0.1206240E+04  0.7818608E-02  0.9107413E-01
         -2   -1    0    0    0  501 -0.00000000000E+00  0.00000000000E+00  0.19416205342E+03  0.19416205342E+03  0.00000000000E+00 0.  1.
          2   -1    0    0  501    0  0.00000000000E+00 -0.00000000000E+00 -0.18734528575E+04  0.18734528575E+04  0.00000000000E+00 0. -1.
         23    2    1    2    0    0 -0.17712849333E+02 -0.39805320121E+03 -0.76242648586E+02  0.41579062097E+03  0.91152635689E+02 0.  0.
         13    1    3    3    0    0  0.16708384151E+02 -0.32242283787E+03 -0.79969745956E+02  0.33261211155E+03  0.00000000000E+00 0. -1.
        -13    1    3    3    0    0 -0.34421233485E+02 -0.75630363337E+02  0.37270973704E+01  0.83178509411E+02  0.00000000000E+00 0.  1.
         22    1    1    2    0    0  0.17712849333E+02  0.39805320121E+03 -0.16030481555E+04  0.16518242900E+04  0.00000000000E+00 0. -1.
<mgrwt>
<rscale>  0 0.12062395E+04</rscale>
<asrwt>0</asrwt>
<pdfrwt beam="1">  1        2 0.28822352E+00 0.12062395E+04</pdfrwt>
<pdfrwt beam="2">  1       -2 0.29871085E-01 0.12062395E+04</pdfrwt>
<totfact> 0.80141670E+01</totfact>
</mgrwt>
</event>
<event>
 6    1  0.4129473E-006  0.3489938E+04  0.7818608E-02  0.8116179E-01
          2   -1    0    0  501    0  0.00000000000E+00  0.00000000000E+00  0.32687353765E+04  0.32687353765E+04  0.00000000000E+00 0. -1.
         -2   -1    0    0    0  501 -0.00000000000E+00 -0.00000000000E+00 -0.93152765634E+03  0.93152765634E+03  0.00000000000E+00 0.  1.
         23    2    1    2    0    0  0.10728824324E+04  0.13679551361E+04  0.13323497161E+04  0.21922496921E+04  0.91787683426E+02 0.  0.
         11    1    3    3    0    0  0.62192929076E+03  0.77910963179E+03  0.70756066721E+03  0.12224769768E+04  0.00000000000E+00 0.  1.
        -11    1    3    3    0    0  0.45095314162E+03  0.58884550427E+03  0.62478904884E+03  0.96977271532E+03  0.00000000000E+00 0. -1.
         22    1    1    2    0    0 -0.10728824324E+04 -0.13679551361E+04  0.10048580041E+04  0.20080133407E+04  0.00000000000E+00 0. -1.
<mgrwt>
<rscale>  0 0.34899383E+04</rscale>
<asrwt>0</asrwt>
<pdfrwt beam="1">  1        2 0.50288236E+00 0.34899383E+04</pdfrwt>
<pdfrwt beam="2">  1       -2 0.14331195E+00 0.34899383E+04</pdfrwt>
<totfact> 0.32433014E-01</totfact>
</mgrwt>
</event>
<event>
 6    1  0.3017327E-006  0.4012779E+04  0.7818608E-02  0.8001974E-01
          2   -1    0    0  501    0  0.00000000000E+00  0.00000000000E+00  0.13254316695E+04  0.13254316695E+04  0.00000000000E+00 0. -1.
         -2   -1    0    0    0  501 -0.00000000000E+00 -0.00000000000E+00 -0.30371986864E+04  0.30371986864E+04  0.00000000000E+00 0.  1.
         23    2    1    2    0    0 -0.91942220906E+03  0.11179514494E+04  0.65237079101E+03  0.15905733188E+04  0.95828971856E+02 0.  0.
         11    1    3    3    0    0 -0.27637497179E+03  0.27464793989E+03  0.15698416481E+03  0.42006980839E+03  0.00000000000E+00 0. -1.
        -11    1    3    3    0    0 -0.64304723727E+03  0.84330350952E+03  0.49538662620E+03  0.11705035104E+04  0.00000000000E+00 0.  1.
         22    1    1    2    0    0  0.91942220906E+03 -0.11179514494E+04 -0.23641378080E+04  0.27720570371E+04  0.00000000000E+00 0.  1.
<mgrwt>
<rscale>  0 0.40127792E+04</rscale>
<asrwt>0</asrwt>
<pdfrwt beam="1">  1        2 0.20391257E+00 0.40127792E+04</pdfrwt>
<pdfrwt beam="2">  1       -2 0.46726133E+00 0.40127792E+04</pdfrwt>
<totfact> 0.33656072E-02</totfact>
</mgrwt>
</event>
<event>
 6    1  0.3017327E-006  0.1173360E+04  0.7818608E-02  0.9136499E-01
          2   -1    0    0  501    0  0.00000000000E+00  0.00000000000E+00  0.33889250173E+04  0.33889250173E+04  0.00000000000E+00 0. -1.
         -2   -1    0    0    0  501 -0.00000000000E+00 -0.00000000000E+00 -0.10156418643E+03  0.10156418643E+03  0.00000000000E+00 0.  1.
         23    2    1    2    0    0  0.38795954054E+03 -0.40549291316E+03  0.11817184877E+04  0.13113456139E+04  0.90728315526E+02 0.  0.
         13    1    3    3    0    0  0.39014292937E+03 -0.38743832502E+03  0.11336893373E+04  0.12599886803E+04  0.00000000000E+00 0.  1.
        -13    1    3    3    0    0 -0.21833888342E+01 -0.18054588140E+02  0.48029150375E+02  0.51356933567E+02  0.00000000000E+00 0. -1.
         22    1    1    2    0    0 -0.38795954054E+03  0.40549291316E+03  0.21056423432E+04  0.21791435898E+04  0.00000000000E+00 0.  1.
<mgrwt>
<rscale>  0 0.11733600E+04</rscale>
<asrwt>0</asrwt>
<pdfrwt beam="1">  1        2 0.52137299E+00 0.11733600E+04</pdfrwt>
<pdfrwt beam="2">  1       -2 0.15625262E-01 0.11733600E+04</pdfrwt>
<totfact> 0.32191162E+01</totfact>
</mgrwt>
</event>
<event>
 6    1  0.3017327E-006  0.4838027E+04  0.7818608E-02  0.7853991E-01
         -2   -1    0    0    0  501 -0.00000000000E+00  0.00000000000E+00  0.14933693955E+04  0.14933693955E+04  0.00000000000E+00 0.  1.
          2   -1    0    0  501    0  0.00000000000E+00 -0.00000000000E+00 -0.39184048302E+04  0.39184048302E+04  0.00000000000E+00 0. -1.
         23    2    1    2    0    0  0.18529121747E+03 -0.19539188620E+04  0.36716327227E+03  0.19987835468E+04  0.90526480444E+02 0.  0.
         11    1    3    3    0    0  0.16205503771E+03 -0.16749535325E+04  0.28244683846E+03  0.17063139769E+04  0.00000000000E+00 0. -1.
        -11    1    3    3    0    0  0.23236179763E+02 -0.27896532954E+03  0.84716433806E+02  0.29246956986E+03  0.00000000000E+00 0.  1.
         22    1    1    2    0    0 -0.18529121747E+03  0.19539188620E+04 -0.27921987070E+04  0.34129906789E+04  0.00000000000E+00 0. -1.
<mgrwt>
<rscale>  0 0.48380268E+04</rscale>
<asrwt>0</asrwt>
<pdfrwt beam="1">  1        2 0.60283151E+00 0.48380268E+04</pdfrwt>
<pdfrwt beam="2">  1       -2 0.22974914E+00 0.48380268E+04</pdfrwt>
<totfact> 0.25058064E-02</totfact>
</mgrwt>
</event>
<event>
 6    1  0.3017327E-006  0.5947776E+04  0.7818608E-02  0.7696911E-01
         -2   -1    0    0    0  501 -0.00000000000E+00  0.00000000000E+00  0.36621874916E+04  0.36621874916E+04  0.00000000000E+00 0.  1.
          2   -1    0    0  501    0  0.00000000000E+00 -0.00000000000E+00 -0.24149527626E+04  0.24149527626E+04  0.00000000000E+00 0. -1.
         23    2    1    2    0    0 -0.25302990273E+04  0.13618037492E+04 -0.15646367820E+03  0.28791265211E+04  0.89252581141E+02 0.  0.
         11    1    3    3    0    0 -0.82216591020E+03  0.47197233220E+03 -0.18609046521E+02  0.94818825286E+03  0.00000000000E+00 0. -1.
        -11    1    3    3    0    0 -0.17081331171E+04  0.88983141701E+03 -0.13785463168E+03  0.19309382683E+04  0.00000000000E+00 0.  1.
         22    1    1    2    0    0  0.25302990273E+04 -0.13618037492E+04  0.14036984072E+04  0.31980137331E+04  0.00000000000E+00 0.  1.
<mgrwt>
<rscale>  0 0.59477760E+04</rscale>
<asrwt>0</asrwt>
<pdfrwt beam="1">  1        2 0.37153120E+00 0.59477760E+04</pdfrwt>
<pdfrwt beam="2">  1       -2 0.56341345E+00 0.59477760E+04</pdfrwt>
<totfact> 0.19655153E-03</totfact>
</mgrwt>
</event>
<event>
 6    1  0.3017327E-006  0.2343948E+04  0.7818608E-02  0.8460792E-01
         -3   -1    0    0    0  501 -0.00000000000E+00  0.00000000000E+00  0.12701841505E+04  0.12701841505E+04  0.00000000000E+00 0.  1.
          3   -1    0    0  501    0  0.00000000000E+00 -0.00000000000E+00 -0.10813572397E+04  0.10813572397E+04  0.00000000000E+00 0. -1.
         23    2    1    2    0    0 -0.52782317628E+03  0.35381781833E+03 -0.89121778406E+03  0.10984328965E+04  0.92202687549E+02 0.  0.
         13    1    3    3    0    0 -0.33832620931E+03  0.19321513177E+03 -0.60331882115E+03  0.71818542940E+03  0.00000000000E+00 0.  1.
        -13    1    3    3    0    0 -0.18949696696E+03  0.16060268656E+03 -0.28789896291E+03  0.38024746713E+03  0.00000000000E+00 0. -1.
         22    1    1    2    0    0  0.52782317628E+03 -0.35381781833E+03  0.10800446949E+04  0.12531084937E+04  0.00000000000E+00 0.  1.
<mgrwt>
<rscale>  0 0.23439478E+04</rscale>
<asrwt>0</asrwt>
<pdfrwt beam="1">  1        3 0.16636265E+00 0.23439478E+04</pdfrwt>
<pdfrwt beam="2">  1       -3 0.19541295E+00 0.23439478E+04</pdfrwt>
<totfact> 0.90817276E-02</totfact>
</mgrwt>
</event>
<event>
 6    1  0.3017327E-006  0.5244913E+04  0.7818608E-02  0.7791799E-01
          2   -1    0    0  501    0  0.00000000000E+00  0.00000000000E+00  0.35626715952E+04  0.35626715952E+04  0.00000000000E+00 0.  1.
         -2   -1    0    0    0  501 -0.00000000000E+00 -0.00000000000E+00 -0.19303714106E+04  0.19303714106E+04  0.00000000000E+00 0. -1.
         23    2    1    2    0    0 -0.37963093834E+03 -0.16352059279E+04 -0.12927069019E+04  0.21205536385E+04  0.87398647854E+02 0.  0.
         13    1    3    3    0    0 -0.16604557618E+03 -0.69052053709E+03 -0.60117076565E+03  0.93048161453E+03  0.00000000000E+00 0. -1.
        -13    1    3    3    0    0 -0.21358536217E+03 -0.94468539084E+03 -0.69153613622E+03  0.11900720240E+04  0.00000000000E+00 0.  1.
         22    1    1    2    0    0  0.37963093834E+03  0.16352059279E+04  0.29250070865E+04  0.33724893672E+04  0.00000000000E+00 0.  1.
<mgrwt>
<rscale>  0 0.52449135E+04</rscale>
<asrwt>0</asrwt>
<pdfrwt beam="1">  1        2 0.54810332E+00 0.52449135E+04</pdfrwt>
<pdfrwt beam="2">  1       -2 0.29698022E+00 0.52449135E+04</pdfrwt>
<totfact> 0.17346868E-02</totfact>
</mgrwt>
</event>
<event>
 6    1  0.3017327E-006  0.4117635E+04  0.7818608E-02  0.7981227E-01
          2   -1    0    0  501    0  0.00000000000E+00  0.00000000000E+00  0.35067846874E+04  0.35067846874E+04  0.00000000000E+00 0. -1.
         -2   -1    0    0    0  501 -0.00000000000E+00 -0.00000000000E+00 -0.12087227433E+04  0.12087227433E+04  0.00000000000E+00 0.  1.
         23    2    1    2    0    0  0.60027558983E+03  0.35238159327E+02 -0.11041737973E+04  0.12605428070E+04  0.90531110558E+02 0.  0.
         13    1    3    3    0    0  0.13881095170E+03  0.31168058659E+02 -0.32828382075E+03  0.35778512429E+03  0.00000000000E+00 0. -1.
        -13    1    3    3    0    0  0.46146463813E+03  0.40701006683E+01 -0.77588997652E+03  0.90275768268E+03  0.00000000000E+00 0.  1.
         22    1    1    2    0    0 -0.60027558983E+03 -0.35238159327E+02  0.34022357414E+04  0.34549646238E+04  0.00000000000E+00 0. -1.
<mgrwt>
<rscale>  0 0.41176354E+04</rscale>
<asrwt>0</asrwt>
<pdfrwt beam="1">  1        2 0.53950533E+00 0.41176354E+04</pdfrwt>
<pdfrwt beam="2">  1       -2 0.18595735E+00 0.41176354E+04</pdfrwt>
<totfact> 0.10352458E-01</totfact>
</mgrwt>
</event>
<event>
 6    1  0.3017327E-006  0.3788143E+04  0.7818608E-02  0.8048704E-01
          1   -1    0    0  501    0  0.00000000000E+00  0.00000000000E+00  0.27857881998E+04  0.27857881998E+04  0.00000000000E+00 0. -1.
         -1   -1    0    0    0  501 -0.00000000000E+00 -0.00000000000E+00 -0.12877886215E+04  0.12877886215E+04  0.00000000000E+00 0.  1.
         23    2    1    2    0    0  0.13031256630E+04  0.12399032654E+04  0.13841521587E+04  0.22712289538E+04  0.84303980604E+02 0.  0.
         11    1    3    3    0    0  0.49805344550E+03  0.43904874746E+03  0.47070195589E+03  0.81386815179E+03  0.00000000000E+00 0.  1.
        -11    1    3    3    0    0  0.80507221745E+03  0.80085451792E+03  0.91345020276E+03  0.14573608020E+04  0.00000000000E+00 0. -1.
         22    1    1    2    0    0 -0.13031256630E+04 -0.12399032654E+04  0.11384741964E+03  0.18023478676E+04  0.00000000000E+00 0.  1.
<mgrwt>
<rscale>  0 0.37881427E+04</rscale>
<asrwt>0</asrwt>
<pdfrwt beam="1">  1        1 0.42858280E+00 0.37881427E+04</pdfrwt>
<pdfrwt beam="2">  1       -1 0.19812133E+00 0.37881427E+04</pdfrwt>
<totfact> 0.10532895E-01</totfact>
</mgrwt>
</event>
<event>
 6    1  0.3017327E-006  0.2079897E+04  0.7818608E-02  0.8570151E-01
         -2   -1    0    0    0  501 -0.00000000000E+00  0.00000000000E+00  0.60930652536E+03  0.60930652536E+03  0.00000000000E+00 0.  1.
          2   -1    0    0  501    0  0.00000000000E+00 -0.00000000000E+00 -0.17749572274E+04  0.17749572274E+04  0.00000000000E+00 0. -1.
         23    2    1    2    0    0  0.31402604551E+03  0.98884772062E+03 -0.53839867848E+03  0.11718788003E+04  0.83633808001E+02 0.  0.
         13    1    3    3    0    0  0.43306108172E+02  0.14671259876E+03 -0.11389151379E+03  0.19071256528E+03  0.00000000000E+00 0.  1.
        -13    1    3    3    0    0  0.27071993733E+03  0.84213512186E+03 -0.42450716469E+03  0.98116623505E+03  0.00000000000E+00 0. -1.
         22    1    1    2    0    0 -0.31402604551E+03 -0.98884772062E+03 -0.62725202355E+03  0.12123849524E+04  0.00000000000E+00 0. -1.
<mgrwt>
<rscale>  0 0.20798971E+04</rscale>
<asrwt>0</asrwt>
<pdfrwt beam="1">  1        2 0.27307034E+00 0.20798971E+04</pdfrwt>
<pdfrwt beam="2">  1       -2 0.93739467E-01 0.20798971E+04</pdfrwt>
<totfact> 0.79076902E+00</totfact>
</mgrwt>
</event>
<event>
 6    1  0.3017327E-006  0.3260897E+04  0.7818608E-02  0.8172917E-01
         -2   -1    0    0    0  501 -0.00000000000E+00  0.00000000000E+00  0.15757983759E+04  0.15757983759E+04  0.00000000000E+00 0.  1.
          2   -1    0    0  501    0  0.00000000000E+00 -0.00000000000E+00 -0.16869935247E+04  0.16869935247E+04  0.00000000000E+00 0. -1.
         23    2    1    2    0    0  0.14703127322E+04 -0.67536198567E+03 -0.24670286608E+03  0.16391245444E+04  0.89070904061E+02 0.  0.
         13    1    3    3    0    0  0.21123505115E+03 -0.13225832989E+03 -0.40133624993E+02  0.25243458660E+03  0.00000000000E+00 0.  1.
        -13    1    3    3    0    0  0.12590776810E+04 -0.54310365578E+03 -0.20656924108E+03  0.13866899578E+04  0.00000000000E+00 0. -1.
         22    1    1    2    0    0 -0.14703127322E+04  0.67536198567E+03  0.13550771735E+03  0.16236673562E+04  0.00000000000E+00 0. -1.
<mgrwt>
<rscale>  0 0.32608966E+04</rscale>
<asrwt>0</asrwt>
<pdfrwt beam="1">  1        2 0.25953747E+00 0.32608966E+04</pdfrwt>
<pdfrwt beam="2">  1       -2 0.24243052E+00 0.32608966E+04</pdfrwt>
<totfact> 0.59786975E-01</totfact>
</mgrwt>
</event>
<event>
 6    1  0.3017327E-006  0.2421640E+03  0.7818608E-02  0.1118360E+00
         -2   -1    0    0    0  501 -0.00000000000E+00  0.00000000000E+00  0.88614660621E+03  0.88614660621E+03  0.00000000000E+00 0.  1.
          2   -1    0    0  501    0  0.00000000000E+00 -0.00000000000E+00 -0.16544499894E+02  0.16544499894E+02  0.00000000000E+00 0. -1.
         23    2    1    2    0    0  0.46980837002E+01  0.97224424730E+02  0.35336125091E+03  0.37735380346E+03  0.89761119590E+02 0.  0.
         11    1    3    3    0    0 -0.29819263609E+02  0.88330600034E+02  0.21247286884E+03  0.23202629889E+03  0.00000000000E+00 0. -1.
        -11    1    3    3    0    0  0.34517347309E+02  0.88938246964E+01  0.14088838207E+03  0.14532750457E+03  0.00000000000E+00 0.  1.
         22    1    1    2    0    0 -0.46980837002E+01 -0.97224424730E+02  0.51624085541E+03  0.52533730264E+03  0.00000000000E+00 0.  1.
<mgrwt>
<rscale>  0 0.24216401E+03</rscale>
<asrwt>0</asrwt>
<pdfrwt beam="1">  1        2 0.25453084E-02 0.24216401E+03</pdfrwt>
<pdfrwt beam="2">  1       -2 0.13633021E+00 0.24216401E+03</pdfrwt>
<totfact> 0.15803970E+03</totfact>
</mgrwt>
</event>
<event>
 6    1  0.3017327E-006  0.4358238E+04  0.7818608E-02  0.7935936E-01
         -2   -1    0    0    0  501 -0.00000000000E+00  0.00000000000E+00  0.11237120296E+04  0.11237120296E+04  0.00000000000E+00 0.  1.
          2   -1    0    0  501    0  0.00000000000E+00 -0.00000000000E+00 -0.42257804386E+04  0.42257804386E+04  0.00000000000E+00 0. -1.
         23    2    1    2    0    0 -0.52208402636E+03  0.20919843534E+04 -0.19305594169E+04  0.28956376266E+04  0.93205885803E+02 0.  0.
         13    1    3    3    0    0 -0.41712717174E+03  0.15334803550E+04 -0.13897408011E+04  0.21111457957E+04  0.00000000000E+00 0.  1.
        -13    1    3    3    0    0 -0.10495685462E+03  0.55850399833E+03 -0.54081861586E+03  0.78449183090E+03  0.00000000000E+00 0. -1.
         22    1    1    2    0    0  0.52208402636E+03 -0.20919843534E+04 -0.11715089921E+04  0.24538548416E+04  0.00000000000E+00 0.  1.
<mgrwt>
<rscale>  0 0.43582383E+04</rscale>
<asrwt>0</asrwt>
<pdfrwt beam="1">  1        2 0.65012008E+00 0.43582383E+04</pdfrwt>
<pdfrwt beam="2">  1       -2 0.17287877E+00 0.43582383E+04</pdfrwt>
<totfact> 0.34218185E-02</totfact>
</mgrwt>
</event>
<event>
 6    1  0.3017327E-006  0.1716163E+04  0.7818608E-02  0.8752199E-01
          1   -1    0    0  501    0  0.00000000000E+00  0.00000000000E+00  0.88874684301E+03  0.88874684301E+03  0.00000000000E+00 0. -1.
         -1   -1    0    0    0  501 -0.00000000000E+00 -0.00000000000E+00 -0.82847454909E+03  0.82847454909E+03  0.00000000000E+00 0.  1.
         23    2    1    2    0    0 -0.31055061471E+03  0.74194643543E+02  0.82418617608E+03  0.88926550633E+03  0.97794470546E+02 0.  0.
         13    1    3    3    0    0 -0.29035015942E+03  0.94442953515E+02  0.75507705527E+03  0.81447163606E+03  0.00000000000E+00 0. -1.
        -13    1    3    3    0    0 -0.20200455292E+02 -0.20248309972E+02  0.69109120807E+02  0.74793870266E+02  0.00000000000E+00 0.  1.
         22    1    1    2    0    0  0.31055061471E+03 -0.74194643543E+02 -0.76391388216E+03  0.82795588577E+03  0.00000000000E+00 0.  1.
<mgrwt>
<rscale>  0 0.17161633E+04</rscale>
<asrwt>0</asrwt>
<pdfrwt beam="1">  1        1 0.13673028E+00 0.17161633E+04</pdfrwt>
<pdfrwt beam="2">  1       -1 0.12745762E+00 0.17161633E+04</pdfrwt>
<totfact> 0.94181529E+00</totfact>
</mgrwt>
</event>
<event>
 6    1  0.4060008E-006  0.3464071E+04  0.7818608E-02  0.8122358E-01
         -2   -1    0    0    0  501 -0.00000000000E+00  0.00000000000E+00  0.15023513371E+04  0.15023513371E+04  0.00000000000E+00 0.  1.
          2   -1    0    0  501    0  0.00000000000E+00 -0.00000000000E+00 -0.19968344037E+04  0.19968344037E+04  0.00000000000E+00 0. -1.
         23    2    1    2    0    0 -0.59360576464E+03 -0.11560741733E+04  0.90820928187E+03  0.15870086772E+04  0.69836551448E+02 0.  0.
         11    1    3    3    0    0 -0.39646830469E+03 -0.74937250652E+03  0.63056782247E+03  0.10565803561E+04  0.00000000000E+00 0.  1.
        -11    1    3    3    0    0 -0.19713745995E+03 -0.40670166674E+03  0.27764145940E+03  0.53042832110E+03  0.00000000000E+00 0. -1.
         22    1    1    2    0    0  0.59360576464E+03  0.11560741733E+04 -0.14026923485E+04  0.19121770636E+04  0.00000000000E+00 0. -1.
<mgrwt>
<rscale>  0 0.34640709E+04</rscale>
<asrwt>0</asrwt>
<pdfrwt beam="1">  1        2 0.30720529E+00 0.34640709E+04</pdfrwt>
<pdfrwt beam="2">  1       -2 0.23113098E+00 0.34640709E+04</pdfrwt>
<totfact> 0.46507157E-01</totfact>
</mgrwt>
</event>
<event>
 6    1  0.3017327E-006  0.1357044E+04  0.7818608E-02  0.8985513E-01
          2   -1    0    0  501    0  0.00000000000E+00  0.00000000000E+00  0.91912272893E+03  0.91912272893E+03  0.00000000000E+00 0. -1.
         -2   -1    0    0    0  501 -0.00000000000E+00 -0.00000000000E+00 -0.50090360187E+03  0.50090360187E+03  0.00000000000E+00 0.  1.
         23    2    1    2    0    0  0.51955642057E+03 -0.26473257563E+02 -0.24092352938E+03  0.58031879299E+03  0.89922449727E+02 0.  0.
         13    1    3    3    0    0  0.43352633889E+03  0.10671299720E+02 -0.20835358436E+03  0.48111347857E+03  0.00000000000E+00 0. -1.
        -13    1    3    3    0    0  0.86030081683E+02 -0.37144557283E+02 -0.32569945020E+02  0.99205314418E+02  0.00000000000E+00 0.  1.
         22    1    1    2    0    0 -0.51955642057E+03  0.26473257563E+02  0.65914265644E+03  0.83970753782E+03  0.00000000000E+00 0. -1.
<mgrwt>
<rscale>  0 0.13570437E+04</rscale>
<asrwt>0</asrwt>
<pdfrwt beam="1">  1        2 0.14140350E+00 0.13570437E+04</pdfrwt>
<pdfrwt beam="2">  1       -2 0.77062093E-01 0.13570437E+04</pdfrwt>
<totfact> 0.41787660E+01</totfact>
</mgrwt>
</event>
<event>
 6    1  0.3017327E-006  0.3048510E+04  0.7818608E-02  0.8230013E-01
          2   -1    0    0  501    0  0.00000000000E+00  0.00000000000E+00  0.12378909677E+04  0.12378909677E+04  0.00000000000E+00 0. -1.
         -2   -1    0    0    0  501 -0.00000000000E+00 -0.00000000000E+00 -0.18768645792E+04  0.18768645792E+04  0.00000000000E+00 0.  1.
         23    2    1    2    0    0 -0.89602553368E+03  0.48900409008E+03 -0.14744865588E+04  0.17956389325E+04  0.90674180093E+02 0.  0.
         11    1    3    3    0    0 -0.35058263763E+03  0.17140884564E+03 -0.63536223589E+03  0.74563687474E+03  0.00000000000E+00 0.  1.
        -11    1    3    3    0    0 -0.54544289605E+03  0.31759524444E+03 -0.83912432288E+03  0.10500020578E+04  0.00000000000E+00 0. -1.
         22    1    1    2    0    0  0.89602553368E+03 -0.48900409008E+03  0.83551294735E+03  0.13191166144E+04  0.00000000000E+00 0. -1.
<mgrwt>
<rscale>  0 0.30485103E+04</rscale>
<asrwt>0</asrwt>
<pdfrwt beam="1">  1        2 0.19044476E+00 0.30485103E+04</pdfrwt>
<pdfrwt beam="2">  1       -2 0.28874840E+00 0.30485103E+04</pdfrwt>
<totfact> 0.57091427E-01</totfact>
</mgrwt>
</event>
<event>
 6    1  0.3017327E-006  0.2981544E+04  0.7818608E-02  0.8249021E-01
          2   -1    0    0  501    0  0.00000000000E+00  0.00000000000E+00  0.13260340356E+04  0.13260340356E+04  0.00000000000E+00 0.  1.
         -2   -1    0    0    0  501 -0.00000000000E+00 -0.00000000000E+00 -0.16759764664E+04  0.16759764664E+04  0.00000000000E+00 0. -1.
         23    2    1    2    0    0  0.12729956330E+04 -0.41615012860E+03 -0.83122103491E+03  0.15788703451E+04  0.90577849205E+02 0.  0.
         13    1    3    3    0    0  0.11008532922E+04 -0.39153989806E+03 -0.71905920909E+03  0.13719430050E+04  0.00000000000E+00 0. -1.
        -13    1    3    3    0    0  0.17214234081E+03 -0.24610230538E+02 -0.11216182583E+03  0.20692734019E+03  0.00000000000E+00 0.  1.
         22    1    1    2    0    0 -0.12729956330E+04  0.41615012860E+03  0.48127860413E+03  0.14231401568E+04  0.00000000000E+00 0.  1.
<mgrwt>
<rscale>  0 0.29815445E+04</rscale>
<asrwt>0</asrwt>
<pdfrwt beam="1">  1        2 0.20400524E+00 0.29815445E+04</pdfrwt>
<pdfrwt beam="2">  1       -2 0.25784253E+00 0.29815445E+04</pdfrwt>
<totfact> 0.78719113E-01</totfact>
</mgrwt>
</event>
<event>
 6    1  0.3017327E-006  0.2419384E+04  0.7818608E-02  0.8432282E-01
          2   -1    0    0  501    0  0.00000000000E+00  0.00000000000E+00  0.32405618016E+04  0.32405618016E+04  0.00000000000E+00 0. -1.
         -2   -1    0    0    0  501 -0.00000000000E+00 -0.00000000000E+00 -0.45157448149E+03  0.45157448149E+03  0.00000000000E+00 0.  1.
         23    2    1    2    0    0  0.11044782298E+04 -0.47644289721E+03  0.12194243501E+04  0.17146636761E+04  0.78776787336E+02 0.  0.
         11    1    3    3    0    0  0.45376627620E+03 -0.15406148997E+03  0.49135015740E+03  0.68634084338E+03  0.00000000000E+00 0. -1.
        -11    1    3    3    0    0  0.65071195361E+03 -0.32238140724E+03  0.72807419270E+03  0.10283228328E+04  0.00000000000E+00 0.  1.
         22    1    1    2    0    0 -0.11044782298E+04  0.47644289721E+03  0.15695629701E+04  0.19774726070E+04  0.00000000000E+00 0. -1.
<mgrwt>
<rscale>  0 0.24193842E+04</rscale>
<asrwt>0</asrwt>
<pdfrwt beam="1">  1        2 0.49854796E+00 0.24193842E+04</pdfrwt>
<pdfrwt beam="2">  1       -2 0.69472999E-01 0.24193842E+04</pdfrwt>
<totfact> 0.20714918E+00</totfact>
</mgrwt>
</event>
<event>
 6    1  0.3017327E-006  0.3903873E+04  0.7818608E-02  0.8024224E-01
         -2   -1    0    0    0  501 -0.00000000000E+00  0.00000000000E+00  0.22635105253E+04  0.22635105253E+04  0.00000000000E+00 0.  1.
          2   -1    0    0  501    0  0.00000000000E+00 -0.00000000000E+00 -0.16832504863E+04  0.16832504863E+04  0.00000000000E+00 0. -1.
         23    2    1    2    0    0  0.25875837868E+03  0.18386282875E+04 -0.31484927941E+03  0.18855161037E+04  0.92363578805E+02 0.  0.
         11    1    3    3    0    0  0.17400554223E+03  0.10211473676E+04 -0.21073405939E+03  0.10570850102E+04  0.00000000000E+00 0. -1.
        -11    1    3    3    0    0  0.84752836445E+02  0.81748091987E+03 -0.10411522002E+03  0.82843109350E+03  0.00000000000E+00 0.  1.
         22    1    1    2    0    0 -0.25875837868E+03 -0.18386282875E+04  0.89510931841E+03  0.20612449078E+04  0.00000000000E+00 0.  1.
<mgrwt>
<rscale>  0 0.39038725E+04</rscale>
<asrwt>0</asrwt>
<pdfrwt beam="1">  1        2 0.25896161E+00 0.39038725E+04</pdfrwt>
<pdfrwt beam="2">  1       -2 0.34823239E+00 0.39038725E+04</pdfrwt>
<totfact> 0.12712050E-01</totfact>
</mgrwt>
</event>
<event>
 6    1  0.3066604E-006  0.1043418E+04  0.7818608E-02  0.9262166E-01
          2   -1    0    0  501    0  0.00000000000E+00  0.00000000000E+00  0.84270152809E+03  0.84270152809E+03  0.00000000000E+00 0. -1.
         -2   -1    0    0    0  501 -0.00000000000E+00 -0.00000000000E+00 -0.32298562124E+03  0.32298562124E+03  0.00000000000E+00 0.  1.
         23    2    1    2    0    0 -0.41984128938E+03  0.22441991900E+03  0.48913595719E+03  0.68864821839E+03  0.91385861948E+02 0.  0.
         11    1    3    3    0    0 -0.24789154616E+03  0.11894581839E+03  0.21902331659E+03  0.35152459313E+03  0.00000000000E+00 0.  1.
        -11    1    3    3    0    0 -0.17194974323E+03  0.10547410061E+03  0.27011264060E+03  0.33712362526E+03  0.00000000000E+00 0. -1.
         22    1    1    2    0    0  0.41984128938E+03 -0.22441991900E+03  0.30579949662E+02  0.47703893094E+03  0.00000000000E+00 0.  1.
<mgrwt>
<rscale>  0 0.10434184E+04</rscale>
<asrwt>0</asrwt>
<pdfrwt beam="1">  1        2 0.12964639E+00 0.10434184E+04</pdfrwt>
<pdfrwt beam="2">  1       -2 0.49690096E-01 0.10434184E+04</pdfrwt>
<totfact> 0.12259024E+02</totfact>
</mgrwt>
</event>
<event>
 6    1  0.3017327E-006  0.2810048E+04  0.7818608E-02  0.8300156E-01
         -1   -1    0    0    0  501 -0.00000000000E+00  0.00000000000E+00  0.10548510814E+04  0.10548510814E+04  0.00000000000E+00 0.  1.
          1   -1    0    0  501    0  0.00000000000E+00 -0.00000000000E+00 -0.18714411675E+04  0.18714411675E+04  0.00000000000E+00 0. -1.
         23    2    1    2    0    0 -0.43043686104E+03 -0.27613383568E+02  0.98215569508E+03  0.10765558418E+04  0.91127826422E+02 0.  0.
         13    1    3    3    0    0 -0.22452974952E+03 -0.33218026853E+02  0.61528513022E+03  0.65581463631E+03  0.00000000000E+00 0. -1.
        -13    1    3    3    0    0 -0.20590711152E+03  0.56046432846E+01  0.36687056486E+03  0.42074120545E+03  0.00000000000E+00 0.  1.
         22    1    1    2    0    0  0.43043686104E+03  0.27613383568E+02 -0.17987457812E+04  0.18497364071E+04  0.00000000000E+00 0. -1.
<mgrwt>
<rscale>  0 0.28100475E+04</rscale>
<asrwt>0</asrwt>
<pdfrwt beam="1">  1        1 0.28791402E+00 0.28100475E+04</pdfrwt>
<pdfrwt beam="2">  1       -1 0.16228478E+00 0.28100475E+04</pdfrwt>
<totfact> 0.88501633E-01</totfact>
</mgrwt>
</event>
<event>
 6    1  0.3017327E-006  0.2378077E+04  0.7818608E-02  0.8447757E-01
         -2   -1    0    0    0  501 -0.00000000000E+00  0.00000000000E+00  0.48560030772E+03  0.48560030772E+03  0.00000000000E+00 0. -1.
          2   -1    0    0  501    0  0.00000000000E+00 -0.00000000000E+00 -0.29114732490E+04  0.29114732490E+04  0.00000000000E+00 0.  1.
         23    2    1    2    0    0  0.55129870408E+02 -0.10008148696E+04 -0.30558164432E+03  0.10518006750E+04  0.90745868951E+02 0.  0.
         13    1    3    3    0    0  0.37324460116E+02 -0.36751638832E+03 -0.70688865576E+02  0.37610946109E+03  0.00000000000E+00 0.  1.
        -13    1    3    3    0    0  0.17805410291E+02 -0.63329848129E+03 -0.23489277874E+03  0.67569121390E+03  0.00000000000E+00 0. -1.
         22    1    1    2    0    0 -0.55129870408E+02  0.10008148696E+04 -0.21202912970E+04  0.23452728817E+04  0.00000000000E+00 0.  1.
<mgrwt>
<rscale>  0 0.23780768E+04</rscale>
<asrwt>0</asrwt>
<pdfrwt beam="1">  1        2 0.44791896E+00 0.23780768E+04</pdfrwt>
<pdfrwt beam="2">  1       -2 0.74707739E-01 0.23780768E+04</pdfrwt>
<totfact> 0.28690760E+00</totfact>
</mgrwt>
</event>
<event>
 6    1  0.3017327E-006  0.2456636E+04  0.7818608E-02  0.8418599E-01
          2   -1    0    0  501    0  0.00000000000E+00  0.00000000000E+00  0.16338208656E+04  0.16338208656E+04  0.00000000000E+00 0. -1.
         -2   -1    0    0    0  501 -0.00000000000E+00 -0.00000000000E+00 -0.92345778857E+03  0.92345778857E+03  0.00000000000E+00 0.  1.
         23    2    1    2    0    0 -0.42351258427E+03 -0.23468022622E+03  0.15289060105E+04  0.16062527599E+04  0.89758689098E+02 0.  0.
         13    1    3    3    0    0 -0.14924158220E+03 -0.10860693475E+03  0.46319890295E+03  0.49861983497E+03  0.00000000000E+00 0. -1.
        -13    1    3    3    0    0 -0.27427100207E+03 -0.12607329147E+03  0.10657071075E+04  0.11076329249E+04  0.00000000000E+00 0.  1.
         22    1    1    2    0    0  0.42351258427E+03  0.23468022622E+03 -0.81854293345E+03  0.95102589424E+03  0.00000000000E+00 0.  1.
<mgrwt>
<rscale>  0 0.24566356E+04</rscale>
<asrwt>0</asrwt>
<pdfrwt beam="1">  1        2 0.25135706E+00 0.24566356E+04</pdfrwt>
<pdfrwt beam="2">  1       -2 0.14207043E+00 0.24566356E+04</pdfrwt>
<totfact> 0.33039126E+00</totfact>
</mgrwt>
</event>
<event>
 6    1  0.3017327E-006  0.1507654E+04  0.7818608E-02  0.8879379E-01
         -2   -1    0    0    0  501 -0.00000000000E+00  0.00000000000E+00  0.53669607112E+03  0.53669607112E+03  0.00000000000E+00 0.  1.
          2   -1    0    0  501    0  0.00000000000E+00 -0.00000000000E+00 -0.10588018557E+04  0.10588018557E+04  0.00000000000E+00 0. -1.
         23    2    1    2    0    0 -0.11447414996E+03 -0.74223765698E+03 -0.24543199871E+03  0.79514209709E+03  0.89403680791E+02 0.  0.
         11    1    3    3    0    0 -0.10346081723E+03 -0.39350398512E+03 -0.14696427039E+03  0.43260608384E+03  0.00000000000E+00 0.  1.
        -11    1    3    3    0    0 -0.11013332734E+02 -0.34873367186E+03 -0.98467728324E+02  0.36253601325E+03  0.00000000000E+00 0. -1.
         22    1    1    2    0    0  0.11447414996E+03  0.74223765698E+03 -0.27667378591E+03  0.80035582977E+03  0.00000000000E+00 0. -1.
<mgrwt>
<rscale>  0 0.15076535E+04</rscale>
<asrwt>0</asrwt>
<pdfrwt beam="1">  1        2 0.16289259E+00 0.15076535E+04</pdfrwt>
<pdfrwt beam="2">  1       -2 0.82568627E-01 0.15076535E+04</pdfrwt>
<totfact> 0.28730481E+01</totfact>
</mgrwt>
</event>
<event>
 6    1  0.3017327E-006  0.1098115E+04  0.7818608E-02  0.9207032E-01
         -2   -1    0    0    0  501 -0.00000000000E+00  0.00000000000E+00  0.85598727499E+03  0.85598727499E+03  0.00000000000E+00 0.  1.
          2   -1    0    0  501    0  0.00000000000E+00 -0.00000000000E+00 -0.35218266492E+03  0.35218266492E+03  0.00000000000E+00 0. -1.
         23    2    1    2    0    0 -0.28273236613E+03 -0.21653802383E+03  0.70782225756E+03  0.79774393305E+03  0.92502582686E+02 0.  0.
         13    1    3    3    0    0 -0.47705489724E+02 -0.57368745748E+00  0.11387897253E+03  0.12346887564E+03  0.00000000000E+00 0.  1.
        -13    1    3    3    0    0 -0.23502687640E+03 -0.21596433637E+03  0.59394328502E+03  0.67427505741E+03  0.00000000000E+00 0. -1.
         22    1    1    2    0    0  0.28273236613E+03  0.21653802383E+03 -0.20401764749E+03  0.41042600686E+03  0.00000000000E+00 0. -1.
<mgrwt>
<rscale>  0 0.10981145E+04</rscale>
<asrwt>0</asrwt>
<pdfrwt beam="1">  1        2 0.54181949E-01 0.10981145E+04</pdfrwt>
<pdfrwt beam="2">  1       -2 0.13169035E+00 0.10981145E+04</pdfrwt>
<totfact> 0.38270029E+01</totfact>
</mgrwt>
</event>
<event>
 6    1  0.3681825E-006  0.3598481E+04  0.7818608E-02  0.8090840E-01
         -1   -1    0    0    0  501 -0.00000000000E+00  0.00000000000E+00  0.13853792202E+04  0.13853792202E+04  0.00000000000E+00 0.  1.
          1   -1    0    0  501    0  0.00000000000E+00 -0.00000000000E+00 -0.23367370419E+04  0.23367370419E+04  0.00000000000E+00 0. -1.
         23    2    1    2    0    0 -0.16421273969E+04 -0.56617172013E+03  0.46762653430E+01  0.17394075139E+04  0.91563243430E+02 0.  0.
         11    1    3    3    0    0 -0.77262678403E+03 -0.22334363978E+03  0.22859727648E+02  0.80458504583E+03  0.00000000000E+00 0.  1.
        -11    1    3    3    0    0 -0.86950061290E+03 -0.34282808035E+03 -0.18183462305E+02  0.93482246807E+03  0.00000000000E+00 0. -1.
         22    1    1    2    0    0  0.16421273969E+04  0.56617172013E+03 -0.95603408707E+03  0.19827087482E+04  0.00000000000E+00 0.  1.
<mgrwt>
<rscale>  0 0.35984813E+04</rscale>
<asrwt>0</asrwt>
<pdfrwt beam="1">  1        1 0.35949800E+00 0.35984813E+04</pdfrwt>
<pdfrwt beam="2">  1       -1 0.21313527E+00 0.35984813E+04</pdfrwt>
<totfact> 0.17395807E-01</totfact>
</mgrwt>
</event>
<event>
 6    1  0.3017327E-006  0.3480712E+04  0.7818608E-02  0.8118376E-01
          2   -1    0    0  501    0  0.00000000000E+00  0.00000000000E+00  0.31469365067E+04  0.31469365067E+04  0.00000000000E+00 0. -1.
         -2   -1    0    0    0  501 -0.00000000000E+00 -0.00000000000E+00 -0.96247209963E+03  0.96247209963E+03  0.00000000000E+00 0.  1.
         23    2    1    2    0    0 -0.88949809685E+03  0.11521170223E+04 -0.30510327990E+02  0.14589947567E+04  0.95678224630E+02 0.  0.
         11    1    3    3    0    0 -0.41638569074E+03  0.50720317662E+03 -0.57137377440E+02  0.65870842239E+03  0.00000000000E+00 0. -1.
        -11    1    3    3    0    0 -0.47311240612E+03  0.64491384565E+03  0.26627049449E+02  0.80028633432E+03  0.00000000000E+00 0.  1.
         22    1    1    2    0    0  0.88949809685E+03 -0.11521170223E+04  0.22149747350E+04  0.26504138496E+04  0.00000000000E+00 0. -1.
<mgrwt>
<rscale>  0 0.34807118E+04</rscale>
<asrwt>0</asrwt>
<pdfrwt beam="1">  1        2 0.48414407E+00 0.34807118E+04</pdfrwt>
<pdfrwt beam="2">  1       -2 0.14807263E+00 0.34807118E+04</pdfrwt>
<totfact> 0.35789692E-01</totfact>
</mgrwt>
</event>
<event>
 6    1  0.3017327E-006  0.3723256E+04  0.7818608E-02  0.8062827E-01
          2   -1    0    0  501    0  0.00000000000E+00  0.00000000000E+00  0.16741156841E+04  0.16741156841E+04  0.00000000000E+00 0. -1.
         -2   -1    0    0    0  501 -0.00000000000E+00 -0.00000000000E+00 -0.20701431906E+04  0.20701431906E+04  0.00000000000E+00 0.  1.
         23    2    1    2    0    0  0.18192749700E+04  0.37381504824E+03 -0.30794076381E+03  0.18848884488E+04  0.92075205842E+02 0.  0.
         13    1    3    3    0    0  0.11793580907E+04  0.25906164005E+03 -0.15876777906E+03  0.12178693063E+04  0.00000000000E+00 0.  1.
        -13    1    3    3    0    0  0.63991687927E+03  0.11475340819E+03 -0.14917298475E+03  0.66701914249E+03  0.00000000000E+00 0. -1.
         22    1    1    2    0    0 -0.18192749700E+04 -0.37381504824E+03 -0.88086742689E+02  0.18593704260E+04  0.00000000000E+00 0.  1.
<mgrwt>
<rscale>  0 0.37232562E+04</rscale>
<asrwt>0</asrwt>
<pdfrwt beam="1">  1        2 0.25755626E+00 0.37232562E+04</pdfrwt>
<pdfrwt beam="2">  1       -2 0.31848357E+00 0.37232562E+04</pdfrwt>
<totfact> 0.20010265E-01</totfact>
</mgrwt>
</event>
<event>
 6    1  0.3017327E-006  0.4260075E+04  0.7818608E-02  0.7954042E-01
          2   -1    0    0  501    0  0.00000000000E+00  0.00000000000E+00  0.25933034203E+04  0.25933034203E+04  0.00000000000E+00 0. -1.
         -2   -1    0    0    0  501 -0.00000000000E+00 -0.00000000000E+00 -0.17495291610E+04  0.17495291610E+04  0.00000000000E+00 0.  1.
         23    2    1    2    0    0 -0.20649634999E+04 -0.51683156853E+03  0.46519058454E+03  0.21807699724E+04  0.90367397511E+02 0.  0.
         11    1    3    3    0    0 -0.64090977355E+03 -0.13480956526E+03  0.17747960802E+03  0.67855579578E+03  0.00000000000E+00 0. -1.
        -11    1    3    3    0    0 -0.14240537263E+04 -0.38202200327E+03  0.28771097652E+03  0.15022141766E+04  0.00000000000E+00 0.  1.
         22    1    1    2    0    0  0.20649634999E+04  0.51683156853E+03  0.37858367476E+03  0.21620626089E+04  0.00000000000E+00 0. -1.
<mgrwt>
<rscale>  0 0.42600751E+04</rscale>
<asrwt>0</asrwt>
<pdfrwt beam="1">  1        2 0.39896976E+00 0.42600751E+04</pdfrwt>
<pdfrwt beam="2">  1       -2 0.26915833E+00 0.42600751E+04</pdfrwt>
<totfact> 0.11634458E-01</totfact>
</mgrwt>
</event>
<event>
 6    1  0.3017327E-006  0.1351552E+04  0.7818608E-02  0.8989654E-01
          2   -1    0    0  501    0  0.00000000000E+00  0.00000000000E+00  0.39253390967E+03  0.39253390967E+03  0.00000000000E+00 0.  1.
         -2   -1    0    0    0  501 -0.00000000000E+00 -0.00000000000E+00 -0.11633978897E+04  0.11633978897E+04  0.00000000000E+00 0. -1.
         23    2    1    2    0    0 -0.17231703143E+03  0.55862815021E+03 -0.76973029305E+03  0.97132949457E+03  0.96112920337E+02 0.  0.
         13    1    3    3    0    0 -0.84552166870E+02  0.16877032111E+03 -0.19573174795E+03  0.27192537095E+03  0.00000000000E+00 0. -1.
        -13    1    3    3    0    0 -0.87764864560E+02  0.38985782910E+03 -0.57399854510E+03  0.69940412362E+03  0.00000000000E+00 0.  1.
         22    1    1    2    0    0  0.17231703143E+03 -0.55862815021E+03 -0.11336869741E+01  0.58460230480E+03  0.00000000000E+00 0.  1.
<mgrwt>
<rscale>  0 0.13515519E+04</rscale>
<asrwt>0</asrwt>
<pdfrwt beam="1">  1        2 0.60389834E-01 0.13515519E+04</pdfrwt>
<pdfrwt beam="2">  1       -2 0.17898429E+00 0.13515519E+04</pdfrwt>
<totfact> 0.14603065E+01</totfact>
</mgrwt>
</event>
<event>
 6    1  0.3017327E-006  0.2164070E+04  0.7818608E-02  0.8533533E-01
          4   -1    0    0  501    0  0.00000000000E+00  0.00000000000E+00  0.80421327769E+03  0.80421327769E+03  0.00000000000E+00 0. -1.
         -4   -1    0    0    0  501 -0.00000000000E+00 -0.00000000000E+00 -0.14558325655E+04  0.14558325655E+04  0.00000000000E+00 0.  1.
         23    2    1    2    0    0  0.77299695939E+03  0.50587652271E+03  0.25829007447E+03  0.96336916683E+03  0.89056350492E+02 0.  0.
         13    1    3    3    0    0  0.51048614869E+03  0.28348840714E+03  0.17036159068E+03  0.60826380508E+03  0.00000000000E+00 0. -1.
        -13    1    3    3    0    0  0.26251081070E+03  0.22238811557E+03  0.87928483794E+02  0.35510536175E+03  0.00000000000E+00 0.  1.
         22    1    1    2    0    0 -0.77299695939E+03 -0.50587652271E+03 -0.90990936225E+03  0.12966766763E+04  0.00000000000E+00 0.  1.
<mgrwt>
<rscale>  0 0.21640701E+04</rscale>
<asrwt>0</asrwt>
<pdfrwt beam="1">  1        4 0.12372512E+00 0.21640701E+04</pdfrwt>
<pdfrwt beam="2">  1       -4 0.22397424E+00 0.21640701E+04</pdfrwt>
<totfact> 0.82685935E-02</totfact>
</mgrwt>
</event>
<event>
 6    1  0.3017327E-006  0.2304111E+04  0.7818608E-02  0.8476302E-01
          2   -1    0    0  501    0  0.00000000000E+00  0.00000000000E+00  0.15465107290E+04  0.15465107290E+04  0.00000000000E+00 0. -1.
         -2   -1    0    0    0  501 -0.00000000000E+00 -0.00000000000E+00 -0.85821039360E+03  0.85821039360E+03  0.00000000000E+00 0.  1.
         23    2    1    2    0    0 -0.96480223960E+03 -0.49013173961E+03  0.75157435669E+03  0.13207118581E+04  0.91341747403E+02 0.  0.
         13    1    3    3    0    0 -0.70880661745E+03 -0.36863579489E+03  0.50558572294E+03  0.94547136046E+03  0.00000000000E+00 0. -1.
        -13    1    3    3    0    0 -0.25599562216E+03 -0.12149594472E+03  0.24598863375E+03  0.37524049765E+03  0.00000000000E+00 0.  1.
         22    1    1    2    0    0  0.96480223960E+03  0.49013173961E+03 -0.63274021295E+02  0.10840092645E+04  0.00000000000E+00 0.  1.
<mgrwt>
<rscale>  0 0.23041107E+04</rscale>
<asrwt>0</asrwt>
<pdfrwt beam="1">  1        2 0.23792473E+00 0.23041107E+04</pdfrwt>
<pdfrwt beam="2">  1       -2 0.13203237E+00 0.23041107E+04</pdfrwt>
<totfact> 0.45227532E+00</totfact>
</mgrwt>
</event>
<event>
 6    1  0.3017327E-006  0.1542292E+04  0.7818608E-02  0.8856806E-01
         -2   -1    0    0    0  501 -0.00000000000E+00  0.00000000000E+00  0.30412085646E+03  0.30412085646E+03  0.00000000000E+00 0.  1.
          2   -1    0    0  501    0  0.00000000000E+00 -0.00000000000E+00 -0.19553621050E+04  0.19553621050E+04  0.00000000000E+00 0. -1.
         23    2    1    2    0    0 -0.49296439214E+03  0.53849170178E+03 -0.11747585911E+04  0.13876900230E+04  0.11242174024E+03 0.  0.
         11    1    3    3    0    0 -0.23772798979E+03  0.31763323587E+03 -0.70952044761E+03  0.81291127144E+03  0.00000000000E+00 0.  1.
        -11    1    3    3    0    0 -0.25523640235E+03  0.22085846591E+03 -0.46523814348E+03  0.57477875152E+03  0.00000000000E+00 0. -1.
         22    1    1    2    0    0  0.49296439214E+03 -0.53849170178E+03 -0.47648265749E+03  0.87179293854E+03  0.00000000000E+00 0.  1.
<mgrwt>
<rscale>  0 0.15422923E+04</rscale>
<asrwt>0</asrwt>
<pdfrwt beam="1">  1        2 0.30082493E+00 0.15422923E+04</pdfrwt>
<pdfrwt beam="2">  1       -2 0.46787825E-01 0.15422923E+04</pdfrwt>
<totfact> 0.29511048E+01</totfact>
</mgrwt>
</event>
<event>
 6    1  0.3017327E-006  0.2466212E+04  0.7818608E-02  0.8415122E-01
         -2   -1    0    0    0  501 -0.00000000000E+00  0.00000000000E+00  0.64116630324E+03  0.64116630324E+03  0.00000000000E+00 0.  1.
          2   -1    0    0  501    0  0.00000000000E+00 -0.00000000000E+00 -0.23715387608E+04  0.23715387608E+04  0.00000000000E+00 0. -1.
         23    2    1    2    0    0  0.80825015177E+03  0.19531906875E+03 -0.19758289424E+04  0.21457179059E+04  0.93741536225E+02 0.  0.
         13    1    3    3    0    0  0.34011966663E+03  0.10036143631E+03 -0.73351056801E+03  0.81473404182E+03  0.00000000000E+00 0. -1.
        -13    1    3    3    0    0  0.46813048514E+03  0.94957632438E+02 -0.12423183744E+04  0.13309838641E+04  0.00000000000E+00 0.  1.
         22    1    1    2    0    0 -0.80825015177E+03 -0.19531906875E+03  0.24545648482E+03  0.86698715815E+03  0.00000000000E+00 0.  1.
<mgrwt>
<rscale>  0 0.24662123E+04</rscale>
<asrwt>0</asrwt>
<pdfrwt beam="1">  1        2 0.36485212E+00 0.24662123E+04</pdfrwt>
<pdfrwt beam="2">  1       -2 0.98640968E-01 0.24662123E+04</pdfrwt>
<totfact> 0.31489830E+00</totfact>
</mgrwt>
</event>
<event>
 6    1  0.3017327E-006  0.4933974E+04  0.7818608E-02  0.7838774E-01
         -2   -1    0    0    0  501 -0.00000000000E+00  0.00000000000E+00  0.24288684727E+04  0.24288684727E+04  0.00000000000E+00 0.  1.
          2   -1    0    0  501    0  0.00000000000E+00 -0.00000000000E+00 -0.25057034529E+04  0.25057034529E+04  0.00000000000E+00 0. -1.
         23    2    1    2    0    0 -0.14515057465E+04 -0.10557906926E+04  0.16530140870E+04  0.24417942151E+04  0.91326330086E+02 0.  0.
         11    1    3    3    0    0 -0.66318930048E+03 -0.53834214742E+03  0.79341863080E+03  0.11658239317E+04  0.00000000000E+00 0. -1.
        -11    1    3    3    0    0 -0.78831644598E+03 -0.51744854518E+03  0.85959545619E+03  0.12759702834E+04  0.00000000000E+00 0.  1.
         22    1    1    2    0    0  0.14515057465E+04  0.10557906926E+04 -0.17298490672E+04  0.24927777105E+04  0.00000000000E+00 0. -1.
<mgrwt>
<rscale>  0 0.49339737E+04</rscale>
<asrwt>0</asrwt>
<pdfrwt beam="1">  1        2 0.38549284E+00 0.49339737E+04</pdfrwt>
<pdfrwt beam="2">  1       -2 0.37367207E+00 0.49339737E+04</pdfrwt>
<totfact> 0.27810782E-02</totfact>
</mgrwt>
</event>
<event>
 6    1  0.3017327E-006  0.6946351E+03  0.7818608E-02  0.9726451E-01
          2   -1    0    0  501    0  0.00000000000E+00  0.00000000000E+00  0.67908822806E+03  0.67908822806E+03  0.00000000000E+00 0. -1.
         -2   -1    0    0    0  501 -0.00000000000E+00 -0.00000000000E+00 -0.17763446256E+03  0.17763446256E+03  0.00000000000E+00 0.  1.
         23    2    1    2    0    0  0.24466351238E+03  0.10636989016E+03 -0.75065499950E+01  0.28207898312E+03  0.91309455177E+02 0.  0.
         11    1    3    3    0    0  0.17358134189E+03  0.52860300898E+02  0.32818301742E+02  0.18439559266E+03  0.00000000000E+00 0. -1.
        -11    1    3    3    0    0  0.71082170485E+02  0.53509589265E+02 -0.40324851737E+02  0.97683390460E+02  0.00000000000E+00 0.  1.
         22    1    1    2    0    0 -0.24466351238E+03 -0.10636989016E+03  0.50896031549E+03  0.57464370750E+03  0.00000000000E+00 0. -1.
<mgrwt>
<rscale>  0 0.69463508E+03</rscale>
<asrwt>0</asrwt>
<pdfrwt beam="1">  1        2 0.10447511E+00 0.69463508E+03</pdfrwt>
<pdfrwt beam="2">  1       -2 0.27328379E-01 0.69463508E+03</pdfrwt>
<totfact> 0.52182104E+02</totfact>
</mgrwt>
</event>
<event>
 6    1  0.3017327E-006  0.2808174E+04  0.7818608E-02  0.8300735E-01
          2   -1    0    0  501    0  0.00000000000E+00  0.00000000000E+00  0.96564843421E+03  0.96564843421E+03  0.00000000000E+00 0. -1.
         -2   -1    0    0    0  501 -0.00000000000E+00 -0.00000000000E+00 -0.20415928230E+04  0.20415928230E+04  0.00000000000E+00 0.  1.
         23    2    1    2    0    0  0.10010041998E+04  0.91509264497E+03 -0.15550079400E+03  0.13681499333E+04  0.90828333510E+02 0.  0.
         13    1    3    3    0    0  0.17678269816E+03  0.18667117908E+03 -0.60251007344E+02  0.26406142345E+03  0.00000000000E+00 0. -1.
        -13    1    3    3    0    0  0.82422150164E+03  0.72842146589E+03 -0.95249786659E+02  0.11040885099E+04  0.00000000000E+00 0.  1.
         22    1    1    2    0    0 -0.10010041998E+04 -0.91509264497E+03 -0.92044359479E+03  0.16390913239E+04  0.00000000000E+00 0.  1.
<mgrwt>
<rscale>  0 0.28081744E+04</rscale>
<asrwt>0</asrwt>
<pdfrwt beam="1">  1        2 0.14856130E+00 0.28081744E+04</pdfrwt>
<pdfrwt beam="2">  1       -2 0.31409120E+00 0.28081744E+04</pdfrwt>
<totfact> 0.60040620E-01</totfact>
</mgrwt>
</event>
<event>
 6    1  0.3017327E-006  0.9396085E+03  0.7818608E-02  0.9377380E-01
          2   -1    0    0  501    0  0.00000000000E+00  0.00000000000E+00  0.15505949978E+04  0.15505949978E+04  0.00000000000E+00 0. -1.
         -2   -1    0    0    0  501 -0.00000000000E+00 -0.00000000000E+00 -0.14234280230E+03  0.14234280230E+03  0.00000000000E+00 0.  1.
         23    2    1    2    0    0 -0.27742763038E+02 -0.38212500794E+03  0.11872230861E+04  0.12506222455E+04  0.88137179175E+02 0.  0.
         11    1    3    3    0    0 -0.17201362290E+01 -0.20977263220E+03  0.51307076222E+03  0.55430057111E+03  0.00000000000E+00 0.  1.
        -11    1    3    3    0    0 -0.26022626809E+02 -0.17235237573E+03  0.67415232385E+03  0.69632167443E+03  0.00000000000E+00 0. -1.
         22    1    1    2    0    0  0.27742763038E+02  0.38212500794E+03  0.22102910944E+03  0.44231555456E+03  0.00000000000E+00 0.  1.
<mgrwt>
<rscale>  0 0.93960851E+03</rscale>
<asrwt>0</asrwt>
<pdfrwt beam="1">  1        2 0.23855307E+00 0.93960851E+03</pdfrwt>
<pdfrwt beam="2">  1       -2 0.21898894E-01 0.93960851E+03</pdfrwt>
<totfact> 0.21661321E+02</totfact>
</mgrwt>
</event>
<event>
 6    1  0.3017327E-006  0.2649801E+04  0.7818608E-02  0.8351479E-01
          2   -1    0    0  501    0  0.00000000000E+00  0.00000000000E+00  0.21009717911E+04  0.21009717911E+04  0.00000000000E+00 0. -1.
         -2   -1    0    0    0  501 -0.00000000000E+00 -0.00000000000E+00 -0.83549944111E+03  0.83549944111E+03  0.00000000000E+00 0.  1.
         23    2    1    2    0    0  0.20595040771E+03  0.61150142553E+02  0.20805248934E+04  0.20935800418E+04  0.91316203789E+02 0.  0.
         11    1    3    3    0    0  0.11601916913E+03 -0.11052625737E+02  0.92464448616E+03  0.93196031778E+03  0.00000000000E+00 0. -1.
        -11    1    3    3    0    0  0.89931238583E+02  0.72202768290E+02  0.11558804072E+04  0.11616197240E+04  0.00000000000E+00 0.  1.
         22    1    1    2    0    0 -0.20595040771E+03 -0.61150142553E+02 -0.81505254339E+03  0.84289119040E+03  0.00000000000E+00 0.  1.
<mgrwt>
<rscale>  0 0.26498006E+04</rscale>
<asrwt>0</asrwt>
<pdfrwt beam="1">  1        2 0.32322643E+00 0.26498006E+04</pdfrwt>
<pdfrwt beam="2">  1       -2 0.12853838E+00 0.26498006E+04</pdfrwt>
<totfact> 0.23103703E+00</totfact>
</mgrwt>
</event>
<event>
 6    1  0.3017327E-006  0.1537306E+04  0.7818608E-02  0.8860017E-01
          2   -1    0    0  501    0  0.00000000000E+00  0.00000000000E+00  0.20832394412E+04  0.20832394412E+04  0.00000000000E+00 0.  1.
         -2   -1    0    0    0  501 -0.00000000000E+00 -0.00000000000E+00 -0.28361005391E+03  0.28361005391E+03  0.00000000000E+00 0. -1.
         23    2    1    2    0    0 -0.62452974587E+03  0.93027355021E+01  0.22044447100E+03  0.66863014997E+03  0.91359555009E+02 0.  0.
         11    1    3    3    0    0 -0.11988743925E+03  0.29125025947E+01  0.82084947514E+02  0.14532521932E+03  0.00000000000E+00 0.  1.
        -11    1    3    3    0    0 -0.50464230661E+03  0.63902329074E+01  0.13835952349E+03  0.52330493065E+03  0.00000000000E+00 0. -1.
         22    1    1    2    0    0  0.62452974587E+03 -0.93027355021E+01  0.15791849163E+04  0.16982193452E+04  0.00000000000E+00 0.  1.
<mgrwt>
<rscale>  0 0.15373063E+04</rscale>
<asrwt>0</asrwt>
<pdfrwt beam="1">  1        2 0.32049837E+00 0.15373063E+04</pdfrwt>
<pdfrwt beam="2">  1       -2 0.43632317E-01 0.15373063E+04</pdfrwt>
<totfact> 0.28829312E+01</totfact>
</mgrwt>
</event>
<event>
 6    1  0.3017327E-006  0.2760338E+04  0.7818608E-02  0.8315689E-01
         -2   -1    0    0    0  501 -0.00000000000E+00  0.00000000000E+00  0.58077383707E+03  0.58077383707E+03  0.00000000000E+00 0.  1.
          2   -1    0    0  501    0  0.00000000000E+00 -0.00000000000E+00 -0.32798763297E+04  0.32798763297E+04  0.00000000000E+00 0. -1.
         23    2    1    2    0    0  0.48130409669E+03 -0.11912587311E+04 -0.20502915250E+04  0.24213077233E+04  0.91020630928E+02 0.  0.
         11    1    3    3    0    0  0.44909096612E+03 -0.10661979233E+04 -0.18822818029E+04  0.22093993512E+04  0.00000000000E+00 0. -1.
        -11    1    3    3    0    0  0.32213130565E+02 -0.12506080781E+03 -0.16800972212E+03  0.21190837208E+03  0.00000000000E+00 0.  1.
         22    1    1    2    0    0 -0.48130409669E+03  0.11912587311E+04 -0.64881096759E+03  0.14393424435E+04  0.00000000000E+00 0.  1.
<mgrwt>
<rscale>  0 0.27603379E+04</rscale>
<asrwt>0</asrwt>
<pdfrwt beam="1">  1        2 0.50459636E+00 0.27603379E+04</pdfrwt>
<pdfrwt beam="2">  1       -2 0.89349820E-01 0.27603379E+04</pdfrwt>
<totfact> 0.10774479E+00</totfact>
</mgrwt>
</event>
<event>
 6    1  0.3017327E-006  0.5420939E+04  0.7818608E-02  0.7766663E-01
          2   -1    0    0  501    0  0.00000000000E+00  0.00000000000E+00  0.24998594374E+04  0.24998594374E+04  0.00000000000E+00 0. -1.
         -2   -1    0    0    0  501 -0.00000000000E+00 -0.00000000000E+00 -0.29388236604E+04  0.29388236604E+04  0.00000000000E+00 0.  1.
         23    2    1    2    0    0  0.25100704727E+04  0.81046900758E+03  0.40309007800E+03  0.26698621871E+04  0.91480581370E+02 0.  0.
         11    1    3    3    0    0  0.87175670688E+03  0.23590497269E+03  0.13956510538E+03  0.91383222244E+03  0.00000000000E+00 0.  1.
        -11    1    3    3    0    0  0.16383137658E+04  0.57456403489E+03  0.26352497262E+03  0.17560299646E+04  0.00000000000E+00 0. -1.
         22    1    1    2    0    0 -0.25100704727E+04 -0.81046900758E+03 -0.84205430094E+03  0.27688209108E+04  0.00000000000E+00 0.  1.
<mgrwt>
<rscale>  0 0.54209394E+04</rscale>
<asrwt>0</asrwt>
<pdfrwt beam="1">  1        2 0.38459376E+00 0.54209394E+04</pdfrwt>
<pdfrwt beam="2">  1       -2 0.45212672E+00 0.54209394E+04</pdfrwt>
<totfact> 0.82713638E-03</totfact>
</mgrwt>
</event>
<event>
 6    1  0.3017327E-006  0.2211175E+04  0.7818608E-02  0.8513791E-01
         -2   -1    0    0    0  501 -0.00000000000E+00  0.00000000000E+00  0.60276913588E+03  0.60276913588E+03  0.00000000000E+00 0.  1.
          2   -1    0    0  501    0  0.00000000000E+00 -0.00000000000E+00 -0.20278473414E+04  0.20278473414E+04  0.00000000000E+00 0. -1.
         23    2    1    2    0    0 -0.21959745388E+03  0.34494581130E+03 -0.19333658998E+04  0.19782614861E+04  0.91674152866E+02 0.  0.
         11    1    3    3    0    0 -0.13407310816E+03  0.28196659183E+03 -0.14885402288E+04  0.15209315467E+04  0.00000000000E+00 0. -1.
        -11    1    3    3    0    0 -0.85524345719E+02  0.62979219470E+02 -0.44482567103E+03  0.45732993932E+03  0.00000000000E+00 0.  1.
         22    1    1    2    0    0  0.21959745388E+03 -0.34494581130E+03  0.50828769423E+03  0.65235499124E+03  0.00000000000E+00 0.  1.
<mgrwt>
<rscale>  0 0.22111751E+04</rscale>
<asrwt>0</asrwt>
<pdfrwt beam="1">  1        2 0.31197651E+00 0.22111751E+04</pdfrwt>
<pdfrwt beam="2">  1       -2 0.92733713E-01 0.22111751E+04</pdfrwt>
<totfact> 0.58043059E+00</totfact>
</mgrwt>
</event>
<event>
 6    1  0.3017327E-006  0.1870572E+04  0.7818608E-02  0.8669645E-01
          1   -1    0    0  501    0  0.00000000000E+00  0.00000000000E+00  0.19803288724E+04  0.19803288724E+04  0.00000000000E+00 0. -1.
         -1   -1    0    0    0  501 -0.00000000000E+00 -0.00000000000E+00 -0.44172435304E+03  0.44172435304E+03  0.00000000000E+00 0.  1.
         23    2    1    2    0    0  0.59567749798E+03 -0.33155368408E+03 -0.53810145035E+02  0.68984538848E+03  0.90728172389E+02 0.  0.
         13    1    3    3    0    0  0.26768369461E+03 -0.10371231089E+03 -0.43487223909E+02  0.29034796785E+03  0.00000000000E+00 0.  1.
        -13    1    3    3    0    0  0.32799380337E+03 -0.22784137319E+03 -0.10322921126E+02  0.39949742063E+03  0.00000000000E+00 0. -1.
         22    1    1    2    0    0 -0.59567749798E+03  0.33155368408E+03  0.15924146644E+04  0.17322078369E+04  0.00000000000E+00 0. -1.
<mgrwt>
<rscale>  0 0.18705716E+04</rscale>
<asrwt>0</asrwt>
<pdfrwt beam="1">  1        1 0.30466598E+00 0.18705716E+04</pdfrwt>
<pdfrwt beam="2">  1       -1 0.67957594E-01 0.18705716E+04</pdfrwt>
<totfact> 0.63192576E+00</totfact>
</mgrwt>
</event>
<event>
 6    1  0.3017327E-006  0.1381630E+04  0.7818608E-02  0.8967224E-01
          2   -1    0    0  501    0  0.00000000000E+00  0.00000000000E+00  0.38954416905E+04  0.38954416905E+04  0.00000000000E+00 0. -1.
         -2   -1    0    0    0  501 -0.00000000000E+00 -0.00000000000E+00 -0.12250868009E+03  0.12250868009E+03  0.00000000000E+00 0.  1.
         23    2    1    2    0    0  0.10075920812E+03 -0.66548323147E+03  0.14799327669E+04  0.16282076091E+04  0.88536288503E+02 0.  0.
         13    1    3    3    0    0  0.92270495237E+02 -0.34062461188E+03  0.72632809781E+03  0.80752181158E+03  0.00000000000E+00 0. -1.
        -13    1    3    3    0    0  0.84887128824E+01 -0.32485861959E+03  0.75360466906E+03  0.82068579749E+03  0.00000000000E+00 0.  1.
         22    1    1    2    0    0 -0.10075920812E+03  0.66548323147E+03  0.22930002435E+04  0.23897427615E+04  0.00000000000E+00 0.  1.
<mgrwt>
<rscale>  0 0.13816301E+04</rscale>
<asrwt>0</asrwt>
<pdfrwt beam="1">  1        2 0.59929863E+00 0.13816301E+04</pdfrwt>
<pdfrwt beam="2">  1       -2 0.18847492E-01 0.13816301E+04</pdfrwt>
<totfact> 0.98377626E+00</totfact>
</mgrwt>
</event>
<event>
 6    1  0.3017327E-006  0.2790690E+04  0.7818608E-02  0.8306165E-01
          2   -1    0    0  501    0  0.00000000000E+00  0.00000000000E+00  0.91673053974E+03  0.91673053974E+03  0.00000000000E+00 0. -1.
         -2   -1    0    0    0  501 -0.00000000000E+00 -0.00000000000E+00 -0.21238384914E+04  0.21238384914E+04  0.00000000000E+00 0.  1.
         23    2    1    2    0    0 -0.30840782208E+03  0.61865600889E+03 -0.19229298962E+04  0.20454551189E+04  0.91523852959E+02 0.  0.
         11    1    3    3    0    0 -0.75225611659E+02  0.23465017434E+03 -0.74922188997E+03  0.78870338998E+03  0.00000000000E+00 0. -1.
        -11    1    3    3    0    0 -0.23318221042E+03  0.38400583455E+03 -0.11737080062E+04  0.12567517289E+04  0.00000000000E+00 0.  1.
         22    1    1    2    0    0  0.30840782208E+03 -0.61865600889E+03  0.71582194454E+03  0.99511391225E+03  0.00000000000E+00 0. -1.
<mgrwt>
<rscale>  0 0.27906900E+04</rscale>
<asrwt>0</asrwt>
<pdfrwt beam="1">  1        2 0.14103547E+00 0.27906900E+04</pdfrwt>
<pdfrwt beam="2">  1       -2 0.32674438E+00 0.27906900E+04</pdfrwt>
<totfact> 0.54107207E-01</totfact>
</mgrwt>
</event>
<event>
 6    1  0.3017327E-006  0.1040691E+04  0.7818608E-02  0.9265008E-01
         -2   -1    0    0    0  501 -0.00000000000E+00  0.00000000000E+00  0.19891420055E+03  0.19891420055E+03  0.00000000000E+00 0.  1.
          2   -1    0    0  501    0  0.00000000000E+00 -0.00000000000E+00 -0.13611861560E+04  0.13611861560E+04  0.00000000000E+00 0. -1.
         23    2    1    2    0    0 -0.58145583260E+02  0.25479405848E+03  0.81528021884E+02  0.28914036320E+03  0.93029082471E+02 0.  0.
         11    1    3    3    0    0  0.17497136259E+02  0.69077223557E+02 -0.34614872061E+01  0.71342795609E+02  0.00000000000E+00 0.  1.
        -11    1    3    3    0    0 -0.75642719519E+02  0.18571683493E+03  0.84989509090E+02  0.21779756759E+03  0.00000000000E+00 0. -1.
         22    1    1    2    0    0  0.58145583260E+02 -0.25479405848E+03 -0.12437999774E+04  0.12709599934E+04  0.00000000000E+00 0. -1.
<mgrwt>
<rscale>  0 0.10406906E+04</rscale>
<asrwt>0</asrwt>
<pdfrwt beam="1">  1        2 0.20941325E+00 0.10406906E+04</pdfrwt>
<pdfrwt beam="2">  1       -2 0.30602186E-01 0.10406906E+04</pdfrwt>
<totfact> 0.14976606E+02</totfact>
</mgrwt>
</event>
<event>
 6    1  0.3017327E-006  0.2341813E+04  0.7818608E-02  0.8461615E-01
          2   -1    0    0  501    0  0.00000000000E+00  0.00000000000E+00  0.33964903419E+04  0.33964903419E+04  0.00000000000E+00 0. -1.
         -2   -1    0    0    0  501 -0.00000000000E+00 -0.00000000000E+00 -0.40365859085E+03  0.40365859085E+03  0.00000000000E+00 0.  1.
         23    2    1    2    0    0 -0.69984347268E+03  0.19778780119E+03  0.29840802829E+04  0.30728405465E+04  0.93343391812E+02 0.  0.
         13    1    3    3    0    0 -0.60053622588E+03  0.14530267626E+03  0.24153946303E+04  0.24931682347E+04  0.00000000000E+00 0.  1.
        -13    1    3    3    0    0 -0.99307246799E+02  0.52485124938E+02  0.56868565263E+03  0.57967231184E+03  0.00000000000E+00 0. -1.
         22    1    1    2    0    0  0.69984347268E+03 -0.19778780119E+03  0.87514681587E+01  0.72730838628E+03  0.00000000000E+00 0.  1.
<mgrwt>
<rscale>  0 0.23418134E+04</rscale>
<asrwt>0</asrwt>
<pdfrwt beam="1">  1        2 0.52253696E+00 0.23418134E+04</pdfrwt>
<pdfrwt beam="2">  1       -2 0.62101324E-01 0.23418134E+04</pdfrwt>
<totfact> 0.20891954E+00</totfact>
</mgrwt>
</event>
<event>
 6    1  0.3017327E-006  0.3699434E+04  0.7818608E-02  0.8068087E-01
         -2   -1    0    0    0  501 -0.00000000000E+00  0.00000000000E+00  0.97888715691E+03  0.97888715691E+03  0.00000000000E+00 0.  1.
          2   -1    0    0  501    0  0.00000000000E+00 -0.00000000000E+00 -0.34952483716E+04  0.34952483716E+04  0.00000000000E+00 0. -1.
         23    2    1    2    0    0 -0.57643027384E+03 -0.13312171958E+03 -0.33770745911E+04  0.34297118745E+04  0.91090591077E+02 0.  0.
         13    1    3    3    0    0 -0.29450250153E+03 -0.11242432616E+03 -0.18603799034E+04  0.18868980729E+04  0.00000000000E+00 0. -1.
        -13    1    3    3    0    0 -0.28192777231E+03 -0.20697393426E+02 -0.15166946877E+04  0.15428138016E+04  0.00000000000E+00 0.  1.
         22    1    1    2    0    0  0.57643027384E+03  0.13312171958E+03  0.86071337636E+03  0.10444236540E+04  0.00000000000E+00 0. -1.
<mgrwt>
<rscale>  0 0.36994344E+04</rscale>
<asrwt>0</asrwt>
<pdfrwt beam="1">  1        2 0.53773051E+00 0.36994344E+04</pdfrwt>
<pdfrwt beam="2">  1       -2 0.15059803E+00 0.36994344E+04</pdfrwt>
<totfact> 0.19601259E-01</totfact>
</mgrwt>
</event>
<event>
 6    1  0.3017327E-006  0.1991094E+04  0.7818608E-02  0.8610796E-01
         -2   -1    0    0    0  501 -0.00000000000E+00  0.00000000000E+00  0.38873375685E+03  0.38873375685E+03  0.00000000000E+00 0.  1.
          2   -1    0    0  501    0  0.00000000000E+00 -0.00000000000E+00 -0.25495966174E+04  0.25495966174E+04  0.00000000000E+00 0. -1.
         23    2    1    2    0    0  0.23707594228E+03 -0.69746210746E+03 -0.99287148199E+02  0.74909470592E+03  0.92879205934E+02 0.  0.
         11    1    3    3    0    0  0.52801225571E+02 -0.20506391930E+03  0.10465527723E+02  0.21201110276E+03  0.00000000000E+00 0.  1.
        -11    1    3    3    0    0  0.18427471671E+03 -0.49239818815E+03 -0.10975267592E+03  0.53708360316E+03  0.00000000000E+00 0. -1.
         22    1    1    2    0    0 -0.23707594228E+03  0.69746210746E+03 -0.20615757123E+04  0.21892356683E+04  0.00000000000E+00 0. -1.
<mgrwt>
<rscale>  0 0.19910944E+04</rscale>
<asrwt>0</asrwt>
<pdfrwt beam="1">  1        2 0.39224565E+00 0.19910944E+04</pdfrwt>
<pdfrwt beam="2">  1       -2 0.59805191E-01 0.19910944E+04</pdfrwt>
<totfact> 0.79031276E+00</totfact>
</mgrwt>
</event>
<event>
 6    1  0.3017327E-006  0.5102436E+04  0.7818608E-02  0.7812897E-01
          2   -1    0    0  501    0  0.00000000000E+00  0.00000000000E+00  0.50659835969E+04  0.50659835969E+04  0.00000000000E+00 0. -1.
         -2   -1    0    0    0  501 -0.00000000000E+00 -0.00000000000E+00 -0.12847877753E+04  0.12847877753E+04  0.00000000000E+00 0.  1.
         23    2    1    2    0    0  0.33869505732E+03 -0.25192418042E+04  0.16323608365E+04  0.30222904270E+04  0.91345031727E+02 0.  0.
         13    1    3    3    0    0  0.24089944282E+03 -0.17541836678E+04  0.10871077992E+04  0.20777382533E+04  0.00000000000E+00 0.  1.
        -13    1    3    3    0    0  0.97795614493E+02 -0.76505813637E+03  0.54525303730E+03  0.94455217374E+03  0.00000000000E+00 0. -1.
         22    1    1    2    0    0 -0.33869505732E+03  0.25192418042E+04  0.21488349850E+04  0.33284809452E+04  0.00000000000E+00 0.  1.
<mgrwt>
<rscale>  0 0.51024362E+04</rscale>
<asrwt>0</asrwt>
<pdfrwt beam="1">  1        2 0.77938208E+00 0.51024362E+04</pdfrwt>
<pdfrwt beam="2">  1       -2 0.19765966E+00 0.51024362E+04</pdfrwt>
<totfact> 0.27549322E-03</totfact>
</mgrwt>
</event>
<event>
 6    1  0.3017327E-006  0.2807768E+04  0.7818608E-02  0.8300861E-01
          2   -1    0    0  501    0  0.00000000000E+00  0.00000000000E+00  0.23271823767E+04  0.23271823767E+04  0.00000000000E+00 0. -1.
         -2   -1    0    0    0  501 -0.00000000000E+00 -0.00000000000E+00 -0.84689961124E+03  0.84689961124E+03  0.00000000000E+00 0.  1.
         23    2    1    2    0    0  0.95012505870E+03 -0.97990705216E+03  0.37705404847E+03  0.14190694353E+04  0.92913123880E+02 0.  0.
         11    1    3    3    0    0  0.71728027216E+03 -0.68668921570E+03  0.29314540899E+03  0.10353585363E+04  0.00000000000E+00 0. -1.
        -11    1    3    3    0    0  0.23284478655E+03 -0.29321783646E+03  0.83908639474E+02  0.38371089901E+03  0.00000000000E+00 0.  1.
         22    1    1    2    0    0 -0.95012505870E+03  0.97990705216E+03  0.11032287170E+04  0.17550125527E+04  0.00000000000E+00 0. -1.
<mgrwt>
<rscale>  0 0.28077677E+04</rscale>
<asrwt>0</asrwt>
<pdfrwt beam="1">  1        2 0.35802806E+00 0.28077677E+04</pdfrwt>
<pdfrwt beam="2">  1       -2 0.13029225E+00 0.28077677E+04</pdfrwt>
<totfact> 0.16427658E+00</totfact>
</mgrwt>
</event>
<event>
 6    1  0.3017327E-006  0.2423643E+04  0.7818608E-02  0.8430705E-01
         -2   -1    0    0    0  501 -0.00000000000E+00  0.00000000000E+00  0.91964130988E+03  0.91964130988E+03  0.00000000000E+00 0.  1.
          2   -1    0    0  501    0  0.00000000000E+00 -0.00000000000E+00 -0.15968305847E+04  0.15968305847E+04  0.00000000000E+00 0. -1.
         23    2    1    2    0    0  0.85287422939E+00  0.21610705557E+03 -0.15754637202E+04  0.15925671559E+04  0.86494078379E+02 0.  0.
         13    1    3    3    0    0  0.12964916003E+02  0.16129284808E+02 -0.36918851209E+03  0.36976803584E+03  0.00000000000E+00 0.  1.
        -13    1    3    3    0    0 -0.12112041773E+02  0.19997777076E+03 -0.12062752081E+04  0.12227991201E+04  0.00000000000E+00 0. -1.
         22    1    1    2    0    0 -0.85287422939E+00 -0.21610705557E+03  0.89827444539E+03  0.92390473865E+03  0.00000000000E+00 0.  1.
<mgrwt>
<rscale>  0 0.24236430E+04</rscale>
<asrwt>0</asrwt>
<pdfrwt beam="1">  1        2 0.24566624E+00 0.24236430E+04</pdfrwt>
<pdfrwt beam="2">  1       -2 0.14148328E+00 0.24236430E+04</pdfrwt>
<totfact> 0.35123011E+00</totfact>
</mgrwt>
</event>
<event>
 6    1  0.3017327E-006  0.2892858E+04  0.7818608E-02  0.8275006E-01
          2   -1    0    0  501    0  0.00000000000E+00  0.00000000000E+00  0.19436865585E+04  0.19436865585E+04  0.00000000000E+00 0. -1.
         -2   -1    0    0    0  501 -0.00000000000E+00 -0.00000000000E+00 -0.10763856082E+04  0.10763856082E+04  0.00000000000E+00 0.  1.
         23    2    1    2    0    0  0.98896042714E+03 -0.21503382701E+03 -0.64270843626E+03  0.12022683762E+04  0.89960219370E+02 0.  0.
         11    1    3    3    0    0  0.49614316865E+03 -0.13993348820E+03 -0.36490449087E+03  0.63158112098E+03  0.00000000000E+00 0. -1.
        -11    1    3    3    0    0  0.49281725849E+03 -0.75100338809E+02 -0.27780394539E+03  0.57068725518E+03  0.00000000000E+00 0.  1.
         22    1    1    2    0    0 -0.98896042714E+03  0.21503382701E+03  0.15100093866E+04  0.18178037905E+04  0.00000000000E+00 0. -1.
<mgrwt>
<rscale>  0 0.28928576E+04</rscale>
<asrwt>0</asrwt>
<pdfrwt beam="1">  1        2 0.29902870E+00 0.28928576E+04</pdfrwt>
<pdfrwt beam="2">  1       -2 0.16559779E+00 0.28928576E+04</pdfrwt>
<totfact> 0.14215659E+00</totfact>
</mgrwt>
</event>
<event>
 6    1  0.3017327E-006  0.1759383E+04  0.7818608E-02  0.8728203E-01
         -2   -1    0    0    0  501 -0.00000000000E+00  0.00000000000E+00  0.10511478650E+04  0.10511478650E+04  0.00000000000E+00 0.  1.
          2   -1    0    0  501    0  0.00000000000E+00 -0.00000000000E+00 -0.73620176532E+03  0.73620176532E+03  0.00000000000E+00 0. -1.
         23    2    1    2    0    0  0.71588815296E+03 -0.47103367563E+03  0.34911087020E+03  0.92971579084E+03  0.90135902502E+02 0.  0.
         11    1    3    3    0    0  0.43668896816E+03 -0.25963762340E+03  0.16563587324E+03  0.53436335288E+03  0.00000000000E+00 0.  1.
        -11    1    3    3    0    0  0.27919918481E+03 -0.21139605223E+03  0.18347499696E+03  0.39535243797E+03  0.00000000000E+00 0. -1.
         22    1    1    2    0    0 -0.71588815296E+03  0.47103367563E+03 -0.34164770491E+02  0.85763383951E+03  0.00000000000E+00 0.  1.
<mgrwt>
<rscale>  0 0.17593827E+04</rscale>
<asrwt>0</asrwt>
<pdfrwt beam="1">  1        2 0.11326181E+00 0.17593827E+04</pdfrwt>
<pdfrwt beam="2">  1       -2 0.16171506E+00 0.17593827E+04</pdfrwt>
<totfact> 0.88959991E+00</totfact>
</mgrwt>
</event>
<event>
 6    1  0.3017327E-006  0.6245853E+04  0.7818608E-02  0.7660645E-01
          2   -1    0    0  501    0  0.00000000000E+00  0.00000000000E+00  0.20770101458E+04  0.20770101458E+04  0.00000000000E+00 0. -1.
         -2   -1    0    0    0  501 -0.00000000000E+00 -0.00000000000E+00 -0.46955324584E+04  0.46955324584E+04  0.00000000000E+00 0.  1.
         23    2    1    2    0    0  0.11258999527E+04  0.13637989710E+04  0.14806058289E+04  0.23081893636E+04  0.89141351407E+02 0.  0.
         11    1    3    3    0    0  0.13107504356E+03  0.12354404846E+03  0.17054979410E+03  0.24805449245E+03  0.00000000000E+00 0.  1.
        -11    1    3    3    0    0  0.99482490910E+03  0.12402549226E+04  0.13100560348E+04  0.20601348711E+04  0.00000000000E+00 0. -1.
         22    1    1    2    0    0 -0.11258999527E+04 -0.13637989710E+04 -0.40991281415E+04  0.44643532407E+04  0.00000000000E+00 0.  1.
<mgrwt>
<rscale>  0 0.62458526E+04</rscale>
<asrwt>0</asrwt>
<pdfrwt beam="1">  1        2 0.31954002E+00 0.62458526E+04</pdfrwt>
<pdfrwt beam="2">  1       -2 0.72238961E+00 0.62458526E+04</pdfrwt>
<totfact> 0.76308699E-04</totfact>
</mgrwt>
</event>
<event>
 6    1  0.3017327E-006  0.3414956E+04  0.7818608E-02  0.8134245E-01
         -2   -1    0    0    0  501 -0.00000000000E+00  0.00000000000E+00  0.16436095493E+04  0.16436095493E+04  0.00000000000E+00 0.  1.
          2   -1    0    0  501    0  0.00000000000E+00 -0.00000000000E+00 -0.17738285697E+04  0.17738285697E+04  0.00000000000E+00 0. -1.
         23    2    1    2    0    0  0.16776204556E+04  0.24720132743E+03 -0.25462951070E+03  0.17171449503E+04  0.90728734758E+02 0.  0.
         11    1    3    3    0    0  0.48067043176E+03  0.42306586199E+02 -0.10246862301E+03  0.49328868820E+03  0.00000000000E+00 0. -1.
        -11    1    3    3    0    0  0.11969500239E+04  0.20489474123E+03 -0.15216088769E+03  0.12238562621E+04  0.00000000000E+00 0.  1.
         22    1    1    2    0    0 -0.16776204556E+04 -0.24720132743E+03  0.12441049028E+03  0.17002931687E+04  0.00000000000E+00 0.  1.
<mgrwt>
<rscale>  0 0.34149563E+04</rscale>
<asrwt>0</asrwt>
<pdfrwt beam="1">  1        2 0.27289670E+00 0.34149563E+04</pdfrwt>
<pdfrwt beam="2">  1       -2 0.25286301E+00 0.34149563E+04</pdfrwt>
<totfact> 0.45559409E-01</totfact>
</mgrwt>
</event>
<event>
 6    1  0.3017327E-006  0.1656943E+04  0.7818608E-02  0.8786310E-01
          2   -1    0    0  501    0  0.00000000000E+00  0.00000000000E+00  0.23378127765E+04  0.23378127765E+04  0.00000000000E+00 0. -1.
         -2   -1    0    0    0  501 -0.00000000000E+00 -0.00000000000E+00 -0.29359265498E+03  0.29359265498E+03  0.00000000000E+00 0.  1.
         23    2    1    2    0    0  0.48936535543E+03  0.66518568620E+03  0.10488248473E+04  0.13380523474E+04  0.91651927206E+02 0.  0.
         11    1    3    3    0    0  0.74068728602E+02  0.15353280004E+03  0.24827606171E+03  0.30116357693E+03  0.00000000000E+00 0.  1.
        -11    1    3    3    0    0  0.41529662683E+03  0.51165288616E+03  0.80054878563E+03  0.10368887705E+04  0.00000000000E+00 0. -1.
         22    1    1    2    0    0 -0.48936535543E+03 -0.66518568620E+03  0.99539527418E+03  0.12933530841E+04  0.00000000000E+00 0. -1.
<mgrwt>
<rscale>  0 0.16569426E+04</rscale>
<asrwt>0</asrwt>
<pdfrwt beam="1">  1        2 0.35966349E+00 0.16569426E+04</pdfrwt>
<pdfrwt beam="2">  1       -2 0.45168102E-01 0.16569426E+04</pdfrwt>
<totfact> 0.19169045E+01</totfact>
</mgrwt>
</event>
<event>
 6    1  0.3017327E-006  0.1471816E+04  0.7818608E-02  0.8903415E-01
          2   -1    0    0  501    0  0.00000000000E+00  0.00000000000E+00  0.20770229970E+04  0.20770229970E+04  0.00000000000E+00 0. -1.
         -2   -1    0    0    0  501 -0.00000000000E+00 -0.00000000000E+00 -0.26073870752E+03  0.26073870752E+03  0.00000000000E+00 0.  1.
         23    2    1    2    0    0 -0.43580427374E+03 -0.15766895934E+03  0.18138991070E+04  0.18743066853E+04  0.89502596341E+02 0.  0.
         13    1    3    3    0    0 -0.31424852546E+03 -0.14753994248E+03  0.12462246567E+04  0.12936754096E+04  0.00000000000E+00 0. -1.
        -13    1    3    3    0    0 -0.12155574827E+03 -0.10129016868E+02  0.56767445021E+03  0.58063127572E+03  0.00000000000E+00 0.  1.
         22    1    1    2    0    0  0.43580427374E+03  0.15766895934E+03  0.23851825724E+01  0.46345501922E+03  0.00000000000E+00 0.  1.
<mgrwt>
<rscale>  0 0.14718156E+04</rscale>
<asrwt>0</asrwt>
<pdfrwt beam="1">  1        2 0.31954199E+00 0.14718156E+04</pdfrwt>
<pdfrwt beam="2">  1       -2 0.40113649E-01 0.14718156E+04</pdfrwt>
<totfact> 0.34488444E+01</totfact>
</mgrwt>
</event>
<event>
 6    1  0.3017327E-006  0.3314360E+04  0.7818608E-02  0.8159251E-01
         -2   -1    0    0    0  501 -0.00000000000E+00  0.00000000000E+00  0.30115678598E+04  0.30115678598E+04  0.00000000000E+00 0.  1.
          2   -1    0    0  501    0  0.00000000000E+00 -0.00000000000E+00 -0.91189905149E+03  0.91189905149E+03  0.00000000000E+00 0. -1.
         23    2    1    2    0    0  0.28637618795E+03 -0.10465850984E+04 -0.43028421553E+03  0.11706476306E+04  0.88992581982E+02 0.  0.
         11    1    3    3    0    0  0.45307454028E+02 -0.97174833215E+02 -0.63998431688E+02  0.12486597959E+03  0.00000000000E+00 0.  1.
        -11    1    3    3    0    0  0.24106873392E+03 -0.94941026521E+03 -0.36628578384E+03  0.10457816510E+04  0.00000000000E+00 0. -1.
         22    1    1    2    0    0 -0.28637618795E+03  0.10465850984E+04  0.25299530238E+04  0.27528192807E+04  0.00000000000E+00 0.  1.
<mgrwt>
<rscale>  0 0.33143602E+04</rscale>
<asrwt>0</asrwt>
<pdfrwt beam="1">  1        2 0.14029216E+00 0.33143602E+04</pdfrwt>
<pdfrwt beam="2">  1       -2 0.46331813E+00 0.33143602E+04</pdfrwt>
<totfact> 0.67989657E-02</totfact>
</mgrwt>
</event>
<event>
 6    1  0.3017327E-006  0.1563881E+04  0.7818608E-02  0.8843049E-01
          1   -1    0    0  501    0  0.00000000000E+00  0.00000000000E+00  0.13494129951E+04  0.13494129951E+04  0.00000000000E+00 0. -1.
         -1   -1    0    0    0  501 -0.00000000000E+00 -0.00000000000E+00 -0.45310908151E+03  0.45310908151E+03  0.00000000000E+00 0.  1.
         23    2    1    2    0    0  0.19041465336E+01 -0.22713955894E+03 -0.40951004146E+03  0.47709909123E+03  0.91263704628E+02 0.  0.
         11    1    3    3    0    0 -0.57280309557E+01 -0.57494050103E+02 -0.19572707948E+03  0.20407710743E+03  0.00000000000E+00 0.  1.
        -11    1    3    3    0    0  0.76321774893E+01 -0.16964550884E+03 -0.21378296198E+03  0.27302198379E+03  0.00000000000E+00 0. -1.
         22    1    1    2    0    0 -0.19041465336E+01  0.22713955894E+03  0.13058139551E+04  0.13254229854E+04  0.00000000000E+00 0. -1.
<mgrwt>
<rscale>  0 0.15638814E+04</rscale>
<asrwt>0</asrwt>
<pdfrwt beam="1">  1        1 0.20760200E+00 0.15638814E+04</pdfrwt>
<pdfrwt beam="2">  1       -1 0.69709090E-01 0.15638814E+04</pdfrwt>
<totfact> 0.16704803E+01</totfact>
</mgrwt>
</event>
<event>
 6    1  0.3017327E-006  0.2312244E+04  0.7818608E-02  0.8473109E-01
         -1   -1    0    0    0  501 -0.00000000000E+00  0.00000000000E+00  0.70224029564E+03  0.70224029564E+03  0.00000000000E+00 0.  1.
          1   -1    0    0  501    0  0.00000000000E+00 -0.00000000000E+00 -0.19033634949E+04  0.19033634949E+04  0.00000000000E+00 0. -1.
         23    2    1    2    0    0  0.70019188128E+03  0.90757778422E+03 -0.75528509475E+03  0.13756697596E+04  0.89697313951E+02 0.  0.
         13    1    3    3    0    0  0.31610220861E+03  0.39148523756E+03 -0.38330232830E+03  0.63253614315E+03  0.00000000000E+00 0.  1.
        -13    1    3    3    0    0  0.38408967268E+03  0.51609254666E+03 -0.37198276645E+03  0.74313361646E+03  0.00000000000E+00 0. -1.
         22    1    1    2    0    0 -0.70019188128E+03 -0.90757778422E+03 -0.44583810453E+03  0.12299340309E+04  0.00000000000E+00 0.  1.
<mgrwt>
<rscale>  0 0.23122444E+04</rscale>
<asrwt>0</asrwt>
<pdfrwt beam="1">  1        1 0.29282516E+00 0.23122444E+04</pdfrwt>
<pdfrwt beam="2">  1       -1 0.10803697E+00 0.23122444E+04</pdfrwt>
<totfact> 0.24916415E+00</totfact>
</mgrwt>
</event>
<event>
 6    1  0.3017327E-006  0.7903536E+03  0.7818608E-02  0.9574086E-01
         -2   -1    0    0    0  501 -0.00000000000E+00  0.00000000000E+00  0.22600431583E+03  0.22600431583E+03  0.00000000000E+00 0.  1.
          2   -1    0    0  501    0  0.00000000000E+00 -0.00000000000E+00 -0.69098108586E+03  0.69098108586E+03  0.00000000000E+00 0. -1.
         23    2    1    2    0    0 -0.30726287014E+03  0.19610756053E+03 -0.39761572601E+03  0.54630203693E+03  0.86481230963E+02 0.  0.
         11    1    3    3    0    0 -0.12431281991E+03  0.12106445130E+03 -0.14962300548E+03  0.22912294152E+03  0.00000000000E+00 0.  1.
        -11    1    3    3    0    0 -0.18295005024E+03  0.75043109233E+02 -0.24799272053E+03  0.31717909540E+03  0.00000000000E+00 0. -1.
         22    1    1    2    0    0  0.30726287014E+03 -0.19610756053E+03 -0.67361044018E+02  0.37068336477E+03  0.00000000000E+00 0.  1.
<mgrwt>
<rscale>  0 0.79035361E+03</rscale>
<asrwt>0</asrwt>
<pdfrwt beam="1">  1        2 0.10630478E+00 0.79035361E+03</pdfrwt>
<pdfrwt beam="2">  1       -2 0.34769895E-01 0.79035361E+03</pdfrwt>
<totfact> 0.32486712E+02</totfact>
</mgrwt>
</event>
<event>
 6    1  0.3017327E-006  0.5123162E+04  0.7818608E-02  0.7809784E-01
         -2   -1    0    0    0  501 -0.00000000000E+00  0.00000000000E+00  0.32438547874E+04  0.32438547874E+04  0.00000000000E+00 0.  1.
          2   -1    0    0  501    0  0.00000000000E+00 -0.00000000000E+00 -0.20228082570E+04  0.20228082570E+04  0.00000000000E+00 0. -1.
         23    2    1    2    0    0 -0.33111772064E+03 -0.23608174965E+04  0.15720085961E+04  0.28570422095E+04  0.91547605438E+02 0.  0.
         11    1    3    3    0    0 -0.18889498770E+03 -0.14022031810E+04  0.98582098302E+03  0.17244413842E+04  0.00000000000E+00 0.  1.
        -11    1    3    3    0    0 -0.14222273295E+03 -0.95861431550E+03  0.58618761304E+03  0.11326008252E+04  0.00000000000E+00 0. -1.
         22    1    1    2    0    0  0.33111772064E+03  0.23608174965E+04 -0.35096206566E+03  0.24096208349E+04  0.00000000000E+00 0. -1.
<mgrwt>
<rscale>  0 0.51231616E+04</rscale>
<asrwt>0</asrwt>
<pdfrwt beam="1">  1        2 0.31120127E+00 0.51231616E+04</pdfrwt>
<pdfrwt beam="2">  1       -2 0.49905458E+00 0.51231616E+04</pdfrwt>
<totfact> 0.78792646E-03</totfact>
</mgrwt>
</event>
<event>
 6    1  0.4324716E-006  0.2853080E+04  0.7818608E-02  0.8286976E-01
          2   -1    0    0  501    0  0.00000000000E+00  0.00000000000E+00  0.28859956361E+04  0.28859956361E+04  0.00000000000E+00 0. -1.
         -2   -1    0    0    0  501 -0.00000000000E+00 -0.00000000000E+00 -0.70513471640E+03  0.70513471640E+03  0.00000000000E+00 0.  1.
         23    2    1    2    0    0  0.13748986706E+04  0.60423499862E+02  0.62596473737E+03  0.15146671355E+04  0.91582339526E+02 0.  0.
         11    1    3    3    0    0  0.57025871255E+03  0.19048010585E+02  0.21063440809E+03  0.60821433708E+03  0.00000000000E+00 0.  1.
        -11    1    3    3    0    0  0.80463995809E+03  0.41375489277E+02  0.41533032928E+03  0.90645279838E+03  0.00000000000E+00 0. -1.
         22    1    1    2    0    0 -0.13748986706E+04 -0.60423499862E+02  0.15548961823E+04  0.20764632170E+04  0.00000000000E+00 0.  1.
<mgrwt>
<rscale>  0 0.28530795E+04</rscale>
<asrwt>0</asrwt>
<pdfrwt beam="1">  1        2 0.44399932E+00 0.28530795E+04</pdfrwt>
<pdfrwt beam="2">  1       -2 0.10848227E+00 0.28530795E+04</pdfrwt>
<totfact> 0.12059053E+00</totfact>
</mgrwt>
</event>
<event>
 6    1  0.3017327E-006  0.1638795E+04  0.7818608E-02  0.8797063E-01
         -2   -1    0    0    0  501 -0.00000000000E+00  0.00000000000E+00  0.78256264888E+03  0.78256264888E+03  0.00000000000E+00 0.  1.
          2   -1    0    0  501    0  0.00000000000E+00 -0.00000000000E+00 -0.85796622734E+03  0.85796622734E+03  0.00000000000E+00 0. -1.
         23    2    1    2    0    0 -0.34568187827E+03 -0.59077626250E+03  0.40844714337E+03  0.80230213225E+03  0.91362405771E+02 0.  0.
         11    1    3    3    0    0 -0.15245997976E+03 -0.33223032486E+03  0.18462515319E+03  0.40952103899E+03  0.00000000000E+00 0. -1.
        -11    1    3    3    0    0 -0.19322189851E+03 -0.25854593764E+03  0.22382199018E+03  0.39278109326E+03  0.00000000000E+00 0.  1.
         22    1    1    2    0    0  0.34568187827E+03  0.59077626250E+03 -0.48385072183E+03  0.83822674397E+03  0.00000000000E+00 0. -1.
<mgrwt>
<rscale>  0 0.16387951E+04</rscale>
<asrwt>0</asrwt>
<pdfrwt beam="1">  1        2 0.13199480E+00 0.16387951E+04</pdfrwt>
<pdfrwt beam="2">  1       -2 0.12039425E+00 0.16387951E+04</pdfrwt>
<totfact> 0.15778652E+01</totfact>
</mgrwt>
</event>
<event>
 6    1  0.3017327E-006  0.3081901E+04  0.7818608E-02  0.8220723E-01
          2   -1    0    0  501    0  0.00000000000E+00  0.00000000000E+00  0.23464342368E+04  0.23464342368E+04  0.00000000000E+00 0. -1.
         -2   -1    0    0    0  501 -0.00000000000E+00 -0.00000000000E+00 -0.10119728322E+04  0.10119728322E+04  0.00000000000E+00 0.  1.
         23    2    1    2    0    0  0.92227663781E+03 -0.65618735605E+03  0.18051869920E+04  0.21325365124E+04  0.88520378713E+02 0.  0.
         11    1    3    3    0    0  0.68356330375E+03 -0.46121698599E+03  0.13754569259E+04  0.16037024828E+04  0.00000000000E+00 0.  1.
        -11    1    3    3    0    0  0.23871333406E+03 -0.19497037007E+03  0.42973006616E+03  0.52883402957E+03  0.00000000000E+00 0. -1.
         22    1    1    2    0    0 -0.92227663781E+03  0.65618735605E+03 -0.47072558745E+03  0.12258705566E+04  0.00000000000E+00 0.  1.
<mgrwt>
<rscale>  0 0.30819005E+04</rscale>
<asrwt>0</asrwt>
<pdfrwt beam="1">  1        2 0.36098988E+00 0.30819005E+04</pdfrwt>
<pdfrwt beam="2">  1       -2 0.15568813E+00 0.30819005E+04</pdfrwt>
<totfact> 0.98387475E-01</totfact>
</mgrwt>
</event>
<event>
 6    1  0.3017327E-006  0.2322554E+04  0.7818608E-02  0.8469081E-01
          2   -1    0    0  501    0  0.00000000000E+00  0.00000000000E+00  0.21432971732E+04  0.21432971732E+04  0.00000000000E+00 0. -1.
         -2   -1    0    0    0  501 -0.00000000000E+00 -0.00000000000E+00 -0.62920060796E+03  0.62920060796E+03  0.00000000000E+00 0.  1.
         23    2    1    2    0    0 -0.72257571360E+03  0.78827813257E+03  0.22257387213E+03  0.10957363363E+04  0.87183220511E+02 0.  0.
         11    1    3    3    0    0 -0.47277627922E+03  0.51338020985E+03  0.10266163456E+03  0.70541906784E+03  0.00000000000E+00 0.  1.
        -11    1    3    3    0    0 -0.24979943438E+03  0.27489792272E+03  0.11991223757E+03  0.39031726845E+03  0.00000000000E+00 0. -1.
         22    1    1    2    0    0  0.72257571360E+03 -0.78827813257E+03  0.12915226931E+04  0.16767614448E+04  0.00000000000E+00 0. -1.
<mgrwt>
<rscale>  0 0.23225537E+04</rscale>
<asrwt>0</asrwt>
<pdfrwt beam="1">  1        2 0.32973802E+00 0.23225537E+04</pdfrwt>
<pdfrwt beam="2">  1       -2 0.96800094E-01 0.23225537E+04</pdfrwt>
<totfact> 0.44844342E+00</totfact>
</mgrwt>
</event>
<event>
 6    1  0.3017327E-006  0.2082675E+04  0.7818608E-02  0.8568914E-01
         -2   -1    0    0    0  501 -0.00000000000E+00  0.00000000000E+00  0.26328560581E+03  0.26328560581E+03  0.00000000000E+00 0.  1.
          2   -1    0    0  501    0  0.00000000000E+00 -0.00000000000E+00 -0.41186614293E+04  0.41186614293E+04  0.00000000000E+00 0. -1.
         23    2    1    2    0    0  0.61285027609E+03  0.70630035858E+03 -0.28859703220E+04  0.30350273331E+04  0.90114125251E+02 0.  0.
         13    1    3    3    0    0  0.44599791737E+03  0.48397022303E+03 -0.21417381325E+04  0.22405766105E+04  0.00000000000E+00 0. -1.
        -13    1    3    3    0    0  0.16685235873E+03  0.22233013555E+03 -0.74423218947E+03  0.79445072260E+03  0.00000000000E+00 0.  1.
         22    1    1    2    0    0 -0.61285027609E+03 -0.70630035858E+03 -0.96940550150E+03  0.13469197021E+04  0.00000000000E+00 0.  1.
<mgrwt>
<rscale>  0 0.20826755E+04</rscale>
<asrwt>0</asrwt>
<pdfrwt beam="1">  1        2 0.63364018E+00 0.20826755E+04</pdfrwt>
<pdfrwt beam="2">  1       -2 0.40505480E-01 0.20826755E+04</pdfrwt>
<totfact> 0.14685592E+00</totfact>
</mgrwt>
</event>
<event>
 6    1  0.3017327E-006  0.2936336E+04  0.7818608E-02  0.8262148E-01
         -1   -1    0    0    0  501 -0.00000000000E+00  0.00000000000E+00  0.27646563323E+04  0.27646563323E+04  0.00000000000E+00 0.  1.
          1   -1    0    0  501    0  0.00000000000E+00 -0.00000000000E+00 -0.77966919745E+03  0.77966919745E+03  0.00000000000E+00 0. -1.
         23    2    1    2    0    0 -0.97262852965E+03  0.27053174316E+03  0.22778518296E+04  0.24931531319E+04  0.89498047934E+02 0.  0.
         13    1    3    3    0    0 -0.24910528917E+03  0.10079894348E+03  0.54439974808E+03  0.60711198128E+03  0.00000000000E+00 0. -1.
        -13    1    3    3    0    0 -0.72352324048E+03  0.16973279969E+03  0.17334520815E+04  0.18860411506E+04  0.00000000000E+00 0.  1.
         22    1    1    2    0    0  0.97262852965E+03 -0.27053174316E+03 -0.29286469471E+03  0.10511723979E+04  0.00000000000E+00 0. -1.
<mgrwt>
<rscale>  0 0.29363361E+04</rscale>
<asrwt>0</asrwt>
<pdfrwt beam="1">  1        1 0.11994911E+00 0.29363361E+04</pdfrwt>
<pdfrwt beam="2">  1       -1 0.42533174E+00 0.29363361E+04</pdfrwt>
<totfact> 0.94358122E-02</totfact>
</mgrwt>
</event>
<event>
 6    1  0.3017327E-006  0.1365098E+04  0.7818608E-02  0.8979477E-01
          2   -1    0    0  501    0  0.00000000000E+00  0.00000000000E+00  0.13813327171E+04  0.13813327171E+04  0.00000000000E+00 0. -1.
         -2   -1    0    0    0  501 -0.00000000000E+00 -0.00000000000E+00 -0.33726359536E+03  0.33726359536E+03  0.00000000000E+00 0.  1.
         23    2    1    2    0    0 -0.64121853715E+03 -0.61438633577E+01  0.24060881003E+03  0.69061409863E+03  0.88635626694E+02 0.  0.
         13    1    3    3    0    0 -0.16416826824E+03 -0.10039899923E+02  0.22333087270E+02  0.16598429646E+03  0.00000000000E+00 0. -1.
        -13    1    3    3    0    0 -0.47705026892E+03  0.38960365658E+01  0.21827572276E+03  0.52462980217E+03  0.00000000000E+00 0.  1.
         22    1    1    2    0    0  0.64121853715E+03  0.61438633577E+01  0.80346031170E+03  0.10279822138E+04  0.00000000000E+00 0.  1.
<mgrwt>
<rscale>  0 0.13650981E+04</rscale>
<asrwt>0</asrwt>
<pdfrwt beam="1">  1        2 0.21251272E+00 0.13650981E+04</pdfrwt>
<pdfrwt beam="2">  1       -2 0.51886708E-01 0.13650981E+04</pdfrwt>
<totfact> 0.50749721E+01</totfact>
</mgrwt>
</event>
<event>
 6    1  0.3017327E-006  0.1667215E+04  0.7818608E-02  0.8780287E-01
         -2   -1    0    0    0  501 -0.00000000000E+00  0.00000000000E+00  0.19125671270E+03  0.19125671270E+03  0.00000000000E+00 0.  1.
          2   -1    0    0  501    0  0.00000000000E+00 -0.00000000000E+00 -0.36333460796E+04  0.36333460796E+04  0.00000000000E+00 0. -1.
         23    2    1    2    0    0 -0.35718220758E+03 -0.69296483843E+03 -0.10654358911E+04  0.13233508776E+04  0.91238755364E+02 0.  0.
         13    1    3    3    0    0 -0.32173687370E+03 -0.55094913910E+03 -0.88526117383E+03  0.10912135060E+04  0.00000000000E+00 0.  1.
        -13    1    3    3    0    0 -0.35445333874E+02 -0.14201569933E+03 -0.18017471723E+03  0.23213737157E+03  0.00000000000E+00 0. -1.
         22    1    1    2    0    0  0.35718220758E+03  0.69296483843E+03 -0.23766534759E+04  0.25012519148E+04  0.00000000000E+00 0. -1.
<mgrwt>
<rscale>  0 0.16672154E+04</rscale>
<asrwt>0</asrwt>
<pdfrwt beam="1">  1        2 0.55897637E+00 0.16672154E+04</pdfrwt>
<pdfrwt beam="2">  1       -2 0.29424107E-01 0.16672154E+04</pdfrwt>
<totfact> 0.67070442E+00</totfact>
</mgrwt>
</event>
<event>
 6    1  0.3017327E-006  0.2652545E+04  0.7818608E-02  0.8350569E-01
         -2   -1    0    0    0  501 -0.00000000000E+00  0.00000000000E+00  0.91084526511E+03  0.91084526511E+03  0.00000000000E+00 0.  1.
          2   -1    0    0  501    0  0.00000000000E+00 -0.00000000000E+00 -0.19311719675E+04  0.19311719675E+04  0.00000000000E+00 0. -1.
         23    2    1    2    0    0  0.50081670255E+03  0.73620351004E+03  0.54007784286E+03  0.10454440160E+04  0.91957253833E+02 0.  0.
         13    1    3    3    0    0  0.34781845732E+03  0.58122936742E+03  0.40646894982E+03  0.78995079845E+03  0.00000000000E+00 0.  1.
        -13    1    3    3    0    0  0.15299824523E+03  0.15497414262E+03  0.13360889304E+03  0.25549321757E+03  0.00000000000E+00 0. -1.
         22    1    1    2    0    0 -0.50081670255E+03 -0.73620351004E+03 -0.15604045453E+04  0.17965732166E+04  0.00000000000E+00 0. -1.
<mgrwt>
<rscale>  0 0.26525451E+04</rscale>
<asrwt>0</asrwt>
<pdfrwt beam="1">  1        2 0.29710338E+00 0.26525451E+04</pdfrwt>
<pdfrwt beam="2">  1       -2 0.14013004E+00 0.26525451E+04</pdfrwt>
<totfact> 0.23027468E+00</totfact>
</mgrwt>
</event>
<event>
 6    1  0.3017327E-006  0.2765785E+04  0.7818608E-02  0.8313970E-01
         -2   -1    0    0    0  501 -0.00000000000E+00  0.00000000000E+00  0.69846707904E+03  0.69846707904E+03  0.00000000000E+00 0.  1.
          2   -1    0    0  501    0  0.00000000000E+00 -0.00000000000E+00 -0.27379844266E+04  0.27379844266E+04  0.00000000000E+00 0. -1.
         23    2    1    2    0    0  0.17405958908E+03  0.95418776768E+03 -0.22428451837E+04  0.24454352367E+04  0.95015483778E+02 0.  0.
         13    1    3    3    0    0  0.33684112463E+02  0.32022865223E+03 -0.65183296089E+03  0.72702628429E+03  0.00000000000E+00 0. -1.
        -13    1    3    3    0    0  0.14037547662E+03  0.63395911545E+03 -0.15910122228E+04  0.17184089524E+04  0.00000000000E+00 0.  1.
         22    1    1    2    0    0 -0.17405958908E+03 -0.95418776768E+03  0.20332783609E+03  0.99101626902E+03  0.00000000000E+00 0.  1.
<mgrwt>
<rscale>  0 0.27657852E+04</rscale>
<asrwt>0</asrwt>
<pdfrwt beam="1">  1        2 0.42122836E+00 0.27657852E+04</pdfrwt>
<pdfrwt beam="2">  1       -2 0.10745648E+00 0.27657852E+04</pdfrwt>
<totfact> 0.15284497E+00</totfact>
</mgrwt>
</event>
<event>
 6    1  0.3017327E-006  0.1939708E+04  0.7818608E-02  0.8635340E-01
          2   -1    0    0  501    0  0.00000000000E+00  0.00000000000E+00  0.68607037341E+03  0.68607037341E+03  0.00000000000E+00 0. -1.
         -2   -1    0    0    0  501 -0.00000000000E+00 -0.00000000000E+00 -0.13710208341E+04  0.13710208341E+04  0.00000000000E+00 0.  1.
         23    2    1    2    0    0  0.94512858627E+03  0.19239082173E+03 -0.42630362723E+03  0.10585019740E+04  0.91702636284E+02 0.  0.
         11    1    3    3    0    0  0.25826906114E+03  0.64547272657E+02 -0.75454707910E+02  0.27669960480E+03  0.00000000000E+00 0. -1.
        -11    1    3    3    0    0  0.68685952513E+03  0.12784354907E+03 -0.35084891932E+03  0.78180236921E+03  0.00000000000E+00 0.  1.
         22    1    1    2    0    0 -0.94512858627E+03 -0.19239082173E+03 -0.25864683350E+03  0.99858923355E+03  0.00000000000E+00 0.  1.
<mgrwt>
<rscale>  0 0.19397080E+04</rscale>
<asrwt>0</asrwt>
<pdfrwt beam="1">  1        2 0.10554929E+00 0.19397080E+04</pdfrwt>
<pdfrwt beam="2">  1       -2 0.21092628E+00 0.19397080E+04</pdfrwt>
<totfact> 0.44288480E+00</totfact>
</mgrwt>
</event>
<event>
 6    1  0.3017327E-006  0.2245648E+04  0.7818608E-02  0.8499665E-01
          2   -1    0    0  501    0  0.00000000000E+00  0.00000000000E+00  0.34722195527E+04  0.34722195527E+04  0.00000000000E+00 0. -1.
         -2   -1    0    0    0  501 -0.00000000000E+00 -0.00000000000E+00 -0.36309171428E+03  0.36309171428E+03  0.00000000000E+00 0.  1.
         23    2    1    2    0    0 -0.58688658381E+02  0.92598548077E+03  0.48414003700E+03  0.10511678750E+04  0.98330345702E+02 0.  0.
         11    1    3    3    0    0 -0.41262435860E+02  0.46244536466E+03  0.29591182473E+03  0.55056526582E+03  0.00000000000E+00 0. -1.
        -11    1    3    3    0    0 -0.17426222521E+02  0.46354011611E+03  0.18822821227E+03  0.50060260923E+03  0.00000000000E+00 0.  1.
         22    1    1    2    0    0  0.58688658381E+02 -0.92598548077E+03  0.26249878014E+04  0.27841433919E+04  0.00000000000E+00 0. -1.
<mgrwt>
<rscale>  0 0.22456484E+04</rscale>
<asrwt>0</asrwt>
<pdfrwt beam="1">  1        2 0.53418760E+00 0.22456484E+04</pdfrwt>
<pdfrwt beam="2">  1       -2 0.55860266E-01 0.22456484E+04</pdfrwt>
<totfact> 0.23370760E+00</totfact>
</mgrwt>
</event>
<event>
 6    1  0.3017327E-006  0.2099622E+04  0.7818608E-02  0.8561410E-01
         -2   -1    0    0    0  501 -0.00000000000E+00  0.00000000000E+00  0.55100328858E+03  0.55100328858E+03  0.00000000000E+00 0. -1.
          2   -1    0    0  501    0  0.00000000000E+00 -0.00000000000E+00 -0.20001751119E+04  0.20001751119E+04  0.00000000000E+00 0.  1.
         23    2    1    2    0    0 -0.67220977631E+03  0.33342312415E+03 -0.16147335811E+04  0.17827724799E+04  0.88748037527E+02 0.  0.
         13    1    3    3    0    0 -0.53396129506E+03  0.24433222409E+03 -0.11816538730E+04  0.13195145986E+04  0.00000000000E+00 0. -1.
        -13    1    3    3    0    0 -0.13824848125E+03  0.89090900057E+02 -0.43307970805E+03  0.46325788128E+03  0.00000000000E+00 0.  1.
         22    1    1    2    0    0  0.67220977631E+03 -0.33342312415E+03  0.16556175778E+03  0.76840592054E+03  0.00000000000E+00 0. -1.
<mgrwt>
<rscale>  0 0.20996219E+04</rscale>
<asrwt>0</asrwt>
<pdfrwt beam="1">  1        2 0.30771925E+00 0.20996219E+04</pdfrwt>
<pdfrwt beam="2">  1       -2 0.84769736E-01 0.20996219E+04</pdfrwt>
<totfact> 0.74625916E+00</totfact>
</mgrwt>
</event>
<event>
 6    1  0.3017327E-006  0.2145100E+04  0.7818608E-02  0.8541633E-01
          2   -1    0    0  501    0  0.00000000000E+00  0.00000000000E+00  0.94499921584E+03  0.94499921584E+03  0.00000000000E+00 0. -1.
         -2   -1    0    0    0  501 -0.00000000000E+00 -0.00000000000E+00 -0.12173165002E+04  0.12173165002E+04  0.00000000000E+00 0.  1.
         23    2    1    2    0    0 -0.89873469857E+03  0.50108467503E+03 -0.43447616842E+03  0.11206317843E+04  0.90753209986E+02 0.  0.
         13    1    3    3    0    0 -0.13018549556E+03  0.74473589365E+02 -0.29683433686E+02  0.15289108869E+03  0.00000000000E+00 0. -1.
        -13    1    3    3    0    0 -0.76854920301E+03  0.42661108566E+03 -0.40479273473E+03  0.96774069561E+03  0.00000000000E+00 0.  1.
         22    1    1    2    0    0  0.89873469857E+03 -0.50108467503E+03  0.16215888405E+03  0.10416839317E+04  0.00000000000E+00 0. -1.
<mgrwt>
<rscale>  0 0.21450997E+04</rscale>
<asrwt>0</asrwt>
<pdfrwt beam="1">  1        2 0.14538449E+00 0.21450997E+04</pdfrwt>
<pdfrwt beam="2">  1       -2 0.18727946E+00 0.21450997E+04</pdfrwt>
<totfact> 0.40600936E+00</totfact>
</mgrwt>
</event>
<event>
 6    1  0.3017327E-006  0.3185162E+04  0.7818608E-02  0.8192747E-01
         -2   -1    0    0    0  501 -0.00000000000E+00  0.00000000000E+00  0.10156750409E+04  0.10156750409E+04  0.00000000000E+00 0.  1.
          2   -1    0    0  501    0  0.00000000000E+00 -0.00000000000E+00 -0.24971705940E+04  0.24971705940E+04  0.00000000000E+00 0. -1.
         23    2    1    2    0    0  0.54870988094E+02  0.15623656174E+04 -0.41417335586E+03  0.16199183198E+04  0.92728887207E+02 0.  0.
         11    1    3    3    0    0  0.14317575646E+02  0.10301056705E+04 -0.31211300286E+03  0.10764465671E+04  0.00000000000E+00 0. -1.
        -11    1    3    3    0    0  0.40553412448E+02  0.53225994688E+03 -0.10206035300E+03  0.54347175268E+03  0.00000000000E+00 0.  1.
         22    1    1    2    0    0 -0.54870988094E+02 -0.15623656174E+04 -0.10673221973E+04  0.18929273151E+04  0.00000000000E+00 0.  1.
<mgrwt>
<rscale>  0 0.31851618E+04</rscale>
<asrwt>0</asrwt>
<pdfrwt beam="1">  1        2 0.38418009E+00 0.31851618E+04</pdfrwt>
<pdfrwt beam="2">  1       -2 0.15625770E+00 0.31851618E+04</pdfrwt>
<totfact> 0.79116009E-01</totfact>
</mgrwt>
</event>
<event>
 6    1  0.3017327E-006  0.1398805E+04  0.7818608E-02  0.8954684E-01
         -2   -1    0    0    0  501 -0.00000000000E+00  0.00000000000E+00  0.37633942131E+03  0.37633942131E+03  0.00000000000E+00 0.  1.
          2   -1    0    0  501    0  0.00000000000E+00 -0.00000000000E+00 -0.12997944250E+04  0.12997944250E+04  0.00000000000E+00 0. -1.
         23    2    1    2    0    0  0.32476534495E+03  0.58957159841E+02 -0.11985001466E+04  0.12464847959E+04  0.91505567630E+02 0.  0.
         13    1    3    3    0    0  0.19693053169E+03  0.45366972776E+01 -0.57881790226E+03  0.61141833462E+03  0.00000000000E+00 0.  1.
        -13    1    3    3    0    0  0.12783481326E+03  0.54420462563E+02 -0.61968224435E+03  0.63506646124E+03  0.00000000000E+00 0. -1.
         22    1    1    2    0    0 -0.32476534495E+03 -0.58957159841E+02  0.27504514287E+03  0.42964905050E+03  0.00000000000E+00 0. -1.
<mgrwt>
<rscale>  0 0.13988050E+04</rscale>
<asrwt>0</asrwt>
<pdfrwt beam="1">  1        2 0.19996837E+00 0.13988050E+04</pdfrwt>
<pdfrwt beam="2">  1       -2 0.57898373E-01 0.13988050E+04</pdfrwt>
<totfact> 0.44939959E+01</totfact>
</mgrwt>
</event>
<event>
 6    1  0.3017327E-006  0.1354149E+04  0.7818608E-02  0.8987693E-01
          2   -1    0    0  501    0  0.00000000000E+00  0.00000000000E+00  0.23354035341E+04  0.23354035341E+04  0.00000000000E+00 0. -1.
         -2   -1    0    0    0  501 -0.00000000000E+00 -0.00000000000E+00 -0.19629575791E+03  0.19629575791E+03  0.00000000000E+00 0.  1.
         23    2    1    2    0    0 -0.58374566311E+03  0.62048547375E+02  0.16936765219E+04  0.17948017254E+04  0.90355138681E+02 0.  0.
         13    1    3    3    0    0 -0.32672256815E+03 -0.30959417356E+01  0.86007818146E+03  0.92004983540E+03  0.00000000000E+00 0.  1.
        -13    1    3    3    0    0 -0.25702309496E+03  0.65144489110E+02  0.83359834047E+03  0.87475188999E+03  0.00000000000E+00 0. -1.
         22    1    1    2    0    0  0.58374566311E+03 -0.62048547375E+02  0.44543125428E+03  0.73689756664E+03  0.00000000000E+00 0.  1.
<mgrwt>
<rscale>  0 0.13541489E+04</rscale>
<asrwt>0</asrwt>
<pdfrwt beam="1">  1        2 0.35929283E+00 0.13541489E+04</pdfrwt>
<pdfrwt beam="2">  1       -2 0.30199349E-01 0.13541489E+04</pdfrwt>
<totfact> 0.42924335E+01</totfact>
</mgrwt>
</event>
<event>
 6    1  0.3017327E-006  0.1738139E+04  0.7818608E-02  0.8739906E-01
          2   -1    0    0  501    0  0.00000000000E+00  0.00000000000E+00  0.46087259123E+03  0.46087259123E+03  0.00000000000E+00 0. -1.
         -2   -1    0    0    0  501 -0.00000000000E+00 -0.00000000000E+00 -0.16388084094E+04  0.16388084094E+04  0.00000000000E+00 0.  1.
         23    2    1    2    0    0  0.60600913088E+03  0.26831831657E+03 -0.12651669351E+04  0.14312118139E+04  0.92076581952E+02 0.  0.
         11    1    3    3    0    0  0.63850042416E+02  0.59785897244E+02 -0.14351105187E+03  0.16806725867E+03  0.00000000000E+00 0. -1.
        -11    1    3    3    0    0  0.54215908846E+03  0.20853241933E+03 -0.11216558832E+04  0.12631445553E+04  0.00000000000E+00 0.  1.
         22    1    1    2    0    0 -0.60600913088E+03 -0.26831831657E+03  0.87231116995E+02  0.66846918664E+03  0.00000000000E+00 0. -1.
<mgrwt>
<rscale>  0 0.17381391E+04</rscale>
<asrwt>0</asrwt>
<pdfrwt beam="1">  1        2 0.70903475E-01 0.17381391E+04</pdfrwt>
<pdfrwt beam="2">  1       -2 0.25212437E+00 0.17381391E+04</pdfrwt>
<totfact> 0.40034636E+00</totfact>
</mgrwt>
</event>
<event>
 6    1  0.3017327E-006  0.3136295E+04  0.7818608E-02  0.8205847E-01
         -2   -1    0    0    0  501 -0.00000000000E+00  0.00000000000E+00  0.79500990886E+03  0.79500990886E+03  0.00000000000E+00 0.  1.
          2   -1    0    0  501    0  0.00000000000E+00 -0.00000000000E+00 -0.30931519769E+04  0.30931519769E+04  0.00000000000E+00 0. -1.
         23    2    1    2    0    0  0.27594088560E+03  0.41965141609E+03 -0.29899884395E+04  0.30332337689E+04  0.90694788662E+02 0.  0.
         13    1    3    3    0    0  0.13152820597E+03  0.25003439159E+03 -0.18803314263E+04  0.19014371246E+04  0.00000000000E+00 0.  1.
        -13    1    3    3    0    0  0.14441267964E+03  0.16961702450E+03 -0.11096570132E+04  0.11317966443E+04  0.00000000000E+00 0. -1.
         22    1    1    2    0    0 -0.27594088560E+03 -0.41965141609E+03  0.69184637147E+03  0.85492811691E+03  0.00000000000E+00 0.  1.
<mgrwt>
<rscale>  0 0.31362949E+04</rscale>
<asrwt>0</asrwt>
<pdfrwt beam="1">  1        2 0.47586952E+00 0.31362949E+04</pdfrwt>
<pdfrwt beam="2">  1       -2 0.12230922E+00 0.31362949E+04</pdfrwt>
<totfact> 0.65104064E-01</totfact>
</mgrwt>
</event>
<event>
 6    1  0.3017327E-006  0.3226826E+04  0.7818608E-02  0.8181768E-01
          2   -1    0    0  501    0  0.00000000000E+00  0.00000000000E+00  0.15509469457E+04  0.15509469457E+04  0.00000000000E+00 0. -1.
         -2   -1    0    0    0  501 -0.00000000000E+00 -0.00000000000E+00 -0.16783950969E+04  0.16783950969E+04  0.00000000000E+00 0.  1.
         23    2    1    2    0    0  0.15919075983E+04  0.51901349174E+02 -0.31239295224E+03  0.16258869821E+04  0.95160761094E+02 0.  0.
         13    1    3    3    0    0  0.12364747955E+04  0.24331346638E+02 -0.27924738403E+03  0.12678489799E+04  0.00000000000E+00 0. -1.
        -13    1    3    3    0    0  0.35543280276E+03  0.27570002536E+02 -0.33145568211E+02  0.35803800219E+03  0.00000000000E+00 0.  1.
         22    1    1    2    0    0 -0.15919075983E+04 -0.51901349174E+02  0.18494480101E+03  0.16034550605E+04  0.00000000000E+00 0. -1.
<mgrwt>
<rscale>  0 0.32268261E+04</rscale>
<asrwt>0</asrwt>
<pdfrwt beam="1">  1        2 0.23860722E+00 0.32268261E+04</pdfrwt>
<pdfrwt beam="2">  1       -2 0.25821463E+00 0.32268261E+04</pdfrwt>
<totfact> 0.57118175E-01</totfact>
</mgrwt>
</event>
<event>
 6    1  0.3017327E-006  0.3862741E+04  0.7818608E-02  0.8032823E-01
         -2   -1    0    0    0  501 -0.00000000000E+00  0.00000000000E+00  0.13632983376E+04  0.13632983376E+04  0.00000000000E+00 0.  1.
          2   -1    0    0  501    0  0.00000000000E+00 -0.00000000000E+00 -0.27361518917E+04  0.27361518917E+04  0.00000000000E+00 0. -1.
         23    2    1    2    0    0  0.19005366560E+03 -0.15625364508E+04 -0.18726441102E+04  0.24479566157E+04  0.89750057546E+02 0.  0.
         11    1    3    3    0    0  0.45722104412E+02 -0.44551797662E+03 -0.59555428306E+03  0.74515883031E+03  0.00000000000E+00 0. -1.
        -11    1    3    3    0    0  0.14433156119E+03 -0.11170184742E+04 -0.12770898271E+04  0.17027977854E+04  0.00000000000E+00 0.  1.
         22    1    1    2    0    0 -0.19005366560E+03  0.15625364508E+04  0.49979055602E+03  0.16514936136E+04  0.00000000000E+00 0.  1.
<mgrwt>
<rscale>  0 0.38627406E+04</rscale>
<asrwt>0</asrwt>
<pdfrwt beam="1">  1        2 0.42094644E+00 0.38627406E+04</pdfrwt>
<pdfrwt beam="2">  1       -2 0.20973821E+00 0.38627406E+04</pdfrwt>
<totfact> 0.23163450E-01</totfact>
</mgrwt>
</event>
<event>
 6    1  0.3017327E-006  0.1035317E+04  0.7818608E-02  0.9270636E-01
          1   -1    0    0  501    0  0.00000000000E+00  0.00000000000E+00  0.20918531227E+04  0.20918531227E+04  0.00000000000E+00 0. -1.
         -1   -1    0    0    0  501 -0.00000000000E+00 -0.00000000000E+00 -0.12810188903E+03  0.12810188903E+03  0.00000000000E+00 0.  1.
         23    2    1    2    0    0  0.13501553468E+03 -0.40854759799E+03  0.15906543744E+04  0.16504450462E+04  0.92990200160E+02 0.  0.
         13    1    3    3    0    0  0.24492169879E+02 -0.21712489438E+03  0.83634760811E+03  0.86441911579E+03  0.00000000000E+00 0. -1.
        -13    1    3    3    0    0  0.11052336480E+03 -0.19142270361E+03  0.75430676627E+03  0.78602593040E+03  0.00000000000E+00 0.  1.
         22    1    1    2    0    0 -0.13501553468E+03  0.40854759799E+03  0.37309685925E+03  0.56950996550E+03  0.00000000000E+00 0.  1.
<mgrwt>
<rscale>  0 0.10353170E+04</rscale>
<asrwt>0</asrwt>
<pdfrwt beam="1">  1        1 0.32182353E+00 0.10353170E+04</pdfrwt>
<pdfrwt beam="2">  1       -1 0.19707984E-01 0.10353170E+04</pdfrwt>
<totfact> 0.54419352E+01</totfact>
</mgrwt>
</event>
<event>
 6    1  0.3017327E-006  0.5190817E+04  0.7818608E-02  0.7799728E-01
         -2   -1    0    0    0  501 -0.00000000000E+00  0.00000000000E+00  0.17386879966E+04  0.17386879966E+04  0.00000000000E+00 0.  1.
          2   -1    0    0  501    0  0.00000000000E+00 -0.00000000000E+00 -0.38742693664E+04  0.38742693664E+04  0.00000000000E+00 0. -1.
         23    2    1    2    0    0  0.57265832897E+03 -0.19073703794E+04  0.73011156732E+03  0.21232302482E+04  0.95102366737E+02 0.  0.
         11    1    3    3    0    0  0.16977343303E+03 -0.52582735329E+03  0.15920099262E+03  0.57503250350E+03  0.00000000000E+00 0. -1.
        -11    1    3    3    0    0  0.40288489594E+03 -0.13815430261E+04  0.57091057470E+03  0.15481977447E+04  0.00000000000E+00 0.  1.
         22    1    1    2    0    0 -0.57265832897E+03  0.19073703794E+04 -0.28656929371E+04  0.34897271148E+04  0.00000000000E+00 0.  1.
<mgrwt>
<rscale>  0 0.51908171E+04</rscale>
<asrwt>0</asrwt>
<pdfrwt beam="1">  1        2 0.59604143E+00 0.51908171E+04</pdfrwt>
<pdfrwt beam="2">  1       -2 0.26749047E+00 0.51908171E+04</pdfrwt>
<totfact> 0.15440858E-02</totfact>
</mgrwt>
</event>
<event>
 6    1  0.3017327E-006  0.3117918E+04  0.7818608E-02  0.8210838E-01
         -2   -1    0    0    0  501 -0.00000000000E+00  0.00000000000E+00  0.92674190838E+03  0.92674190838E+03  0.00000000000E+00 0.  1.
          2   -1    0    0  501    0  0.00000000000E+00 -0.00000000000E+00 -0.26224698494E+04  0.26224698494E+04  0.00000000000E+00 0. -1.
         23    2    1    2    0    0 -0.12741339557E+04  0.57016564308E+02 -0.18672283238E+04  0.22623238034E+04  0.69993946249E+02 0.  0.
         11    1    3    3    0    0 -0.55317382194E+03  0.48180820712E+02 -0.85794544450E+03  0.10219555051E+04  0.00000000000E+00 0.  1.
        -11    1    3    3    0    0 -0.72096013377E+03  0.88357435959E+01 -0.10092828793E+04  0.12403682983E+04  0.00000000000E+00 0. -1.
         22    1    1    2    0    0  0.12741339557E+04 -0.57016564308E+02  0.17150038283E+03  0.12868879543E+04  0.00000000000E+00 0.  1.
<mgrwt>
<rscale>  0 0.31179177E+04</rscale>
<asrwt>0</asrwt>
<pdfrwt beam="1">  1        2 0.40345690E+00 0.31179177E+04</pdfrwt>
<pdfrwt beam="2">  1       -2 0.14257568E+00 0.31179177E+04</pdfrwt>
<totfact> 0.85682702E-01</totfact>
</mgrwt>
</event>
<event>
 6    1  0.3017327E-006  0.6819180E+03  0.7818608E-02  0.9748664E-01
         -2   -1    0    0    0  501 -0.00000000000E+00  0.00000000000E+00  0.27645090498E+03  0.27645090498E+03  0.00000000000E+00 0.  1.
          2   -1    0    0  501    0  0.00000000000E+00 -0.00000000000E+00 -0.42051970367E+03  0.42051970367E+03  0.00000000000E+00 0. -1.
         23    2    1    2    0    0  0.13817412828E+03  0.18132545575E+03  0.17665746260E+03  0.30347811151E+03  0.94446251614E+02 0.  0.
         11    1    3    3    0    0  0.93344637982E+02  0.12388894342E+03  0.60786707508E+02  0.16660346800E+03  0.00000000000E+00 0. -1.
        -11    1    3    3    0    0  0.44829490301E+02  0.57436512330E+02  0.11587075509E+03  0.13687464351E+03  0.00000000000E+00 0.  1.
         22    1    1    2    0    0 -0.13817412828E+03 -0.18132545575E+03 -0.32072626128E+03  0.39349249714E+03  0.00000000000E+00 0. -1.
<mgrwt>
<rscale>  0 0.68191804E+03</rscale>
<asrwt>0</asrwt>
<pdfrwt beam="1">  1        2 0.64695339E-01 0.68191804E+03</pdfrwt>
<pdfrwt beam="2">  1       -2 0.42530909E-01 0.68191804E+03</pdfrwt>
<totfact> 0.39709957E+02</totfact>
</mgrwt>
</event>
<event>
 6    1  0.3017327E-006  0.2785525E+04  0.7818608E-02  0.8307777E-01
         -2   -1    0    0    0  501 -0.00000000000E+00  0.00000000000E+00  0.14694933367E+04  0.14694933367E+04  0.00000000000E+00 0.  1.
          2   -1    0    0  501    0  0.00000000000E+00 -0.00000000000E+00 -0.13200378658E+04  0.13200378658E+04  0.00000000000E+00 0. -1.
         23    2    1    2    0    0 -0.16165899669E+03 -0.13546433590E+04 -0.19842575329E+03  0.13816201231E+04  0.91154395199E+02 0.  0.
         11    1    3    3    0    0 -0.48813938617E+02 -0.17020558126E+03 -0.37374417354E+02  0.18096847120E+03  0.00000000000E+00 0. -1.
        -11    1    3    3    0    0 -0.11284505807E+03 -0.11844377777E+04 -0.16105133593E+03  0.12006516519E+04  0.00000000000E+00 0.  1.
         22    1    1    2    0    0  0.16165899669E+03  0.13546433590E+04  0.34788122417E+03  0.14079110793E+04  0.00000000000E+00 0.  1.
<mgrwt>
<rscale>  0 0.27855246E+04</rscale>
<asrwt>0</asrwt>
<pdfrwt beam="1">  1        2 0.20308275E+00 0.27855246E+04</pdfrwt>
<pdfrwt beam="2">  1       -2 0.22607590E+00 0.27855246E+04</pdfrwt>
<totfact> 0.12686027E+00</totfact>
</mgrwt>
</event>
<event>
 6    1  0.3017327E-006  0.3396940E+04  0.7818608E-02  0.8138658E-01
         -2   -1    0    0    0  501 -0.00000000000E+00  0.00000000000E+00  0.20839182964E+04  0.20839182964E+04  0.00000000000E+00 0.  1.
          2   -1    0    0  501    0  0.00000000000E+00 -0.00000000000E+00 -0.13843153873E+04  0.13843153873E+04  0.00000000000E+00 0. -1.
         23    2    1    2    0    0  0.74300113049E+03  0.15135914127E+04  0.54848393102E+03  0.17753525331E+04  0.89623377849E+02 0.  0.
         13    1    3    3    0    0  0.15123713925E+03  0.38956357232E+03  0.12072908084E+03  0.43498041350E+03  0.00000000000E+00 0. -1.
        -13    1    3    3    0    0  0.59176399124E+03  0.11240278403E+04  0.42775485018E+03  0.13403721196E+04  0.00000000000E+00 0.  1.
         22    1    1    2    0    0 -0.74300113049E+03 -0.15135914127E+04  0.15111897806E+03  0.16928811506E+04  0.00000000000E+00 0. -1.
<mgrwt>
<rscale>  0 0.33969399E+04</rscale>
<asrwt>0</asrwt>
<pdfrwt beam="1">  1        2 0.21297160E+00 0.33969399E+04</pdfrwt>
<pdfrwt beam="2">  1       -2 0.32060281E+00 0.33969399E+04</pdfrwt>
<totfact> 0.29055896E-01</totfact>
</mgrwt>
</event>
<event>
 6    1  0.3017327E-006  0.6143138E+04  0.7818608E-02  0.7672904E-01
          2   -1    0    0  501    0  0.00000000000E+00  0.00000000000E+00  0.43210989404E+04  0.43210989404E+04  0.00000000000E+00 0. -1.
         -2   -1    0    0    0  501 -0.00000000000E+00 -0.00000000000E+00 -0.21833647534E+04  0.21833647534E+04  0.00000000000E+00 0.  1.
         23    2    1    2    0    0 -0.26679756473E+04 -0.12961578257E+04  0.22688498835E+03  0.29760839206E+04  0.86484338992E+02 0.  0.
         11    1    3    3    0    0 -0.66898660977E+03 -0.36643470658E+03  0.64630446123E+02  0.76550282351E+03  0.00000000000E+00 0. -1.
        -11    1    3    3    0    0 -0.19989890375E+04 -0.92972311908E+03  0.16225454223E+03  0.22105810971E+04  0.00000000000E+00 0.  1.
         22    1    1    2    0    0  0.26679756473E+04  0.12961578257E+04  0.19108491986E+04  0.35283797731E+04  0.00000000000E+00 0. -1.
<mgrwt>
<rscale>  0 0.61431377E+04</rscale>
<asrwt>0</asrwt>
<pdfrwt beam="1">  1        2 0.66478445E+00 0.61431377E+04</pdfrwt>
<pdfrwt beam="2">  1       -2 0.33590227E+00 0.61431377E+04</pdfrwt>
<totfact> 0.22836985E-03</totfact>
</mgrwt>
</event>
<event>
 6    1  0.3017327E-006  0.3431115E+04  0.7818608E-02  0.8130312E-01
         -2   -1    0    0    0  501 -0.00000000000E+00  0.00000000000E+00  0.10956885203E+04  0.10956885203E+04  0.00000000000E+00 0.  1.
          2   -1    0    0  501    0  0.00000000000E+00 -0.00000000000E+00 -0.26861071374E+04  0.26861071374E+04  0.00000000000E+00 0. -1.
         23    2    1    2    0    0 -0.16145940195E+04 -0.57614346651E+03 -0.76795068121E+03  0.18803991584E+04  0.85426015013E+02 0.  0.
         11    1    3    3    0    0 -0.14090910104E+04 -0.52631913947E+03 -0.69193428329E+03  0.16556939224E+04  0.00000000000E+00 0. -1.
        -11    1    3    3    0    0 -0.20550300912E+03 -0.49824327048E+02 -0.76016397924E+02  0.22470523598E+03  0.00000000000E+00 0.  1.
         22    1    1    2    0    0  0.16145940195E+04  0.57614346651E+03 -0.82246793586E+03  0.19013964993E+04  0.00000000000E+00 0.  1.
<mgrwt>
<rscale>  0 0.34311145E+04</rscale>
<asrwt>0</asrwt>
<pdfrwt beam="1">  1        2 0.41324725E+00 0.34311145E+04</pdfrwt>
<pdfrwt beam="2">  1       -2 0.16856747E+00 0.34311145E+04</pdfrwt>
<totfact> 0.48789246E-01</totfact>
</mgrwt>
</event>
<event>
 6    1  0.3621564E-006  0.2866007E+04  0.7818608E-02  0.8283064E-01
          2   -1    0    0  501    0  0.00000000000E+00  0.00000000000E+00  0.17034460306E+04  0.17034460306E+04  0.00000000000E+00 0. -1.
         -2   -1    0    0    0  501 -0.00000000000E+00 -0.00000000000E+00 -0.12054969673E+04  0.12054969673E+04  0.00000000000E+00 0.  1.
         23    2    1    2    0    0 -0.10121546675E+04  0.77858894134E+03  0.90584743974E+03  0.15684062039E+04  0.93169875602E+02 0.  0.
         11    1    3    3    0    0 -0.71548699244E+03  0.59729738075E+03  0.63716825777E+03  0.11290124827E+04  0.00000000000E+00 0.  1.
        -11    1    3    3    0    0 -0.29666767507E+03  0.18129156058E+03  0.26867918197E+03  0.43939372116E+03  0.00000000000E+00 0. -1.
         22    1    1    2    0    0  0.10121546675E+04 -0.77858894134E+03 -0.40789837645E+03  0.13405367940E+04  0.00000000000E+00 0.  1.
<mgrwt>
<rscale>  0 0.28660070E+04</rscale>
<asrwt>0</asrwt>
<pdfrwt beam="1">  1        2 0.26206862E+00 0.28660070E+04</pdfrwt>
<pdfrwt beam="2">  1       -2 0.18546107E+00 0.28660070E+04</pdfrwt>
<totfact> 0.14058430E+00</totfact>
</mgrwt>
</event>
<event>
 6    1  0.3017327E-006  0.1010936E+04  0.7818608E-02  0.9296631E-01
          2   -1    0    0  501    0  0.00000000000E+00  0.00000000000E+00  0.68707051023E+03  0.68707051023E+03  0.00000000000E+00 0. -1.
         -2   -1    0    0    0  501 -0.00000000000E+00 -0.00000000000E+00 -0.37186556196E+03  0.37186556196E+03  0.00000000000E+00 0.  1.
         23    2    1    2    0    0  0.15666255076E+03 -0.18465243385E+03  0.61859330187E+03  0.67075548376E+03  0.92820093433E+02 0.  0.
         13    1    3    3    0    0  0.16033085024E+03 -0.15228204388E+03  0.48154020621E+03  0.52988373501E+03  0.00000000000E+00 0.  1.
        -13    1    3    3    0    0 -0.36682994873E+01 -0.32370389970E+02  0.13705309566E+03  0.14087174875E+03  0.00000000000E+00 0. -1.
         22    1    1    2    0    0 -0.15666255076E+03  0.18465243385E+03 -0.30338835360E+03  0.38818058843E+03  0.00000000000E+00 0.  1.
<mgrwt>
<rscale>  0 0.10109359E+04</rscale>
<asrwt>0</asrwt>
<pdfrwt beam="1">  1        2 0.10570315E+00 0.10109359E+04</pdfrwt>
<pdfrwt beam="2">  1       -2 0.57210087E-01 0.10109359E+04</pdfrwt>
<totfact> 0.11990615E+02</totfact>
</mgrwt>
</event>
<event>
 6    1  0.3017327E-006  0.2291085E+04  0.7818608E-02  0.8481444E-01
          2   -1    0    0  501    0  0.00000000000E+00  0.00000000000E+00  0.27622293991E+04  0.27622293991E+04  0.00000000000E+00 0. -1.
         -2   -1    0    0    0  501 -0.00000000000E+00 -0.00000000000E+00 -0.47507565572E+03  0.47507565572E+03  0.00000000000E+00 0.  1.
         23    2    1    2    0    0  0.36725657382E+03  0.98676035518E+03  0.51417949518E+03  0.11752645425E+04  0.91064823552E+02 0.  0.
         11    1    3    3    0    0  0.18616772425E+03  0.41226893368E+03  0.18394790665E+03  0.48832461293E+03  0.00000000000E+00 0. -1.
        -11    1    3    3    0    0  0.18108884957E+03  0.57449142150E+03  0.33023158853E+03  0.68693992960E+03  0.00000000000E+00 0.  1.
         22    1    1    2    0    0 -0.36725657382E+03 -0.98676035518E+03  0.17729742482E+04  0.20620405123E+04  0.00000000000E+00 0. -1.
<mgrwt>
<rscale>  0 0.22910853E+04</rscale>
<asrwt>0</asrwt>
<pdfrwt beam="1">  1        2 0.42495836E+00 0.22910853E+04</pdfrwt>
<pdfrwt beam="2">  1       -2 0.73088564E-01 0.22910853E+04</pdfrwt>
<totfact> 0.37395059E+00</totfact>
</mgrwt>
</event>
<event>
 6    1  0.3017327E-006  0.3234767E+04  0.7818608E-02  0.8179695E-01
         -2   -1    0    0    0  501 -0.00000000000E+00  0.00000000000E+00  0.21567074076E+04  0.21567074076E+04  0.00000000000E+00 0.  1.
          2   -1    0    0  501    0  0.00000000000E+00 -0.00000000000E+00 -0.12129270066E+04  0.12129270066E+04  0.00000000000E+00 0. -1.
         23    2    1    2    0    0  0.74776063016E+03  0.97657992709E+03 -0.61969238127E+03  0.13803376905E+04  0.91973791671E+02 0.  0.
         13    1    3    3    0    0  0.52747478918E+03  0.63361267456E+03 -0.38392780329E+03  0.90944776250E+03  0.00000000000E+00 0. -1.
        -13    1    3    3    0    0  0.22028584099E+03  0.34296725253E+03 -0.23576457798E+03  0.47088992798E+03  0.00000000000E+00 0.  1.
         22    1    1    2    0    0 -0.74776063016E+03 -0.97657992709E+03  0.15634727823E+04  0.19892967237E+04  0.00000000000E+00 0.  1.
<mgrwt>
<rscale>  0 0.32347666E+04</rscale>
<asrwt>0</asrwt>
<pdfrwt beam="1">  1        2 0.18660416E+00 0.32347666E+04</pdfrwt>
<pdfrwt beam="2">  1       -2 0.33180114E+00 0.32347666E+04</pdfrwt>
<totfact> 0.31596915E-01</totfact>
</mgrwt>
</event>
<event>
 6    1  0.3017327E-006  0.1839059E+04  0.7818608E-02  0.8685800E-01
         -2   -1    0    0    0  501 -0.00000000000E+00  0.00000000000E+00  0.55404403142E+03  0.55404403142E+03  0.00000000000E+00 0.  1.
          2   -1    0    0  501    0  0.00000000000E+00 -0.00000000000E+00 -0.15261138387E+04  0.15261138387E+04  0.00000000000E+00 0. -1.
         23    2    1    2    0    0 -0.30182587037E+03 -0.18151514323E+02  0.49245964559E+03  0.58473991789E+03  0.89308093388E+02 0.  0.
         11    1    3    3    0    0 -0.16577607371E+03 -0.16786805922E+02  0.18769334367E+03  0.25098265821E+03  0.00000000000E+00 0.  1.
        -11    1    3    3    0    0 -0.13604979666E+03 -0.13647084012E+01  0.30476630192E+03  0.33375725968E+03  0.00000000000E+00 0. -1.
         22    1    1    2    0    0  0.30182587037E+03  0.18151514323E+02 -0.14645294529E+04  0.14954179522E+04  0.00000000000E+00 0. -1.
<mgrwt>
<rscale>  0 0.18390587E+04</rscale>
<asrwt>0</asrwt>
<pdfrwt beam="1">  1        2 0.23478675E+00 0.18390587E+04</pdfrwt>
<pdfrwt beam="2">  1       -2 0.85237542E-01 0.18390587E+04</pdfrwt>
<totfact> 0.13825966E+01</totfact>
</mgrwt>
</event>
<event>
 6    1  0.3017327E-006  0.1398476E+04  0.7818608E-02  0.8954923E-01
         -2   -1    0    0    0  501 -0.00000000000E+00  0.00000000000E+00  0.44416844498E+03  0.44416844498E+03  0.00000000000E+00 0.  1.
          2   -1    0    0  501    0  0.00000000000E+00 -0.00000000000E+00 -0.11007840304E+04  0.11007840304E+04  0.00000000000E+00 0. -1.
         23    2    1    2    0    0 -0.32522904090E+03  0.58067304176E+03 -0.55510928423E+03  0.87170761677E+03  0.93662912785E+02 0.  0.
         13    1    3    3    0    0 -0.99426857209E+02  0.26348633871E+03 -0.20815421859E+03  0.35019841424E+03  0.00000000000E+00 0. -1.
        -13    1    3    3    0    0 -0.22580218369E+03  0.31718670305E+03 -0.34695506564E+03  0.52150920253E+03  0.00000000000E+00 0.  1.
         22    1    1    2    0    0  0.32522904090E+03 -0.58067304176E+03 -0.10150630120E+03  0.67324485862E+03  0.00000000000E+00 0.  1.
<mgrwt>
<rscale>  0 0.13984756E+04</rscale>
<asrwt>0</asrwt>
<pdfrwt beam="1">  1        2 0.16935139E+00 0.13984756E+04</pdfrwt>
<pdfrwt beam="2">  1       -2 0.68333607E-01 0.13984756E+04</pdfrwt>
<totfact> 0.41508686E+01</totfact>
</mgrwt>
</event>
<event>
 6    1  0.3017327E-006  0.3470111E+04  0.7818608E-02  0.8120910E-01
         -2   -1    0    0    0  501 -0.00000000000E+00  0.00000000000E+00  0.41686629381E+04  0.41686629381E+04  0.00000000000E+00 0.  1.
          2   -1    0    0  501    0  0.00000000000E+00 -0.00000000000E+00 -0.72215425471E+03  0.72215425471E+03  0.00000000000E+00 0. -1.
         23    2    1    2    0    0 -0.17477846874E+03  0.44682964389E+02  0.41550023020E+04  0.41597171394E+04  0.81599446213E+02 0.  0.
         13    1    3    3    0    0 -0.83220038796E+02  0.52296141918E+02  0.27210960734E+04  0.27228705995E+04  0.00000000000E+00 0.  1.
        -13    1    3    3    0    0 -0.91558429946E+02 -0.76131775290E+01  0.14339062286E+04  0.14368465398E+04  0.00000000000E+00 0. -1.
         22    1    1    2    0    0  0.17477846874E+03 -0.44682964389E+02 -0.70849361863E+03  0.73110005340E+03  0.00000000000E+00 0. -1.
<mgrwt>
<rscale>  0 0.34701111E+04</rscale>
<asrwt>0</asrwt>
<pdfrwt beam="1">  1        2 0.11110066E+00 0.34701111E+04</pdfrwt>
<pdfrwt beam="2">  1       -2 0.64133275E+00 0.34701111E+04</pdfrwt>
<totfact> 0.11568903E-02</totfact>
</mgrwt>
</event>
<event>
 6    1  0.3017327E-006  0.2320161E+04  0.7818608E-02  0.8470014E-01
         -2   -1    0    0    0  501 -0.00000000000E+00  0.00000000000E+00  0.10439483583E+04  0.10439483583E+04  0.00000000000E+00 0. -1.
          2   -1    0    0  501    0  0.00000000000E+00 -0.00000000000E+00 -0.12891311856E+04  0.12891311856E+04  0.00000000000E+00 0.  1.
         23    2    1    2    0    0  0.82667917229E+03  0.45920357519E+03  0.54995768877E+03  0.10975574609E+04  0.88952476976E+02 0.  0.
         11    1    3    3    0    0  0.68010597367E+03  0.37533561656E+03  0.48961576638E+03  0.91822903416E+03  0.00000000000E+00 0.  1.
        -11    1    3    3    0    0  0.14657319862E+03  0.83867958631E+02  0.60341922395E+02  0.17932842674E+03  0.00000000000E+00 0. -1.
         22    1    1    2    0    0 -0.82667917229E+03 -0.45920357519E+03 -0.79514051609E+03  0.12355220831E+04  0.00000000000E+00 0.  1.
<mgrwt>
<rscale>  0 0.23201607E+04</rscale>
<asrwt>0</asrwt>
<pdfrwt beam="1">  1        2 0.19832787E+00 0.23201607E+04</pdfrwt>
<pdfrwt beam="2">  1       -2 0.16060744E+00 0.23201607E+04</pdfrwt>
<totfact> 0.37856605E+00</totfact>
</mgrwt>
</event>
<event>
 6    1  0.3017327E-006  0.1390323E+04  0.7818608E-02  0.8960853E-01
         -2   -1    0    0    0  501 -0.00000000000E+00  0.00000000000E+00  0.25589092472E+03  0.25589092472E+03  0.00000000000E+00 0.  1.
          2   -1    0    0  501    0  0.00000000000E+00 -0.00000000000E+00 -0.18884973418E+04  0.18884973418E+04  0.00000000000E+00 0. -1.
         23    2    1    2    0    0 -0.53993208440E+03 -0.23562270189E+03 -0.25933997280E+03  0.65009731747E+03  0.91239176222E+02 0.  0.
         13    1    3    3    0    0 -0.12115709879E+03 -0.67150781240E+02 -0.10216984691E+03  0.17212480247E+03  0.00000000000E+00 0.  1.
        -13    1    3    3    0    0 -0.41877498562E+03 -0.16847192065E+03 -0.15717012589E+03  0.47797251500E+03  0.00000000000E+00 0. -1.
         22    1    1    2    0    0  0.53993208440E+03  0.23562270189E+03 -0.13732664442E+04  0.14942909490E+04  0.00000000000E+00 0. -1.
<mgrwt>
<rscale>  0 0.13903227E+04</rscale>
<asrwt>0</asrwt>
<pdfrwt beam="1">  1        2 0.29053806E+00 0.13903227E+04</pdfrwt>
<pdfrwt beam="2">  1       -2 0.39367834E-01 0.13903227E+04</pdfrwt>
<totfact> 0.45807423E+01</totfact>
</mgrwt>
</event>
<event>
 6    1  0.3017327E-006  0.2180361E+04  0.7818608E-02  0.8526647E-01
          2   -1    0    0  501    0  0.00000000000E+00  0.00000000000E+00  0.11358608489E+04  0.11358608489E+04  0.00000000000E+00 0. -1.
         -2   -1    0    0    0  501 -0.00000000000E+00 -0.00000000000E+00 -0.10463369663E+04  0.10463369663E+04  0.00000000000E+00 0.  1.
         23    2    1    2    0    0 -0.29690718180E+03  0.77176288209E+03  0.75289951511E+03  0.11220850615E+04  0.91898774135E+02 0.  0.
         11    1    3    3    0    0 -0.13456454845E+03  0.45751354436E+03  0.46424401854E+03  0.66554396528E+03  0.00000000000E+00 0. -1.
        -11    1    3    3    0    0 -0.16234263335E+03  0.31424933773E+03  0.28865549658E+03  0.45654109625E+03  0.00000000000E+00 0.  1.
         22    1    1    2    0    0  0.29690718180E+03 -0.77176288209E+03 -0.66337563252E+03  0.10601127537E+04  0.00000000000E+00 0.  1.
<mgrwt>
<rscale>  0 0.21803607E+04</rscale>
<asrwt>0</asrwt>
<pdfrwt beam="1">  1        2 0.17474782E+00 0.21803607E+04</pdfrwt>
<pdfrwt beam="2">  1       -2 0.16097492E+00 0.21803607E+04</pdfrwt>
<totfact> 0.46971850E+00</totfact>
</mgrwt>
</event>
<event>
 6    1  0.3017327E-006  0.2458298E+04  0.7818608E-02  0.8417994E-01
          2   -1    0    0  501    0  0.00000000000E+00  0.00000000000E+00  0.18945046229E+04  0.18945046229E+04  0.00000000000E+00 0.  1.
         -2   -1    0    0    0  501 -0.00000000000E+00 -0.00000000000E+00 -0.79746855096E+03  0.79746855096E+03  0.00000000000E+00 0. -1.
         23    2    1    2    0    0  0.50942952471E+03 -0.82636344788E+02  0.17689011646E+04  0.18447719528E+04  0.88459152468E+02 0.  0.
         11    1    3    3    0    0  0.27828637372E+03 -0.71381128754E+02  0.85274907371E+03  0.89984418321E+03  0.00000000000E+00 0. -1.
        -11    1    3    3    0    0  0.23114315099E+03 -0.11255216034E+02  0.91615209089E+03  0.94492776961E+03  0.00000000000E+00 0.  1.
         22    1    1    2    0    0 -0.50942952471E+03  0.82636344788E+02 -0.67186509269E+03  0.84720122102E+03  0.00000000000E+00 0. -1.
<mgrwt>
<rscale>  0 0.24582985E+04</rscale>
<asrwt>0</asrwt>
<pdfrwt beam="1">  1        2 0.29146225E+00 0.24582985E+04</pdfrwt>
<pdfrwt beam="2">  1       -2 0.12268747E+00 0.24582985E+04</pdfrwt>
<totfact> 0.34388102E+00</totfact>
</mgrwt>
</event>
<event>
 6    1  0.3017327E-006  0.1367187E+04  0.7818608E-02  0.8977919E-01
         -1   -1    0    0    0  501 -0.00000000000E+00  0.00000000000E+00  0.57765246529E+03  0.57765246529E+03  0.00000000000E+00 0.  1.
          1   -1    0    0  501    0  0.00000000000E+00 -0.00000000000E+00 -0.80896441784E+03  0.80896441784E+03  0.00000000000E+00 0. -1.
         23    2    1    2    0    0  0.38799376540E+03  0.40478435913E+01 -0.68325604231E+03  0.79095841782E+03  0.90668916067E+02 0.  0.
         13    1    3    3    0    0  0.23690824158E+03  0.35926699551E+02 -0.35636216594E+03  0.42943012933E+03  0.00000000000E+00 0. -1.
        -13    1    3    3    0    0  0.15108552382E+03 -0.31878855960E+02 -0.32689387637E+03  0.36152828849E+03  0.00000000000E+00 0.  1.
         22    1    1    2    0    0 -0.38799376540E+03 -0.40478435913E+01  0.45194408976E+03  0.59565846531E+03  0.00000000000E+00 0.  1.
<mgrwt>
<rscale>  0 0.13671873E+04</rscale>
<asrwt>0</asrwt>
<pdfrwt beam="1">  1        1 0.12445606E+00 0.13671873E+04</pdfrwt>
<pdfrwt beam="2">  1       -1 0.88869611E-01 0.13671873E+04</pdfrwt>
<totfact> 0.26378080E+01</totfact>
</mgrwt>
</event>
<event>
 6    1  0.3017327E-006  0.9348102E+03  0.7818608E-02  0.9383083E-01
         -2   -1    0    0    0  501 -0.00000000000E+00  0.00000000000E+00  0.15236363663E+03  0.15236363663E+03  0.00000000000E+00 0.  1.
          2   -1    0    0  501    0  0.00000000000E+00 -0.00000000000E+00 -0.14338561235E+04  0.14338561235E+04  0.00000000000E+00 0. -1.
         23    2    1    2    0    0 -0.21518965241E+03 -0.40250035606E+03 -0.77964863743E+03  0.90786854405E+03  0.89778462290E+02 0.  0.
         13    1    3    3    0    0 -0.16809181033E+03 -0.22227640965E+03 -0.45403131438E+03  0.53273454311E+03  0.00000000000E+00 0. -1.
        -13    1    3    3    0    0 -0.47097842086E+02 -0.18022394641E+03 -0.32561732305E+03  0.37513400094E+03  0.00000000000E+00 0.  1.
         22    1    1    2    0    0  0.21518965241E+03  0.40250035606E+03 -0.50184384944E+03  0.67835121608E+03  0.00000000000E+00 0.  1.
<mgrwt>
<rscale>  0 0.93481021E+03</rscale>
<asrwt>0</asrwt>
<pdfrwt beam="1">  1        2 0.22059324E+00 0.93481021E+03</pdfrwt>
<pdfrwt beam="2">  1       -2 0.23440561E-01 0.93481021E+03</pdfrwt>
<totfact> 0.22316545E+02</totfact>
</mgrwt>
</event>
<event>
 6    1  0.3017327E-006  0.2696494E+04  0.7818608E-02  0.8336143E-01
          2   -1    0    0  501    0  0.00000000000E+00  0.00000000000E+00  0.16625347369E+04  0.16625347369E+04  0.00000000000E+00 0. -1.
         -2   -1    0    0    0  501 -0.00000000000E+00 -0.00000000000E+00 -0.10933729545E+04  0.10933729545E+04  0.00000000000E+00 0.  1.
         23    2    1    2    0    0  0.58739470782E+03 -0.64149344179E+03 -0.76659556147E+03  0.11619208469E+04  0.76452082572E+02 0.  0.
         13    1    3    3    0    0  0.66768999505E+02 -0.58930752826E+02 -0.52084009452E+02  0.10316819744E+03  0.00000000000E+00 0. -1.
        -13    1    3    3    0    0  0.52062570831E+03 -0.58256268896E+03 -0.71451155202E+03  0.10587526494E+04  0.00000000000E+00 0.  1.
         22    1    1    2    0    0 -0.58739470782E+03  0.64149344179E+03  0.13357573439E+04  0.15939868445E+04  0.00000000000E+00 0. -1.
<mgrwt>
<rscale>  0 0.26964944E+04</rscale>
<asrwt>0</asrwt>
<pdfrwt beam="1">  1        2 0.25577458E+00 0.26964944E+04</pdfrwt>
<pdfrwt beam="2">  1       -2 0.16821122E+00 0.26964944E+04</pdfrwt>
<totfact> 0.19823497E+00</totfact>
</mgrwt>
</event>
<event>
 6    1  0.3017327E-006  0.6373476E+03  0.7818608E-02  0.9830815E-01
          1   -1    0    0  501    0  0.00000000000E+00  0.00000000000E+00  0.22390187944E+04  0.22390187944E+04  0.00000000000E+00 0. -1.
         -1   -1    0    0    0  501 -0.00000000000E+00 -0.00000000000E+00 -0.45356020068E+02  0.45356020068E+02  0.00000000000E+00 0.  1.
         23    2    1    2    0    0  0.22233397824E+03  0.20157597648E+03  0.81079259714E+03  0.86931467470E+03  0.90874066199E+02 0.  0.
         13    1    3    3    0    0  0.53843509726E+02  0.95256925238E+02  0.21766802427E+03  0.24362342691E+03  0.00000000000E+00 0.  1.
        -13    1    3    3    0    0  0.16849046852E+03  0.10631905124E+03  0.59312457286E+03  0.62569124780E+03  0.00000000000E+00 0. -1.
         22    1    1    2    0    0 -0.22233397824E+03 -0.20157597648E+03  0.13828701772E+04  0.14150601397E+04  0.00000000000E+00 0.  1.
<mgrwt>
<rscale>  0 0.63734757E+03</rscale>
<asrwt>0</asrwt>
<pdfrwt beam="1">  1        1 0.34446434E+00 0.63734757E+03</pdfrwt>
<pdfrwt beam="2">  1       -1 0.69778510E-02 0.63734757E+03</pdfrwt>
<totfact> 0.23785819E+02</totfact>
</mgrwt>
</event>
<event>
 6    1  0.3017327E-006  0.1898840E+04  0.7818608E-02  0.8655434E-01
         -1   -1    0    0    0  501 -0.00000000000E+00  0.00000000000E+00  0.40253978356E+03  0.40253978356E+03  0.00000000000E+00 0.  1.
          1   -1    0    0  501    0  0.00000000000E+00 -0.00000000000E+00 -0.22392782834E+04  0.22392782834E+04  0.00000000000E+00 0. -1.
         23    2    1    2    0    0  0.10503062785E+03 -0.53206418773E+03 -0.20009766954E+04  0.20751630419E+04  0.90940541271E+02 0.  0.
         13    1    3    3    0    0  0.21380139498E+02 -0.46363857506E+02 -0.29644470043E+03  0.30080920541E+03  0.00000000000E+00 0. -1.
        -13    1    3    3    0    0  0.83650488348E+02 -0.48570033022E+03 -0.17045319950E+04  0.17743538364E+04  0.00000000000E+00 0.  1.
         22    1    1    2    0    0 -0.10503062785E+03  0.53206418773E+03  0.16423819553E+03  0.56665502514E+03  0.00000000000E+00 0.  1.
<mgrwt>
<rscale>  0 0.18988403E+04</rscale>
<asrwt>0</asrwt>
<pdfrwt beam="1">  1        1 0.34450435E+00 0.18988403E+04</pdfrwt>
<pdfrwt beam="2">  1       -1 0.61929198E-01 0.18988403E+04</pdfrwt>
<totfact> 0.50694939E+00</totfact>
</mgrwt>
</event>
<event>
 6    1  0.3586269E-006  0.2973551E+04  0.7818608E-02  0.8251324E-01
          2   -1    0    0  501    0  0.00000000000E+00  0.00000000000E+00  0.12515463681E+04  0.12515463681E+04  0.00000000000E+00 0. -1.
         -2   -1    0    0    0  501 -0.00000000000E+00 -0.00000000000E+00 -0.17662162794E+04  0.17662162794E+04  0.00000000000E+00 0.  1.
         23    2    1    2    0    0  0.10137645995E+04 -0.59287141441E+03  0.66541275067E+03  0.13528871968E+04  0.91183667519E+02 0.  0.
         11    1    3    3    0    0  0.30425744922E+03 -0.15110288288E+03  0.23220658239E+03  0.41149067246E+03  0.00000000000E+00 0. -1.
        -11    1    3    3    0    0  0.70950715028E+03 -0.44176853153E+03  0.43320616828E+03  0.94139652431E+03  0.00000000000E+00 0.  1.
         22    1    1    2    0    0 -0.10137645995E+04  0.59287141441E+03 -0.11800826620E+04  0.16648754507E+04  0.00000000000E+00 0.  1.
<mgrwt>
<rscale>  0 0.29735511E+04</rscale>
<asrwt>0</asrwt>
<pdfrwt beam="1">  1        2 0.19254560E+00 0.29735511E+04</pdfrwt>
<pdfrwt beam="2">  1       -2 0.27172558E+00 0.29735511E+04</pdfrwt>
<totfact> 0.71627362E-01</totfact>
</mgrwt>
</event>
<event>
 6    1  0.3017327E-006  0.1823935E+04  0.7818608E-02  0.8693674E-01
          1   -1    0    0  501    0  0.00000000000E+00  0.00000000000E+00  0.30013209967E+04  0.30013209967E+04  0.00000000000E+00 0. -1.
         -1   -1    0    0    0  501 -0.00000000000E+00 -0.00000000000E+00 -0.27710628727E+03  0.27710628727E+03  0.00000000000E+00 0.  1.
         23    2    1    2    0    0 -0.67377929057E+03  0.46643065351E+03  0.65632936181E+03  0.10540878544E+04  0.93791720049E+02 0.  0.
         13    1    3    3    0    0 -0.25079576795E+03  0.21299445827E+03  0.22143123589E+03  0.39660679357E+03  0.00000000000E+00 0. -1.
        -13    1    3    3    0    0 -0.42298352262E+03  0.25343619523E+03  0.43489812592E+03  0.65748106086E+03  0.00000000000E+00 0.  1.
         22    1    1    2    0    0  0.67377929057E+03 -0.46643065351E+03  0.20678853476E+04  0.22243394295E+04  0.00000000000E+00 0.  1.
<mgrwt>
<rscale>  0 0.18239352E+04</rscale>
<asrwt>0</asrwt>
<pdfrwt beam="1">  1        1 0.46174167E+00 0.18239352E+04</pdfrwt>
<pdfrwt beam="2">  1       -1 0.42631739E-01 0.18239352E+04</pdfrwt>
<totfact> 0.30508497E+00</totfact>
</mgrwt>
</event>
<event>
 6    1  0.3017327E-006  0.1283168E+04  0.7818608E-02  0.9043021E-01
          2   -1    0    0  501    0  0.00000000000E+00  0.00000000000E+00  0.38546917305E+04  0.38546917305E+04  0.00000000000E+00 0.  1.
         -2   -1    0    0    0  501 -0.00000000000E+00 -0.00000000000E+00 -0.10678673325E+03  0.10678673325E+03  0.00000000000E+00 0. -1.
         23    2    1    2    0    0 -0.19645563181E+03 -0.50984511058E+03  0.29023140161E+04  0.29547208169E+04  0.91714806434E+02 0.  0.
         13    1    3    3    0    0 -0.20662824936E+03 -0.48646155916E+03  0.27705830510E+04  0.28205443667E+04  0.00000000000E+00 0. -1.
        -13    1    3    3    0    0  0.10172617553E+02 -0.23383551425E+02  0.13173096514E+03  0.13417645025E+03  0.00000000000E+00 0.  1.
         22    1    1    2    0    0  0.19645563181E+03  0.50984511058E+03  0.84559098109E+03  0.10067576468E+04  0.00000000000E+00 0. -1.
<mgrwt>
<rscale>  0 0.12831679E+04</rscale>
<asrwt>0</asrwt>
<pdfrwt beam="1">  1        2 0.59302939E+00 0.12831679E+04</pdfrwt>
<pdfrwt beam="2">  1       -2 0.16428731E-01 0.12831679E+04</pdfrwt>
<totfact> 0.13564827E+01</totfact>
</mgrwt>
</event>
<event>
 6    1  0.3017327E-006  0.3350808E+04  0.7818608E-02  0.8150086E-01
          2   -1    0    0  501    0  0.00000000000E+00  0.00000000000E+00  0.27625015442E+04  0.27625015442E+04  0.00000000000E+00 0.  1.
         -2   -1    0    0    0  501 -0.00000000000E+00 -0.00000000000E+00 -0.10161000706E+04  0.10161000706E+04  0.00000000000E+00 0. -1.
         23    2    1    2    0    0 -0.14837373300E+04  0.35115515584E+03  0.94195497458E+02  0.15303643063E+04  0.91409575664E+02 0.  0.
         11    1    3    3    0    0 -0.67506645568E+03  0.20595236282E+03  0.51089412489E+02  0.70763071117E+03  0.00000000000E+00 0. -1.
        -11    1    3    3    0    0 -0.80867087430E+03  0.14520279302E+03  0.43106084969E+02  0.82273359515E+03  0.00000000000E+00 0.  1.
         22    1    1    2    0    0  0.14837373300E+04 -0.35115515584E+03  0.16522059761E+04  0.22482373085E+04  0.00000000000E+00 0.  1.
<mgrwt>
<rscale>  0 0.33508077E+04</rscale>
<asrwt>0</asrwt>
<pdfrwt beam="1">  1        2 0.42500023E+00 0.33508077E+04</pdfrwt>
<pdfrwt beam="2">  1       -2 0.15632309E+00 0.33508077E+04</pdfrwt>
<totfact> 0.54343262E-01</totfact>
</mgrwt>
</event>
<event>
 6    1  0.3017327E-006  0.1980204E+04  0.7818608E-02  0.8615932E-01
          2   -1    0    0  501    0  0.00000000000E+00  0.00000000000E+00  0.26985250207E+04  0.26985250207E+04  0.00000000000E+00 0. -1.
         -2   -1    0    0    0  501 -0.00000000000E+00 -0.00000000000E+00 -0.36327308251E+03  0.36327308251E+03  0.00000000000E+00 0.  1.
         23    2    1    2    0    0 -0.17482624469E+03 -0.90378212210E+03  0.61561212033E+03  0.11112731884E+04  0.92539054235E+02 0.  0.
         11    1    3    3    0    0 -0.85152486053E+01 -0.18324263041E+03  0.92299311688E+02  0.20535221936E+03  0.00000000000E+00 0. -1.
        -11    1    3    3    0    0 -0.16631099609E+03 -0.72053949169E+03  0.52331280864E+03  0.90592096906E+03  0.00000000000E+00 0.  1.
         22    1    1    2    0    0  0.17482624469E+03  0.90378212210E+03  0.17196398179E+04  0.19505249148E+04  0.00000000000E+00 0. -1.
<mgrwt>
<rscale>  0 0.19802035E+04</rscale>
<asrwt>0</asrwt>
<pdfrwt beam="1">  1        2 0.41515768E+00 0.19802035E+04</pdfrwt>
<pdfrwt beam="2">  1       -2 0.55888168E-01 0.19802035E+04</pdfrwt>
<totfact> 0.74542527E+00</totfact>
</mgrwt>
</event>
<event>
 6    1  0.3017327E-006  0.7515072E+03  0.7818608E-02  0.9632989E-01
         -2   -1    0    0    0  501 -0.00000000000E+00  0.00000000000E+00  0.18655003850E+03  0.18655003850E+03  0.00000000000E+00 0. -1.
          2   -1    0    0  501    0  0.00000000000E+00 -0.00000000000E+00 -0.75685205543E+03  0.75685205543E+03  0.00000000000E+00 0.  1.
         23    2    1    2    0    0 -0.18697838098E+03 -0.73752882412E+02  0.10060076916E+03  0.24303722403E+03  0.92445523911E+02 0.  0.
         13    1    3    3    0    0 -0.18544650953E+02  0.20024878779E+02  0.21142155161E+02  0.34523768247E+02  0.00000000000E+00 0.  1.
        -13    1    3    3    0    0 -0.16843373002E+03 -0.93777761191E+02  0.79458613996E+02  0.20851345578E+03  0.00000000000E+00 0. -1.
         22    1    1    2    0    0  0.18697838098E+03  0.73752882412E+02 -0.67090278609E+03  0.70036486991E+03  0.00000000000E+00 0.  1.
<mgrwt>
<rscale>  0 0.75150723E+03</rscale>
<asrwt>0</asrwt>
<pdfrwt beam="1">  1        2 0.11643878E+00 0.75150723E+03</pdfrwt>
<pdfrwt beam="2">  1       -2 0.28700006E-01 0.75150723E+03</pdfrwt>
<totfact> 0.41479401E+02</totfact>
</mgrwt>
</event>
<event>
 6    1  0.3017327E-006  0.1746234E+04  0.7818608E-02  0.8735426E-01
          2   -1    0    0  501    0  0.00000000000E+00  0.00000000000E+00  0.66945167080E+03  0.66945167080E+03  0.00000000000E+00 0. -1.
         -2   -1    0    0    0  501 -0.00000000000E+00 -0.00000000000E+00 -0.11387423909E+04  0.11387423909E+04  0.00000000000E+00 0.  1.
         23    2    1    2    0    0 -0.26231540723E+02  0.45765595799E+03 -0.10018885345E+04  0.11054867958E+04  0.90461873118E+02 0.  0.
         13    1    3    3    0    0 -0.16360133299E+02  0.17863630959E+03 -0.49945913032E+03  0.53069577719E+03  0.00000000000E+00 0.  1.
        -13    1    3    3    0    0 -0.98714074247E+01  0.27901964840E+03 -0.50242940415E+03  0.57479101857E+03  0.00000000000E+00 0. -1.
         22    1    1    2    0    0  0.26231540723E+02 -0.45765595799E+03  0.53259781441E+03  0.70270726589E+03  0.00000000000E+00 0. -1.
<mgrwt>
<rscale>  0 0.17462337E+04</rscale>
<asrwt>0</asrwt>
<pdfrwt beam="1">  1        2 0.10299257E+00 0.17462337E+04</pdfrwt>
<pdfrwt beam="2">  1       -2 0.17519114E+00 0.17462337E+04</pdfrwt>
<totfact> 0.80426183E+00</totfact>
</mgrwt>
</event>
<event>
 6    1  0.3017327E-006  0.2110683E+04  0.7818608E-02  0.8556552E-01
          2   -1    0    0  501    0  0.00000000000E+00  0.00000000000E+00  0.53317378139E+03  0.53317378139E+03  0.00000000000E+00 0.  1.
         -2   -1    0    0    0  501 -0.00000000000E+00 -0.00000000000E+00 -0.20888981004E+04  0.20888981004E+04  0.00000000000E+00 0. -1.
         23    2    1    2    0    0  0.71532029569E+03 -0.63640008819E+03 -0.13208664228E+04  0.16362491650E+04  0.12623400984E+03 0.  0.
         13    1    3    3    0    0  0.35650092849E+03 -0.39751078095E+03 -0.76174621843E+03  0.93024998483E+03  0.00000000000E+00 0. -1.
        -13    1    3    3    0    0  0.35881936720E+03 -0.23888930724E+03 -0.55912020438E+03  0.70599918012E+03  0.00000000000E+00 0.  1.
         22    1    1    2    0    0 -0.71532029569E+03  0.63640008819E+03 -0.23485789623E+03  0.98582271687E+03  0.00000000000E+00 0. -1.
<mgrwt>
<rscale>  0 0.21106830E+04</rscale>
<asrwt>0</asrwt>
<pdfrwt beam="1">  1        2 0.82026735E-01 0.21106830E+04</pdfrwt>
<pdfrwt beam="2">  1       -2 0.32136894E+00 0.21106830E+04</pdfrwt>
<totfact> 0.12363833E+00</totfact>
</mgrwt>
</event>
<event>
 6    1  0.3017327E-006  0.1286030E+04  0.7818608E-02  0.9040718E-01
         -2   -1    0    0    0  501 -0.00000000000E+00  0.00000000000E+00  0.44183588705E+03  0.44183588705E+03  0.00000000000E+00 0.  1.
          2   -1    0    0  501    0  0.00000000000E+00 -0.00000000000E+00 -0.93579577520E+03  0.93579577520E+03  0.00000000000E+00 0. -1.
         23    2    1    2    0    0  0.63179360486E+03 -0.53130016686E+02 -0.15546785982E+03  0.65890862029E+03  0.89467070144E+02 0.  0.
         11    1    3    3    0    0  0.42934097985E+03 -0.21396739794E+01 -0.12994018392E+03  0.44857854004E+03  0.00000000000E+00 0.  1.
        -11    1    3    3    0    0  0.20245262500E+03 -0.50990342706E+02 -0.25527675898E+02  0.21033008025E+03  0.00000000000E+00 0. -1.
         22    1    1    2    0    0 -0.63179360486E+03  0.53130016686E+02 -0.33849202832E+03  0.71872304196E+03  0.00000000000E+00 0.  1.
<mgrwt>
<rscale>  0 0.12860298E+04</rscale>
<asrwt>0</asrwt>
<pdfrwt beam="1">  1        2 0.14396858E+00 0.12860298E+04</pdfrwt>
<pdfrwt beam="2">  1       -2 0.67974752E-01 0.12860298E+04</pdfrwt>
<totfact> 0.53959258E+01</totfact>
</mgrwt>
</event>
<event>
 6    1  0.3017327E-006  0.1669829E+04  0.7818608E-02  0.8778761E-01
         -2   -1    0    0    0  501 -0.00000000000E+00  0.00000000000E+00  0.41097198377E+03  0.41097198377E+03  0.00000000000E+00 0.  1.
          2   -1    0    0  501    0  0.00000000000E+00 -0.00000000000E+00 -0.16961799957E+04  0.16961799957E+04  0.00000000000E+00 0. -1.
         23    2    1    2    0    0  0.70383191440E+03  0.36735658318E+03 -0.95977203504E+03  0.12491083920E+04  0.93697346941E+02 0.  0.
         13    1    3    3    0    0  0.40323638187E+03  0.18009966306E+03 -0.47278636898E+03  0.64696400131E+03  0.00000000000E+00 0.  1.
        -13    1    3    3    0    0  0.30059553254E+03  0.18725692012E+03 -0.48698566606E+03  0.60214439071E+03  0.00000000000E+00 0. -1.
         22    1    1    2    0    0 -0.70383191440E+03 -0.36735658318E+03 -0.32543597690E+03  0.85804358747E+03  0.00000000000E+00 0.  1.
<mgrwt>
<rscale>  0 0.16698293E+04</rscale>
<asrwt>0</asrwt>
<pdfrwt beam="1">  1        2 0.26095076E+00 0.16698293E+04</pdfrwt>
<pdfrwt beam="2">  1       -2 0.63226460E-01 0.16698293E+04</pdfrwt>
<totfact> 0.21773719E+01</totfact>
</mgrwt>
</event>
<event>
 6    1  0.3017327E-006  0.2620550E+04  0.7818608E-02  0.8361254E-01
         -2   -1    0    0    0  501 -0.00000000000E+00  0.00000000000E+00  0.60096833745E+03  0.60096833745E+03  0.00000000000E+00 0.  1.
          2   -1    0    0  501    0  0.00000000000E+00 -0.00000000000E+00 -0.28567581830E+04  0.28567581830E+04  0.00000000000E+00 0. -1.
         23    2    1    2    0    0  0.70131404360E+03  0.48609135859E+03  0.17994828898E+03  0.87684557461E+03  0.91381498993E+02 0.  0.
         11    1    3    3    0    0  0.13873705934E+03  0.84238710204E+02 -0.55953399447E+00  0.16230971940E+03  0.00000000000E+00 0. -1.
        -11    1    3    3    0    0  0.56257698426E+03  0.40185264838E+03  0.18050782297E+03  0.71453585521E+03  0.00000000000E+00 0.  1.
         22    1    1    2    0    0 -0.70131404360E+03 -0.48609135859E+03 -0.24357381345E+04  0.25808809458E+04  0.00000000000E+00 0. -1.
<mgrwt>
<rscale>  0 0.26205505E+04</rscale>
<asrwt>0</asrwt>
<pdfrwt beam="1">  1        2 0.43950126E+00 0.26205505E+04</pdfrwt>
<pdfrwt beam="2">  1       -2 0.92456667E-01 0.26205505E+04</pdfrwt>
<totfact> 0.18721015E+00</totfact>
</mgrwt>
</event>
<event>
 6    1  0.3017327E-006  0.2961755E+04  0.7818608E-02  0.8254737E-01
          2   -1    0    0  501    0  0.00000000000E+00  0.00000000000E+00  0.19136910193E+04  0.19136910193E+04  0.00000000000E+00 0.  1.
         -2   -1    0    0    0  501 -0.00000000000E+00 -0.00000000000E+00 -0.11459519028E+04  0.11459519028E+04  0.00000000000E+00 0. -1.
         23    2    1    2    0    0 -0.74688177042E+03  0.77747016428E+03 -0.66251335061E+03  0.12685777768E+04  0.89852104170E+02 0.  0.
         11    1    3    3    0    0 -0.52853662448E+03  0.51775243785E+03 -0.41238027614E+03  0.84703957550E+03  0.00000000000E+00 0.  1.
        -11    1    3    3    0    0 -0.21834514594E+03  0.25971772643E+03 -0.25013307447E+03  0.42153820126E+03  0.00000000000E+00 0. -1.
         22    1    1    2    0    0  0.74688177042E+03 -0.77747016428E+03  0.14302524671E+04  0.17910651454E+04  0.00000000000E+00 0. -1.
<mgrwt>
<rscale>  0 0.29617548E+04</rscale>
<asrwt>0</asrwt>
<pdfrwt beam="1">  1        2 0.29441400E+00 0.29617548E+04</pdfrwt>
<pdfrwt beam="2">  1       -2 0.17630029E+00 0.29617548E+04</pdfrwt>
<totfact> 0.12329002E+00</totfact>
</mgrwt>
</event>
<event>
 6    1  0.3017327E-006  0.2897584E+04  0.7818608E-02  0.8273597E-01
         -2   -1    0    0    0  501 -0.00000000000E+00  0.00000000000E+00  0.90025330289E+03  0.90025330289E+03  0.00000000000E+00 0.  1.
          2   -1    0    0  501    0  0.00000000000E+00 -0.00000000000E+00 -0.23315635382E+04  0.23315635382E+04  0.00000000000E+00 0. -1.
         23    2    1    2    0    0  0.66252404770E+03 -0.17477111019E+03 -0.21382985612E+04  0.22472786003E+04  0.91963665486E+02 0.  0.
         11    1    3    3    0    0  0.51264976793E+03 -0.94410279632E+02 -0.16148364304E+04  0.16968853180E+04  0.00000000000E+00 0. -1.
        -11    1    3    3    0    0  0.14987427977E+03 -0.80360830558E+02 -0.52346213074E+03  0.55039328225E+03  0.00000000000E+00 0.  1.
         22    1    1    2    0    0 -0.66252404770E+03  0.17477111019E+03  0.70698832586E+03  0.98453824082E+03  0.00000000000E+00 0.  1.
<mgrwt>
<rscale>  0 0.28975837E+04</rscale>
<asrwt>0</asrwt>
<pdfrwt beam="1">  1        2 0.35870207E+00 0.28975837E+04</pdfrwt>
<pdfrwt beam="2">  1       -2 0.13850051E+00 0.28975837E+04</pdfrwt>
<totfact> 0.13867919E+00</totfact>
</mgrwt>
</event>
<event>
 6    1  0.3017327E-006  0.1110114E+04  0.7818608E-02  0.9195389E-01
          2   -1    0    0  501    0  0.00000000000E+00  0.00000000000E+00  0.17634011935E+04  0.17634011935E+04  0.00000000000E+00 0. -1.
         -2   -1    0    0    0  501 -0.00000000000E+00 -0.00000000000E+00 -0.17471264371E+03  0.17471264371E+03  0.00000000000E+00 0.  1.
         23    2    1    2    0    0  0.55010950606E+02  0.48277962835E+02  0.17537036444E+04  0.17575952846E+04  0.91146835224E+02 0.  0.
         13    1    3    3    0    0  0.10709247262E+02  0.57815993127E+02  0.57005645802E+03  0.57308092131E+03  0.00000000000E+00 0.  1.
        -13    1    3    3    0    0  0.44301703343E+02 -0.95380302922E+01  0.11836471864E+04  0.11845143633E+04  0.00000000000E+00 0. -1.
         22    1    1    2    0    0 -0.55010950606E+02 -0.48277962835E+02 -0.16501509464E+03  0.18051855262E+03  0.00000000000E+00 0.  1.
<mgrwt>
<rscale>  0 0.11101144E+04</rscale>
<asrwt>0</asrwt>
<pdfrwt beam="1">  1        2 0.27129248E+00 0.11101144E+04</pdfrwt>
<pdfrwt beam="2">  1       -2 0.26878870E-01 0.11101144E+04</pdfrwt>
<totfact> 0.11280074E+02</totfact>
</mgrwt>
</event>
<event>
 6    1  0.3017327E-006  0.2798346E+04  0.7818608E-02  0.8303782E-01
          2   -1    0    0  501    0  0.00000000000E+00  0.00000000000E+00  0.41444936840E+04  0.41444936840E+04  0.00000000000E+00 0. -1.
         -2   -1    0    0    0  501 -0.00000000000E+00 -0.00000000000E+00 -0.47235796088E+03  0.47235796088E+03  0.00000000000E+00 0.  1.
         23    2    1    2    0    0 -0.38944846086E+03 -0.48260340645E+03  0.39045281968E+04  0.39545960950E+04  0.94412305477E+02 0.  0.
         11    1    3    3    0    0 -0.31317677305E+03 -0.35027702261E+03  0.31400594840E+04  0.31750192514E+04  0.00000000000E+00 0.  1.
        -11    1    3    3    0    0 -0.76271687805E+02 -0.13232638383E+03  0.76446871276E+03  0.77957684356E+03  0.00000000000E+00 0. -1.
         22    1    1    2    0    0  0.38944846086E+03  0.48260340645E+03 -0.23239247365E+03  0.66225554991E+03  0.00000000000E+00 0.  1.
<mgrwt>
<rscale>  0 0.27983456E+04</rscale>
<asrwt>0</asrwt>
<pdfrwt beam="1">  1        2 0.63761439E+00 0.27983456E+04</pdfrwt>
<pdfrwt beam="2">  1       -2 0.72670458E-01 0.27983456E+04</pdfrwt>
<totfact> 0.38712412E-01</totfact>
</mgrwt>
</event>
<event>
 6    1  0.3017327E-006  0.1820527E+04  0.7818608E-02  0.8695459E-01
         -2   -1    0    0    0  501 -0.00000000000E+00  0.00000000000E+00  0.50587997817E+03  0.50587997817E+03  0.00000000000E+00 0.  1.
          2   -1    0    0  501    0  0.00000000000E+00 -0.00000000000E+00 -0.16378978641E+04  0.16378978641E+04  0.00000000000E+00 0. -1.
         23    2    1    2    0    0  0.23073747002E+03  0.20530092664E+03  0.43796118399E+03  0.54370830299E+03  0.91763116253E+02 0.  0.
         13    1    3    3    0    0  0.16052771023E+03  0.16294022827E+03  0.37914164065E+03  0.44279458829E+03  0.00000000000E+00 0. -1.
        -13    1    3    3    0    0  0.70209759790E+02  0.42360698366E+02  0.58819543343E+02  0.10091371470E+03  0.00000000000E+00 0.  1.
         22    1    1    2    0    0 -0.23073747002E+03 -0.20530092664E+03 -0.15699790699E+04  0.16000695393E+04  0.00000000000E+00 0. -1.
<mgrwt>
<rscale>  0 0.18205271E+04</rscale>
<asrwt>0</asrwt>
<pdfrwt beam="1">  1        2 0.25198428E+00 0.18205271E+04</pdfrwt>
<pdfrwt beam="2">  1       -2 0.77827690E-01 0.18205271E+04</pdfrwt>
<totfact> 0.14718196E+01</totfact>
</mgrwt>
</event>
<event>
 6    1  0.3017327E-006  0.1323500E+04  0.7818608E-02  0.9011134E-01
         -2   -1    0    0    0  501 -0.00000000000E+00  0.00000000000E+00  0.18444715799E+03  0.18444715799E+03  0.00000000000E+00 0.  1.
          2   -1    0    0  501    0  0.00000000000E+00 -0.00000000000E+00 -0.23741938873E+04  0.23741938873E+04  0.00000000000E+00 0. -1.
         23    2    1    2    0    0 -0.82429951336E+01 -0.61398345378E+03 -0.63931888781E+03  0.89104693396E+03  0.90511710381E+02 0.  0.
         13    1    3    3    0    0 -0.17160141405E+02 -0.22933865279E+03 -0.30029154022E+03  0.37824026391E+03  0.00000000000E+00 0. -1.
        -13    1    3    3    0    0  0.89171462716E+01 -0.38464480099E+03 -0.33902734759E+03  0.51280667004E+03  0.00000000000E+00 0.  1.
         22    1    1    2    0    0  0.82429951336E+01  0.61398345378E+03 -0.15504278415E+04  0.16675941114E+04  0.00000000000E+00 0.  1.
<mgrwt>
<rscale>  0 0.13235004E+04</rscale>
<asrwt>0</asrwt>
<pdfrwt beam="1">  1        2 0.36526058E+00 0.13235004E+04</pdfrwt>
<pdfrwt beam="2">  1       -2 0.28376487E-01 0.13235004E+04</pdfrwt>
<totfact> 0.45926860E+01</totfact>
</mgrwt>
</event>
<event>
 6    1  0.3017327E-006  0.2630456E+04  0.7818608E-02  0.8357929E-01
          2   -1    0    0  501    0  0.00000000000E+00  0.00000000000E+00  0.26976786240E+04  0.26976786240E+04  0.00000000000E+00 0. -1.
         -2   -1    0    0    0  501 -0.00000000000E+00 -0.00000000000E+00 -0.64122706653E+03  0.64122706653E+03  0.00000000000E+00 0.  1.
         23    2    1    2    0    0 -0.10963842759E+04  0.21376514001E+03  0.15155917490E+03  0.11306554772E+04  0.87507766324E+02 0.  0.
         11    1    3    3    0    0 -0.69051304391E+03  0.10137560590E+03  0.12177197489E+03  0.70845867286E+03  0.00000000000E+00 0. -1.
        -11    1    3    3    0    0 -0.40587123196E+03  0.11238953411E+03  0.29787200008E+02  0.42219680434E+03  0.00000000000E+00 0.  1.
         22    1    1    2    0    0  0.10963842759E+04 -0.21376514001E+03  0.19048923826E+04  0.22082502133E+04  0.00000000000E+00 0. -1.
<mgrwt>
<rscale>  0 0.26304559E+04</rscale>
<asrwt>0</asrwt>
<pdfrwt beam="1">  1        2 0.41502747E+00 0.26304559E+04</pdfrwt>
<pdfrwt beam="2">  1       -2 0.98650320E-01 0.26304559E+04</pdfrwt>
<totfact> 0.20044792E+00</totfact>
</mgrwt>
</event>
<event>
 6    1  0.3017327E-006  0.2686856E+04  0.7818608E-02  0.8339282E-01
         -2   -1    0    0    0  501 -0.00000000000E+00  0.00000000000E+00  0.20679131520E+04  0.20679131520E+04  0.00000000000E+00 0.  1.
          2   -1    0    0  501    0  0.00000000000E+00 -0.00000000000E+00 -0.87276345110E+03  0.87276345110E+03  0.00000000000E+00 0. -1.
         23    2    1    2    0    0  0.90268753602E+02 -0.11592800488E+04  0.13312584032E+04  0.17699485141E+04  0.91597636947E+02 0.  0.
         13    1    3    3    0    0  0.46304348823E+00 -0.17683824436E+03  0.25051780204E+03  0.30664498726E+03  0.00000000000E+00 0. -1.
        -13    1    3    3    0    0  0.89805710114E+02 -0.98244180443E+03  0.10807406012E+04  0.14633035269E+04  0.00000000000E+00 0.  1.
         22    1    1    2    0    0 -0.90268753602E+02  0.11592800488E+04 -0.13610870236E+03  0.11707280889E+04  0.00000000000E+00 0. -1.
<mgrwt>
<rscale>  0 0.26868562E+04</rscale>
<asrwt>0</asrwt>
<pdfrwt beam="1">  1        2 0.13427130E+00 0.26868562E+04</pdfrwt>
<pdfrwt beam="2">  1       -2 0.31814048E+00 0.26868562E+04</pdfrwt>
<totfact> 0.66088770E-01</totfact>
</mgrwt>
</event>
<event>
 6    1  0.3017327E-006  0.2117500E+04  0.7818608E-02  0.8553573E-01
          2   -1    0    0  501    0  0.00000000000E+00  0.00000000000E+00  0.25823282334E+04  0.25823282334E+04  0.00000000000E+00 0. -1.
         -2   -1    0    0    0  501 -0.00000000000E+00 -0.00000000000E+00 -0.43408565041E+03  0.43408565041E+03  0.00000000000E+00 0.  1.
         23    2    1    2    0    0 -0.11023414931E+03 -0.23257907958E+03  0.25364970965E+04  0.25505961478E+04  0.74017515498E+02 0.  0.
         13    1    3    3    0    0 -0.10032991131E+03 -0.12740740166E+03  0.15442982189E+04  0.15527896593E+04  0.00000000000E+00 0. -1.
        -13    1    3    3    0    0 -0.99042379936E+01 -0.10517167792E+03  0.99219887761E+03  0.99780648851E+03  0.00000000000E+00 0.  1.
         22    1    1    2    0    0  0.11023414931E+03  0.23257907958E+03 -0.38825451351E+03  0.46581773602E+03  0.00000000000E+00 0.  1.
<mgrwt>
<rscale>  0 0.21175001E+04</rscale>
<asrwt>0</asrwt>
<pdfrwt beam="1">  1        2 0.39728126E+00 0.21175001E+04</pdfrwt>
<pdfrwt beam="2">  1       -2 0.66782409E-01 0.21175001E+04</pdfrwt>
<totfact> 0.59089923E+00</totfact>
</mgrwt>
</event>
<event>
 6    1  0.3017327E-006  0.2280394E+04  0.7818608E-02  0.8485692E-01
         -2   -1    0    0    0  501 -0.00000000000E+00  0.00000000000E+00  0.47626296869E+03  0.47626296869E+03  0.00000000000E+00 0.  1.
          2   -1    0    0  501    0  0.00000000000E+00 -0.00000000000E+00 -0.27296869730E+04  0.27296869730E+04  0.00000000000E+00 0. -1.
         23    2    1    2    0    0 -0.15810160109E+03 -0.10144980532E+04 -0.18188502250E+04  0.20910253766E+04  0.99842717567E+02 0.  0.
         13    1    3    3    0    0 -0.82961777738E+02 -0.30351591368E+03 -0.61711808641E+03  0.69270433736E+03  0.00000000000E+00 0. -1.
        -13    1    3    3    0    0 -0.75139823355E+02 -0.71098213953E+03 -0.12017321386E+04  0.13983210392E+04  0.00000000000E+00 0.  1.
         22    1    1    2    0    0  0.15810160109E+03  0.10144980532E+04 -0.43457377931E+03  0.11149245651E+04  0.00000000000E+00 0.  1.
<mgrwt>
<rscale>  0 0.22803937E+04</rscale>
<asrwt>0</asrwt>
<pdfrwt beam="1">  1        2 0.41995185E+00 0.22803937E+04</pdfrwt>
<pdfrwt beam="2">  1       -2 0.73271224E-01 0.22803937E+04</pdfrwt>
<totfact> 0.38933601E+00</totfact>
</mgrwt>
</event>
<event>
 6    1  0.3017327E-006  0.2532864E+04  0.7818608E-02  0.8391370E-01
         -2   -1    0    0    0  501 -0.00000000000E+00  0.00000000000E+00  0.14392099361E+04  0.14392099361E+04  0.00000000000E+00 0. -1.
          2   -1    0    0  501    0  0.00000000000E+00 -0.00000000000E+00 -0.11143965670E+04  0.11143965670E+04  0.00000000000E+00 0.  1.
         23    2    1    2    0    0  0.70538365679E+03 -0.35867199088E+03 -0.83225796401E+03  0.11518127344E+04  0.88360376262E+02 0.  0.
         11    1    3    3    0    0  0.18199758239E+03 -0.65542945437E+02 -0.16204142348E+03  0.25234187250E+03  0.00000000000E+00 0.  1.
        -11    1    3    3    0    0  0.52338607440E+03 -0.29312904544E+03 -0.67021654053E+03  0.89947086187E+03  0.00000000000E+00 0. -1.
         22    1    1    2    0    0 -0.70538365679E+03  0.35867199088E+03  0.11570713331E+04  0.14017937687E+04  0.00000000000E+00 0. -1.
<mgrwt>
<rscale>  0 0.25328645E+04</rscale>
<asrwt>0</asrwt>
<pdfrwt beam="1">  1        2 0.17144562E+00 0.25328645E+04</pdfrwt>
<pdfrwt beam="2">  1       -2 0.22141691E+00 0.25328645E+04</pdfrwt>
<totfact> 0.18379572E+00</totfact>
</mgrwt>
</event>
<event>
 6    1  0.3017327E-006  0.3373323E+04  0.7818608E-02  0.8144485E-01
          2   -1    0    0  501    0  0.00000000000E+00  0.00000000000E+00  0.18765894848E+04  0.18765894848E+04  0.00000000000E+00 0. -1.
         -2   -1    0    0    0  501 -0.00000000000E+00 -0.00000000000E+00 -0.15159563286E+04  0.15159563286E+04  0.00000000000E+00 0.  1.
         23    2    1    2    0    0  0.15995657781E+03 -0.14007669674E+04  0.11093075145E+04  0.17962226950E+04  0.90103300543E+02 0.  0.
         11    1    3    3    0    0  0.15634939028E+03 -0.11200639000E+04  0.85993128516E+03  0.14207287169E+04  0.00000000000E+00 0. -1.
        -11    1    3    3    0    0  0.36071875374E+01 -0.28070306742E+03  0.24937622929E+03  0.37549397811E+03  0.00000000000E+00 0.  1.
         22    1    1    2    0    0 -0.15995657781E+03  0.14007669674E+04 -0.74867435824E+03  0.15963231184E+04  0.00000000000E+00 0.  1.
<mgrwt>
<rscale>  0 0.33733234E+04</rscale>
<asrwt>0</asrwt>
<pdfrwt beam="1">  1        2 0.28870607E+00 0.33733234E+04</pdfrwt>
<pdfrwt beam="2">  1       -2 0.23322405E+00 0.33733234E+04</pdfrwt>
<totfact> 0.53024061E-01</totfact>
</mgrwt>
</event>
<event>
 6    1  0.3017327E-006  0.1622443E+04  0.7818608E-02  0.8806878E-01
         -2   -1    0    0    0  501 -0.00000000000E+00  0.00000000000E+00  0.17808630916E+03  0.17808630916E+03  0.00000000000E+00 0.  1.
          2   -1    0    0  501    0  0.00000000000E+00 -0.00000000000E+00 -0.36952873842E+04  0.36952873842E+04  0.00000000000E+00 0. -1.
         23    2    1    2    0    0 -0.17689137274E+03 -0.58022827775E+03 -0.48835446732E+03  0.78438240410E+03  0.93862974909E+02 0.  0.
         11    1    3    3    0    0 -0.11112162929E+03 -0.44188467134E+03 -0.32009976859E+03  0.55684283341E+03  0.00000000000E+00 0. -1.
        -11    1    3    3    0    0 -0.65769743447E+02 -0.13834360641E+03 -0.16825469873E+03  0.22753957069E+03  0.00000000000E+00 0.  1.
         22    1    1    2    0    0  0.17689137274E+03  0.58022827775E+03 -0.30288466077E+04  0.30889912892E+04  0.00000000000E+00 0. -1.
<mgrwt>
<rscale>  0 0.16224427E+04</rscale>
<asrwt>0</asrwt>
<pdfrwt beam="1">  1        2 0.56850572E+00 0.16224427E+04</pdfrwt>
<pdfrwt beam="2">  1       -2 0.27397895E-01 0.16224427E+04</pdfrwt>
<totfact> 0.69330882E+00</totfact>
</mgrwt>
</event>
<event>
 6    1  0.3017327E-006  0.3627668E+04  0.7818608E-02  0.8084183E-01
          2   -1    0    0  501    0  0.00000000000E+00  0.00000000000E+00  0.22842129145E+04  0.22842129145E+04  0.00000000000E+00 0. -1.
         -2   -1    0    0    0  501 -0.00000000000E+00 -0.00000000000E+00 -0.14403181584E+04  0.14403181584E+04  0.00000000000E+00 0.  1.
         23    2    1    2    0    0  0.10948229851E+04 -0.11279432470E+04 -0.50464008404E+03  0.16534348529E+04  0.91059656690E+02 0.  0.
         13    1    3    3    0    0  0.64751957113E+03 -0.70751560984E+03 -0.27149669117E+03  0.99678000907E+03  0.00000000000E+00 0. -1.
        -13    1    3    3    0    0  0.44730341398E+03 -0.42042763719E+03 -0.23314339287E+03  0.65665484382E+03  0.00000000000E+00 0.  1.
         22    1    1    2    0    0 -0.10948229851E+04  0.11279432470E+04  0.13485348402E+04  0.20710962200E+04  0.00000000000E+00 0. -1.
<mgrwt>
<rscale>  0 0.36276678E+04</rscale>
<asrwt>0</asrwt>
<pdfrwt beam="1">  1        2 0.35141737E+00 0.36276678E+04</pdfrwt>
<pdfrwt beam="2">  1       -2 0.22158741E+00 0.36276678E+04</pdfrwt>
<totfact> 0.36346721E-01</totfact>
</mgrwt>
</event>
<event>
 6    1  0.3017327E-006  0.1877384E+04  0.7818608E-02  0.8666196E-01
         -2   -1    0    0    0  501 -0.00000000000E+00  0.00000000000E+00  0.67905913187E+03  0.67905913187E+03  0.00000000000E+00 0. -1.
          2   -1    0    0  501    0  0.00000000000E+00 -0.00000000000E+00 -0.12975935390E+04  0.12975935390E+04  0.00000000000E+00 0.  1.
         23    2    1    2    0    0  0.27066706796E+03 -0.34855934994E+03 -0.11795759470E+04  0.12628446493E+04  0.92859631865E+02 0.  0.
         13    1    3    3    0    0  0.32181014783E+02 -0.62811644671E+02 -0.29164539264E+03  0.30006325244E+03  0.00000000000E+00 0. -1.
        -13    1    3    3    0    0  0.23848605318E+03 -0.28574770527E+03 -0.88793055441E+03  0.96278139683E+03  0.00000000000E+00 0.  1.
         22    1    1    2    0    0 -0.27066706796E+03  0.34855934994E+03  0.56104153995E+03  0.71380802157E+03  0.00000000000E+00 0. -1.
<mgrwt>
<rscale>  0 0.18773841E+04</rscale>
<asrwt>0</asrwt>
<pdfrwt beam="1">  1        2 0.19962977E+00 0.18773841E+04</pdfrwt>
<pdfrwt beam="2">  1       -2 0.10447064E+00 0.18773841E+04</pdfrwt>
<totfact> 0.11580289E+01</totfact>
</mgrwt>
</event>
<event>
 6    1  0.3017327E-006  0.3830706E+04  0.7818608E-02  0.8039597E-01
          2   -1    0    0  501    0  0.00000000000E+00  0.00000000000E+00  0.13603684034E+04  0.13603684034E+04  0.00000000000E+00 0. -1.
         -2   -1    0    0    0  501 -0.00000000000E+00 -0.00000000000E+00 -0.26967523086E+04  0.26967523086E+04  0.00000000000E+00 0.  1.
         23    2    1    2    0    0 -0.84729214358E+03 -0.14559271606E+04  0.29444278943E+03  0.17125048411E+04  0.91369584934E+02 0.  0.
         11    1    3    3    0    0 -0.39404876152E+03 -0.70517446957E+03  0.18525854356E+03  0.82877390581E+03  0.00000000000E+00 0.  1.
        -11    1    3    3    0    0 -0.45324338205E+03 -0.75075269106E+03  0.10918424587E+03  0.88373093533E+03  0.00000000000E+00 0. -1.
         22    1    1    2    0    0  0.84729214358E+03  0.14559271606E+04 -0.16308266946E+04  0.23446158708E+04  0.00000000000E+00 0.  1.
<mgrwt>
<rscale>  0 0.38307057E+04</rscale>
<asrwt>0</asrwt>
<pdfrwt beam="1">  1        2 0.20928745E+00 0.38307057E+04</pdfrwt>
<pdfrwt beam="2">  1       -2 0.41488497E+00 0.38307057E+04</pdfrwt>
<totfact> 0.72234740E-02</totfact>
</mgrwt>
</event>
<event>
 6    1  0.3017327E-006  0.2265588E+04  0.7818608E-02  0.8491614E-01
          2   -1    0    0  501    0  0.00000000000E+00  0.00000000000E+00  0.19850930883E+04  0.19850930883E+04  0.00000000000E+00 0.  1.
         -2   -1    0    0    0  501 -0.00000000000E+00 -0.00000000000E+00 -0.64642953036E+03  0.64642953036E+03  0.00000000000E+00 0. -1.
         23    2    1    2    0    0 -0.71299923886E+03 -0.85964399622E+03  0.45983191559E+03  0.12103608508E+04  0.78563883105E+02 0.  0.
         13    1    3    3    0    0 -0.46131947611E+03 -0.50331060577E+03  0.30008201707E+03  0.74577908384E+03  0.00000000000E+00 0. -1.
        -13    1    3    3    0    0 -0.25167976274E+03 -0.35633339045E+03  0.15974989852E+03  0.46458176697E+03  0.00000000000E+00 0.  1.
         22    1    1    2    0    0  0.71299923886E+03  0.85964399622E+03  0.87883164238E+03  0.14211617679E+04  0.00000000000E+00 0.  1.
<mgrwt>
<rscale>  0 0.22655885E+04</rscale>
<asrwt>0</asrwt>
<pdfrwt beam="1">  1        2 0.30539893E+00 0.22655885E+04</pdfrwt>
<pdfrwt beam="2">  1       -2 0.99450698E-01 0.22655885E+04</pdfrwt>
<totfact> 0.51810221E+00</totfact>
</mgrwt>
</event>
<event>
 6    1  0.3017327E-006  0.2723204E+04  0.7818608E-02  0.8327515E-01
         -1   -1    0    0    0  501 -0.00000000000E+00  0.00000000000E+00  0.76382051146E+03  0.76382051146E+03  0.00000000000E+00 0.  1.
          1   -1    0    0  501    0  0.00000000000E+00 -0.00000000000E+00 -0.24272199177E+04  0.24272199177E+04  0.00000000000E+00 0. -1.
         23    2    1    2    0    0  0.83401258001E+03 -0.92226594021E+03 -0.18691371221E+03  0.12607136556E+04  0.91163246421E+02 0.  0.
         13    1    3    3    0    0  0.51159157039E+03 -0.50391622632E+03 -0.89869757994E+02  0.72369473637E+03  0.00000000000E+00 0. -1.
        -13    1    3    3    0    0  0.32242100962E+03 -0.41834971389E+03 -0.97043954216E+02  0.53701891922E+03  0.00000000000E+00 0.  1.
         22    1    1    2    0    0 -0.83401258001E+03  0.92226594021E+03 -0.14764856941E+04  0.19303267736E+04  0.00000000000E+00 0. -1.
<mgrwt>
<rscale>  0 0.27232043E+04</rscale>
<asrwt>0</asrwt>
<pdfrwt beam="1">  1        1 0.37341845E+00 0.27232043E+04</pdfrwt>
<pdfrwt beam="2">  1       -1 0.11751085E+00 0.27232043E+04</pdfrwt>
<totfact> 0.86351952E-01</totfact>
</mgrwt>
</event>
<event>
 6    1  0.3017327E-006  0.1165502E+04  0.7818608E-02  0.9143600E-01
         -2   -1    0    0    0  501 -0.00000000000E+00  0.00000000000E+00  0.21734922352E+03  0.21734922352E+03  0.00000000000E+00 0.  1.
          2   -1    0    0  501    0  0.00000000000E+00 -0.00000000000E+00 -0.15624575020E+04  0.15624575020E+04  0.00000000000E+00 0. -1.
         23    2    1    2    0    0  0.11181572188E+03 -0.28675523710E+03  0.72592280965E+02  0.32908063217E+03  0.91066467773E+02 0.  0.
         11    1    3    3    0    0  0.90820464134E+02 -0.13860800706E+03  0.74270007409E+01  0.16587856000E+03  0.00000000000E+00 0. -1.
        -11    1    3    3    0    0  0.20995257744E+02 -0.14814723003E+03  0.65165280224E+02  0.16320207217E+03  0.00000000000E+00 0.  1.
         22    1    1    2    0    0 -0.11181572188E+03  0.28675523710E+03 -0.14177005594E+04  0.14507260933E+04  0.00000000000E+00 0. -1.
<mgrwt>
<rscale>  0 0.11655023E+04</rscale>
<asrwt>0</asrwt>
<pdfrwt beam="1">  1        2 0.24037808E+00 0.11655023E+04</pdfrwt>
<pdfrwt beam="2">  1       -2 0.33438342E-01 0.11655023E+04</pdfrwt>
<totfact> 0.96702480E+01</totfact>
</mgrwt>
</event>
<event>
 6    1  0.3017327E-006  0.4492101E+04  0.7818608E-02  0.7912021E-01
          1   -1    0    0  501    0  0.00000000000E+00  0.00000000000E+00  0.28883875382E+04  0.28883875382E+04  0.00000000000E+00 0. -1.
         -1   -1    0    0    0  501 -0.00000000000E+00 -0.00000000000E+00 -0.17465606070E+04  0.17465606070E+04  0.00000000000E+00 0.  1.
         23    2    1    2    0    0  0.19068697172E+04 -0.11847943087E+04  0.54273911213E+03  0.23114172357E+04  0.90521937289E+02 0.  0.
         13    1    3    3    0    0  0.13330117915E+04 -0.77927525374E+03  0.37872764716E+03  0.15898506182E+04  0.00000000000E+00 0.  1.
        -13    1    3    3    0    0  0.57385792570E+03 -0.40551905494E+03  0.16401146497E+03  0.72156661747E+03  0.00000000000E+00 0. -1.
         22    1    1    2    0    0 -0.19068697172E+04  0.11847943087E+04  0.59908781911E+03  0.23235309095E+04  0.00000000000E+00 0.  1.
<mgrwt>
<rscale>  0 0.44921015E+04</rscale>
<asrwt>0</asrwt>
<pdfrwt beam="1">  1        1 0.44436731E+00 0.44921015E+04</pdfrwt>
<pdfrwt beam="2">  1       -1 0.26870163E+00 0.44921015E+04</pdfrwt>
<totfact> 0.28526074E-02</totfact>
</mgrwt>
</event>
<event>
 6    1  0.3017327E-006  0.3987128E+04  0.7818608E-02  0.8007148E-01
          2   -1    0    0  501    0  0.00000000000E+00  0.00000000000E+00  0.22630737150E+04  0.22630737150E+04  0.00000000000E+00 0.  1.
         -2   -1    0    0    0  501 -0.00000000000E+00 -0.00000000000E+00 -0.17561503445E+04  0.17561503445E+04  0.00000000000E+00 0. -1.
         23    2    1    2    0    0 -0.18489958840E+04 -0.41905850337E+03  0.87161591451E+03  0.20885774166E+04  0.89696791985E+02 0.  0.
         11    1    3    3    0    0 -0.14346031894E+04 -0.33719680083E+03  0.71595347258E+03  0.16384069606E+04  0.00000000000E+00 0. -1.
        -11    1    3    3    0    0 -0.41439269451E+03 -0.81861702546E+02  0.15566244193E+03  0.45017045598E+03  0.00000000000E+00 0.  1.
         22    1    1    2    0    0  0.18489958840E+04  0.41905850337E+03 -0.36469254410E+03  0.19306466429E+04  0.00000000000E+00 0. -1.
<mgrwt>
<rscale>  0 0.39871281E+04</rscale>
<asrwt>0</asrwt>
<pdfrwt beam="1">  1        2 0.34816519E+00 0.39871281E+04</pdfrwt>
<pdfrwt beam="2">  1       -2 0.27017698E+00 0.39871281E+04</pdfrwt>
<totfact> 0.18164793E-01</totfact>
</mgrwt>
</event>
<event>
 6    1  0.3017327E-006  0.1038565E+04  0.7818608E-02  0.9267230E-01
         -1   -1    0    0    0  501 -0.00000000000E+00  0.00000000000E+00  0.10096667445E+03  0.10096667445E+03  0.00000000000E+00 0.  1.
          1   -1    0    0  501    0  0.00000000000E+00 -0.00000000000E+00 -0.26707253907E+04  0.26707253907E+04  0.00000000000E+00 0. -1.
         23    2    1    2    0    0  0.26690388034E+03 -0.42548184961E+03 -0.16029546357E+04  0.16822047473E+04  0.89870806624E+02 0.  0.
         11    1    3    3    0    0  0.67998190625E+02 -0.46979420240E+02 -0.26395024907E+03  0.27658733492E+03  0.00000000000E+00 0. -1.
        -11    1    3    3    0    0  0.19890568971E+03 -0.37850242937E+03 -0.13390043866E+04  0.14056174123E+04  0.00000000000E+00 0.  1.
         22    1    1    2    0    0 -0.26690388034E+03  0.42548184961E+03 -0.96680408055E+03  0.10894873179E+04  0.00000000000E+00 0.  1.
<mgrwt>
<rscale>  0 0.10385649E+04</rscale>
<asrwt>0</asrwt>
<pdfrwt beam="1">  1        1 0.41088082E+00 0.10385649E+04</pdfrwt>
<pdfrwt beam="2">  1       -1 0.15533335E-01 0.10385649E+04</pdfrwt>
<totfact> 0.32447378E+01</totfact>
</mgrwt>
</event>
<event>
 6    1  0.3017327E-006  0.3047985E+04  0.7818608E-02  0.8230160E-01
          2   -1    0    0  501    0  0.00000000000E+00  0.00000000000E+00  0.20657497476E+04  0.20657497476E+04  0.00000000000E+00 0. -1.
         -2   -1    0    0    0  501 -0.00000000000E+00 -0.00000000000E+00 -0.11243151550E+04  0.11243151550E+04  0.00000000000E+00 0.  1.
         23    2    1    2    0    0  0.64099805635E+03  0.12380182554E+04  0.11114744763E+04  0.17856143798E+04  0.97342143682E+02 0.  0.
         13    1    3    3    0    0  0.15876405996E+03  0.32934450514E+03  0.34574178034E+03  0.50320096232E+03  0.00000000000E+00 0. -1.
        -13    1    3    3    0    0  0.48223399639E+03  0.90867375028E+03  0.76573269593E+03  0.12824134175E+04  0.00000000000E+00 0.  1.
         22    1    1    2    0    0 -0.64099805635E+03 -0.12380182554E+04 -0.17003988372E+03  0.14044505228E+04  0.00000000000E+00 0. -1.
<mgrwt>
<rscale>  0 0.30479854E+04</rscale>
<asrwt>0</asrwt>
<pdfrwt beam="1">  1        2 0.31780765E+00 0.30479854E+04</pdfrwt>
<pdfrwt beam="2">  1       -2 0.17297156E+00 0.30479854E+04</pdfrwt>
<totfact> 0.10631810E+00</totfact>
</mgrwt>
</event>
<event>
 6    1  0.3017327E-006  0.1319451E+04  0.7818608E-02  0.9014281E-01
          2   -1    0    0  501    0  0.00000000000E+00  0.00000000000E+00  0.82692820328E+03  0.82692820328E+03  0.00000000000E+00 0.  1.
         -2   -1    0    0    0  501 -0.00000000000E+00 -0.00000000000E+00 -0.52633048096E+03  0.52633048096E+03  0.00000000000E+00 0. -1.
         23    2    1    2    0    0 -0.25028756843E+03 -0.16736165693E+03  0.74926523714E+03  0.81292884982E+03  0.93814328120E+02 0.  0.
         11    1    3    3    0    0 -0.20100530200E+03 -0.16332413033E+03  0.55479573172E+03  0.61227135072E+03  0.00000000000E+00 0. -1.
        -11    1    3    3    0    0 -0.49282266432E+02 -0.40375265982E+01  0.19446950542E+03  0.20065749910E+03  0.00000000000E+00 0.  1.
         22    1    1    2    0    0  0.25028756843E+03  0.16736165693E+03 -0.44866751481E+03  0.54032983443E+03  0.00000000000E+00 0. -1.
<mgrwt>
<rscale>  0 0.13194507E+04</rscale>
<asrwt>0</asrwt>
<pdfrwt beam="1">  1        2 0.12721972E+00 0.13194507E+04</pdfrwt>
<pdfrwt beam="2">  1       -2 0.80973920E-01 0.13194507E+04</pdfrwt>
<totfact> 0.43399763E+01</totfact>
</mgrwt>
</event>
<event>
 6    1  0.3017327E-006  0.2072582E+04  0.7818608E-02  0.8573418E-01
          2   -1    0    0  501    0  0.00000000000E+00  0.00000000000E+00  0.28032976132E+04  0.28032976132E+04  0.00000000000E+00 0. -1.
         -2   -1    0    0    0  501 -0.00000000000E+00 -0.00000000000E+00 -0.38308427643E+03  0.38308427643E+03  0.00000000000E+00 0.  1.
         23    2    1    2    0    0 -0.29810026312E+03  0.78632025713E+03  0.21382009724E+04  0.22994240060E+04  0.91016742278E+02 0.  0.
         13    1    3    3    0    0 -0.22785947540E+03  0.67228074669E+03  0.18539747442E+04  0.19852213215E+04  0.00000000000E+00 0.  1.
        -13    1    3    3    0    0 -0.70240787726E+02  0.11403951045E+03  0.28422622817E+03  0.31420268455E+03  0.00000000000E+00 0. -1.
         22    1    1    2    0    0  0.29810026312E+03 -0.78632025713E+03  0.28201236436E+03  0.88695788361E+03  0.00000000000E+00 0.  1.
<mgrwt>
<rscale>  0 0.20725822E+04</rscale>
<asrwt>0</asrwt>
<pdfrwt beam="1">  1        2 0.43127654E+00 0.20725822E+04</pdfrwt>
<pdfrwt beam="2">  1       -2 0.58936044E-01 0.20725822E+04</pdfrwt>
<totfact> 0.57250827E+00</totfact>
</mgrwt>
</event>
<event>
 6    1  0.3017327E-006  0.2785301E+04  0.7818608E-02  0.8307846E-01
          2   -1    0    0  501    0  0.00000000000E+00  0.00000000000E+00  0.13071262515E+04  0.13071262515E+04  0.00000000000E+00 0. -1.
         -2   -1    0    0    0  501 -0.00000000000E+00 -0.00000000000E+00 -0.14837704648E+04  0.14837704648E+04  0.00000000000E+00 0.  1.
         23    2    1    2    0    0  0.46718028073E+03  0.11657194776E+04  0.51119205374E+03  0.13590175157E+04  0.91934634309E+02 0.  0.
         11    1    3    3    0    0  0.12441220243E+03  0.21509600676E+03  0.11042873514E+03  0.27191762315E+03  0.00000000000E+00 0.  1.
        -11    1    3    3    0    0  0.34276807830E+03  0.95062347083E+03  0.40076331860E+03  0.10870998925E+04  0.00000000000E+00 0. -1.
         22    1    1    2    0    0 -0.46718028073E+03 -0.11657194776E+04 -0.68783626701E+03  0.14318792007E+04  0.00000000000E+00 0.  1.
<mgrwt>
<rscale>  0 0.27853009E+04</rscale>
<asrwt>0</asrwt>
<pdfrwt beam="1">  1        2 0.20109635E+00 0.27853009E+04</pdfrwt>
<pdfrwt beam="2">  1       -2 0.22827238E+00 0.27853009E+04</pdfrwt>
<totfact> 0.12504572E+00</totfact>
</mgrwt>
</event>
<event>
 6    1  0.3017327E-006  0.1743804E+04  0.7818608E-02  0.8736768E-01
          2   -1    0    0  501    0  0.00000000000E+00  0.00000000000E+00  0.31273195898E+04  0.31273195898E+04  0.00000000000E+00 0. -1.
         -2   -1    0    0    0  501 -0.00000000000E+00 -0.00000000000E+00 -0.24308777163E+03  0.24308777163E+03  0.00000000000E+00 0.  1.
         23    2    1    2    0    0  0.81227831405E+03  0.30815806833E+03  0.13944980536E+04  0.16458598428E+04  0.97325979048E+02 0.  0.
         13    1    3    3    0    0  0.55764609485E+03  0.24521468260E+03  0.10326673020E+04  0.11989583663E+04  0.00000000000E+00 0. -1.
        -13    1    3    3    0    0  0.25463221920E+03  0.62943385728E+02  0.36183075160E+03  0.44690147646E+03  0.00000000000E+00 0.  1.
         22    1    1    2    0    0 -0.81227831405E+03 -0.30815806833E+03  0.14897337646E+04  0.17245475186E+04  0.00000000000E+00 0.  1.
<mgrwt>
<rscale>  0 0.17438041E+04</rscale>
<asrwt>0</asrwt>
<pdfrwt beam="1">  1        2 0.48112606E+00 0.17438041E+04</pdfrwt>
<pdfrwt beam="2">  1       -2 0.37398121E-01 0.17438041E+04</pdfrwt>
<totfact> 0.92916996E+00</totfact>
</mgrwt>
</event>
<event>
 6    1  0.3017327E-006  0.2161931E+04  0.7818608E-02  0.8534442E-01
          2   -1    0    0  501    0  0.00000000000E+00  0.00000000000E+00  0.22211544516E+04  0.22211544516E+04  0.00000000000E+00 0. -1.
         -2   -1    0    0    0  501 -0.00000000000E+00 -0.00000000000E+00 -0.52607168241E+03  0.52607168241E+03  0.00000000000E+00 0.  1.
         23    2    1    2    0    0  0.66461685599E+03  0.85045716037E+03  0.84755344865E+03  0.13748927576E+04  0.83608011668E+02 0.  0.
         13    1    3    3    0    0  0.45032694969E+03  0.60945924441E+03  0.55272742507E+03  0.93794591456E+03  0.00000000000E+00 0. -1.
        -13    1    3    3    0    0  0.21428990630E+03  0.24099791597E+03  0.29482602359E+03  0.43694684302E+03  0.00000000000E+00 0.  1.
         22    1    1    2    0    0 -0.66461685599E+03 -0.85045716037E+03  0.84752932053E+03  0.13723333764E+04  0.00000000000E+00 0.  1.
<mgrwt>
<rscale>  0 0.21619310E+04</rscale>
<asrwt>0</asrwt>
<pdfrwt beam="1">  1        2 0.34171606E+00 0.21619310E+04</pdfrwt>
<pdfrwt beam="2">  1       -2 0.80934106E-01 0.21619310E+04</pdfrwt>
<totfact> 0.62025811E+00</totfact>
</mgrwt>
</event>
<event>
 6    1  0.3017327E-006  0.1486747E+04  0.7818608E-02  0.8893314E-01
         -2   -1    0    0    0  501 -0.00000000000E+00  0.00000000000E+00  0.42028688501E+03  0.42028688501E+03  0.00000000000E+00 0. -1.
          2   -1    0    0  501    0  0.00000000000E+00 -0.00000000000E+00 -0.13148256711E+04  0.13148256711E+04  0.00000000000E+00 0.  1.
         23    2    1    2    0    0 -0.11958803232E+03 -0.72882731976E+03 -0.38548799393E+03  0.83810460270E+03  0.91256627746E+02 0.  0.
         11    1    3    3    0    0 -0.62274711091E+02 -0.15524916567E+03 -0.74248817055E+02  0.18301182999E+03  0.00000000000E+00 0.  1.
        -11    1    3    3    0    0 -0.57313321232E+02 -0.57357815409E+03 -0.31123917687E+03  0.65509277271E+03  0.00000000000E+00 0. -1.
         22    1    1    2    0    0  0.11958803232E+03  0.72882731976E+03 -0.50905079219E+03  0.89700795344E+03  0.00000000000E+00 0. -1.
<mgrwt>
<rscale>  0 0.14867468E+04</rscale>
<asrwt>0</asrwt>
<pdfrwt beam="1">  1        2 0.20228087E+00 0.14867468E+04</pdfrwt>
<pdfrwt beam="2">  1       -2 0.64659521E-01 0.14867468E+04</pdfrwt>
<totfact> 0.34605016E+01</totfact>
</mgrwt>
</event>
<event>
 6    1  0.3017327E-006  0.9025777E+03  0.7818608E-02  0.9422365E-01
         -2   -1    0    0    0  501 -0.00000000000E+00  0.00000000000E+00  0.12898882299E+03  0.12898882299E+03  0.00000000000E+00 0.  1.
          2   -1    0    0  501    0  0.00000000000E+00 -0.00000000000E+00 -0.15789089777E+04  0.15789089777E+04  0.00000000000E+00 0. -1.
         23    2    1    2    0    0  0.72753406071E+02 -0.75828190862E+01 -0.15661818655E+04  0.15705393548E+04  0.91201272678E+02 0.  0.
         13    1    3    3    0    0  0.65513160563E+02  0.78240150207E+01 -0.51369174536E+03  0.51791157418E+03  0.00000000000E+00 0.  1.
        -13    1    3    3    0    0  0.72402455088E+01 -0.15406834107E+02 -0.10524901201E+04  0.10526277807E+04  0.00000000000E+00 0. -1.
         22    1    1    2    0    0 -0.72753406071E+02  0.75828190862E+01  0.11626171080E+03  0.13735844582E+03  0.00000000000E+00 0.  1.
<mgrwt>
<rscale>  0 0.90257767E+03</rscale>
<asrwt>0</asrwt>
<pdfrwt beam="1">  1        2 0.24290907E+00 0.90257767E+03</pdfrwt>
<pdfrwt beam="2">  1       -2 0.19844435E-01 0.90257767E+03</pdfrwt>
<totfact> 0.24913565E+02</totfact>
</mgrwt>
</event>
<event>
 6    1  0.3017327E-006  0.2059588E+04  0.7818608E-02  0.8579257E-01
         -2   -1    0    0    0  501 -0.00000000000E+00  0.00000000000E+00  0.43999482090E+03  0.43999482090E+03  0.00000000000E+00 0.  1.
          2   -1    0    0  501    0  0.00000000000E+00 -0.00000000000E+00 -0.24102000385E+04  0.24102000385E+04  0.00000000000E+00 0. -1.
         23    2    1    2    0    0 -0.95652127954E+03 -0.47073358323E+02 -0.47063656194E+03  0.10709098872E+04  0.90555804924E+02 0.  0.
         13    1    3    3    0    0 -0.60123886730E+03 -0.11824281084E+02 -0.25029563007E+03  0.65136463798E+03  0.00000000000E+00 0. -1.
        -13    1    3    3    0    0 -0.35528241224E+03 -0.35249077239E+02 -0.22034093187E+03  0.41954524923E+03  0.00000000000E+00 0.  1.
         22    1    1    2    0    0  0.95652127954E+03  0.47073358323E+02 -0.14995686557E+04  0.17792849722E+04  0.00000000000E+00 0. -1.
<mgrwt>
<rscale>  0 0.20595879E+04</rscale>
<asrwt>0</asrwt>
<pdfrwt beam="1">  1        2 0.37080001E+00 0.20595879E+04</pdfrwt>
<pdfrwt beam="2">  1       -2 0.67691511E-01 0.20595879E+04</pdfrwt>
<totfact> 0.72539965E+00</totfact>
</mgrwt>
</event>
<event>
 6    1  0.3017327E-006  0.9028147E+03  0.7818608E-02  0.9422070E-01
         -2   -1    0    0    0  501 -0.00000000000E+00  0.00000000000E+00  0.19830404514E+03  0.19830404514E+03  0.00000000000E+00 0.  1.
          2   -1    0    0  501    0  0.00000000000E+00 -0.00000000000E+00 -0.10275564982E+04  0.10275564982E+04  0.00000000000E+00 0. -1.
         23    2    1    2    0    0 -0.63229245633E+02 -0.15270463292E+03  0.14466438650E+03  0.23801913260E+03  0.91698856834E+02 0.  0.
         13    1    3    3    0    0  0.19737383187E+02 -0.19512309275E+02  0.55290391452E+01  0.28299554452E+02  0.00000000000E+00 0.  1.
        -13    1    3    3    0    0 -0.82966628821E+02 -0.13319232364E+03  0.13913534735E+03  0.20971957815E+03  0.00000000000E+00 0. -1.
         22    1    1    2    0    0  0.63229245633E+02  0.15270463292E+03 -0.97391683951E+03  0.98784141070E+03  0.00000000000E+00 0. -1.
<mgrwt>
<rscale>  0 0.90281473E+03</rscale>
<asrwt>0</asrwt>
<pdfrwt beam="1">  1        2 0.15808561E+00 0.90281473E+03</pdfrwt>
<pdfrwt beam="2">  1       -2 0.30508315E-01 0.90281473E+03</pdfrwt>
<totfact> 0.24059675E+02</totfact>
</mgrwt>
</event>
<event>
 6    1  0.3017327E-006  0.1738221E+04  0.7818608E-02  0.8739861E-01
          2   -1    0    0  501    0  0.00000000000E+00  0.00000000000E+00  0.25038328662E+04  0.25038328662E+04  0.00000000000E+00 0. -1.
         -2   -1    0    0    0  501 -0.00000000000E+00 -0.00000000000E+00 -0.30167877194E+03  0.30167877194E+03  0.00000000000E+00 0.  1.
         23    2    1    2    0    0 -0.38843044300E+03  0.25007607750E+03  0.22877081171E+04  0.23356864107E+04  0.91686020564E+02 0.  0.
         11    1    3    3    0    0 -0.15559583036E+03  0.90612235222E+02  0.11186734329E+04  0.11330714404E+04  0.00000000000E+00 0. -1.
        -11    1    3    3    0    0 -0.23283461263E+03  0.15946384227E+03  0.11690346842E+04  0.12026149703E+04  0.00000000000E+00 0.  1.
         22    1    1    2    0    0  0.38843044300E+03 -0.25007607750E+03 -0.85554022810E+02  0.46982522751E+03  0.00000000000E+00 0.  1.
<mgrwt>
<rscale>  0 0.17382212E+04</rscale>
<asrwt>0</asrwt>
<pdfrwt beam="1">  1        2 0.38520504E+00 0.17382212E+04</pdfrwt>
<pdfrwt beam="2">  1       -2 0.46412120E-01 0.17382212E+04</pdfrwt>
<totfact> 0.14482697E+01</totfact>
</mgrwt>
</event>
<event>
 6    1  0.3017327E-006  0.2505905E+04  0.7818608E-02  0.8400885E-01
          2   -1    0    0  501    0  0.00000000000E+00  0.00000000000E+00  0.20973717120E+04  0.20973717120E+04  0.00000000000E+00 0. -1.
         -2   -1    0    0    0  501 -0.00000000000E+00 -0.00000000000E+00 -0.74850334874E+03  0.74850334874E+03  0.00000000000E+00 0.  1.
         23    2    1    2    0    0 -0.44475468804E+03 -0.10293675652E+04  0.13057785626E+04  0.17237070485E+04  0.93295325469E+02 0.  0.
         13    1    3    3    0    0 -0.31938083033E+03 -0.83036750834E+03  0.10152198807E+04  0.13498835950E+04  0.00000000000E+00 0.  1.
        -13    1    3    3    0    0 -0.12537385771E+03 -0.19900005684E+03  0.29055868188E+03  0.37382345356E+03  0.00000000000E+00 0. -1.
         22    1    1    2    0    0  0.44475468804E+03  0.10293675652E+04  0.43089800679E+02  0.11221680122E+04  0.00000000000E+00 0.  1.
<mgrwt>
<rscale>  0 0.25059048E+04</rscale>
<asrwt>0</asrwt>
<pdfrwt beam="1">  1        2 0.32267257E+00 0.25059048E+04</pdfrwt>
<pdfrwt beam="2">  1       -2 0.11515436E+00 0.25059048E+04</pdfrwt>
<totfact> 0.30887376E+00</totfact>
</mgrwt>
</event>
<event>
 6    1  0.3017327E-006  0.4969388E+04  0.7818608E-02  0.7833247E-01
          2   -1    0    0  501    0  0.00000000000E+00  0.00000000000E+00  0.27796856067E+04  0.27796856067E+04  0.00000000000E+00 0. -1.
         -2   -1    0    0    0  501 -0.00000000000E+00 -0.00000000000E+00 -0.22210081667E+04  0.22210081667E+04  0.00000000000E+00 0.  1.
         23    2    1    2    0    0  0.53323508822E+03 -0.78652303432E+03 -0.20299508813E+04  0.22431668508E+04  0.90215282806E+02 0.  0.
         11    1    3    3    0    0  0.16135406808E+03 -0.17543616135E+03 -0.46815254886E+03  0.52533778752E+03  0.00000000000E+00 0.  1.
        -11    1    3    3    0    0  0.37188102013E+03 -0.61108687296E+03 -0.15617983325E+04  0.17178290633E+04  0.00000000000E+00 0. -1.
         22    1    1    2    0    0 -0.53323508822E+03  0.78652303432E+03  0.25886283214E+04  0.27575269226E+04  0.00000000000E+00 0. -1.
<mgrwt>
<rscale>  0 0.49693881E+04</rscale>
<asrwt>0</asrwt>
<pdfrwt beam="1">  1        2 0.42764394E+00 0.49693881E+04</pdfrwt>
<pdfrwt beam="2">  1       -2 0.34169356E+00 0.49693881E+04</pdfrwt>
<totfact> 0.30457620E-02</totfact>
</mgrwt>
</event>
<event>
 6    1  0.3017327E-006  0.1858550E+04  0.7818608E-02  0.8675768E-01
         -2   -1    0    0    0  501 -0.00000000000E+00  0.00000000000E+00  0.64315007885E+03  0.64315007885E+03  0.00000000000E+00 0.  1.
          2   -1    0    0  501    0  0.00000000000E+00 -0.00000000000E+00 -0.13426915892E+04  0.13426915892E+04  0.00000000000E+00 0. -1.
         23    2    1    2    0    0 -0.23080436989E+03 -0.50297531233E+03  0.44403024223E+03  0.71540427278E+03  0.91572897313E+02 0.  0.
         13    1    3    3    0    0 -0.14831667007E+03 -0.37642922466E+03  0.27775755886E+03  0.49076069250E+03  0.00000000000E+00 0.  1.
        -13    1    3    3    0    0 -0.82487699822E+02 -0.12654608768E+03  0.16627268337E+03  0.22464358028E+03  0.00000000000E+00 0. -1.
         22    1    1    2    0    0  0.23080436989E+03  0.50297531233E+03 -0.11435717526E+04  0.12704373953E+04  0.00000000000E+00 0. -1.
<mgrwt>
<rscale>  0 0.18585502E+04</rscale>
<asrwt>0</asrwt>
<pdfrwt beam="1">  1        2 0.20656793E+00 0.18585502E+04</pdfrwt>
<pdfrwt beam="2">  1       -2 0.98946167E-01 0.18585502E+04</pdfrwt>
<totfact> 0.12427966E+01</totfact>
</mgrwt>
</event>
<event>
 6    1  0.3017327E-006  0.3550390E+04  0.7818608E-02  0.8101951E-01
         -2   -1    0    0    0  501 -0.00000000000E+00  0.00000000000E+00  0.22093416230E+04  0.22093416230E+04  0.00000000000E+00 0. -1.
          2   -1    0    0  501    0  0.00000000000E+00 -0.00000000000E+00 -0.14263606013E+04  0.14263606013E+04  0.00000000000E+00 0.  1.
         23    2    1    2    0    0  0.13429551623E+04  0.35015503170E+02  0.15782489335E+04  0.20745469774E+04  0.90115547865E+02 0.  0.
         13    1    3    3    0    0  0.88828305165E+02  0.20024173267E+02  0.86345076854E+02  0.12548668300E+03  0.00000000000E+00 0.  1.
        -13    1    3    3    0    0  0.12541268571E+04  0.14991329903E+02  0.14919038567E+04  0.19490602944E+04  0.00000000000E+00 0. -1.
         22    1    1    2    0    0 -0.13429551623E+04 -0.35015503170E+02 -0.79526791185E+03  0.15611552469E+04  0.00000000000E+00 0.  1.
<mgrwt>
<rscale>  0 0.35503903E+04</rscale>
<asrwt>0</asrwt>
<pdfrwt beam="1">  1        2 0.21944009E+00 0.35503903E+04</pdfrwt>
<pdfrwt beam="2">  1       -2 0.33989871E+00 0.35503903E+04</pdfrwt>
<totfact> 0.20589376E-01</totfact>
</mgrwt>
</event>
<event>
 6    1  0.3017327E-006  0.6987092E+03  0.7818608E-02  0.9719442E-01
         -1   -1    0    0    0  501 -0.00000000000E+00  0.00000000000E+00  0.26280628250E+03  0.26280628250E+03  0.00000000000E+00 0.  1.
          1   -1    0    0  501    0  0.00000000000E+00 -0.00000000000E+00 -0.46440527804E+03  0.46440527804E+03  0.00000000000E+00 0. -1.
         23    2    1    2    0    0 -0.10198872907E+03 -0.89993830082E+02 -0.43098145605E+03  0.46053403337E+03  0.88577593827E+02 0.  0.
         13    1    3    3    0    0 -0.59288194150E+02 -0.10095049426E+03 -0.33623797403E+03  0.35603660969E+03  0.00000000000E+00 0.  1.
        -13    1    3    3    0    0 -0.42700534923E+02  0.10956664178E+02 -0.94743482014E+02  0.10449742368E+03  0.00000000000E+00 0. -1.
         22    1    1    2    0    0  0.10198872907E+03  0.89993830082E+02  0.22938246051E+03  0.26667752717E+03  0.00000000000E+00 0.  1.
<mgrwt>
<rscale>  0 0.69870917E+03</rscale>
<asrwt>0</asrwt>
<pdfrwt beam="1">  1        1 0.71446965E-01 0.69870917E+03</pdfrwt>
<pdfrwt beam="2">  1       -1 0.40431736E-01 0.69870917E+03</pdfrwt>
<totfact> 0.29668757E+02</totfact>
</mgrwt>
</event>
<event>
 6    1  0.3017327E-006  0.4229831E+04  0.7818608E-02  0.7959722E-01
          2   -1    0    0  501    0  0.00000000000E+00  0.00000000000E+00  0.17072397906E+04  0.17072397906E+04  0.00000000000E+00 0. -1.
         -2   -1    0    0    0  501 -0.00000000000E+00 -0.00000000000E+00 -0.26199412557E+04  0.26199412557E+04  0.00000000000E+00 0.  1.
         23    2    1    2    0    0  0.89368970826E+03 -0.12731023541E+03  0.14985668320E+04  0.17524764047E+04  0.10286791815E+03 0.  0.
         11    1    3    3    0    0  0.42310894066E+03 -0.15022961893E+02  0.74782217601E+03  0.85935142520E+03  0.00000000000E+00 0. -1.
        -11    1    3    3    0    0  0.47058076760E+03 -0.11228727352E+03  0.75074465597E+03  0.89312497955E+03  0.00000000000E+00 0.  1.
         22    1    1    2    0    0 -0.89368970826E+03  0.12731023541E+03 -0.24112682971E+04  0.25747046416E+04  0.00000000000E+00 0.  1.
<mgrwt>
<rscale>  0 0.42298312E+04</rscale>
<asrwt>0</asrwt>
<pdfrwt beam="1">  1        2 0.26265228E+00 0.42298312E+04</pdfrwt>
<pdfrwt beam="2">  1       -2 0.40306788E+00 0.42298312E+04</pdfrwt>
<totfact> 0.53313286E-02</totfact>
</mgrwt>
</event>
<event>
 6    1  0.3017327E-006  0.3359708E+04  0.7818608E-02  0.8147867E-01
          2   -1    0    0  501    0  0.00000000000E+00  0.00000000000E+00  0.17110245885E+04  0.17110245885E+04  0.00000000000E+00 0. -1.
         -2   -1    0    0    0  501 -0.00000000000E+00 -0.00000000000E+00 -0.16492514831E+04  0.16492514831E+04  0.00000000000E+00 0.  1.
         23    2    1    2    0    0  0.40213777940E+03 -0.68891244519E+03  0.15078522582E+04  0.17087737050E+04  0.99869874145E+02 0.  0.
         13    1    3    3    0    0  0.16373364593E+03 -0.19149995869E+03  0.44890066286E+03  0.51477446139E+03  0.00000000000E+00 0.  1.
        -13    1    3    3    0    0  0.23840413346E+03 -0.49741248650E+03  0.10589515953E+04  0.11939992436E+04  0.00000000000E+00 0. -1.
         22    1    1    2    0    0 -0.40213777940E+03  0.68891244519E+03 -0.14460791527E+04  0.16515023666E+04  0.00000000000E+00 0.  1.
<mgrwt>
<rscale>  0 0.33597082E+04</rscale>
<asrwt>0</asrwt>
<pdfrwt beam="1">  1        2 0.26323455E+00 0.33597082E+04</pdfrwt>
<pdfrwt beam="2">  1       -2 0.25373100E+00 0.33597082E+04</pdfrwt>
<totfact> 0.48990182E-01</totfact>
</mgrwt>
</event>
<event>
 6    1  0.3017327E-006  0.4348725E+04  0.7818608E-02  0.7937669E-01
         -2   -1    0    0    0  501 -0.00000000000E+00  0.00000000000E+00  0.20401428434E+04  0.20401428434E+04  0.00000000000E+00 0. -1.
          2   -1    0    0  501    0  0.00000000000E+00 -0.00000000000E+00 -0.23174123286E+04  0.23174123286E+04  0.00000000000E+00 0.  1.
         23    2    1    2    0    0  0.28130717075E+03 -0.20445217944E+04  0.54429412612E+03  0.21362560342E+04  0.90170149170E+02 0.  0.
         13    1    3    3    0    0  0.59945193617E+02 -0.22661964468E+03  0.59798003766E+02  0.24192083591E+03  0.00000000000E+00 0. -1.
        -13    1    3    3    0    0  0.22136197713E+03 -0.18179021498E+04  0.48449612236E+03  0.18943351983E+04  0.00000000000E+00 0.  1.
         22    1    1    2    0    0 -0.28130717075E+03  0.20445217944E+04 -0.82156361128E+03  0.22212991378E+04  0.00000000000E+00 0.  1.
<mgrwt>
<rscale>  0 0.43487250E+04</rscale>
<asrwt>0</asrwt>
<pdfrwt beam="1">  1        2 0.35652498E+00 0.43487250E+04</pdfrwt>
<pdfrwt beam="2">  1       -2 0.31386813E+00 0.43487250E+04</pdfrwt>
<totfact> 0.88794366E-02</totfact>
</mgrwt>
</event>
<event>
 6    1  0.3017327E-006  0.1915745E+04  0.7818608E-02  0.8647059E-01
          2   -1    0    0  501    0  0.00000000000E+00  0.00000000000E+00  0.19547792399E+04  0.19547792399E+04  0.00000000000E+00 0. -1.
         -2   -1    0    0    0  501 -0.00000000000E+00 -0.00000000000E+00 -0.46937242690E+03  0.46937242690E+03  0.00000000000E+00 0.  1.
         23    2    1    2    0    0 -0.70572729343E+03 -0.53673653661E+03  0.11960032198E+04  0.14914718921E+04  0.89036962414E+02 0.  0.
         11    1    3    3    0    0 -0.56861616058E+03 -0.43609433423E+03  0.10215821717E+04  0.12478512491E+04  0.00000000000E+00 0. -1.
        -11    1    3    3    0    0 -0.13711113285E+03 -0.10064220238E+03  0.17442104808E+03  0.24362064293E+03  0.00000000000E+00 0.  1.
         22    1    1    2    0    0  0.70572729343E+03  0.53673653661E+03  0.28940359322E+03  0.93267977473E+03  0.00000000000E+00 0.  1.
<mgrwt>
<rscale>  0 0.19157447E+04</rscale>
<asrwt>0</asrwt>
<pdfrwt beam="1">  1        2 0.30073526E+00 0.19157447E+04</pdfrwt>
<pdfrwt beam="2">  1       -2 0.72211143E-01 0.19157447E+04</pdfrwt>
<totfact> 0.11497161E+01</totfact>
</mgrwt>
</event>
<event>
 6    1  0.3017327E-006  0.2002125E+04  0.7818608E-02  0.8605628E-01
         -2   -1    0    0    0  501 -0.00000000000E+00  0.00000000000E+00  0.29421644826E+03  0.29421644826E+03  0.00000000000E+00 0.  1.
          2   -1    0    0  501    0  0.00000000000E+00 -0.00000000000E+00 -0.34060846246E+04  0.34060846246E+04  0.00000000000E+00 0. -1.
         23    2    1    2    0    0  0.59435143447E+03  0.73690999470E+03 -0.21479975647E+04  0.23492509169E+04  0.93788936523E+02 0.  0.
         13    1    3    3    0    0  0.44049092099E+03  0.50856269658E+03 -0.16087456841E+04  0.17437691774E+04  0.00000000000E+00 0. -1.
        -13    1    3    3    0    0  0.15386051347E+03  0.22834729812E+03 -0.53925188063E+03  0.60548173955E+03  0.00000000000E+00 0.  1.
         22    1    1    2    0    0 -0.59435143447E+03 -0.73690999470E+03 -0.96387061162E+03  0.13510501560E+04  0.00000000000E+00 0.  1.
<mgrwt>
<rscale>  0 0.20021250E+04</rscale>
<asrwt>0</asrwt>
<pdfrwt beam="1">  1        2 0.52401303E+00 0.20021250E+04</pdfrwt>
<pdfrwt beam="2">  1       -2 0.45264068E-01 0.20021250E+04</pdfrwt>
<totfact> 0.40799710E+00</totfact>
</mgrwt>
</event>
<event>
 6    1  0.3017327E-006  0.3954581E+04  0.7818608E-02  0.8013772E-01
         -2   -1    0    0    0  501 -0.00000000000E+00  0.00000000000E+00  0.15870811898E+04  0.15870811898E+04  0.00000000000E+00 0.  1.
          2   -1    0    0  501    0  0.00000000000E+00 -0.00000000000E+00 -0.24634391784E+04  0.24634391784E+04  0.00000000000E+00 0. -1.
         23    2    1    2    0    0 -0.93636651625E+03 -0.14585665165E+04 -0.14107163722E+04  0.22367570380E+04  0.93609981802E+02 0.  0.
         11    1    3    3    0    0 -0.69969558058E+03 -0.11015216914E+04 -0.11124935661E+04  0.17148078250E+04  0.00000000000E+00 0. -1.
        -11    1    3    3    0    0 -0.23667093567E+03 -0.35704482511E+03 -0.29822280613E+03  0.52194921307E+03  0.00000000000E+00 0.  1.
         22    1    1    2    0    0  0.93636651625E+03  0.14585665165E+04  0.53435838364E+03  0.18137633302E+04  0.00000000000E+00 0.  1.
<mgrwt>
<rscale>  0 0.39545811E+04</rscale>
<asrwt>0</asrwt>
<pdfrwt beam="1">  1        2 0.37899064E+00 0.39545811E+04</pdfrwt>
<pdfrwt beam="2">  1       -2 0.24416634E+00 0.39545811E+04</pdfrwt>
<totfact> 0.20202317E-01</totfact>
</mgrwt>
</event>
<event>
 6    1  0.3017327E-006  0.3425134E+04  0.7818608E-02  0.8131765E-01
          1   -1    0    0  501    0  0.00000000000E+00  0.00000000000E+00  0.70917245064E+03  0.70917245064E+03  0.00000000000E+00 0. -1.
         -1   -1    0    0    0  501 -0.00000000000E+00 -0.00000000000E+00 -0.41356445660E+04  0.41356445660E+04  0.00000000000E+00 0.  1.
         23    2    1    2    0    0  0.13946470198E+04  0.70640525703E+03 -0.26987446040E+04  0.31203936267E+04  0.97904294111E+02 0.  0.
         13    1    3    3    0    0  0.12167624876E+04  0.65029628662E+03 -0.23590232275E+04  0.27328349382E+04  0.00000000000E+00 0.  1.
        -13    1    3    3    0    0  0.17788453219E+03  0.56108970408E+02 -0.33972137647E+03  0.38755868844E+03  0.00000000000E+00 0. -1.
         22    1    1    2    0    0 -0.13946470198E+04 -0.70640525703E+03 -0.72772751133E+03  0.17244233899E+04  0.00000000000E+00 0. -1.
<mgrwt>
<rscale>  0 0.34251337E+04</rscale>
<asrwt>0</asrwt>
<pdfrwt beam="1">  1        1 0.10910345E+00 0.34251337E+04</pdfrwt>
<pdfrwt beam="2">  1       -1 0.63625301E+00 0.34251337E+04</pdfrwt>
<totfact> 0.70825294E-03</totfact>
</mgrwt>
</event>
<event>
 6    1  0.3017327E-006  0.2348447E+04  0.7818608E-02  0.8459060E-01
         -1   -1    0    0    0  501 -0.00000000000E+00  0.00000000000E+00  0.77942431158E+03  0.77942431158E+03  0.00000000000E+00 0.  1.
          1   -1    0    0  501    0  0.00000000000E+00 -0.00000000000E+00 -0.17689994527E+04  0.17689994527E+04  0.00000000000E+00 0. -1.
         23    2    1    2    0    0 -0.55801036571E+03 -0.61989765381E+03 -0.13897771679E+04  0.16233235904E+04  0.89723091884E+02 0.  0.
         13    1    3    3    0    0 -0.53226487213E+03 -0.55505425858E+03 -0.12802843334E+04  0.14934922492E+04  0.00000000000E+00 0. -1.
        -13    1    3    3    0    0 -0.25745493575E+02 -0.64843395230E+02 -0.10949283452E+03  0.12983134119E+03  0.00000000000E+00 0.  1.
         22    1    1    2    0    0  0.55801036571E+03  0.61989765381E+03  0.40020202682E+03  0.92510017387E+03  0.00000000000E+00 0. -1.
<mgrwt>
<rscale>  0 0.23484473E+04</rscale>
<asrwt>0</asrwt>
<pdfrwt beam="1">  1        1 0.27215376E+00 0.23484473E+04</pdfrwt>
<pdfrwt beam="2">  1       -1 0.11991143E+00 0.23484473E+04</pdfrwt>
<totfact> 0.23873249E+00</totfact>
</mgrwt>
</event>
<event>
 6    1  0.3017327E-006  0.1677347E+04  0.7818608E-02  0.8774391E-01
         -2   -1    0    0    0  501 -0.00000000000E+00  0.00000000000E+00  0.34225135332E+03  0.34225135332E+03  0.00000000000E+00 0.  1.
          2   -1    0    0  501    0  0.00000000000E+00 -0.00000000000E+00 -0.20551355162E+04  0.20551355162E+04  0.00000000000E+00 0. -1.
         23    2    1    2    0    0  0.59246125909E+03 -0.44214881738E+03 -0.30045442527E+03  0.80318999212E+03  0.91298310780E+02 0.  0.
         13    1    3    3    0    0  0.34692787682E+03 -0.22373802647E+03 -0.12881594161E+03  0.43244791943E+03  0.00000000000E+00 0. -1.
        -13    1    3    3    0    0  0.24553338226E+03 -0.21841079091E+03 -0.17163848366E+03  0.37074207269E+03  0.00000000000E+00 0.  1.
         22    1    1    2    0    0 -0.59246125909E+03  0.44214881738E+03 -0.14124297376E+04  0.15941968774E+04  0.00000000000E+00 0. -1.
<mgrwt>
<rscale>  0 0.16773466E+04</rscale>
<asrwt>0</asrwt>
<pdfrwt beam="1">  1        2 0.31617470E+00 0.16773466E+04</pdfrwt>
<pdfrwt beam="2">  1       -2 0.52654054E-01 0.16773466E+04</pdfrwt>
<totfact> 0.20196889E+01</totfact>
</mgrwt>
</event>
<event>
 6    1  0.3017327E-006  0.3265513E+04  0.7818608E-02  0.8171727E-01
          2   -1    0    0  501    0  0.00000000000E+00  0.00000000000E+00  0.37222506419E+04  0.37222506419E+04  0.00000000000E+00 0. -1.
         -2   -1    0    0    0  501 -0.00000000000E+00 -0.00000000000E+00 -0.71620460434E+03  0.71620460434E+03  0.00000000000E+00 0.  1.
         23    2    1    2    0    0  0.11523841529E+04  0.40428069620E+03  0.33800868421E+02  0.12250966508E+04  0.91033993103E+02 0.  0.
         11    1    3    3    0    0  0.86165571224E+03  0.30936932403E+03  0.64210871778E+02  0.91775976221E+03  0.00000000000E+00 0. -1.
        -11    1    3    3    0    0  0.29072844069E+03  0.94911372174E+02 -0.30410003357E+02  0.30733688860E+03  0.00000000000E+00 0.  1.
         22    1    1    2    0    0 -0.11523841529E+04 -0.40428069620E+03  0.29722451691E+04  0.32133585954E+04  0.00000000000E+00 0. -1.
<mgrwt>
<rscale>  0 0.32655125E+04</rscale>
<asrwt>0</asrwt>
<pdfrwt beam="1">  1        2 0.57265393E+00 0.32655125E+04</pdfrwt>
<pdfrwt beam="2">  1       -2 0.11018533E+00 0.32655125E+04</pdfrwt>
<totfact> 0.30745979E-01</totfact>
</mgrwt>
</event>
<event>
 6    1  0.3017327E-006  0.3087333E+04  0.7818608E-02  0.8219223E-01
         -1   -1    0    0    0  501 -0.00000000000E+00  0.00000000000E+00  0.99294901060E+03  0.99294901060E+03  0.00000000000E+00 0.  1.
          1   -1    0    0  501    0  0.00000000000E+00 -0.00000000000E+00 -0.23998271184E+04  0.23998271184E+04  0.00000000000E+00 0. -1.
         23    2    1    2    0    0 -0.52719556425E+03 -0.14190567771E+04 -0.37953565018E+03  0.15632707792E+04  0.90060645517E+02 0.  0.
         13    1    3    3    0    0 -0.10312125221E+03 -0.20153329431E+03 -0.38168908432E+02  0.22957902113E+03  0.00000000000E+00 0. -1.
        -13    1    3    3    0    0 -0.42407431205E+03 -0.12175234828E+04 -0.34136674175E+03  0.13336917581E+04  0.00000000000E+00 0.  1.
         22    1    1    2    0    0  0.52719556425E+03  0.14190567771E+04 -0.10273424577E+04  0.18295053498E+04  0.00000000000E+00 0. -1.
<mgrwt>
<rscale>  0 0.30873328E+04</rscale>
<asrwt>0</asrwt>
<pdfrwt beam="1">  1        1 0.36920417E+00 0.30873328E+04</pdfrwt>
<pdfrwt beam="2">  1       -1 0.15276139E+00 0.30873328E+04</pdfrwt>
<totfact> 0.44563968E-01</totfact>
</mgrwt>
</event>
<event>
 6    1  0.3017327E-006  0.4509187E+04  0.7818608E-02  0.7909030E-01
         -2   -1    0    0    0  501 -0.00000000000E+00  0.00000000000E+00  0.29389049345E+04  0.29389049345E+04  0.00000000000E+00 0.  1.
          2   -1    0    0  501    0  0.00000000000E+00 -0.00000000000E+00 -0.17296214267E+04  0.17296214267E+04  0.00000000000E+00 0. -1.
         23    2    1    2    0    0  0.60285436884E+03 -0.49689019372E+03  0.27935544571E+04  0.29021040743E+04  0.89040993716E+02 0.  0.
         11    1    3    3    0    0  0.21822611495E+03 -0.13120637039E+03  0.84037918913E+03  0.87810872357E+03  0.00000000000E+00 0.  1.
        -11    1    3    3    0    0  0.38462825390E+03 -0.36568382333E+03  0.19531752680E+04  0.20239953507E+04  0.00000000000E+00 0. -1.
         22    1    1    2    0    0 -0.60285436884E+03  0.49689019372E+03 -0.15842709493E+04  0.17664222869E+04  0.00000000000E+00 0. -1.
<mgrwt>
<rscale>  0 0.45091875E+04</rscale>
<asrwt>0</asrwt>
<pdfrwt beam="1">  1        2 0.26609560E+00 0.45091875E+04</pdfrwt>
<pdfrwt beam="2">  1       -2 0.45213922E+00 0.45091875E+04</pdfrwt>
<totfact> 0.24052067E-02</totfact>
</mgrwt>
</event>
<event>
 6    1  0.3017327E-006  0.2308427E+04  0.7818608E-02  0.8474606E-01
          2   -1    0    0  501    0  0.00000000000E+00  0.00000000000E+00  0.19921243715E+04  0.19921243715E+04  0.00000000000E+00 0. -1.
         -2   -1    0    0    0  501 -0.00000000000E+00 -0.00000000000E+00 -0.66873749573E+03  0.66873749573E+03  0.00000000000E+00 0.  1.
         23    2    1    2    0    0  0.18902264901E+03  0.11364477738E+04  0.63355861971E+03  0.13180639944E+04  0.93021849707E+02 0.  0.
         13    1    3    3    0    0  0.17290441394E+03  0.10029184951E+04  0.59160678614E+03  0.11771745977E+04  0.00000000000E+00 0.  1.
        -13    1    3    3    0    0  0.16118235073E+02  0.13352927869E+03  0.41951833566E+02  0.14088939672E+03  0.00000000000E+00 0. -1.
         22    1    1    2    0    0 -0.18902264901E+03 -0.11364477738E+04  0.68982825607E+03  0.13427978728E+04  0.00000000000E+00 0. -1.
<mgrwt>
<rscale>  0 0.23084265E+04</rscale>
<asrwt>0</asrwt>
<pdfrwt beam="1">  1        2 0.30648067E+00 0.23084265E+04</pdfrwt>
<pdfrwt beam="2">  1       -2 0.10288269E+00 0.23084265E+04</pdfrwt>
<totfact> 0.47194140E+00</totfact>
</mgrwt>
</event>
<event>
 6    1  0.3017327E-006  0.1366820E+04  0.7818608E-02  0.8978192E-01
         -2   -1    0    0    0  501 -0.00000000000E+00  0.00000000000E+00  0.22347413570E+03  0.22347413570E+03  0.00000000000E+00 0.  1.
          2   -1    0    0  501    0  0.00000000000E+00 -0.00000000000E+00 -0.20899472715E+04  0.20899472715E+04  0.00000000000E+00 0. -1.
         23    2    1    2    0    0  0.50582099745E+03  0.16611641468E+03 -0.22037124309E+03  0.58336331977E+03  0.91102872511E+02 0.  0.
         11    1    3    3    0    0  0.35116034158E+03  0.74989421095E+02 -0.12588842322E+03  0.38050610228E+03  0.00000000000E+00 0. -1.
        -11    1    3    3    0    0  0.15466065587E+03  0.91126993585E+02 -0.94482819869E+02  0.20285721748E+03  0.00000000000E+00 0.  1.
         22    1    1    2    0    0 -0.50582099745E+03 -0.16611641468E+03 -0.16461018927E+04  0.17300580874E+04  0.00000000000E+00 0. -1.
<mgrwt>
<rscale>  0 0.13668199E+04</rscale>
<asrwt>0</asrwt>
<pdfrwt beam="1">  1        2 0.32153035E+00 0.13668199E+04</pdfrwt>
<pdfrwt beam="2">  1       -2 0.34380637E-01 0.13668199E+04</pdfrwt>
<totfact> 0.46084896E+01</totfact>
</mgrwt>
</event>
<event>
 6    1  0.3017327E-006  0.3041656E+04  0.7818608E-02  0.8231935E-01
          2   -1    0    0  501    0  0.00000000000E+00  0.00000000000E+00  0.18833032889E+04  0.18833032889E+04  0.00000000000E+00 0.  1.
         -2   -1    0    0    0  501 -0.00000000000E+00 -0.00000000000E+00 -0.12281172411E+04  0.12281172411E+04  0.00000000000E+00 0. -1.
         23    2    1    2    0    0  0.55379305880E+03 -0.53527156306E+03 -0.10119106916E+04  0.12750071951E+04  0.92074435031E+02 0.  0.
         13    1    3    3    0    0  0.17420904126E+03 -0.11968507864E+03 -0.24211601646E+03  0.32139302036E+03  0.00000000000E+00 0. -1.
        -13    1    3    3    0    0  0.37958401754E+03 -0.41558648441E+03 -0.76979467510E+03  0.95361417471E+03  0.00000000000E+00 0.  1.
         22    1    1    2    0    0 -0.55379305880E+03  0.53527156306E+03  0.16670967394E+04  0.18364133349E+04  0.00000000000E+00 0.  1.
<mgrwt>
<rscale>  0 0.30416556E+04</rscale>
<asrwt>0</asrwt>
<pdfrwt beam="1">  1        2 0.28973897E+00 0.30416556E+04</pdfrwt>
<pdfrwt beam="2">  1       -2 0.18894111E+00 0.30416556E+04</pdfrwt>
<totfact> 0.10428210E+00</totfact>
</mgrwt>
</event>
<event>
 6    1  0.3017327E-006  0.2121053E+04  0.7818608E-02  0.8552026E-01
          2   -1    0    0  501    0  0.00000000000E+00  0.00000000000E+00  0.35684901641E+04  0.35684901641E+04  0.00000000000E+00 0.  1.
         -2   -1    0    0    0  501 -0.00000000000E+00 -0.00000000000E+00 -0.31517985691E+03  0.31517985691E+03  0.00000000000E+00 0. -1.
         23    2    1    2    0    0  0.30852648040E+03 -0.74221710466E+03  0.36833040897E+03  0.88881045290E+03  0.90784973682E+02 0.  0.
         11    1    3    3    0    0  0.17164437742E+03 -0.41544882853E+03  0.15619124814E+03  0.47587312114E+03  0.00000000000E+00 0.  1.
        -11    1    3    3    0    0  0.13688210298E+03 -0.32676827614E+03  0.21213916083E+03  0.41293733176E+03  0.00000000000E+00 0. -1.
         22    1    1    2    0    0 -0.30852648040E+03  0.74221710466E+03  0.28849798982E+04  0.29948595681E+04  0.00000000000E+00 0.  1.
<mgrwt>
<rscale>  0 0.21210528E+04</rscale>
<asrwt>0</asrwt>
<pdfrwt beam="1">  1        2 0.54899846E+00 0.21210528E+04</pdfrwt>
<pdfrwt beam="2">  1       -2 0.48489211E-01 0.21210528E+04</pdfrwt>
<totfact> 0.27079709E+00</totfact>
</mgrwt>
</event>
<event>
 6    1  0.3017327E-006  0.8091377E+03  0.7818608E-02  0.9546884E-01
         -2   -1    0    0    0  501 -0.00000000000E+00  0.00000000000E+00  0.25556208505E+03  0.25556208505E+03  0.00000000000E+00 0.  1.
          2   -1    0    0  501    0  0.00000000000E+00 -0.00000000000E+00 -0.64045474816E+03  0.64045474816E+03  0.00000000000E+00 0. -1.
         23    2    1    2    0    0  0.39546414412E+03 -0.10751019676E+02 -0.25528015743E+03  0.47971540955E+03  0.91931722864E+02 0.  0.
         11    1    3    3    0    0  0.12116537797E+03 -0.45451914805E+02 -0.73504985966E+02  0.14882845272E+03  0.00000000000E+00 0.  1.
        -11    1    3    3    0    0  0.27429876616E+03  0.34700895129E+02 -0.18177517146E+03  0.33088695683E+03  0.00000000000E+00 0. -1.
         22    1    1    2    0    0 -0.39546414412E+03  0.10751019676E+02 -0.12961250569E+03  0.41630142366E+03  0.00000000000E+00 0.  1.
<mgrwt>
<rscale>  0 0.80913769E+03</rscale>
<asrwt>0</asrwt>
<pdfrwt beam="1">  1        2 0.98531499E-01 0.80913769E+03</pdfrwt>
<pdfrwt beam="2">  1       -2 0.39317244E-01 0.80913769E+03</pdfrwt>
<totfact> 0.28166728E+02</totfact>
</mgrwt>
</event>
<event>
 6    1  0.3017327E-006  0.2296071E+04  0.7818608E-02  0.8479472E-01
         -2   -1    0    0    0  501 -0.00000000000E+00  0.00000000000E+00  0.12600096780E+04  0.12600096780E+04  0.00000000000E+00 0. -1.
          2   -1    0    0  501    0  0.00000000000E+00 -0.00000000000E+00 -0.10460118151E+04  0.10460118151E+04  0.00000000000E+00 0.  1.
         23    2    1    2    0    0  0.42055184913E+03 -0.37702279696E+03 -0.89445072324E+03  0.10619683128E+04  0.93405320660E+02 0.  0.
         11    1    3    3    0    0  0.22946771330E+03 -0.14387237781E+03 -0.40965753692E+03  0.49109468548E+03  0.00000000000E+00 0. -1.
        -11    1    3    3    0    0  0.19108413582E+03 -0.23315041915E+03 -0.48479318632E+03  0.57087362736E+03  0.00000000000E+00 0.  1.
         22    1    1    2    0    0 -0.42055184913E+03  0.37702279696E+03  0.11084485861E+04  0.12440531803E+04  0.00000000000E+00 0. -1.
<mgrwt>
<rscale>  0 0.22960706E+04</rscale>
<asrwt>0</asrwt>
<pdfrwt beam="1">  1        2 0.16092489E+00 0.22960706E+04</pdfrwt>
<pdfrwt beam="2">  1       -2 0.19384764E+00 0.22960706E+04</pdfrwt>
<totfact> 0.31185600E+00</totfact>
</mgrwt>
</event>
<event>
 6    1  0.3017327E-006  0.5562664E+04  0.7818608E-02  0.7747125E-01
         -2   -1    0    0    0  501 -0.00000000000E+00  0.00000000000E+00  0.41316428959E+04  0.41316428959E+04  0.00000000000E+00 0.  1.
          2   -1    0    0  501    0  0.00000000000E+00 -0.00000000000E+00 -0.18723318469E+04  0.18723318469E+04  0.00000000000E+00 0. -1.
         23    2    1    2    0    0 -0.27370100617E+04  0.48928588388E+03  0.10976638785E+04  0.29906627936E+04  0.92591582864E+02 0.  0.
         13    1    3    3    0    0 -0.43726575877E+03  0.97424412460E+02  0.14671212142E+03  0.47139930686E+03  0.00000000000E+00 0. -1.
        -13    1    3    3    0    0 -0.22997443029E+04  0.39186147142E+03  0.95095175707E+03  0.25192634868E+04  0.00000000000E+00 0.  1.
         22    1    1    2    0    0  0.27370100617E+04 -0.48928588388E+03  0.11616471705E+04  0.30133119491E+04  0.00000000000E+00 0. -1.
<mgrwt>
<rscale>  0 0.55626636E+04</rscale>
<asrwt>0</asrwt>
<pdfrwt beam="1">  1        2 0.28805105E+00 0.55626636E+04</pdfrwt>
<pdfrwt beam="2">  1       -2 0.63563737E+00 0.55626636E+04</pdfrwt>
<totfact> 0.20938028E-03</totfact>
</mgrwt>
</event>
<event>
 6    1  0.3017327E-006  0.3494180E+04  0.7818608E-02  0.8115171E-01
         -2   -1    0    0    0  501 -0.00000000000E+00  0.00000000000E+00  0.90912808368E+03  0.90912808368E+03  0.00000000000E+00 0.  1.
          2   -1    0    0  501    0  0.00000000000E+00 -0.00000000000E+00 -0.33574177193E+04  0.33574177193E+04  0.00000000000E+00 0. -1.
         23    2    1    2    0    0 -0.53463357951E+03 -0.15730518549E+04 -0.56976234038E+03  0.17587200512E+04  0.90232430619E+02 0.  0.
         13    1    3    3    0    0 -0.36539989777E+03 -0.99581204781E+03 -0.40048386898E+03  0.11338192313E+04  0.00000000000E+00 0. -1.
        -13    1    3    3    0    0 -0.16923368174E+03 -0.57723980705E+03 -0.16927847141E+03  0.62490081994E+03  0.00000000000E+00 0.  1.
         22    1    1    2    0    0  0.53463357951E+03  0.15730518549E+04 -0.18785272952E+04  0.25078257518E+04  0.00000000000E+00 0. -1.
<mgrwt>
<rscale>  0 0.34941796E+04</rscale>
<asrwt>0</asrwt>
<pdfrwt beam="1">  1        2 0.51652580E+00 0.34941796E+04</pdfrwt>
<pdfrwt beam="2">  1       -2 0.13986586E+00 0.34941796E+04</pdfrwt>
<totfact> 0.30127021E-01</totfact>
</mgrwt>
</event>
<event>
 6    1  0.3017327E-006  0.3909238E+04  0.7818608E-02  0.8023111E-01
          2   -1    0    0  501    0  0.00000000000E+00  0.00000000000E+00  0.30726280872E+04  0.30726280872E+04  0.00000000000E+00 0. -1.
         -2   -1    0    0    0  501 -0.00000000000E+00 -0.00000000000E+00 -0.12434098804E+04  0.12434098804E+04  0.00000000000E+00 0.  1.
         23    2    1    2    0    0  0.26743530905E+03 -0.16885145373E+04 -0.12858408975E+03  0.17168856405E+04  0.92517281757E+02 0.  0.
         13    1    3    3    0    0  0.11719686821E+03 -0.47337977224E+03 -0.34746141115E+02  0.48890777147E+03  0.00000000000E+00 0.  1.
        -13    1    3    3    0    0  0.15023844084E+03 -0.12151347650E+04 -0.93837948638E+02  0.12279778691E+04  0.00000000000E+00 0. -1.
         22    1    1    2    0    0 -0.26743530905E+03  0.16885145373E+04  0.19578022966E+04  0.25991523271E+04  0.00000000000E+00 0. -1.
<mgrwt>
<rscale>  0 0.39092384E+04</rscale>
<asrwt>0</asrwt>
<pdfrwt beam="1">  1        2 0.47271201E+00 0.39092384E+04</pdfrwt>
<pdfrwt beam="2">  1       -2 0.19129383E+00 0.39092384E+04</pdfrwt>
<totfact> 0.18900598E-01</totfact>
</mgrwt>
</event>
<event>
 6    1  0.3017327E-006  0.1122026E+04  0.7818608E-02  0.9183986E-01
         -2   -1    0    0    0  501 -0.00000000000E+00  0.00000000000E+00  0.13103799814E+04  0.13103799814E+04  0.00000000000E+00 0.  1.
          2   -1    0    0  501    0  0.00000000000E+00 -0.00000000000E+00 -0.24018643542E+03  0.24018643542E+03  0.00000000000E+00 0. -1.
         23    2    1    2    0    0  0.24640602151E+03  0.10220438545E+03  0.12160557344E+04  0.12465311528E+04  0.62343419025E+02 0.  0.
         13    1    3    3    0    0  0.50724349853E+01 -0.70390844963E+01  0.51473978997E+02  0.52200084493E+02  0.00000000000E+00 0. -1.
        -13    1    3    3    0    0  0.24133358652E+03  0.10924346994E+03  0.11645817554E+04  0.11943310683E+04  0.00000000000E+00 0.  1.
         22    1    1    2    0    0 -0.24640602151E+03 -0.10220438545E+03 -0.14586218833E+03  0.30403526411E+03  0.00000000000E+00 0. -1.
<mgrwt>
<rscale>  0 0.11220258E+04</rscale>
<asrwt>0</asrwt>
<pdfrwt beam="1">  1        2 0.36951760E-01 0.11220258E+04</pdfrwt>
<pdfrwt beam="2">  1       -2 0.20159692E+00 0.11220258E+04</pdfrwt>
<totfact> 0.18120781E+01</totfact>
</mgrwt>
</event>
<event>
 6    1  0.3017327E-006  0.1986788E+04  0.7818608E-02  0.8612823E-01
          2   -1    0    0  501    0  0.00000000000E+00  0.00000000000E+00  0.37161096222E+04  0.37161096222E+04  0.00000000000E+00 0. -1.
         -2   -1    0    0    0  501 -0.00000000000E+00 -0.00000000000E+00 -0.26555493809E+03  0.26555493809E+03  0.00000000000E+00 0.  1.
         23    2    1    2    0    0  0.23052040434E+03 -0.70194061544E+03  0.40449477692E+03  0.84728404052E+03  0.91727511468E+02 0.  0.
         13    1    3    3    0    0  0.57833942528E+02 -0.13879706682E+03  0.43878832350E+02  0.15663570026E+03  0.00000000000E+00 0.  1.
        -13    1    3    3    0    0  0.17268646181E+03 -0.56314354861E+03  0.36061594457E+03  0.69064834027E+03  0.00000000000E+00 0. -1.
         22    1    1    2    0    0 -0.23052040434E+03  0.70194061544E+03  0.30460599072E+04  0.31343805197E+04  0.00000000000E+00 0. -1.
<mgrwt>
<rscale>  0 0.19867876E+04</rscale>
<asrwt>0</asrwt>
<pdfrwt beam="1">  1        2 0.57170913E+00 0.19867876E+04</pdfrwt>
<pdfrwt beam="2">  1       -2 0.40854609E-01 0.19867876E+04</pdfrwt>
<totfact> 0.30198761E+00</totfact>
</mgrwt>
</event>
<event>
 6    1  0.3017327E-006  0.1161274E+04  0.7818608E-02  0.9147445E-01
         -2   -1    0    0    0  501 -0.00000000000E+00  0.00000000000E+00  0.88198772086E+03  0.88198772086E+03  0.00000000000E+00 0.  1.
          2   -1    0    0  501    0  0.00000000000E+00 -0.00000000000E+00 -0.38224971527E+03  0.38224971527E+03  0.00000000000E+00 0. -1.
         23    2    1    2    0    0 -0.42977982320E+03 -0.25789868075E+03  0.56325126019E+03  0.75900841927E+03  0.87289016835E+02 0.  0.
         13    1    3    3    0    0 -0.10097061320E+03 -0.84308594906E+02  0.19866711503E+03  0.23826797204E+03  0.00000000000E+00 0. -1.
        -13    1    3    3    0    0 -0.32880921000E+03 -0.17359008584E+03  0.36458414516E+03  0.52074044723E+03  0.00000000000E+00 0.  1.
         22    1    1    2    0    0  0.42977982320E+03  0.25789868075E+03 -0.63513254608E+02  0.50522901686E+03  0.00000000000E+00 0. -1.
<mgrwt>
<rscale>  0 0.11612744E+04</rscale>
<asrwt>0</asrwt>
<pdfrwt beam="1">  1        2 0.58807649E-01 0.11612744E+04</pdfrwt>
<pdfrwt beam="2">  1       -2 0.13569042E+00 0.11612744E+04</pdfrwt>
<totfact> 0.32212109E+01</totfact>
</mgrwt>
</event>
<event>
 6    1  0.3386364E-006  0.4938628E+04  0.7818608E-02  0.7838045E-01
         -2   -1    0    0    0  501 -0.00000000000E+00  0.00000000000E+00  0.24021892072E+04  0.24021892072E+04  0.00000000000E+00 0.  1.
          2   -1    0    0  501    0  0.00000000000E+00 -0.00000000000E+00 -0.25383147961E+04  0.25383147961E+04  0.00000000000E+00 0. -1.
         23    2    1    2    0    0 -0.16437251664E+04 -0.61017780951E+03 -0.18062406085E+04  0.25190512244E+04  0.94681326481E+02 0.  0.
         11    1    3    3    0    0 -0.56229809476E+03 -0.25693777620E+03 -0.63378948361E+03  0.88537295969E+03  0.00000000000E+00 0. -1.
        -11    1    3    3    0    0 -0.10814270717E+04 -0.35324003331E+03 -0.11724511249E+04  0.16336782647E+04  0.00000000000E+00 0.  1.
         22    1    1    2    0    0  0.16437251664E+04  0.61017780951E+03  0.16701150195E+04  0.24214527789E+04  0.00000000000E+00 0.  1.
<mgrwt>
<rscale>  0 0.49386283E+04</rscale>
<asrwt>0</asrwt>
<pdfrwt beam="1">  1        2 0.39050997E+00 0.49386283E+04</pdfrwt>
<pdfrwt beam="2">  1       -2 0.36956757E+00 0.49386283E+04</pdfrwt>
<totfact> 0.28273659E-02</totfact>
</mgrwt>
</event>
<event>
 6    1  0.3017327E-006  0.1381103E+04  0.7818608E-02  0.8967612E-01
         -2   -1    0    0    0  501 -0.00000000000E+00  0.00000000000E+00  0.47076154410E+03  0.47076154410E+03  0.00000000000E+00 0.  1.
          2   -1    0    0  501    0  0.00000000000E+00 -0.00000000000E+00 -0.10129567649E+04  0.10129567649E+04  0.00000000000E+00 0. -1.
         23    2    1    2    0    0  0.19036607206E+03 -0.59030327320E+03  0.46746680103E+02  0.62841148781E+03  0.89546357699E+02 0.  0.
         13    1    3    3    0    0  0.10958970970E+03 -0.36880326850E+03 -0.13812600508E+02  0.38498901707E+03  0.00000000000E+00 0.  1.
        -13    1    3    3    0    0  0.80776362360E+02 -0.22150000469E+03  0.60559280611E+02  0.24342247074E+03  0.00000000000E+00 0. -1.
         22    1    1    2    0    0 -0.19036607206E+03  0.59030327320E+03 -0.58894190093E+03  0.85530682121E+03  0.00000000000E+00 0. -1.
<mgrwt>
<rscale>  0 0.13811026E+04</rscale>
<asrwt>0</asrwt>
<pdfrwt beam="1">  1        2 0.15583950E+00 0.13811026E+04</pdfrwt>
<pdfrwt beam="2">  1       -2 0.72424853E-01 0.13811026E+04</pdfrwt>
<totfact> 0.41555686E+01</totfact>
</mgrwt>
</event>
<event>
 6    1  0.3017327E-006  0.1277835E+04  0.7818608E-02  0.9047329E-01
         -2   -1    0    0    0  501 -0.00000000000E+00  0.00000000000E+00  0.11865342805E+03  0.11865342805E+03  0.00000000000E+00 0.  1.
          2   -1    0    0  501    0  0.00000000000E+00 -0.00000000000E+00 -0.34404048242E+04  0.34404048242E+04  0.00000000000E+00 0. -1.
         23    2    1    2    0    0 -0.21421039178E+03 -0.22059189708E+03 -0.32190950650E+04  0.32348897785E+04  0.85976536766E+02 0.  0.
         11    1    3    3    0    0 -0.58355409808E+02 -0.11742669130E+03 -0.14699758564E+04  0.14758127930E+04  0.00000000000E+00 0. -1.
        -11    1    3    3    0    0 -0.15585498197E+03 -0.10316520578E+03 -0.17491192086E+04  0.17590769855E+04  0.00000000000E+00 0.  1.
         22    1    1    2    0    0  0.21421039178E+03  0.22059189708E+03 -0.10265633114E+03  0.32416847368E+03  0.00000000000E+00 0.  1.
<mgrwt>
<rscale>  0 0.12778354E+04</rscale>
<asrwt>0</asrwt>
<pdfrwt beam="1">  1        2 0.52929302E+00 0.12778354E+04</pdfrwt>
<pdfrwt beam="2">  1       -2 0.18254375E-01 0.12778354E+04</pdfrwt>
<totfact> 0.22471266E+01</totfact>
</mgrwt>
</event>
<event>
 6    1  0.3017327E-006  0.1115750E+04  0.7818608E-02  0.9189975E-01
         -2   -1    0    0    0  501 -0.00000000000E+00  0.00000000000E+00  0.15540849806E+03  0.15540849806E+03  0.00000000000E+00 0.  1.
          2   -1    0    0  501    0  0.00000000000E+00 -0.00000000000E+00 -0.20026231221E+04  0.20026231221E+04  0.00000000000E+00 0. -1.
         23    2    1    2    0    0  0.78904668009E+02 -0.12207289068E+03 -0.19640203962E+04  0.19715609102E+04  0.92458470643E+02 0.  0.
         13    1    3    3    0    0  0.88614574103E+02 -0.10531139811E+03 -0.13014533606E+04  0.13087107714E+04  0.00000000000E+00 0. -1.
        -13    1    3    3    0    0 -0.97099060941E+01 -0.16761492574E+02 -0.66256703563E+03  0.66285013888E+03  0.00000000000E+00 0.  1.
         22    1    1    2    0    0 -0.78904668009E+02  0.12207289068E+03  0.11680577212E+03  0.18647070996E+03  0.00000000000E+00 0.  1.
<mgrwt>
<rscale>  0 0.11157502E+04</rscale>
<asrwt>0</asrwt>
<pdfrwt beam="1">  1        2 0.30809587E+00 0.11157502E+04</pdfrwt>
<pdfrwt beam="2">  1       -2 0.23908999E-01 0.11157502E+04</pdfrwt>
<totfact> 0.10293760E+02</totfact>
</mgrwt>
</event>
<event>
 6    1  0.3017327E-006  0.4548523E+04  0.7818608E-02  0.7902196E-01
          2   -1    0    0  501    0  0.00000000000E+00  0.00000000000E+00  0.33399038272E+04  0.33399038272E+04  0.00000000000E+00 0. -1.
         -2   -1    0    0    0  501 -0.00000000000E+00 -0.00000000000E+00 -0.15486272814E+04  0.15486272814E+04  0.00000000000E+00 0.  1.
         23    2    1    2    0    0 -0.21052006853E+04 -0.39042592027E+03  0.74654445081E+02  0.21442472747E+04  0.88998676451E+02 0.  0.
         13    1    3    3    0    0 -0.36422895545E+03 -0.99096256778E+02  0.26822272595E+02  0.37842071085E+03  0.00000000000E+00 0.  1.
        -13    1    3    3    0    0 -0.17409717298E+04 -0.29132966349E+03  0.47832172486E+02  0.17658265639E+04  0.00000000000E+00 0. -1.
         22    1    1    2    0    0  0.21052006853E+04  0.39042592027E+03  0.17166221006E+04  0.27442838339E+04  0.00000000000E+00 0. -1.
<mgrwt>
<rscale>  0 0.45485234E+04</rscale>
<asrwt>0</asrwt>
<pdfrwt beam="1">  1        2 0.51383136E+00 0.45485234E+04</pdfrwt>
<pdfrwt beam="2">  1       -2 0.23825035E+00 0.45485234E+04</pdfrwt>
<totfact> 0.59950018E-02</totfact>
</mgrwt>
</event>
<event>
 6    1  0.3017327E-006  0.2043683E+04  0.7818608E-02  0.8586466E-01
          2   -1    0    0  501    0  0.00000000000E+00  0.00000000000E+00  0.16635864609E+04  0.16635864609E+04  0.00000000000E+00 0. -1.
         -2   -1    0    0    0  501 -0.00000000000E+00 -0.00000000000E+00 -0.62765593343E+03  0.62765593343E+03  0.00000000000E+00 0.  1.
         23    2    1    2    0    0 -0.29291513245E+03  0.88876007138E+03  0.97297202986E+03  0.13533418070E+04  0.95737852464E+02 0.  0.
         13    1    3    3    0    0 -0.27854883525E+02  0.65176640125E+02  0.41882983038E+02  0.82329054546E+02  0.00000000000E+00 0. -1.
        -13    1    3    3    0    0 -0.26506024893E+03  0.82358343126E+03  0.93108904682E+03  0.12710127525E+04  0.00000000000E+00 0.  1.
         22    1    1    2    0    0  0.29291513245E+03 -0.88876007138E+03  0.62958497616E+02  0.93790058734E+03  0.00000000000E+00 0.  1.
<mgrwt>
<rscale>  0 0.20436829E+04</rscale>
<asrwt>0</asrwt>
<pdfrwt beam="1">  1        2 0.25593638E+00 0.20436829E+04</pdfrwt>
<pdfrwt beam="2">  1       -2 0.96562452E-01 0.20436829E+04</pdfrwt>
<totfact> 0.85341593E+00</totfact>
</mgrwt>
</event>
<event>
 6    1  0.3017327E-006  0.9817469E+03  0.7818608E-02  0.9328794E-01
         -1   -1    0    0    0  501 -0.00000000000E+00  0.00000000000E+00  0.20164625557E+03  0.20164625557E+03  0.00000000000E+00 0.  1.
          1   -1    0    0  501    0  0.00000000000E+00 -0.00000000000E+00 -0.11949478725E+04  0.11949478725E+04  0.00000000000E+00 0. -1.
         23    2    1    2    0    0 -0.22394195856E+03 -0.43288373264E+03 -0.51632297501E+03  0.71465061749E+03  0.81226619826E+02 0.  0.
         13    1    3    3    0    0 -0.21691341908E+03 -0.43228856045E+03 -0.51649361551E+03  0.70759485989E+03  0.00000000000E+00 0. -1.
        -13    1    3    3    0    0 -0.70285394793E+01 -0.59517218629E+00  0.17064050300E+00  0.70557576010E+01  0.00000000000E+00 0.  1.
         22    1    1    2    0    0  0.22394195856E+03  0.43288373264E+03 -0.47697864197E+03  0.68194351063E+03  0.00000000000E+00 0.  1.
<mgrwt>
<rscale>  0 0.98174694E+03</rscale>
<asrwt>0</asrwt>
<pdfrwt beam="1">  1        1 0.18383813E+00 0.98174694E+03</pdfrwt>
<pdfrwt beam="2">  1       -1 0.31022501E-01 0.98174694E+03</pdfrwt>
<totfact> 0.10392367E+02</totfact>
</mgrwt>
</event>
<event>
 6    1  0.3017327E-006  0.4423320E+04  0.7818608E-02  0.7924200E-01
         -2   -1    0    0    0  501 -0.00000000000E+00  0.00000000000E+00  0.11817573837E+04  0.11817573837E+04  0.00000000000E+00 0.  1.
          2   -1    0    0  501    0  0.00000000000E+00 -0.00000000000E+00 -0.41391234666E+04  0.41391234666E+04  0.00000000000E+00 0. -1.
         23    2    1    2    0    0 -0.18415887437E+04 -0.77885507592E+02 -0.29471763355E+04  0.34776176883E+04  0.10227991273E+03 0.  0.
         11    1    3    3    0    0 -0.14734577564E+04 -0.87269409987E+02 -0.22959372292E+04  0.27294727459E+04  0.00000000000E+00 0.  1.
        -11    1    3    3    0    0 -0.36813098729E+03  0.93839023945E+01 -0.65123910625E+03  0.74814494247E+03  0.00000000000E+00 0. -1.
         22    1    1    2    0    0  0.18415887437E+04  0.77885507592E+02 -0.10189747414E+02  0.18432631620E+04  0.00000000000E+00 0.  1.
<mgrwt>
<rscale>  0 0.44233199E+04</rscale>
<asrwt>0</asrwt>
<pdfrwt beam="1">  1        2 0.63678822E+00 0.44233199E+04</pdfrwt>
<pdfrwt beam="2">  1       -2 0.18180883E+00 0.44233199E+04</pdfrwt>
<totfact> 0.35054264E-02</totfact>
</mgrwt>
</event>
<event>
 6    1  0.3017327E-006  0.2445595E+04  0.7818608E-02  0.8422628E-01
         -2   -1    0    0    0  501 -0.00000000000E+00  0.00000000000E+00  0.31447118093E+03  0.31447118093E+03  0.00000000000E+00 0.  1.
          2   -1    0    0  501    0  0.00000000000E+00 -0.00000000000E+00 -0.47547555520E+04  0.47547555520E+04  0.00000000000E+00 0. -1.
         23    2    1    2    0    0 -0.66087738185E+03 -0.10260999774E+04 -0.22945213405E+04  0.26006362321E+04  0.94024209984E+02 0.  0.
         11    1    3    3    0    0 -0.49497664655E+03 -0.80440583305E+03 -0.18443420635E+04  0.20721168577E+04  0.00000000000E+00 0.  1.
        -11    1    3    3    0    0 -0.16590073531E+03 -0.22169414440E+03 -0.45017927702E+03  0.52851937438E+03  0.00000000000E+00 0. -1.
         22    1    1    2    0    0  0.66087738185E+03  0.10260999774E+04 -0.21457630306E+04  0.24685905009E+04  0.00000000000E+00 0.  1.
<mgrwt>
<rscale>  0 0.24455949E+04</rscale>
<asrwt>0</asrwt>
<pdfrwt beam="1">  1        2 0.73150082E+00 0.24455949E+04</pdfrwt>
<pdfrwt beam="2">  1       -2 0.48380184E-01 0.24455949E+04</pdfrwt>
<totfact> 0.24462092E-01</totfact>
</mgrwt>
</event>
<event>
 6    1  0.3017327E-006  0.2168034E+04  0.7818608E-02  0.8531852E-01
          2   -1    0    0  501    0  0.00000000000E+00  0.00000000000E+00  0.23884341135E+04  0.23884341135E+04  0.00000000000E+00 0. -1.
         -2   -1    0    0    0  501 -0.00000000000E+00 -0.00000000000E+00 -0.49199292001E+03  0.49199292001E+03  0.00000000000E+00 0.  1.
         23    2    1    2    0    0  0.66865281225E+03  0.22158136983E+03  0.20412003477E+04  0.21612955438E+04  0.92220830185E+02 0.  0.
         13    1    3    3    0    0  0.36444687753E+03  0.82562467393E+02  0.99048867473E+03  0.10586339794E+04  0.00000000000E+00 0. -1.
        -13    1    3    3    0    0  0.30420593472E+03  0.13901890244E+03  0.10507116729E+04  0.11026615644E+04  0.00000000000E+00 0.  1.
         22    1    1    2    0    0 -0.66865281225E+03 -0.22158136983E+03 -0.14475915417E+03  0.71913148972E+03  0.00000000000E+00 0.  1.
<mgrwt>
<rscale>  0 0.21680338E+04</rscale>
<asrwt>0</asrwt>
<pdfrwt beam="1">  1        2 0.36745140E+00 0.21680338E+04</pdfrwt>
<pdfrwt beam="2">  1       -2 0.75691220E-01 0.21680338E+04</pdfrwt>
<totfact> 0.57880871E+00</totfact>
</mgrwt>
</event>
<event>
 6    1  0.3017327E-006  0.1136443E+04  0.7818608E-02  0.9170382E-01
         -2   -1    0    0    0  501 -0.00000000000E+00  0.00000000000E+00  0.21887878840E+03  0.21887878840E+03  0.00000000000E+00 0.  1.
          2   -1    0    0  501    0  0.00000000000E+00 -0.00000000000E+00 -0.14751352814E+04  0.14751352814E+04  0.00000000000E+00 0. -1.
         23    2    1    2    0    0  0.22282720765E+03  0.34212281746E+03 -0.51649030401E+02  0.42209460473E+03  0.93788305797E+02 0.  0.
         11    1    3    3    0    0  0.10266527853E+03  0.91783380865E+02 -0.43026387147E+02  0.14427618795E+03  0.00000000000E+00 0. -1.
        -11    1    3    3    0    0  0.12016192912E+03  0.25033943660E+03 -0.86226432541E+01  0.27781841678E+03  0.00000000000E+00 0.  1.
         22    1    1    2    0    0 -0.22282720765E+03 -0.34212281746E+03 -0.12046074626E+04  0.12719194651E+04  0.00000000000E+00 0. -1.
<mgrwt>
<rscale>  0 0.11364433E+04</rscale>
<asrwt>0</asrwt>
<pdfrwt beam="1">  1        2 0.22694389E+00 0.11364433E+04</pdfrwt>
<pdfrwt beam="2">  1       -2 0.33673659E-01 0.11364433E+04</pdfrwt>
<totfact> 0.10705377E+02</totfact>
</mgrwt>
</event>
<event>
 6    1  0.3090540E-006  0.2851053E+04  0.7818608E-02  0.8287591E-01
          2   -1    0    0  501    0  0.00000000000E+00  0.00000000000E+00  0.18922127006E+04  0.18922127006E+04  0.00000000000E+00 0.  1.
         -2   -1    0    0    0  501 -0.00000000000E+00 -0.00000000000E+00 -0.10739418372E+04  0.10739418372E+04  0.00000000000E+00 0. -1.
         23    2    1    2    0    0  0.36076516988E+03  0.10267598136E+04  0.13649643511E+04  0.17482625097E+04  0.94376375801E+02 0.  0.
         11    1    3    3    0    0  0.15576255606E+03  0.46094944096E+03  0.68525805898E+03  0.84042546868E+03  0.00000000000E+00 0. -1.
        -11    1    3    3    0    0  0.20500261382E+03  0.56581037265E+03  0.67970629216E+03  0.90783704103E+03  0.00000000000E+00 0.  1.
         22    1    1    2    0    0 -0.36076516988E+03 -0.10267598136E+04 -0.54669348778E+03  0.12178920281E+04  0.00000000000E+00 0. -1.
<mgrwt>
<rscale>  0 0.28510534E+04</rscale>
<asrwt>0</asrwt>
<pdfrwt beam="1">  1        2 0.29110965E+00 0.28510534E+04</pdfrwt>
<pdfrwt beam="2">  1       -2 0.16522182E+00 0.28510534E+04</pdfrwt>
<totfact> 0.15331115E+00</totfact>
</mgrwt>
</event>
<event>
 6    1  0.3017327E-006  0.1921295E+04  0.7818608E-02  0.8644329E-01
          2   -1    0    0  501    0  0.00000000000E+00  0.00000000000E+00  0.12317259595E+04  0.12317259595E+04  0.00000000000E+00 0. -1.
         -2   -1    0    0    0  501 -0.00000000000E+00 -0.00000000000E+00 -0.74922773832E+03  0.74922773832E+03  0.00000000000E+00 0.  1.
         23    2    1    2    0    0 -0.10855479669E+02  0.81769915531E+03  0.75721927340E+03  0.11182710177E+04  0.91647645614E+02 0.  0.
         13    1    3    3    0    0 -0.38238474116E+02  0.67518556009E+03  0.64833972393E+03  0.93684690269E+03  0.00000000000E+00 0. -1.
        -13    1    3    3    0    0  0.27382994447E+02  0.14251359522E+03  0.10887954947E+03  0.18142411499E+03  0.00000000000E+00 0.  1.
         22    1    1    2    0    0  0.10855479669E+02 -0.81769915531E+03 -0.27472105224E+03  0.86268268012E+03  0.00000000000E+00 0.  1.
<mgrwt>
<rscale>  0 0.19212946E+04</rscale>
<asrwt>0</asrwt>
<pdfrwt beam="1">  1        2 0.18949630E+00 0.19212946E+04</pdfrwt>
<pdfrwt beam="2">  1       -2 0.11526581E+00 0.19212946E+04</pdfrwt>
<totfact> 0.99427299E+00</totfact>
</mgrwt>
</event>
<event>
 6    1  0.3017327E-006  0.3485791E+04  0.7818608E-02  0.8117166E-01
         -1   -1    0    0    0  501 -0.00000000000E+00  0.00000000000E+00  0.21161952514E+04  0.21161952514E+04  0.00000000000E+00 0.  1.
          1   -1    0    0  501    0  0.00000000000E+00 -0.00000000000E+00 -0.14354465346E+04  0.14354465346E+04  0.00000000000E+00 0. -1.
         23    2    1    2    0    0 -0.75599030021E+02 -0.13794477630E+04  0.14212459108E+04  0.19841828748E+04  0.91926042392E+02 0.  0.
         11    1    3    3    0    0 -0.15157452282E+02 -0.10002204048E+04  0.10428654221E+04  0.14450740103E+04  0.00000000000E+00 0. -1.
        -11    1    3    3    0    0 -0.60441577739E+02 -0.37922735822E+03  0.37838048871E+03  0.53910886450E+03  0.00000000000E+00 0.  1.
         22    1    1    2    0    0  0.75599030021E+02  0.13794477630E+04 -0.74049719400E+03  0.15674589113E+04  0.00000000000E+00 0. -1.
<mgrwt>
<rscale>  0 0.34857912E+04</rscale>
<asrwt>0</asrwt>
<pdfrwt beam="1">  1        1 0.22083793E+00 0.34857912E+04</pdfrwt>
<pdfrwt beam="2">  1       -1 0.32556850E+00 0.34857912E+04</pdfrwt>
<totfact> 0.13334632E-01</totfact>
</mgrwt>
</event>
<event>
 6    1  0.3017327E-006  0.1741670E+04  0.7818608E-02  0.8737949E-01
         -2   -1    0    0    0  501 -0.00000000000E+00  0.00000000000E+00  0.50587675995E+03  0.50587675995E+03  0.00000000000E+00 0.  1.
          2   -1    0    0  501    0  0.00000000000E+00 -0.00000000000E+00 -0.14990877110E+04  0.14990877110E+04  0.00000000000E+00 0. -1.
         23    2    1    2    0    0 -0.14465518834E+03 -0.84837762439E+03 -0.62785660782E+03  0.10700026999E+04  0.10016057523E+03 0.  0.
         11    1    3    3    0    0 -0.86357247632E+02 -0.55229523504E+03 -0.46480957163E+03  0.72700449706E+03  0.00000000000E+00 0. -1.
        -11    1    3    3    0    0 -0.58297940712E+02 -0.29608238935E+03 -0.16304703620E+03  0.34299820289E+03  0.00000000000E+00 0.  1.
         22    1    1    2    0    0  0.14465518834E+03  0.84837762439E+03 -0.36535434318E+03  0.93496177096E+03  0.00000000000E+00 0.  1.
<mgrwt>
<rscale>  0 0.17416700E+04</rscale>
<asrwt>0</asrwt>
<pdfrwt beam="1">  1        2 0.23062887E+00 0.17416700E+04</pdfrwt>
<pdfrwt beam="2">  1       -2 0.77827196E-01 0.17416700E+04</pdfrwt>
<totfact> 0.17723517E+01</totfact>
</mgrwt>
</event>
<event>
 6    1  0.3017327E-006  0.1686879E+04  0.7818608E-02  0.8768884E-01
         -2   -1    0    0    0  501 -0.00000000000E+00  0.00000000000E+00  0.63036028426E+03  0.63036028426E+03  0.00000000000E+00 0.  1.
          2   -1    0    0  501    0  0.00000000000E+00 -0.00000000000E+00 -0.11285448110E+04  0.11285448110E+04  0.00000000000E+00 0. -1.
         23    2    1    2    0    0  0.75201112433E+01  0.44882965180E+03 -0.99139140348E+03  0.10920035796E+04  0.90057173582E+02 0.  0.
         11    1    3    3    0    0  0.27325141755E+02  0.32641136948E+03 -0.63235996525E+03  0.71215881034E+03  0.00000000000E+00 0.  1.
        -11    1    3    3    0    0 -0.19805030512E+02  0.12241828232E+03 -0.35903143823E+03  0.37984476924E+03  0.00000000000E+00 0. -1.
         22    1    1    2    0    0 -0.75201112433E+01 -0.44882965180E+03  0.49320687671E+03  0.66690151570E+03  0.00000000000E+00 0.  1.
<mgrwt>
<rscale>  0 0.16868786E+04</rscale>
<asrwt>0</asrwt>
<pdfrwt beam="1">  1        2 0.17362228E+00 0.16868786E+04</pdfrwt>
<pdfrwt beam="2">  1       -2 0.96978505E-01 0.16868786E+04</pdfrwt>
<totfact> 0.17701601E+01</totfact>
</mgrwt>
</event>
<event>
 6    1  0.3017327E-006  0.1315377E+04  0.7818608E-02  0.9017459E-01
          1   -1    0    0  501    0  0.00000000000E+00  0.00000000000E+00  0.77267576700E+03  0.77267576700E+03  0.00000000000E+00 0. -1.
         -1   -1    0    0    0  501 -0.00000000000E+00 -0.00000000000E+00 -0.55981368889E+03  0.55981368889E+03  0.00000000000E+00 0.  1.
         23    2    1    2    0    0  0.80338791105E+02 -0.23517925484E+03  0.71954713189E+03  0.76813730785E+03  0.10258287106E+03 0.  0.
         13    1    3    3    0    0 -0.25121330226E+01 -0.53704565326E+02  0.28444964018E+03  0.28948590457E+03  0.00000000000E+00 0. -1.
        -13    1    3    3    0    0  0.82850924128E+02 -0.18147468952E+03  0.43509749172E+03  0.47865140328E+03  0.00000000000E+00 0.  1.
         22    1    1    2    0    0 -0.80338791105E+02  0.23517925484E+03 -0.50668505379E+03  0.56435214804E+03  0.00000000000E+00 0.  1.
<mgrwt>
<rscale>  0 0.13153775E+04</rscale>
<asrwt>0</asrwt>
<pdfrwt beam="1">  1        1 0.11887320E+00 0.13153775E+04</pdfrwt>
<pdfrwt beam="2">  1       -1 0.86125183E-01 0.13153775E+04</pdfrwt>
<totfact> 0.30529571E+01</totfact>
</mgrwt>
</event>
<event>
 6    1  0.3017327E-006  0.1868477E+04  0.7818608E-02  0.8670708E-01
         -2   -1    0    0    0  501 -0.00000000000E+00  0.00000000000E+00  0.66650079051E+03  0.66650079051E+03  0.00000000000E+00 0.  1.
          2   -1    0    0  501    0  0.00000000000E+00 -0.00000000000E+00 -0.13095283538E+04  0.13095283538E+04  0.00000000000E+00 0. -1.
         23    2    1    2    0    0 -0.30857343042E+03 -0.36395686202E+03 -0.11689466943E+04  0.12659072592E+04  0.91665999167E+02 0.  0.
         11    1    3    3    0    0 -0.42089737855E+02 -0.32013718726E+02 -0.21304144057E+03  0.21950644551E+03  0.00000000000E+00 0.  1.
        -11    1    3    3    0    0 -0.26648369256E+03 -0.33194314329E+03 -0.95590525373E+03  0.10464008137E+04  0.00000000000E+00 0. -1.
         22    1    1    2    0    0  0.30857343042E+03  0.36395686202E+03  0.52591913100E+03  0.71012188512E+03  0.00000000000E+00 0.  1.
<mgrwt>
<rscale>  0 0.18684771E+04</rscale>
<asrwt>0</asrwt>
<pdfrwt beam="1">  1        2 0.20146590E+00 0.18684771E+04</pdfrwt>
<pdfrwt beam="2">  1       -2 0.10253858E+00 0.18684771E+04</pdfrwt>
<totfact> 0.11925675E+01</totfact>
</mgrwt>
</event>
<event>
 6    1  0.3017327E-006  0.2052206E+04  0.7818608E-02  0.8582594E-01
          2   -1    0    0  501    0  0.00000000000E+00  0.00000000000E+00  0.17913837004E+04  0.17913837004E+04  0.00000000000E+00 0.  1.
         -2   -1    0    0    0  501 -0.00000000000E+00 -0.00000000000E+00 -0.58775062700E+03  0.58775062700E+03  0.00000000000E+00 0. -1.
         23    2    1    2    0    0  0.16986548395E+02 -0.73423768414E+03 -0.22416137025E+03  0.77352214105E+03  0.93245177622E+02 0.  0.
         11    1    3    3    0    0  0.48764283917E+01 -0.17050928749E+03 -0.94274445058E+02  0.19489706941E+03  0.00000000000E+00 0.  1.
        -11    1    3    3    0    0  0.12110120003E+02 -0.56372839665E+03 -0.12988692519E+03  0.57862507164E+03  0.00000000000E+00 0. -1.
         22    1    1    2    0    0 -0.16986548395E+02  0.73423768414E+03  0.14277944436E+04  0.16056121863E+04  0.00000000000E+00 0.  1.
<mgrwt>
<rscale>  0 0.20522055E+04</rscale>
<asrwt>0</asrwt>
<pdfrwt beam="1">  1        2 0.27559749E+00 0.20522055E+04</pdfrwt>
<pdfrwt beam="2">  1       -2 0.90423174E-01 0.20522055E+04</pdfrwt>
<totfact> 0.84375682E+00</totfact>
</mgrwt>
</event>
<event>
 6    1  0.3017327E-006  0.1796332E+04  0.7818608E-02  0.8708252E-01
         -2   -1    0    0    0  501 -0.00000000000E+00  0.00000000000E+00  0.64783752117E+03  0.64783752117E+03  0.00000000000E+00 0.  1.
          2   -1    0    0  501    0  0.00000000000E+00 -0.00000000000E+00 -0.12452232911E+04  0.12452232911E+04  0.00000000000E+00 0. -1.
         23    2    1    2    0    0  0.14789944619E+03  0.78830433828E+02 -0.12269037275E+04  0.12416152334E+04  0.90703625544E+02 0.  0.
         11    1    3    3    0    0  0.15756667486E+03  0.60392997414E+02 -0.10470002246E+04  0.10605112170E+04  0.00000000000E+00 0.  1.
        -11    1    3    3    0    0 -0.96672286681E+01  0.18437436413E+02 -0.17990350291E+03  0.18110401633E+03  0.00000000000E+00 0. -1.
         22    1    1    2    0    0 -0.14789944619E+03 -0.78830433828E+02  0.62951795753E+03  0.65144557895E+03  0.00000000000E+00 0.  1.
<mgrwt>
<rscale>  0 0.17963322E+04</rscale>
<asrwt>0</asrwt>
<pdfrwt beam="1">  1        2 0.19157281E+00 0.17963322E+04</pdfrwt>
<pdfrwt beam="2">  1       -2 0.99667312E-01 0.17963322E+04</pdfrwt>
<totfact> 0.13999528E+01</totfact>
</mgrwt>
</event>
<event>
 6    1  0.3017327E-006  0.3609029E+04  0.7818608E-02  0.8088427E-01
         -1   -1    0    0    0  501 -0.00000000000E+00  0.00000000000E+00  0.11406737409E+04  0.11406737409E+04  0.00000000000E+00 0.  1.
          1   -1    0    0  501    0  0.00000000000E+00 -0.00000000000E+00 -0.28546919637E+04  0.28546919637E+04  0.00000000000E+00 0. -1.
         23    2    1    2    0    0 -0.93525970990E+03 -0.32529052261E+03 -0.25260734563E+04  0.27147571184E+04  0.91293241530E+02 0.  0.
         11    1    3    3    0    0 -0.36210917401E+03 -0.11489515901E+03 -0.10890730098E+04  0.11534313903E+04  0.00000000000E+00 0. -1.
        -11    1    3    3    0    0 -0.57315053588E+03 -0.21039536360E+03 -0.14370004465E+04  0.15613257280E+04  0.00000000000E+00 0.  1.
         22    1    1    2    0    0  0.93525970990E+03  0.32529052261E+03  0.81205523347E+03  0.12806085863E+04  0.00000000000E+00 0.  1.
<mgrwt>
<rscale>  0 0.36090288E+04</rscale>
<asrwt>0</asrwt>
<pdfrwt beam="1">  1        1 0.43918338E+00 0.36090288E+04</pdfrwt>
<pdfrwt beam="2">  1       -1 0.17548827E+00 0.36090288E+04</pdfrwt>
<totfact> 0.13805613E-01</totfact>
</mgrwt>
</event>
<event>
 6    1  0.3017327E-006  0.3446632E+04  0.7818608E-02  0.8126555E-01
          2   -1    0    0  501    0  0.00000000000E+00  0.00000000000E+00  0.33943038260E+04  0.33943038260E+04  0.00000000000E+00 0. -1.
         -2   -1    0    0    0  501 -0.00000000000E+00 -0.00000000000E+00 -0.87494156123E+03  0.87494156123E+03  0.00000000000E+00 0.  1.
         23    2    1    2    0    0 -0.49476065488E+03  0.73950210863E+03  0.30869601505E+04  0.32138692296E+04  0.89336329991E+02 0.  0.
         13    1    3    3    0    0 -0.38512237201E+03  0.56756439441E+03  0.25055484511E+04  0.25977339402E+04  0.00000000000E+00 0. -1.
        -13    1    3    3    0    0 -0.10963828287E+03  0.17193771422E+03  0.58141169937E+03  0.61613528937E+03  0.00000000000E+00 0.  1.
         22    1    1    2    0    0  0.49476065488E+03 -0.73950210863E+03 -0.56759788572E+03  0.10553761577E+04  0.00000000000E+00 0.  1.
<mgrwt>
<rscale>  0 0.34466317E+04</rscale>
<asrwt>0</asrwt>
<pdfrwt beam="1">  1        2 0.52220058E+00 0.34466317E+04</pdfrwt>
<pdfrwt beam="2">  1       -2 0.13460640E+00 0.34466317E+04</pdfrwt>
<totfact> 0.31512677E-01</totfact>
</mgrwt>
</event>
<event>
 6    1  0.3017327E-006  0.1687887E+04  0.7818608E-02  0.8768303E-01
          2   -1    0    0  501    0  0.00000000000E+00  0.00000000000E+00  0.43070419031E+03  0.43070419031E+03  0.00000000000E+00 0. -1.
         -2   -1    0    0    0  501 -0.00000000000E+00 -0.00000000000E+00 -0.16536644994E+04  0.16536644994E+04  0.00000000000E+00 0.  1.
         23    2    1    2    0    0 -0.39890757846E+03  0.52692421464E+02  0.29905528718E+03  0.51006401058E+03  0.93954684152E+02 0.  0.
         13    1    3    3    0    0 -0.26592570953E+03 -0.68687606845E+01  0.21347650755E+03  0.34108046285E+03  0.00000000000E+00 0. -1.
        -13    1    3    3    0    0 -0.13298186892E+03  0.59561182148E+02  0.85578779628E+02  0.16898354773E+03  0.00000000000E+00 0.  1.
         22    1    1    2    0    0  0.39890757846E+03 -0.52692421464E+02 -0.15220155963E+04  0.15743046792E+04  0.00000000000E+00 0.  1.
<mgrwt>
<rscale>  0 0.16878865E+04</rscale>
<asrwt>0</asrwt>
<pdfrwt beam="1">  1        2 0.66262184E-01 0.16878865E+04</pdfrwt>
<pdfrwt beam="2">  1       -2 0.25440992E+00 0.16878865E+04</pdfrwt>
<totfact> 0.42055855E+00</totfact>
</mgrwt>
</event>
<event>
 6    1  0.3353209E-006  0.3224336E+04  0.7818608E-02  0.8182420E-01
         -2   -1    0    0    0  501 -0.00000000000E+00  0.00000000000E+00  0.11393470975E+04  0.11393470975E+04  0.00000000000E+00 0.  1.
          2   -1    0    0  501    0  0.00000000000E+00 -0.00000000000E+00 -0.22812058261E+04  0.22812058261E+04  0.00000000000E+00 0. -1.
         23    2    1    2    0    0 -0.89515711880E+03  0.98262567450E+02 -0.19879859526E+04  0.21848777727E+04  0.10315490455E+03 0.  0.
         13    1    3    3    0    0 -0.39627559513E+03  0.92614680780E+02 -0.93124489056E+03  0.10162818864E+04  0.00000000000E+00 0.  1.
        -13    1    3    3    0    0 -0.49888152366E+03  0.56478866703E+01 -0.10567410620E+04  0.11685958863E+04  0.00000000000E+00 0. -1.
         22    1    1    2    0    0  0.89515711880E+03 -0.98262567450E+02  0.84612722394E+03  0.12356751509E+04  0.00000000000E+00 0.  1.
<mgrwt>
<rscale>  0 0.32243357E+04</rscale>
<asrwt>0</asrwt>
<pdfrwt beam="1">  1        2 0.35095474E+00 0.32243357E+04</pdfrwt>
<pdfrwt beam="2">  1       -2 0.17528417E+00 0.32243357E+04</pdfrwt>
<totfact> 0.76362873E-01</totfact>
</mgrwt>
</event>
<event>
 6    1  0.3017327E-006  0.4146959E+04  0.7818608E-02  0.7975539E-01
         -2   -1    0    0    0  501 -0.00000000000E+00  0.00000000000E+00  0.18634076544E+04  0.18634076544E+04  0.00000000000E+00 0.  1.
          2   -1    0    0  501    0  0.00000000000E+00 -0.00000000000E+00 -0.23072333946E+04  0.23072333946E+04  0.00000000000E+00 0. -1.
         23    2    1    2    0    0 -0.32593106758E+03  0.91673752186E+03 -0.20623494052E+04  0.22821872902E+04  0.91951148713E+02 0.  0.
         13    1    3    3    0    0 -0.12479610733E+03  0.35397272516E+03 -0.90217989660E+03  0.97713833431E+03  0.00000000000E+00 0. -1.
        -13    1    3    3    0    0 -0.20113496025E+03  0.56276479670E+03 -0.11601695086E+04  0.13050489559E+04  0.00000000000E+00 0.  1.
         22    1    1    2    0    0  0.32593106758E+03 -0.91673752186E+03  0.16185236650E+04  0.18884537587E+04  0.00000000000E+00 0.  1.
<mgrwt>
<rscale>  0 0.41469586E+04</rscale>
<asrwt>0</asrwt>
<pdfrwt beam="1">  1        2 0.35495898E+00 0.41469586E+04</pdfrwt>
<pdfrwt beam="2">  1       -2 0.28667810E+00 0.41469586E+04</pdfrwt>
<totfact> 0.13423897E-01</totfact>
</mgrwt>
</event>
<event>
 6    1  0.3017327E-006  0.2986703E+04  0.7818608E-02  0.8247538E-01
         -2   -1    0    0    0  501 -0.00000000000E+00  0.00000000000E+00  0.29207567113E+04  0.29207567113E+04  0.00000000000E+00 0.  1.
          2   -1    0    0  501    0  0.00000000000E+00 -0.00000000000E+00 -0.76353455956E+03  0.76353455956E+03  0.00000000000E+00 0. -1.
         23    2    1    2    0    0 -0.94091141637E+03  0.85466697557E+01  0.25078595462E+04  0.26801329559E+04  0.91464850342E+02 0.  0.
         11    1    3    3    0    0 -0.71226841493E+03  0.47442031514E+01  0.17810769567E+04  0.19182241600E+04  0.00000000000E+00 0. -1.
        -11    1    3    3    0    0 -0.22864300144E+03  0.38024666043E+01  0.72678258948E+03  0.76190879587E+03  0.00000000000E+00 0.  1.
         22    1    1    2    0    0  0.94091141637E+03 -0.85466697557E+01 -0.35063739448E+03  0.10041583149E+04  0.00000000000E+00 0. -1.
<mgrwt>
<rscale>  0 0.29867030E+04</rscale>
<asrwt>0</asrwt>
<pdfrwt beam="1">  1        2 0.11746686E+00 0.29867030E+04</pdfrwt>
<pdfrwt beam="2">  1       -2 0.44934718E+00 0.29867030E+04</pdfrwt>
<totfact> 0.10989395E-01</totfact>
</mgrwt>
</event>
<event>
 6    1  0.3017327E-006  0.1044266E+04  0.7818608E-02  0.9261285E-01
          2   -1    0    0  501    0  0.00000000000E+00  0.00000000000E+00  0.23379271834E+04  0.23379271834E+04  0.00000000000E+00 0. -1.
         -2   -1    0    0    0  501 -0.00000000000E+00 -0.00000000000E+00 -0.11660868753E+03  0.11660868753E+03  0.00000000000E+00 0.  1.
         23    2    1    2    0    0  0.43452695477E+03  0.48608292836E+02  0.17725613926E+04  0.18279902794E+04  0.91641313606E+02 0.  0.
         13    1    3    3    0    0  0.16502487227E+03  0.61094223004E+02  0.75958745084E+03  0.77970430807E+03  0.00000000000E+00 0. -1.
        -13    1    3    3    0    0  0.26950208250E+03 -0.12485930167E+02  0.10129739418E+04  0.10482859713E+04  0.00000000000E+00 0.  1.
         22    1    1    2    0    0 -0.43452695477E+03 -0.48608292836E+02  0.44875710320E+03  0.62654559150E+03  0.00000000000E+00 0.  1.
<mgrwt>
<rscale>  0 0.10442655E+04</rscale>
<asrwt>0</asrwt>
<pdfrwt beam="1">  1        2 0.35968107E+00 0.10442655E+04</pdfrwt>
<pdfrwt beam="2">  1       -2 0.17939800E-01 0.10442655E+04</pdfrwt>
<totfact> 0.11189432E+02</totfact>
</mgrwt>
</event>
<event>
 6    1  0.3017327E-006  0.3925595E+04  0.7818608E-02  0.8019727E-01
          2   -1    0    0  501    0  0.00000000000E+00  0.00000000000E+00  0.45335938794E+04  0.45335938794E+04  0.00000000000E+00 0. -1.
         -2   -1    0    0    0  501 -0.00000000000E+00 -0.00000000000E+00 -0.84978345801E+03  0.84978345801E+03  0.00000000000E+00 0.  1.
         23    2    1    2    0    0  0.16839951029E+04 -0.67815823904E+03  0.82340205735E+03  0.19955057175E+04  0.91181231318E+02 0.  0.
         13    1    3    3    0    0  0.11213585183E+04 -0.48425117587E+03  0.58664506479E+03  0.13550264056E+04  0.00000000000E+00 0. -1.
        -13    1    3    3    0    0  0.56263658456E+03 -0.19390706317E+03  0.23675699256E+03  0.64047931189E+03  0.00000000000E+00 0.  1.
         22    1    1    2    0    0 -0.16839951029E+04  0.67815823904E+03  0.28604083640E+04  0.33878716198E+04  0.00000000000E+00 0. -1.
<mgrwt>
<rscale>  0 0.39255945E+04</rscale>
<asrwt>0</asrwt>
<pdfrwt beam="1">  1        2 0.69747597E+00 0.39255945E+04</pdfrwt>
<pdfrwt beam="2">  1       -2 0.13073592E+00 0.39255945E+04</pdfrwt>
<totfact> 0.38468045E-02</totfact>
</mgrwt>
</event>
<event>
 6    1  0.3017327E-006  0.1812571E+04  0.7818608E-02  0.8699643E-01
         -2   -1    0    0    0  501 -0.00000000000E+00  0.00000000000E+00  0.21022216988E+03  0.21022216988E+03  0.00000000000E+00 0.  1.
          2   -1    0    0  501    0  0.00000000000E+00 -0.00000000000E+00 -0.39070746216E+04  0.39070746216E+04  0.00000000000E+00 0. -1.
         23    2    1    2    0    0  0.35708166625E+03 -0.73667490619E+03 -0.98326269233E+03  0.12829068014E+04  0.94059051130E+02 0.  0.
         11    1    3    3    0    0  0.13312367930E+03 -0.33192180092E+03 -0.49062572924E+03  0.60713063018E+03  0.00000000000E+00 0. -1.
        -11    1    3    3    0    0  0.22395798694E+03 -0.40475310528E+03 -0.49263696310E+03  0.67577617119E+03  0.00000000000E+00 0.  1.
         22    1    1    2    0    0 -0.35708166625E+03  0.73667490619E+03 -0.27135897594E+04  0.28343899902E+04  0.00000000000E+00 0. -1.
<mgrwt>
<rscale>  0 0.18125713E+04</rscale>
<asrwt>0</asrwt>
<pdfrwt beam="1">  1        2 0.60108837E+00 0.18125713E+04</pdfrwt>
<pdfrwt beam="2">  1       -2 0.32341874E-01 0.18125713E+04</pdfrwt>
<totfact> 0.34525649E+00</totfact>
</mgrwt>
</event>
<event>
 6    1  0.3017327E-006  0.2028337E+04  0.7818608E-02  0.8593486E-01
          2   -1    0    0  501    0  0.00000000000E+00  0.00000000000E+00  0.90960220918E+03  0.90960220918E+03  0.00000000000E+00 0. -1.
         -2   -1    0    0    0  501 -0.00000000000E+00 -0.00000000000E+00 -0.11307552116E+04  0.11307552116E+04  0.00000000000E+00 0.  1.
         23    2    1    2    0    0 -0.41616771857E+03 -0.90405920733E+03 -0.29651372775E+03  0.10422603017E+04  0.88699072001E+02 0.  0.
         13    1    3    3    0    0 -0.17405984670E+03 -0.36220955902E+03 -0.75065963494E+02  0.40881229648E+03  0.00000000000E+00 0. -1.
        -13    1    3    3    0    0 -0.24210787186E+03 -0.54184964831E+03 -0.22144776426E+03  0.63344800520E+03  0.00000000000E+00 0.  1.
         22    1    1    2    0    0  0.41616771857E+03  0.90405920733E+03  0.75360725284E+02  0.99809711915E+03  0.00000000000E+00 0.  1.
<mgrwt>
<rscale>  0 0.20283367E+04</rscale>
<asrwt>0</asrwt>
<pdfrwt beam="1">  1        2 0.13993880E+00 0.20283367E+04</pdfrwt>
<pdfrwt beam="2">  1       -2 0.17396234E+00 0.20283367E+04</pdfrwt>
<totfact> 0.53483762E+00</totfact>
</mgrwt>
</event>
<event>
 6    1  0.3017327E-006  0.3174780E+04  0.7818608E-02  0.8195510E-01
         -2   -1    0    0    0  501 -0.00000000000E+00  0.00000000000E+00  0.11831999486E+04  0.11831999486E+04  0.00000000000E+00 0.  1.
          2   -1    0    0  501    0  0.00000000000E+00 -0.00000000000E+00 -0.21296545104E+04  0.21296545104E+04  0.00000000000E+00 0. -1.
         23    2    1    2    0    0  0.20752037306E+03  0.85413905050E+03  0.90345190365E+03  0.12647401668E+04  0.10355734897E+03 0.  0.
         13    1    3    3    0    0  0.49872506906E+02  0.18896406981E+03  0.26574088520E+03  0.32986801102E+03  0.00000000000E+00 0. -1.
        -13    1    3    3    0    0  0.15764786616E+03  0.66517498069E+03  0.63771101845E+03  0.93487215580E+03  0.00000000000E+00 0.  1.
         22    1    1    2    0    0 -0.20752037306E+03 -0.85413905050E+03 -0.18499064655E+04  0.20481142922E+04  0.00000000000E+00 0. -1.
<mgrwt>
<rscale>  0 0.31747801E+04</rscale>
<asrwt>0</asrwt>
<pdfrwt beam="1">  1        2 0.32763915E+00 0.31747801E+04</pdfrwt>
<pdfrwt beam="2">  1       -2 0.18203076E+00 0.31747801E+04</pdfrwt>
<totfact> 0.83791191E-01</totfact>
</mgrwt>
</event>
<event>
 6    1  0.3017327E-006  0.8824707E+03  0.7818608E-02  0.9447763E-01
          2   -1    0    0  501    0  0.00000000000E+00  0.00000000000E+00  0.12232813071E+04  0.12232813071E+04  0.00000000000E+00 0. -1.
         -2   -1    0    0    0  501 -0.00000000000E+00 -0.00000000000E+00 -0.15915277776E+03  0.15915277776E+03  0.00000000000E+00 0.  1.
         23    2    1    2    0    0 -0.24663332727E+03  0.31202598767E+01  0.11018780144E+04  0.11329090205E+04  0.92249423289E+02 0.  0.
         11    1    3    3    0    0 -0.12574673924E+03  0.39774843550E+02  0.67360236345E+03  0.68639232561E+03  0.00000000000E+00 0.  1.
        -11    1    3    3    0    0 -0.12088658803E+03 -0.36654583673E+02  0.42827565091E+03  0.44651669490E+03  0.00000000000E+00 0. -1.
         22    1    1    2    0    0  0.24663332727E+03 -0.31202598767E+01 -0.37749484975E+02  0.24952506439E+03  0.00000000000E+00 0.  1.
<mgrwt>
<rscale>  0 0.88247066E+03</rscale>
<asrwt>0</asrwt>
<pdfrwt beam="1">  1        2 0.18819712E+00 0.88247066E+03</pdfrwt>
<pdfrwt beam="2">  1       -2 0.24485044E-01 0.88247066E+03</pdfrwt>
<totfact> 0.27377912E+02</totfact>
</mgrwt>
</event>
<event>
 6    1  0.3017327E-006  0.1957400E+04  0.7818608E-02  0.8626801E-01
          2   -1    0    0  501    0  0.00000000000E+00  0.00000000000E+00  0.60213354531E+03  0.60213354531E+03  0.00000000000E+00 0. -1.
         -2   -1    0    0    0  501 -0.00000000000E+00 -0.00000000000E+00 -0.15907659317E+04  0.15907659317E+04  0.00000000000E+00 0.  1.
         23    2    1    2    0    0  0.47073267651E+03 -0.26258511599E+03  0.41713487319E+03  0.68733586693E+03  0.88819455453E+02 0.  0.
         13    1    3    3    0    0  0.10363070256E+03 -0.24227877352E+02  0.58286230074E+02  0.12134083060E+03  0.00000000000E+00 0.  1.
        -13    1    3    3    0    0  0.36710197395E+03 -0.23835723864E+03  0.35884864312E+03  0.56599503634E+03  0.00000000000E+00 0. -1.
         22    1    1    2    0    0 -0.47073267651E+03  0.26258511599E+03 -0.14057672596E+04  0.15055636101E+04  0.00000000000E+00 0.  1.
<mgrwt>
<rscale>  0 0.19573998E+04</rscale>
<asrwt>0</asrwt>
<pdfrwt beam="1">  1        2 0.92635933E-01 0.19573998E+04</pdfrwt>
<pdfrwt beam="2">  1       -2 0.24473321E+00 0.19573998E+04</pdfrwt>
<totfact> 0.31872082E+00</totfact>
</mgrwt>
</event>
<event>
 6    1  0.3017327E-006  0.2470636E+04  0.7818608E-02  0.8413522E-01
         -2   -1    0    0    0  501 -0.00000000000E+00  0.00000000000E+00  0.34389433691E+04  0.34389433691E+04  0.00000000000E+00 0.  1.
          2   -1    0    0  501    0  0.00000000000E+00 -0.00000000000E+00 -0.44374385821E+03  0.44374385821E+03  0.00000000000E+00 0. -1.
         23    2    1    2    0    0  0.12200455750E+04 -0.13921245196E+03  0.13147106613E+04  0.18013573434E+04  0.92373394088E+02 0.  0.
         13    1    3    3    0    0  0.50764241121E+03 -0.10356532422E+03  0.54614938932E+03  0.75279861151E+03  0.00000000000E+00 0. -1.
        -13    1    3    3    0    0  0.71240316381E+03 -0.35647127742E+02  0.76856127194E+03  0.10485587319E+04  0.00000000000E+00 0.  1.
         22    1    1    2    0    0 -0.12200455750E+04  0.13921245196E+03  0.16804888497E+04  0.20813298839E+04  0.00000000000E+00 0.  1.
<mgrwt>
<rscale>  0 0.24706355E+04</rscale>
<asrwt>0</asrwt>
<pdfrwt beam="1">  1        2 0.68268288E-01 0.24706355E+04</pdfrwt>
<pdfrwt beam="2">  1       -2 0.52906819E+00 0.24706355E+04</pdfrwt>
<totfact> 0.69447793E-02</totfact>
</mgrwt>
</event>
<event>
 6    1  0.3017327E-006  0.9527575E+03  0.7818608E-02  0.9361933E-01
         -3   -1    0    0    0  501 -0.00000000000E+00  0.00000000000E+00  0.51839395859E+03  0.51839395859E+03  0.00000000000E+00 0.  1.
          3   -1    0    0  501    0  0.00000000000E+00 -0.00000000000E+00 -0.43776886312E+03  0.43776886312E+03  0.00000000000E+00 0. -1.
         23    2    1    2    0    0 -0.11405429171E+03 -0.41212216686E+03 -0.15993813293E+03  0.46552677663E+03  0.91005008180E+02 0.  0.
         11    1    3    3    0    0  0.20118868782E+01 -0.70487009732E+02  0.82258739154E+00  0.70520513893E+02  0.00000000000E+00 0.  1.
        -11    1    3    3    0    0 -0.11606617859E+03 -0.34163515713E+03 -0.16076072033E+03  0.39500626273E+03  0.00000000000E+00 0. -1.
         22    1    1    2    0    0  0.11405429171E+03  0.41212216686E+03  0.24056322841E+03  0.49063604509E+03  0.00000000000E+00 0.  1.
<mgrwt>
<rscale>  0 0.95275754E+03</rscale>
<asrwt>0</asrwt>
<pdfrwt beam="1">  1        3 0.67349056E-01 0.95275754E+03</pdfrwt>
<pdfrwt beam="2">  1       -3 0.79752917E-01 0.95275754E+03</pdfrwt>
<totfact> 0.81478416E+00</totfact>
</mgrwt>
</event>
<event>
 6    1  0.3017327E-006  0.3061670E+04  0.7818608E-02  0.8226337E-01
         -2   -1    0    0    0  501 -0.00000000000E+00  0.00000000000E+00  0.10718270625E+04  0.10718270625E+04  0.00000000000E+00 0.  1.
          2   -1    0    0  501    0  0.00000000000E+00 -0.00000000000E+00 -0.21864121190E+04  0.21864121190E+04  0.00000000000E+00 0. -1.
         23    2    1    2    0    0 -0.92464250673E+03 -0.11924406459E+04 -0.29182949326E+03  0.15395754052E+04  0.90826846123E+02 0.  0.
         11    1    3    3    0    0 -0.66323200421E+03 -0.80057136137E+03 -0.17490367362E+03  0.10542212724E+04  0.00000000000E+00 0.  1.
        -11    1    3    3    0    0 -0.26141050252E+03 -0.39186928448E+03 -0.11692581964E+03  0.48535413282E+03  0.00000000000E+00 0. -1.
         22    1    1    2    0    0  0.92464250673E+03  0.11924406459E+04 -0.82275556325E+03  0.17186637763E+04  0.00000000000E+00 0.  1.
<mgrwt>
<rscale>  0 0.30616699E+04</rscale>
<asrwt>0</asrwt>
<pdfrwt beam="1">  1        2 0.33637109E+00 0.30616699E+04</pdfrwt>
<pdfrwt beam="2">  1       -2 0.16489647E+00 0.30616699E+04</pdfrwt>
<totfact> 0.10380893E+00</totfact>
</mgrwt>
</event>
<event>
 6    1  0.3017327E-006  0.3268905E+04  0.7818608E-02  0.8170853E-01
         -2   -1    0    0    0  501 -0.00000000000E+00  0.00000000000E+00  0.90494510594E+03  0.90494510594E+03  0.00000000000E+00 0.  1.
          2   -1    0    0  501    0  0.00000000000E+00 -0.00000000000E+00 -0.29520404882E+04  0.29520404882E+04  0.00000000000E+00 0. -1.
         23    2    1    2    0    0 -0.88792411499E+03 -0.11799624832E+04 -0.20129499210E+03  0.14931540062E+04  0.90931383945E+02 0.  0.
         11    1    3    3    0    0 -0.13254405105E+03 -0.13263357327E+03 -0.40867923090E+02  0.19191085786E+03  0.00000000000E+00 0. -1.
        -11    1    3    3    0    0 -0.75538006393E+03 -0.10473289100E+04 -0.16042706901E+03  0.13012431483E+04  0.00000000000E+00 0.  1.
         22    1    1    2    0    0  0.88792411499E+03  0.11799624832E+04 -0.18458003902E+04  0.23638315879E+04  0.00000000000E+00 0. -1.
<mgrwt>
<rscale>  0 0.32689048E+04</rscale>
<asrwt>0</asrwt>
<pdfrwt beam="1">  1        2 0.45416007E+00 0.32689048E+04</pdfrwt>
<pdfrwt beam="2">  1       -2 0.13922233E+00 0.32689048E+04</pdfrwt>
<totfact> 0.56881273E-01</totfact>
</mgrwt>
</event>
<event>
 6    1  0.3017327E-006  0.2657589E+04  0.7818608E-02  0.8348898E-01
         -2   -1    0    0    0  501 -0.00000000000E+00  0.00000000000E+00  0.10024145776E+04  0.10024145776E+04  0.00000000000E+00 0. -1.
          2   -1    0    0  501    0  0.00000000000E+00 -0.00000000000E+00 -0.17614418916E+04  0.17614418916E+04  0.00000000000E+00 0.  1.
         23    2    1    2    0    0  0.91557495509E+03  0.19380251995E+02  0.61897926901E+03  0.11093005664E+04  0.93591231264E+02 0.  0.
         11    1    3    3    0    0  0.78019496723E+03  0.29776514601E+01  0.56183095265E+03  0.96144010352E+03  0.00000000000E+00 0. -1.
        -11    1    3    3    0    0  0.13537998786E+03  0.16402600534E+02  0.57148316363E+02  0.14786046287E+03  0.00000000000E+00 0.  1.
         22    1    1    2    0    0 -0.91557495509E+03 -0.19380251995E+02 -0.13780065831E+04  0.16545559028E+04  0.00000000000E+00 0.  1.
<mgrwt>
<rscale>  0 0.26575892E+04</rscale>
<asrwt>0</asrwt>
<pdfrwt beam="1">  1        2 0.27099106E+00 0.26575892E+04</pdfrwt>
<pdfrwt beam="2">  1       -2 0.15421763E+00 0.26575892E+04</pdfrwt>
<totfact> 0.22210723E+00</totfact>
</mgrwt>
</event>
<event>
 6    1  0.3017327E-006  0.2193489E+04  0.7818608E-02  0.8521143E-01
         -2   -1    0    0    0  501 -0.00000000000E+00  0.00000000000E+00  0.12820459825E+04  0.12820459825E+04  0.00000000000E+00 0. -1.
          2   -1    0    0  501    0  0.00000000000E+00 -0.00000000000E+00 -0.93822586491E+03  0.93822586491E+03  0.00000000000E+00 0.  1.
         23    2    1    2    0    0  0.20316015006E+03  0.41291254020E+03  0.11777493857E+04  0.12677967368E+04  0.91891990482E+02 0.  0.
         13    1    3    3    0    0  0.84335645122E+00  0.49834672735E+01  0.69040353218E+02  0.69225115158E+02  0.00000000000E+00 0. -1.
        -13    1    3    3    0    0  0.20231679361E+03  0.40792907292E+03  0.11087090324E+04  0.11985716216E+04  0.00000000000E+00 0.  1.
         22    1    1    2    0    0 -0.20316015006E+03 -0.41291254020E+03 -0.83392926802E+03  0.95247511069E+03  0.00000000000E+00 0.  1.
<mgrwt>
<rscale>  0 0.21934892E+04</rscale>
<asrwt>0</asrwt>
<pdfrwt beam="1">  1        2 0.14434244E+00 0.21934892E+04</pdfrwt>
<pdfrwt beam="2">  1       -2 0.19723784E+00 0.21934892E+04</pdfrwt>
<totfact> 0.35049805E+00</totfact>
</mgrwt>
</event>
<event>
 6    1  0.3017327E-006  0.3530895E+04  0.7818608E-02  0.8106507E-01
          2   -1    0    0  501    0  0.00000000000E+00  0.00000000000E+00  0.45921393622E+04  0.45921393622E+04  0.00000000000E+00 0. -1.
         -2   -1    0    0    0  501 -0.00000000000E+00 -0.00000000000E+00 -0.67872591843E+03  0.67872591843E+03  0.00000000000E+00 0.  1.
         23    2    1    2    0    0 -0.15739428020E+04  0.23450743294E+03  0.30956454381E+04  0.34817218567E+04  0.84123295020E+02 0.  0.
         11    1    3    3    0    0 -0.90909718849E+03  0.13953751474E+03  0.18788685722E+04  0.20919071508E+04  0.00000000000E+00 0. -1.
        -11    1    3    3    0    0 -0.66484561356E+03  0.94969918201E+02  0.12167768659E+04  0.13898147059E+04  0.00000000000E+00 0.  1.
         22    1    1    2    0    0  0.15739428020E+04 -0.23450743294E+03  0.81776800563E+03  0.17891434239E+04  0.00000000000E+00 0.  1.
<mgrwt>
<rscale>  0 0.35308945E+04</rscale>
<asrwt>0</asrwt>
<pdfrwt beam="1">  1        2 0.70648296E+00 0.35308945E+04</pdfrwt>
<pdfrwt beam="2">  1       -2 0.10441938E+00 0.35308945E+04</pdfrwt>
<totfact> 0.60453109E-02</totfact>
</mgrwt>
</event>
<event>
 6    1  0.3017327E-006  0.1636737E+04  0.7818608E-02  0.8798291E-01
         -2   -1    0    0    0  501 -0.00000000000E+00  0.00000000000E+00  0.51927091097E+03  0.51927091097E+03  0.00000000000E+00 0.  1.
          2   -1    0    0  501    0  0.00000000000E+00 -0.00000000000E+00 -0.12897454973E+04  0.12897454973E+04  0.00000000000E+00 0. -1.
         23    2    1    2    0    0  0.33466790108E+03  0.72894426278E+03 -0.22258709440E+03  0.83765496880E+03  0.93586804114E+02 0.  0.
         11    1    3    3    0    0  0.21398167398E+03  0.36969296296E+03 -0.14256665850E+03  0.45031799406E+03  0.00000000000E+00 0. -1.
        -11    1    3    3    0    0  0.12068622710E+03  0.35925129983E+03 -0.80020435898E+02  0.38733697474E+03  0.00000000000E+00 0.  1.
         22    1    1    2    0    0 -0.33466790108E+03 -0.72894426278E+03 -0.54788749191E+03  0.97136143945E+03  0.00000000000E+00 0. -1.
<mgrwt>
<rscale>  0 0.16367374E+04</rscale>
<asrwt>0</asrwt>
<pdfrwt beam="1">  1        2 0.19842238E+00 0.16367374E+04</pdfrwt>
<pdfrwt beam="2">  1       -2 0.79887833E-01 0.16367374E+04</pdfrwt>
<totfact> 0.22226849E+01</totfact>
</mgrwt>
</event>
<event>
 6    1  0.3017327E-006  0.1383831E+04  0.7818608E-02  0.8965607E-01
         -2   -1    0    0    0  501 -0.00000000000E+00  0.00000000000E+00  0.25044436670E+03  0.25044436670E+03  0.00000000000E+00 0. -1.
          2   -1    0    0  501    0  0.00000000000E+00 -0.00000000000E+00 -0.19115895931E+04  0.19115895931E+04  0.00000000000E+00 0.  1.
         23    2    1    2    0    0 -0.22057200548E+03 -0.61636308083E+03 -0.11697717034E+04  0.13434966081E+04  0.89787754640E+02 0.  0.
         11    1    3    3    0    0 -0.16041127005E+03 -0.32175691519E+03 -0.66440853252E+03  0.75544555470E+03  0.00000000000E+00 0.  1.
        -11    1    3    3    0    0 -0.60160735436E+02 -0.29460616564E+03 -0.50536317088E+03  0.58805105340E+03  0.00000000000E+00 0. -1.
         22    1    1    2    0    0  0.22057200548E+03  0.61636308083E+03 -0.49137352298E+03  0.81853735168E+03  0.00000000000E+00 0. -1.
<mgrwt>
<rscale>  0 0.13838307E+04</rscale>
<asrwt>0</asrwt>
<pdfrwt beam="1">  1        2 0.29409070E+00 0.13838307E+04</pdfrwt>
<pdfrwt beam="2">  1       -2 0.38529903E-01 0.13838307E+04</pdfrwt>
<totfact> 0.46406670E+01</totfact>
</mgrwt>
</event>
<event>
 6    1  0.3017327E-006  0.2075776E+04  0.7818608E-02  0.8571990E-01
          2   -1    0    0  501    0  0.00000000000E+00  0.00000000000E+00  0.68635471824E+03  0.68635471824E+03  0.00000000000E+00 0.  1.
         -2   -1    0    0    0  501 -0.00000000000E+00 -0.00000000000E+00 -0.15694676487E+04  0.15694676487E+04  0.00000000000E+00 0. -1.
         23    2    1    2    0    0  0.17821658983E+03  0.68787437827E+03  0.37682170114E+03  0.80932052142E+03  0.89848754966E+02 0.  0.
         13    1    3    3    0    0  0.56223340561E+02  0.26512021182E+03  0.19168786709E+03  0.33195486008E+03  0.00000000000E+00 0. -1.
        -13    1    3    3    0    0  0.12199324927E+03  0.42275416645E+03  0.18513383405E+03  0.47736566134E+03  0.00000000000E+00 0.  1.
         22    1    1    2    0    0 -0.17821658983E+03 -0.68787437827E+03 -0.12599346316E+04  0.14465018455E+04  0.00000000000E+00 0. -1.
<mgrwt>
<rscale>  0 0.20757760E+04</rscale>
<asrwt>0</asrwt>
<pdfrwt beam="1">  1        2 0.10559303E+00 0.20757760E+04</pdfrwt>
<pdfrwt beam="2">  1       -2 0.24145656E+00 0.20757760E+04</pdfrwt>
<totfact> 0.28132326E+00</totfact>
</mgrwt>
</event>
<event>
 6    1  0.3017327E-006  0.4168933E+04  0.7818608E-02  0.7971308E-01
          2   -1    0    0  501    0  0.00000000000E+00  0.00000000000E+00  0.37476788741E+04  0.37476788741E+04  0.00000000000E+00 0. -1.
         -2   -1    0    0    0  501 -0.00000000000E+00 -0.00000000000E+00 -0.11593844138E+04  0.11593844138E+04  0.00000000000E+00 0.  1.
         23    2    1    2    0    0 -0.12846015361E+04  0.14081381742E+04  0.22850572982E+04  0.29770355678E+04  0.90552147493E+02 0.  0.
         13    1    3    3    0    0 -0.94157763564E+03  0.10572342719E+04  0.17517253679E+04  0.22522998278E+04  0.00000000000E+00 0. -1.
        -13    1    3    3    0    0 -0.34302390042E+03  0.35090390228E+03  0.53333193030E+03  0.72473573995E+03  0.00000000000E+00 0.  1.
         22    1    1    2    0    0  0.12846015361E+04 -0.14081381742E+04  0.30323716208E+03  0.19300277202E+04  0.00000000000E+00 0.  1.
<mgrwt>
<rscale>  0 0.41689329E+04</rscale>
<asrwt>0</asrwt>
<pdfrwt beam="1">  1        2 0.57656598E+00 0.41689329E+04</pdfrwt>
<pdfrwt beam="2">  1       -2 0.17836683E+00 0.41689329E+04</pdfrwt>
<totfact> 0.77695746E-02</totfact>
</mgrwt>
</event>
<event>
 6    1  0.3261994E-006  0.4700961E+04  0.7818608E-02  0.7876369E-01
         -2   -1    0    0    0  501 -0.00000000000E+00  0.00000000000E+00  0.19851714672E+04  0.19851714672E+04  0.00000000000E+00 0.  1.
          2   -1    0    0  501    0  0.00000000000E+00 -0.00000000000E+00 -0.27830127040E+04  0.27830127040E+04  0.00000000000E+00 0. -1.
         23    2    1    2    0    0  0.12504247085E+03 -0.87441201903E+03 -0.26074413235E+04  0.27545098002E+04  0.91334471139E+02 0.  0.
         11    1    3    3    0    0  0.10480965909E+03 -0.48415754410E+03 -0.15455729380E+04  0.16230185763E+04  0.00000000000E+00 0. -1.
        -11    1    3    3    0    0  0.20232811759E+02 -0.39025447493E+03 -0.10618683855E+04  0.11314912240E+04  0.00000000000E+00 0.  1.
         22    1    1    2    0    0 -0.12504247085E+03  0.87441201903E+03  0.18096000867E+04  0.20136743710E+04  0.00000000000E+00 0.  1.
<mgrwt>
<rscale>  0 0.47009605E+04</rscale>
<asrwt>0</asrwt>
<pdfrwt beam="1">  1        2 0.42815579E+00 0.47009605E+04</pdfrwt>
<pdfrwt beam="2">  1       -2 0.30541100E+00 0.47009605E+04</pdfrwt>
<totfact> 0.51969192E-02</totfact>
</mgrwt>
</event>
<event>
 6    1  0.3017327E-006  0.2982670E+04  0.7818608E-02  0.8248697E-01
         -2   -1    0    0    0  501 -0.00000000000E+00  0.00000000000E+00  0.14330061708E+04  0.14330061708E+04  0.00000000000E+00 0.  1.
          2   -1    0    0  501    0  0.00000000000E+00 -0.00000000000E+00 -0.15520381617E+04  0.15520381617E+04  0.00000000000E+00 0. -1.
         23    2    1    2    0    0  0.17581793234E+03  0.75681378349E+03  0.12127863781E+04  0.14431561340E+04  0.90386835459E+02 0.  0.
         11    1    3    3    0    0  0.14570515426E+03  0.43021453793E+03  0.70182806688E+03  0.83598874161E+03  0.00000000000E+00 0. -1.
        -11    1    3    3    0    0  0.30112778083E+02  0.32659924556E+03  0.51095831125E+03  0.60716739243E+03  0.00000000000E+00 0.  1.
         22    1    1    2    0    0 -0.17581793234E+03 -0.75681378349E+03 -0.13318183691E+04  0.15418881984E+04  0.00000000000E+00 0. -1.
<mgrwt>
<rscale>  0 0.29826701E+04</rscale>
<asrwt>0</asrwt>
<pdfrwt beam="1">  1        2 0.23877510E+00 0.29826701E+04</pdfrwt>
<pdfrwt beam="2">  1       -2 0.22046249E+00 0.29826701E+04</pdfrwt>
<totfact> 0.99855626E-01</totfact>
</mgrwt>
</event>
<event>
 6    1  0.3017327E-006  0.1690004E+04  0.7818608E-02  0.8767086E-01
          2   -1    0    0  501    0  0.00000000000E+00  0.00000000000E+00  0.15365194920E+04  0.15365194920E+04  0.00000000000E+00 0. -1.
         -2   -1    0    0    0  501 -0.00000000000E+00 -0.00000000000E+00 -0.46470488270E+03  0.46470488270E+03  0.00000000000E+00 0.  1.
         23    2    1    2    0    0 -0.35340562145E+03 -0.98215370686E+02  0.14356585847E+04  0.14845772701E+04  0.91171853000E+02 0.  0.
         13    1    3    3    0    0 -0.10731440927E+03 -0.21889074571E+00  0.54047800642E+03  0.55102895185E+03  0.00000000000E+00 0.  1.
        -13    1    3    3    0    0 -0.24609121218E+03 -0.97996479940E+02  0.89518057828E+03  0.93354831826E+03  0.00000000000E+00 0. -1.
         22    1    1    2    0    0  0.35340562145E+03  0.98215370686E+02 -0.36384397536E+03  0.51664710463E+03  0.00000000000E+00 0.  1.
<mgrwt>
<rscale>  0 0.16900037E+04</rscale>
<asrwt>0</asrwt>
<pdfrwt beam="1">  1        2 0.23638761E+00 0.16900037E+04</pdfrwt>
<pdfrwt beam="2">  1       -2 0.71493060E-01 0.16900037E+04</pdfrwt>
<totfact> 0.20459926E+01</totfact>
</mgrwt>
</event>
<event>
 6    1  0.3017327E-006  0.2296688E+04  0.7818608E-02  0.8479228E-01
         -1   -1    0    0    0  501 -0.00000000000E+00  0.00000000000E+00  0.36038437332E+03  0.36038437332E+03  0.00000000000E+00 0.  1.
          1   -1    0    0  501    0  0.00000000000E+00 -0.00000000000E+00 -0.36591329899E+04  0.36591329899E+04  0.00000000000E+00 0. -1.
         23    2    1    2    0    0 -0.57758401236E+03 -0.59338779635E+03 -0.26301533377E+03  0.87287011058E+03  0.83742438166E+02 0.  0.
         11    1    3    3    0    0 -0.10989852194E+03 -0.14564161972E+03 -0.30853744924E+02  0.18504356270E+03  0.00000000000E+00 0.  1.
        -11    1    3    3    0    0 -0.46768549041E+03 -0.44774617663E+03 -0.23216158884E+03  0.68782654788E+03  0.00000000000E+00 0. -1.
         22    1    1    2    0    0  0.57758401236E+03  0.59338779635E+03 -0.30357332828E+04  0.31466472527E+04  0.00000000000E+00 0. -1.
<mgrwt>
<rscale>  0 0.22966884E+04</rscale>
<asrwt>0</asrwt>
<pdfrwt beam="1">  1        1 0.56294354E+00 0.22966884E+04</pdfrwt>
<pdfrwt beam="2">  1       -1 0.55443749E-01 0.22966884E+04</pdfrwt>
<totfact> 0.55564038E-01</totfact>
</mgrwt>
</event>
<event>
 6    1  0.3017327E-006  0.7027391E+04  0.7818608E-02  0.7574617E-01
          2   -1    0    0  501    0  0.00000000000E+00  0.00000000000E+00  0.40271151668E+04  0.40271151668E+04  0.00000000000E+00 0. -1.
         -2   -1    0    0    0  501 -0.00000000000E+00 -0.00000000000E+00 -0.30657323605E+04  0.30657323605E+04  0.00000000000E+00 0.  1.
         23    2    1    2    0    0  0.17716035800E+04  0.12983462132E+04  0.32481570709E+04  0.39221033448E+04  0.89934179007E+02 0.  0.
         11    1    3    3    0    0  0.12022859577E+04  0.90224192509E+03  0.22899155082E+04  0.27392051858E+04  0.00000000000E+00 0. -1.
        -11    1    3    3    0    0  0.56931762229E+03  0.39610428814E+03  0.95824156267E+03  0.11828981590E+04  0.00000000000E+00 0.  1.
         22    1    1    2    0    0 -0.17716035800E+04 -0.12983462132E+04 -0.22867742645E+04  0.31707441825E+04  0.00000000000E+00 0.  1.
<mgrwt>
<rscale>  0 0.70273913E+04</rscale>
<asrwt>0</asrwt>
<pdfrwt beam="1">  1        2 0.61955618E+00 0.70273913E+04</pdfrwt>
<pdfrwt beam="2">  1       -2 0.47165113E+00 0.70273913E+04</pdfrwt>
<totfact> 0.50786495E-04</totfact>
</mgrwt>
</event>
<event>
 6    1  0.3976964E-006  0.3432765E+04  0.7818608E-02  0.8129911E-01
         -2   -1    0    0    0  501 -0.00000000000E+00  0.00000000000E+00  0.18304858338E+04  0.18304858338E+04  0.00000000000E+00 0.  1.
          2   -1    0    0  501    0  0.00000000000E+00 -0.00000000000E+00 -0.16093916148E+04  0.16093916148E+04  0.00000000000E+00 0. -1.
         23    2    1    2    0    0  0.16248126681E+04  0.54063913128E+03  0.11921919204E+02  0.17147513871E+04  0.89012980442E+02 0.  0.
         11    1    3    3    0    0  0.69863256430E+03  0.22842773543E+03  0.49013653125E+02  0.73666072816E+03  0.00000000000E+00 0. -1.
        -11    1    3    3    0    0  0.92618010384E+03  0.31221139585E+03 -0.37091733921E+02  0.97809065898E+03  0.00000000000E+00 0.  1.
         22    1    1    2    0    0 -0.16248126681E+04 -0.54063913128E+03  0.20917229985E+03  0.17251260614E+04  0.00000000000E+00 0.  1.
<mgrwt>
<rscale>  0 0.34327648E+04</rscale>
<asrwt>0</asrwt>
<pdfrwt beam="1">  1        2 0.24759871E+00 0.34327648E+04</pdfrwt>
<pdfrwt beam="2">  1       -2 0.28161321E+00 0.34327648E+04</pdfrwt>
<totfact> 0.37475642E-01</totfact>
</mgrwt>
</event>
<event>
 6    1  0.3017327E-006  0.3055326E+04  0.7818608E-02  0.8228106E-01
          2   -1    0    0  501    0  0.00000000000E+00  0.00000000000E+00  0.32014409030E+04  0.32014409030E+04  0.00000000000E+00 0. -1.
         -2   -1    0    0    0  501 -0.00000000000E+00 -0.00000000000E+00 -0.72896998760E+03  0.72896998760E+03  0.00000000000E+00 0.  1.
         23    2    1    2    0    0 -0.14347689212E+04 -0.73430993543E+02  0.57452163770E+03  0.15500400311E+04  0.92709319007E+02 0.  0.
         11    1    3    3    0    0 -0.11229675520E+04 -0.20561477382E+02  0.45964831132E+03  0.12135713689E+04  0.00000000000E+00 0. -1.
        -11    1    3    3    0    0 -0.31180136918E+03 -0.52869516161E+02  0.11487332638E+03  0.33646866224E+03  0.00000000000E+00 0.  1.
         22    1    1    2    0    0  0.14347689212E+04  0.73430993543E+02  0.18979492777E+04  0.23803708595E+04  0.00000000000E+00 0. -1.
<mgrwt>
<rscale>  0 0.30553261E+04</rscale>
<asrwt>0</asrwt>
<pdfrwt beam="1">  1        2 0.49252936E+00 0.30553261E+04</pdfrwt>
<pdfrwt beam="2">  1       -2 0.11214923E+00 0.30553261E+04</pdfrwt>
<totfact> 0.69064825E-01</totfact>
</mgrwt>
</event>
<event>
 6    1  0.3017327E-006  0.2909117E+04  0.7818608E-02  0.8270170E-01
         -2   -1    0    0    0  501 -0.00000000000E+00  0.00000000000E+00  0.13857067641E+04  0.13857067641E+04  0.00000000000E+00 0. -1.
          2   -1    0    0  501    0  0.00000000000E+00 -0.00000000000E+00 -0.15268315901E+04  0.15268315901E+04  0.00000000000E+00 0.  1.
         23    2    1    2    0    0  0.59994682377E+03 -0.11017754773E+04  0.66355393624E+03  0.14221178417E+04  0.90939186246E+02 0.  0.
         11    1    3    3    0    0  0.62861468521E+02 -0.18342664106E+03  0.10687744104E+03  0.22140389400E+03  0.00000000000E+00 0. -1.
        -11    1    3    3    0    0  0.53708535525E+03 -0.91834883627E+03  0.55667649520E+03  0.12007139477E+04  0.00000000000E+00 0.  1.
         22    1    1    2    0    0 -0.59994682377E+03  0.11017754773E+04 -0.80467876216E+03  0.14904205125E+04  0.00000000000E+00 0.  1.
<mgrwt>
<rscale>  0 0.29091173E+04</rscale>
<asrwt>0</asrwt>
<pdfrwt beam="1">  1        2 0.23489717E+00 0.29091173E+04</pdfrwt>
<pdfrwt beam="2">  1       -2 0.21318566E+00 0.29091173E+04</pdfrwt>
<totfact> 0.11549440E+00</totfact>
</mgrwt>
</event>
<event>
 6    1  0.3017327E-006  0.2735338E+04  0.7818608E-02  0.8323629E-01
         -1   -1    0    0    0  501 -0.00000000000E+00  0.00000000000E+00  0.21407293039E+04  0.21407293039E+04  0.00000000000E+00 0. -1.
          1   -1    0    0  501    0  0.00000000000E+00 -0.00000000000E+00 -0.87377618125E+03  0.87377618125E+03  0.00000000000E+00 0.  1.
         23    2    1    2    0    0 -0.10932747395E+04 -0.53413951796E+03 -0.48956653684E+02  0.12222518145E+04  0.10463299397E+03 0.  0.
         11    1    3    3    0    0 -0.71372306308E+03 -0.32511190591E+03 -0.76930814161E+02  0.78804613590E+03  0.00000000000E+00 0. -1.
        -11    1    3    3    0    0 -0.37955167639E+03 -0.20902761205E+03  0.27974160477E+02  0.43420567857E+03  0.00000000000E+00 0.  1.
         22    1    1    2    0    0  0.10932747395E+04  0.53413951796E+03  0.13159097763E+04  0.17922536707E+04  0.00000000000E+00 0. -1.
<mgrwt>
<rscale>  0 0.27353378E+04</rscale>
<asrwt>0</asrwt>
<pdfrwt beam="1">  1        1 0.13442710E+00 0.27353378E+04</pdfrwt>
<pdfrwt beam="2">  1       -1 0.32934297E+00 0.27353378E+04</pdfrwt>
<totfact> 0.35402790E-01</totfact>
</mgrwt>
</event>
<event>
 6    1  0.3017327E-006  0.1518673E+04  0.7818608E-02  0.8872130E-01
          1   -1    0    0  501    0  0.00000000000E+00  0.00000000000E+00  0.41572551292E+04  0.41572551292E+04  0.00000000000E+00 0. -1.
         -1   -1    0    0    0  501 -0.00000000000E+00 -0.00000000000E+00 -0.13869533165E+03  0.13869533165E+03  0.00000000000E+00 0.  1.
         23    2    1    2    0    0 -0.54187133188E+03 -0.17337391674E+03  0.34272351792E+04  0.34753727012E+04  0.92689715801E+02 0.  0.
         13    1    3    3    0    0 -0.36206020636E+03 -0.84850879545E+02  0.24181697597E+04  0.24465960540E+04  0.00000000000E+00 0. -1.
        -13    1    3    3    0    0 -0.17981112552E+03 -0.88523037196E+02  0.10090654195E+04  0.10287766472E+04  0.00000000000E+00 0.  1.
         22    1    1    2    0    0  0.54187133188E+03  0.17337391674E+03  0.59132461831E+03  0.82057775960E+03  0.00000000000E+00 0.  1.
<mgrwt>
<rscale>  0 0.15186729E+04</rscale>
<asrwt>0</asrwt>
<pdfrwt beam="1">  1        1 0.63957762E+00 0.15186729E+04</pdfrwt>
<pdfrwt beam="2">  1       -1 0.21337747E-01 0.15186729E+04</pdfrwt>
<totfact> 0.12544045E+00</totfact>
</mgrwt>
</event>
<event>
 6    1  0.3017327E-006  0.5014107E+04  0.7818608E-02  0.7826335E-01
         -1   -1    0    0    0  501 -0.00000000000E+00  0.00000000000E+00  0.25144336575E+04  0.25144336575E+04  0.00000000000E+00 0.  1.
          1   -1    0    0  501    0  0.00000000000E+00 -0.00000000000E+00 -0.24996951779E+04  0.24996951779E+04  0.00000000000E+00 0. -1.
         23    2    1    2    0    0  0.16809933586E+04 -0.41803204466E+03  0.18186709031E+04  0.25131966790E+04  0.90023504757E+02 0.  0.
         13    1    3    3    0    0  0.11533984754E+04 -0.25574896714E+03  0.11968762415E+04  0.16817396691E+04  0.00000000000E+00 0.  1.
        -13    1    3    3    0    0  0.52759488318E+03 -0.16228307752E+03  0.62179466163E+03  0.83145700986E+03  0.00000000000E+00 0. -1.
         22    1    1    2    0    0 -0.16809933586E+04  0.41803204466E+03 -0.18039324235E+04  0.25009321563E+04  0.00000000000E+00 0. -1.
<mgrwt>
<rscale>  0 0.50141072E+04</rscale>
<asrwt>0</asrwt>
<pdfrwt beam="1">  1        1 0.38456849E+00 0.50141072E+04</pdfrwt>
<pdfrwt beam="2">  1       -1 0.38683595E+00 0.50141072E+04</pdfrwt>
<totfact> 0.85989616E-03</totfact>
</mgrwt>
</event>
<event>
 6    1  0.3017327E-006  0.3909141E+04  0.7818608E-02  0.8023131E-01
          2   -1    0    0  501    0  0.00000000000E+00  0.00000000000E+00  0.21423816639E+04  0.21423816639E+04  0.00000000000E+00 0. -1.
         -2   -1    0    0    0  501 -0.00000000000E+00 -0.00000000000E+00 -0.17832237003E+04  0.17832237003E+04  0.00000000000E+00 0.  1.
         23    2    1    2    0    0 -0.13399608622E+04 -0.10565325038E+04  0.11347600559E+04  0.20512215589E+04  0.89852410837E+02 0.  0.
         11    1    3    3    0    0 -0.69004805709E+03 -0.60031587873E+03  0.59820772357E+03  0.10928851522E+04  0.00000000000E+00 0. -1.
        -11    1    3    3    0    0 -0.64991280510E+03 -0.45621662506E+03  0.53655233229E+03  0.95833640675E+03  0.00000000000E+00 0.  1.
         22    1    1    2    0    0  0.13399608622E+04  0.10565325038E+04 -0.77560209225E+03  0.18743838052E+04  0.00000000000E+00 0.  1.
<mgrwt>
<rscale>  0 0.39091410E+04</rscale>
<asrwt>0</asrwt>
<pdfrwt beam="1">  1        2 0.32959718E+00 0.39091410E+04</pdfrwt>
<pdfrwt beam="2">  1       -2 0.27434211E+00 0.39091410E+04</pdfrwt>
<totfact> 0.20160364E-01</totfact>
</mgrwt>
</event>
<event>
 6    1  0.3017327E-006  0.1627972E+04  0.7818608E-02  0.8803545E-01
          2   -1    0    0  501    0  0.00000000000E+00  0.00000000000E+00  0.21621325651E+04  0.21621325651E+04  0.00000000000E+00 0. -1.
         -2   -1    0    0    0  501 -0.00000000000E+00 -0.00000000000E+00 -0.30644447705E+03  0.30644447705E+03  0.00000000000E+00 0.  1.
         23    2    1    2    0    0 -0.42210000051E+03  0.53789676038E+03  0.26907354810E+03  0.74090605679E+03  0.95078259565E+02 0.  0.
         11    1    3    3    0    0 -0.21262854704E+03  0.30535601710E+03  0.19141037662E+03  0.41843891845E+03  0.00000000000E+00 0.  1.
        -11    1    3    3    0    0 -0.20947145347E+03  0.23254074328E+03  0.77663171476E+02  0.32246713834E+03  0.00000000000E+00 0. -1.
         22    1    1    2    0    0  0.42210000051E+03 -0.53789676038E+03  0.15866145400E+04  0.17276709854E+04  0.00000000000E+00 0. -1.
<mgrwt>
<rscale>  0 0.16279725E+04</rscale>
<asrwt>0</asrwt>
<pdfrwt beam="1">  1        2 0.33263577E+00 0.16279725E+04</pdfrwt>
<pdfrwt beam="2">  1       -2 0.47145306E-01 0.16279725E+04</pdfrwt>
<totfact> 0.22142265E+01</totfact>
</mgrwt>
</event>
<event>
 6    1  0.3017327E-006  0.1966393E+04  0.7818608E-02  0.8622496E-01
          1   -1    0    0  501    0  0.00000000000E+00  0.00000000000E+00  0.18302739953E+04  0.18302739953E+04  0.00000000000E+00 0. -1.
         -1   -1    0    0    0  501 -0.00000000000E+00 -0.00000000000E+00 -0.52815863687E+03  0.52815863687E+03  0.00000000000E+00 0.  1.
         23    2    1    2    0    0  0.41422446540E+03  0.47821269097E+03 -0.24647814376E+03  0.68558741502E+03  0.94917557630E+02 0.  0.
         13    1    3    3    0    0  0.27962317054E+03  0.35505986850E+03 -0.13455434279E+03  0.47155222286E+03  0.00000000000E+00 0.  1.
        -13    1    3    3    0    0  0.13460129486E+03  0.12315282247E+03 -0.11192380097E+03  0.21403519216E+03  0.00000000000E+00 0. -1.
         22    1    1    2    0    0 -0.41422446540E+03 -0.47821269097E+03  0.15485935022E+04  0.16728452172E+04  0.00000000000E+00 0. -1.
<mgrwt>
<rscale>  0 0.19663927E+04</rscale>
<asrwt>0</asrwt>
<pdfrwt beam="1">  1        1 0.28158061E+00 0.19663927E+04</pdfrwt>
<pdfrwt beam="2">  1       -1 0.81255176E-01 0.19663927E+04</pdfrwt>
<totfact> 0.54535374E+00</totfact>
</mgrwt>
</event>
<event>
 6    1  0.3017327E-006  0.2912869E+04  0.7818608E-02  0.8269059E-01
         -1   -1    0    0    0  501 -0.00000000000E+00  0.00000000000E+00  0.87103007421E+03  0.87103007421E+03  0.00000000000E+00 0.  1.
          1   -1    0    0  501    0  0.00000000000E+00 -0.00000000000E+00 -0.24352791821E+04  0.24352791821E+04  0.00000000000E+00 0. -1.
         23    2    1    2    0    0  0.64826846276E+03  0.12309399382E+04 -0.12671346542E+04  0.18837263484E+04  0.85613039734E+02 0.  0.
         13    1    3    3    0    0  0.28576999611E+03  0.62509824810E+03 -0.59960870355E+03  0.91210904383E+03  0.00000000000E+00 0. -1.
        -13    1    3    3    0    0  0.36249846665E+03  0.60584169008E+03 -0.66752595063E+03  0.97161730457E+03  0.00000000000E+00 0.  1.
         22    1    1    2    0    0 -0.64826846276E+03 -0.12309399382E+04 -0.29711445368E+03  0.14225829079E+04  0.00000000000E+00 0. -1.
<mgrwt>
<rscale>  0 0.29128690E+04</rscale>
<asrwt>0</asrwt>
<pdfrwt beam="1">  1        1 0.37465833E+00 0.29128690E+04</pdfrwt>
<pdfrwt beam="2">  1       -1 0.13400463E+00 0.29128690E+04</pdfrwt>
<totfact> 0.60439783E-01</totfact>
</mgrwt>
</event>
<event>
 6    1  0.3516600E-006  0.3629447E+04  0.7818608E-02  0.8083780E-01
          2   -1    0    0  501    0  0.00000000000E+00  0.00000000000E+00  0.20173620873E+04  0.20173620873E+04  0.00000000000E+00 0. -1.
         -2   -1    0    0    0  501 -0.00000000000E+00 -0.00000000000E+00 -0.16324397886E+04  0.16324397886E+04  0.00000000000E+00 0.  1.
         23    2    1    2    0    0  0.91066922107E+03 -0.71444405497E+03  0.15967185490E+04  0.19740337266E+04  0.86892412249E+02 0.  0.
         11    1    3    3    0    0  0.49773438612E+03 -0.34403807365E+03  0.79312430920E+03  0.99757099251E+03  0.00000000000E+00 0. -1.
        -11    1    3    3    0    0  0.41293483495E+03 -0.37040598132E+03  0.80359423975E+03  0.97646273409E+03  0.00000000000E+00 0.  1.
         22    1    1    2    0    0 -0.91066922107E+03  0.71444405497E+03 -0.12117962502E+04  0.16757681492E+04  0.00000000000E+00 0.  1.
<mgrwt>
<rscale>  0 0.36294474E+04</rscale>
<asrwt>0</asrwt>
<pdfrwt beam="1">  1        2 0.31036340E+00 0.36294474E+04</pdfrwt>
<pdfrwt beam="2">  1       -2 0.25114458E+00 0.36294474E+04</pdfrwt>
<totfact> 0.33593630E-01</totfact>
</mgrwt>
</event>
<event>
 6    1  0.3017327E-006  0.2534425E+04  0.7818608E-02  0.8390823E-01
         -2   -1    0    0    0  501 -0.00000000000E+00  0.00000000000E+00  0.48356997317E+03  0.48356997317E+03  0.00000000000E+00 0.  1.
          2   -1    0    0  501    0  0.00000000000E+00 -0.00000000000E+00 -0.33207761406E+04  0.33207761406E+04  0.00000000000E+00 0. -1.
         23    2    1    2    0    0  0.12285583158E+04 -0.26686829430E+03 -0.16388383100E+04  0.20674927108E+04  0.90337595059E+02 0.  0.
         11    1    3    3    0    0  0.96025236825E+03 -0.18533056947E+03 -0.12230124679E+04  0.15659474855E+04  0.00000000000E+00 0.  1.
        -11    1    3    3    0    0  0.26830594751E+03 -0.81537724831E+02 -0.41582584215E+03  0.50154522531E+03  0.00000000000E+00 0. -1.
         22    1    1    2    0    0 -0.12285583158E+04  0.26686829430E+03 -0.11983678574E+04  0.17368534029E+04  0.00000000000E+00 0.  1.
<mgrwt>
<rscale>  0 0.25344251E+04</rscale>
<asrwt>0</asrwt>
<pdfrwt beam="1">  1        2 0.51088865E+00 0.25344251E+04</pdfrwt>
<pdfrwt beam="2">  1       -2 0.74395378E-01 0.25344251E+04</pdfrwt>
<totfact> 0.15606982E+00</totfact>
</mgrwt>
</event>
<event>
 6    1  0.3017327E-006  0.1746378E+04  0.7818608E-02  0.8735347E-01
          2   -1    0    0  501    0  0.00000000000E+00  0.00000000000E+00  0.17747744556E+04  0.17747744556E+04  0.00000000000E+00 0. -1.
         -2   -1    0    0    0  501 -0.00000000000E+00 -0.00000000000E+00 -0.42960896926E+03  0.42960896926E+03  0.00000000000E+00 0.  1.
         23    2    1    2    0    0 -0.18823096153E+03  0.67039500145E+03  0.14286284236E+02  0.70235153324E+03  0.90737122956E+02 0.  0.
         13    1    3    3    0    0 -0.11501201773E+02  0.36306265019E+02 -0.20357248611E+02  0.43183794331E+02  0.00000000000E+00 0. -1.
        -13    1    3    3    0    0 -0.17672975976E+03  0.63408873643E+03  0.34643532847E+02  0.65916773891E+03  0.00000000000E+00 0.  1.
         22    1    1    2    0    0  0.18823096153E+03 -0.67039500145E+03  0.13308792021E+04  0.15020318916E+04  0.00000000000E+00 0.  1.
<mgrwt>
<rscale>  0 0.17463780E+04</rscale>
<asrwt>0</asrwt>
<pdfrwt beam="1">  1        2 0.27304222E+00 0.17463780E+04</pdfrwt>
<pdfrwt beam="2">  1       -2 0.66093688E-01 0.17463780E+04</pdfrwt>
<totfact> 0.17791853E+01</totfact>
</mgrwt>
</event>
<event>
 6    1  0.3017327E-006  0.1885645E+04  0.7818608E-02  0.8662035E-01
          2   -1    0    0  501    0  0.00000000000E+00  0.00000000000E+00  0.51054827390E+03  0.51054827390E+03  0.00000000000E+00 0. -1.
         -2   -1    0    0    0  501 -0.00000000000E+00 -0.00000000000E+00 -0.17410974031E+04  0.17410974031E+04  0.00000000000E+00 0.  1.
         23    2    1    2    0    0  0.57834940325E+03 -0.59760939149E+03 -0.11414899030E+04  0.14152506969E+04  0.91160952620E+02 0.  0.
         13    1    3    3    0    0  0.36870996988E+03 -0.42203217216E+03 -0.81981235503E+03  0.99305110326E+03  0.00000000000E+00 0. -1.
        -13    1    3    3    0    0  0.20963943336E+03 -0.17557721933E+03 -0.32167754800E+03  0.42219959362E+03  0.00000000000E+00 0.  1.
         22    1    1    2    0    0 -0.57834940325E+03  0.59760939149E+03 -0.89059226198E+02  0.83639498014E+03  0.00000000000E+00 0. -1.
<mgrwt>
<rscale>  0 0.18856450E+04</rscale>
<asrwt>0</asrwt>
<pdfrwt beam="1">  1        2 0.78545889E-01 0.18856450E+04</pdfrwt>
<pdfrwt beam="2">  1       -2 0.26786113E+00 0.18856450E+04</pdfrwt>
<totfact> 0.28154375E+00</totfact>
</mgrwt>
</event>
<event>
 6    1  0.3017327E-006  0.6974760E+03  0.7818608E-02  0.9721558E-01
         -2   -1    0    0    0  501 -0.00000000000E+00  0.00000000000E+00  0.52396934865E+03  0.52396934865E+03  0.00000000000E+00 0. -1.
          2   -1    0    0  501    0  0.00000000000E+00 -0.00000000000E+00 -0.23210934979E+03  0.23210934979E+03  0.00000000000E+00 0.  1.
         23    2    1    2    0    0 -0.82555698997E+02 -0.30296474024E+03  0.52664617920E+00  0.32773514514E+03  0.93845461980E+02 0.  0.
         13    1    3    3    0    0 -0.13500758777E+02 -0.20963749006E+03  0.15665506611E+02  0.21065506361E+03  0.00000000000E+00 0.  1.
        -13    1    3    3    0    0 -0.69054940220E+02 -0.93327250180E+02 -0.15138860432E+02  0.11708008153E+03  0.00000000000E+00 0. -1.
         22    1    1    2    0    0  0.82555698997E+02  0.30296474024E+03  0.29133335268E+03  0.42834355330E+03  0.00000000000E+00 0. -1.
<mgrwt>
<rscale>  0 0.69747598E+03</rscale>
<asrwt>0</asrwt>
<pdfrwt beam="1">  1        2 0.35709131E-01 0.69747598E+03</pdfrwt>
<pdfrwt beam="2">  1       -2 0.80610669E-01 0.69747598E+03</pdfrwt>
<totfact> 0.20071558E+02</totfact>
</mgrwt>
</event>
<event>
 6    1  0.3017327E-006  0.2808604E+04  0.7818608E-02  0.8300602E-01
         -2   -1    0    0    0  501 -0.00000000000E+00  0.00000000000E+00  0.63797430368E+03  0.63797430368E+03  0.00000000000E+00 0.  1.
          2   -1    0    0  501    0  0.00000000000E+00 -0.00000000000E+00 -0.30911332815E+04  0.30911332815E+04  0.00000000000E+00 0. -1.
         23    2    1    2    0    0  0.77063421614E+03  0.98088573332E+03 -0.20799866525E+04  0.24270816633E+04  0.91471353397E+02 0.  0.
         11    1    3    3    0    0  0.10895325091E+03  0.99501926223E+02 -0.21431330323E+03  0.26019538071E+03  0.00000000000E+00 0. -1.
        -11    1    3    3    0    0  0.66168096524E+03  0.88138380710E+03 -0.18656733493E+04  0.21668862825E+04  0.00000000000E+00 0.  1.
         22    1    1    2    0    0 -0.77063421614E+03 -0.98088573332E+03 -0.37317232526E+03  0.13020259219E+04  0.00000000000E+00 0.  1.
<mgrwt>
<rscale>  0 0.28086036E+04</rscale>
<asrwt>0</asrwt>
<pdfrwt beam="1">  1        2 0.47555897E+00 0.28086036E+04</pdfrwt>
<pdfrwt beam="2">  1       -2 0.98149892E-01 0.28086036E+04</pdfrwt>
<totfact> 0.11439951E+00</totfact>
</mgrwt>
</event>
<event>
 6    1  0.3017327E-006  0.1241431E+04  0.7818608E-02  0.9077346E-01
          1   -1    0    0  501    0  0.00000000000E+00  0.00000000000E+00  0.14288018338E+04  0.14288018338E+04  0.00000000000E+00 0. -1.
         -1   -1    0    0    0  501 -0.00000000000E+00 -0.00000000000E+00 -0.26965784008E+03  0.26965784008E+03  0.00000000000E+00 0.  1.
         23    2    1    2    0    0  0.21669779642E+03 -0.37590629101E+03  0.11835694668E+04  0.12638793265E+04  0.91053800936E+02 0.  0.
         13    1    3    3    0    0  0.13860628028E+03 -0.15000123426E+03  0.53285395339E+03  0.57065349106E+03  0.00000000000E+00 0.  1.
        -13    1    3    3    0    0  0.78091516144E+02 -0.22590505675E+03  0.65071551337E+03  0.69322583542E+03  0.00000000000E+00 0. -1.
         22    1    1    2    0    0 -0.21669779642E+03  0.37590629101E+03 -0.24425473063E+02  0.43458034738E+03  0.00000000000E+00 0.  1.
<mgrwt>
<rscale>  0 0.12414308E+04</rscale>
<asrwt>0</asrwt>
<pdfrwt beam="1">  1        1 0.21981566E+00 0.12414308E+04</pdfrwt>
<pdfrwt beam="2">  1       -1 0.41485822E-01 0.12414308E+04</pdfrwt>
<totfact> 0.41206262E+01</totfact>
</mgrwt>
</event>
<event>
 6    1  0.3017327E-006  0.3914860E+04  0.7818608E-02  0.8021946E-01
          2   -1    0    0  501    0  0.00000000000E+00  0.00000000000E+00  0.18879558002E+04  0.18879558002E+04  0.00000000000E+00 0. -1.
         -2   -1    0    0    0  501 -0.00000000000E+00 -0.00000000000E+00 -0.20294608704E+04  0.20294608704E+04  0.00000000000E+00 0.  1.
         23    2    1    2    0    0  0.11364645677E+04  0.15829969653E+04 -0.24491970956E+03  0.19659747183E+04  0.87406080084E+02 0.  0.
         11    1    3    3    0    0  0.70454633992E+03  0.93411988695E+03 -0.17999157774E+03  0.11837915679E+04  0.00000000000E+00 0. -1.
        -11    1    3    3    0    0  0.43191822782E+03  0.64887707834E+03 -0.64928131819E+02  0.78218315031E+03  0.00000000000E+00 0.  1.
         22    1    1    2    0    0 -0.11364645677E+04 -0.15829969653E+04  0.10341463943E+03  0.19514419524E+04  0.00000000000E+00 0.  1.
<mgrwt>
<rscale>  0 0.39148601E+04</rscale>
<asrwt>0</asrwt>
<pdfrwt beam="1">  1        2 0.29045474E+00 0.39148601E+04</pdfrwt>
<pdfrwt beam="2">  1       -2 0.31222475E+00 0.39148601E+04</pdfrwt>
<totfact> 0.16377401E-01</totfact>
</mgrwt>
</event>
<event>
 6    1  0.3017327E-006  0.1220907E+04  0.7818608E-02  0.9094751E-01
         -2   -1    0    0    0  501 -0.00000000000E+00  0.00000000000E+00  0.19037671914E+03  0.19037671914E+03  0.00000000000E+00 0.  1.
          2   -1    0    0  501    0  0.00000000000E+00 -0.00000000000E+00 -0.19574535184E+04  0.19574535184E+04  0.00000000000E+00 0. -1.
         23    2    1    2    0    0  0.28492423545E+03 -0.62365964370E+02 -0.18249800313E+04  0.18504683070E+04  0.92787429116E+02 0.  0.
         11    1    3    3    0    0  0.16774569020E+03 -0.15656230940E+02 -0.78563624482E+03  0.80349738227E+03  0.00000000000E+00 0. -1.
        -11    1    3    3    0    0  0.11717854525E+03 -0.46709733431E+02 -0.10393437865E+04  0.10469709247E+04  0.00000000000E+00 0.  1.
         22    1    1    2    0    0 -0.28492423545E+03  0.62365964370E+02  0.57903232061E+02  0.29736193055E+03  0.00000000000E+00 0.  1.
<mgrwt>
<rscale>  0 0.12209072E+04</rscale>
<asrwt>0</asrwt>
<pdfrwt beam="1">  1        2 0.30114667E+00 0.12209072E+04</pdfrwt>
<pdfrwt beam="2">  1       -2 0.29288728E-01 0.12209072E+04</pdfrwt>
<totfact> 0.74628094E+01</totfact>
</mgrwt>
</event>
<event>
 6    1  0.3017327E-006  0.2941322E+04  0.7818608E-02  0.8260688E-01
          2   -1    0    0  501    0  0.00000000000E+00  0.00000000000E+00  0.19350000434E+04  0.19350000434E+04  0.00000000000E+00 0. -1.
         -2   -1    0    0    0  501 -0.00000000000E+00 -0.00000000000E+00 -0.11177483240E+04  0.11177483240E+04  0.00000000000E+00 0.  1.
         23    2    1    2    0    0 -0.95049675842E+03 -0.96236116169E+03  0.10041328110E+04  0.16872786183E+04  0.95096480280E+02 0.  0.
         11    1    3    3    0    0 -0.65964595666E+03 -0.71400252362E+03  0.68536204655E+03  0.11893920828E+04  0.00000000000E+00 0.  1.
        -11    1    3    3    0    0 -0.29085080176E+03 -0.24835863807E+03  0.31877076440E+03  0.49788653549E+03  0.00000000000E+00 0. -1.
         22    1    1    2    0    0  0.95049675842E+03  0.96236116169E+03 -0.18688109161E+03  0.13654697491E+04  0.00000000000E+00 0.  1.
<mgrwt>
<rscale>  0 0.29413215E+04</rscale>
<asrwt>0</asrwt>
<pdfrwt beam="1">  1        2 0.29769231E+00 0.29413215E+04</pdfrwt>
<pdfrwt beam="2">  1       -2 0.17196128E+00 0.29413215E+04</pdfrwt>
<totfact> 0.12892936E+00</totfact>
</mgrwt>
</event>
<event>
 6    1  0.3017327E-006  0.2031968E+04  0.7818608E-02  0.8591819E-01
         -1   -1    0    0    0  501 -0.00000000000E+00  0.00000000000E+00  0.62846840765E+03  0.62846840765E+03  0.00000000000E+00 0.  1.
          1   -1    0    0  501    0  0.00000000000E+00 -0.00000000000E+00 -0.16424425034E+04  0.16424425034E+04  0.00000000000E+00 0. -1.
         23    2    1    2    0    0  0.52745668832E+02 -0.84580710473E+03 -0.11300777528E+04  0.14155444263E+04  0.92295890787E+02 0.  0.
         13    1    3    3    0    0  0.25511660150E+02 -0.25783187640E+03 -0.27892721429E+03  0.38069477559E+03  0.00000000000E+00 0.  1.
        -13    1    3    3    0    0  0.27234008681E+02 -0.58797522834E+03 -0.85115053854E+03  0.10348496507E+04  0.00000000000E+00 0. -1.
         22    1    1    2    0    0 -0.52745668832E+02  0.84580710473E+03  0.11610365709E+03  0.85536648472E+03  0.00000000000E+00 0.  1.
<mgrwt>
<rscale>  0 0.20319677E+04</rscale>
<asrwt>0</asrwt>
<pdfrwt beam="1">  1        1 0.25268346E+00 0.20319677E+04</pdfrwt>
<pdfrwt beam="2">  1       -1 0.96687449E-01 0.20319677E+04</pdfrwt>
<totfact> 0.49672210E+00</totfact>
</mgrwt>
</event>
<event>
 6    1  0.3017327E-006  0.3311175E+04  0.7818608E-02  0.8160058E-01
          2   -1    0    0  501    0  0.00000000000E+00  0.00000000000E+00  0.13404946892E+04  0.13404946892E+04  0.00000000000E+00 0. -1.
         -2   -1    0    0    0  501 -0.00000000000E+00 -0.00000000000E+00 -0.20447453675E+04  0.20447453675E+04  0.00000000000E+00 0.  1.
         23    2    1    2    0    0  0.11063585155E+04  0.58936940245E+03 -0.14560767878E+04  0.19235191680E+04  0.91547365584E+02 0.  0.
         13    1    3    3    0    0  0.55167751892E+03  0.26261085502E+03 -0.65323108919E+03  0.89444027299E+03  0.00000000000E+00 0. -1.
        -13    1    3    3    0    0  0.55468099658E+03  0.32675854743E+03 -0.80284569863E+03  0.10290788950E+04  0.00000000000E+00 0.  1.
         22    1    1    2    0    0 -0.11063585155E+04 -0.58936940245E+03  0.75182610955E+03  0.14617208887E+04  0.00000000000E+00 0. -1.
<mgrwt>
<rscale>  0 0.33111752E+04</rscale>
<asrwt>0</asrwt>
<pdfrwt beam="1">  1        2 0.20622995E+00 0.33111752E+04</pdfrwt>
<pdfrwt beam="2">  1       -2 0.31457621E+00 0.33111752E+04</pdfrwt>
<totfact> 0.33786770E-01</totfact>
</mgrwt>
</event>
<event>
 6    1  0.3017327E-006  0.2182037E+04  0.7818608E-02  0.8525942E-01
         -2   -1    0    0    0  501 -0.00000000000E+00  0.00000000000E+00  0.58687463846E+03  0.58687463846E+03  0.00000000000E+00 0.  1.
          2   -1    0    0  501    0  0.00000000000E+00 -0.00000000000E+00 -0.20282381737E+04  0.20282381737E+04  0.00000000000E+00 0. -1.
         23    2    1    2    0    0  0.17244840636E+03 -0.10429510499E+04 -0.40784463691E+03  0.11367195429E+04  0.91152212748E+02 0.  0.
         13    1    3    3    0    0 -0.98075668651E+01 -0.28456669943E+02 -0.79798179876E+01  0.31139170303E+02  0.00000000000E+00 0. -1.
        -13    1    3    3    0    0  0.18225597322E+03 -0.10144943800E+04 -0.39986481892E+03  0.11055803726E+04  0.00000000000E+00 0.  1.
         22    1    1    2    0    0 -0.17244840636E+03  0.10429510499E+04 -0.10335188983E+04  0.14783932693E+04  0.00000000000E+00 0. -1.
<mgrwt>
<rscale>  0 0.21820372E+04</rscale>
<asrwt>0</asrwt>
<pdfrwt beam="1">  1        2 0.31203664E+00 0.21820372E+04</pdfrwt>
<pdfrwt beam="2">  1       -2 0.90288406E-01 0.21820372E+04</pdfrwt>
<totfact> 0.61869860E+00</totfact>
</mgrwt>
</event>
<event>
 6    1  0.3017327E-006  0.3853798E+04  0.7818608E-02  0.8034707E-01
          2   -1    0    0  501    0  0.00000000000E+00  0.00000000000E+00  0.17349359555E+04  0.17349359555E+04  0.00000000000E+00 0. -1.
         -2   -1    0    0    0  501 -0.00000000000E+00 -0.00000000000E+00 -0.21401023071E+04  0.21401023071E+04  0.00000000000E+00 0.  1.
         23    2    1    2    0    0  0.24947886796E+03 -0.14459652237E+04  0.10513934106E+04  0.18075224889E+04  0.93028545607E+02 0.  0.
         11    1    3    3    0    0  0.62732654083E+02 -0.20722534566E+03  0.13151215008E+03  0.25332424951E+03  0.00000000000E+00 0.  1.
        -11    1    3    3    0    0  0.18674621387E+03 -0.12387398781E+04  0.91988126050E+03  0.15541982394E+04  0.00000000000E+00 0. -1.
         22    1    1    2    0    0 -0.24947886796E+03  0.14459652237E+04 -0.14565597622E+04  0.20675157737E+04  0.00000000000E+00 0.  1.
<mgrwt>
<rscale>  0 0.38537984E+04</rscale>
<asrwt>0</asrwt>
<pdfrwt beam="1">  1        2 0.26691323E+00 0.38537984E+04</pdfrwt>
<pdfrwt beam="2">  1       -2 0.32924651E+00 0.38537984E+04</pdfrwt>
<totfact> 0.15705949E-01</totfact>
</mgrwt>
</event>
<event>
 6    1  0.3017327E-006  0.1766880E+04  0.7818608E-02  0.8724114E-01
          2   -1    0    0  501    0  0.00000000000E+00  0.00000000000E+00  0.63546831509E+03  0.63546831509E+03  0.00000000000E+00 0. -1.
         -2   -1    0    0    0  501 -0.00000000000E+00 -0.00000000000E+00 -0.12281743005E+04  0.12281743005E+04  0.00000000000E+00 0.  1.
         23    2    1    2    0    0 -0.66468423605E+03  0.43074033542E+03 -0.70344863524E+03  0.10638887130E+04  0.98370936017E+02 0.  0.
         13    1    3    3    0    0 -0.18593286150E+03  0.17479413562E+03 -0.21850531040E+03  0.33595920810E+03  0.00000000000E+00 0.  1.
        -13    1    3    3    0    0 -0.47875137455E+03  0.25594619981E+03 -0.48494332484E+03  0.72792950492E+03  0.00000000000E+00 0. -1.
         22    1    1    2    0    0  0.66468423605E+03 -0.43074033542E+03  0.11074264982E+03  0.79975390259E+03  0.00000000000E+00 0. -1.
<mgrwt>
<rscale>  0 0.17668796E+04</rscale>
<asrwt>0</asrwt>
<pdfrwt beam="1">  1        2 0.97764355E-01 0.17668796E+04</pdfrwt>
<pdfrwt beam="2">  1       -2 0.18894989E+00 0.17668796E+04</pdfrwt>
<totfact> 0.68890309E+00</totfact>
</mgrwt>
</event>
<event>
 6    1  0.3017327E-006  0.3047460E+04  0.7818608E-02  0.8230307E-01
          2   -1    0    0  501    0  0.00000000000E+00  0.00000000000E+00  0.15037355493E+04  0.15037355493E+04  0.00000000000E+00 0. -1.
         -2   -1    0    0    0  501 -0.00000000000E+00 -0.00000000000E+00 -0.15439904159E+04  0.15439904159E+04  0.00000000000E+00 0.  1.
         23    2    1    2    0    0 -0.10567840701E+04 -0.26059379054E+03  0.10443381701E+04  0.15111571415E+04  0.90840510649E+02 0.  0.
         13    1    3    3    0    0 -0.66312031173E+03 -0.13112871641E+03  0.68976191919E+03  0.96576125065E+03  0.00000000000E+00 0. -1.
        -13    1    3    3    0    0 -0.39366375835E+03 -0.12946507413E+03  0.35457625090E+03  0.54539589086E+03  0.00000000000E+00 0.  1.
         22    1    1    2    0    0  0.10567840701E+04  0.26059379054E+03 -0.10845930367E+04  0.15365688236E+04  0.00000000000E+00 0.  1.
<mgrwt>
<rscale>  0 0.30474601E+04</rscale>
<asrwt>0</asrwt>
<pdfrwt beam="1">  1        2 0.23134393E+00 0.30474601E+04</pdfrwt>
<pdfrwt beam="2">  1       -2 0.23753698E+00 0.30474601E+04</pdfrwt>
<totfact> 0.82650404E-01</totfact>
</mgrwt>
</event>
<event>
 6    1  0.3017327E-006  0.2966990E+04  0.7818608E-02  0.8253220E-01
          2   -1    0    0  501    0  0.00000000000E+00  0.00000000000E+00  0.13901323387E+04  0.13901323387E+04  0.00000000000E+00 0. -1.
         -2   -1    0    0    0  501 -0.00000000000E+00 -0.00000000000E+00 -0.15831282820E+04  0.15831282820E+04  0.00000000000E+00 0.  1.
         23    2    1    2    0    0 -0.52397226201E+03  0.12873710012E+04 -0.61147341961E+03  0.15217116465E+04  0.99174423555E+02 0.  0.
         13    1    3    3    0    0 -0.40544670187E+03  0.10302085886E+04 -0.44475717418E+03  0.11931159659E+04  0.00000000000E+00 0.  1.
        -13    1    3    3    0    0 -0.11852556014E+03  0.25716241260E+03 -0.16671624543E+03  0.32859568067E+03  0.00000000000E+00 0. -1.
         22    1    1    2    0    0  0.52397226201E+03 -0.12873710012E+04  0.41847747628E+03  0.14515489741E+04  0.00000000000E+00 0. -1.
<mgrwt>
<rscale>  0 0.29669903E+04</rscale>
<asrwt>0</asrwt>
<pdfrwt beam="1">  1        2 0.21386651E+00 0.29669903E+04</pdfrwt>
<pdfrwt beam="2">  1       -2 0.24355820E+00 0.29669903E+04</pdfrwt>
<totfact> 0.88609445E-01</totfact>
</mgrwt>
</event>
<event>
 6    1  0.3017327E-006  0.2864136E+04  0.7818608E-02  0.8283629E-01
          2   -1    0    0  501    0  0.00000000000E+00  0.00000000000E+00  0.12419688232E+04  0.12419688232E+04  0.00000000000E+00 0.  1.
         -2   -1    0    0    0  501 -0.00000000000E+00 -0.00000000000E+00 -0.16512638482E+04  0.16512638482E+04  0.00000000000E+00 0. -1.
         23    2    1    2    0    0  0.12158334658E+03  0.85093137356E+03 -0.13600740593E+04  0.16114965501E+04  0.90845867490E+02 0.  0.
         11    1    3    3    0    0  0.16609953364E+02  0.35219677229E+03 -0.50142694248E+03  0.61298241052E+03  0.00000000000E+00 0. -1.
        -11    1    3    3    0    0  0.10497339322E+03  0.49873460127E+03 -0.85864711679E+03  0.99851413959E+03  0.00000000000E+00 0.  1.
         22    1    1    2    0    0 -0.12158334658E+03 -0.85093137356E+03  0.95077903424E+03  0.12817361213E+04  0.00000000000E+00 0.  1.
<mgrwt>
<rscale>  0 0.28641356E+04</rscale>
<asrwt>0</asrwt>
<pdfrwt beam="1">  1        2 0.19107213E+00 0.28641356E+04</pdfrwt>
<pdfrwt beam="2">  1       -2 0.25404059E+00 0.28641356E+04</pdfrwt>
<totfact> 0.93938835E-01</totfact>
</mgrwt>
</event>
<event>
 6    1  0.3017327E-006  0.1205140E+04  0.7818608E-02  0.9108369E-01
         -2   -1    0    0    0  501 -0.00000000000E+00  0.00000000000E+00  0.39719206997E+03  0.39719206997E+03  0.00000000000E+00 0.  1.
          2   -1    0    0  501    0  0.00000000000E+00 -0.00000000000E+00 -0.91414417413E+03  0.91414417413E+03  0.00000000000E+00 0. -1.
         23    2    1    2    0    0 -0.32419461570E+03  0.38626140972E+03 -0.61152373577E+03  0.79826332628E+03  0.94673297155E+02 0.  0.
         13    1    3    3    0    0 -0.10650936100E+03  0.12217881832E+03 -0.13144604681E+03  0.20868629770E+03  0.00000000000E+00 0.  1.
        -13    1    3    3    0    0 -0.21768525470E+03  0.26408259140E+03 -0.48007768896E+03  0.58957702858E+03  0.00000000000E+00 0. -1.
         22    1    1    2    0    0  0.32419461570E+03 -0.38626140972E+03  0.94571631611E+02  0.51307291781E+03  0.00000000000E+00 0.  1.
<mgrwt>
<rscale>  0 0.12051404E+04</rscale>
<asrwt>0</asrwt>
<pdfrwt beam="1">  1        2 0.14063757E+00 0.12051404E+04</pdfrwt>
<pdfrwt beam="2">  1       -2 0.61106472E-01 0.12051404E+04</pdfrwt>
<totfact> 0.70510291E+01</totfact>
</mgrwt>
</event>
<event>
 6    1  0.3017327E-006  0.2320780E+04  0.7818608E-02  0.8469773E-01
          2   -1    0    0  501    0  0.00000000000E+00  0.00000000000E+00  0.34426937418E+04  0.34426937418E+04  0.00000000000E+00 0. -1.
         -2   -1    0    0    0  501 -0.00000000000E+00 -0.00000000000E+00 -0.39111948193E+03  0.39111948193E+03  0.00000000000E+00 0.  1.
         23    2    1    2    0    0  0.80166968155E+03 -0.61809413639E+03  0.24590242467E+04  0.26608553567E+04  0.92931929546E+02 0.  0.
         13    1    3    3    0    0  0.22880274024E+03 -0.12668633374E+03  0.60742874264E+03  0.66133939734E+03  0.00000000000E+00 0.  1.
        -13    1    3    3    0    0  0.57286694131E+03 -0.49140780265E+03  0.18515955041E+04  0.19995159593E+04  0.00000000000E+00 0. -1.
         22    1    1    2    0    0 -0.80166968155E+03  0.61809413639E+03  0.59255001316E+03  0.11729578670E+04  0.00000000000E+00 0.  1.
<mgrwt>
<rscale>  0 0.23207797E+04</rscale>
<asrwt>0</asrwt>
<pdfrwt beam="1">  1        2 0.52964517E+00 0.23207797E+04</pdfrwt>
<pdfrwt beam="2">  1       -2 0.60172230E-01 0.23207797E+04</pdfrwt>
<totfact> 0.20809759E+00</totfact>
</mgrwt>
</event>
<event>
 6    1  0.3017327E-006  0.5852630E+03  0.7818608E-02  0.9936461E-01
          2   -1    0    0  501    0  0.00000000000E+00  0.00000000000E+00  0.25573304064E+03  0.25573304064E+03  0.00000000000E+00 0. -1.
         -2   -1    0    0    0  501 -0.00000000000E+00 -0.00000000000E+00 -0.33485387120E+03  0.33485387120E+03  0.00000000000E+00 0.  1.
         23    2    1    2    0    0 -0.24107928720E+03  0.13844984510E+03 -0.10379396186E+03  0.31148774357E+03  0.94677587373E+02 0.  0.
         13    1    3    3    0    0 -0.35750471184E+02  0.62953311185E+02 -0.85995062641E+01  0.72905192456E+02  0.00000000000E+00 0. -1.
        -13    1    3    3    0    0 -0.20532881602E+03  0.75496533910E+02 -0.95194455598E+02  0.23858255111E+03  0.00000000000E+00 0.  1.
         22    1    1    2    0    0  0.24107928720E+03 -0.13844984510E+03  0.24673131300E+02  0.27909916828E+03  0.00000000000E+00 0. -1.
<mgrwt>
<rscale>  0 0.58526301E+03</rscale>
<asrwt>0</asrwt>
<pdfrwt beam="1">  1        2 0.39343544E-01 0.58526301E+03</pdfrwt>
<pdfrwt beam="2">  1       -2 0.51515981E-01 0.58526301E+03</pdfrwt>
<totfact> 0.47110540E+02</totfact>
</mgrwt>
</event>
<event>
 6    1  0.3017327E-006  0.2490620E+04  0.7818608E-02  0.8406335E-01
          2   -1    0    0  501    0  0.00000000000E+00  0.00000000000E+00  0.87520800434E+03  0.87520800434E+03  0.00000000000E+00 0. -1.
         -2   -1    0    0    0  501 -0.00000000000E+00 -0.00000000000E+00 -0.17719175016E+04  0.17719175016E+04  0.00000000000E+00 0.  1.
         23    2    1    2    0    0  0.82062770921E+03  0.18583346492E+03 -0.14223482651E+04  0.16550267064E+04  0.89860435999E+02 0.  0.
         13    1    3    3    0    0  0.42116212574E+03  0.63794891672E+02 -0.65413094285E+03  0.78059888211E+03  0.00000000000E+00 0. -1.
        -13    1    3    3    0    0  0.39946558347E+03  0.12203857325E+03 -0.76821732223E+03  0.87442782430E+03  0.00000000000E+00 0.  1.
         22    1    1    2    0    0 -0.82062770921E+03 -0.18583346492E+03  0.52563876781E+03  0.99209879953E+03  0.00000000000E+00 0. -1.
<mgrwt>
<rscale>  0 0.24906195E+04</rscale>
<asrwt>0</asrwt>
<pdfrwt beam="1">  1        2 0.13464738E+00 0.24906195E+04</pdfrwt>
<pdfrwt beam="2">  1       -2 0.27260269E+00 0.24906195E+04</pdfrwt>
<totfact> 0.12714404E+00</totfact>
</mgrwt>
</event>
<event>
 6    1  0.3017327E-006  0.2638142E+04  0.7818608E-02  0.8355360E-01
         -2   -1    0    0    0  501 -0.00000000000E+00  0.00000000000E+00  0.93041455140E+03  0.93041455140E+03  0.00000000000E+00 0.  1.
          2   -1    0    0  501    0  0.00000000000E+00 -0.00000000000E+00 -0.18700779499E+04  0.18700779499E+04  0.00000000000E+00 0. -1.
         23    2    1    2    0    0  0.13825812258E+03  0.55385801952E+03 -0.17310954844E+04  0.18246652825E+04  0.82691007936E+02 0.  0.
         13    1    3    3    0    0  0.36719322227E+02  0.31523257933E+03 -0.93429657855E+03  0.98672690467E+03  0.00000000000E+00 0.  1.
        -13    1    3    3    0    0  0.10153880036E+03  0.23862544020E+03 -0.79679890583E+03  0.83793837782E+03  0.00000000000E+00 0. -1.
         22    1    1    2    0    0 -0.13825812258E+03 -0.55385801952E+03  0.79143208593E+03  0.97582721877E+03  0.00000000000E+00 0.  1.
<mgrwt>
<rscale>  0 0.26381416E+04</rscale>
<asrwt>0</asrwt>
<pdfrwt beam="1">  1        2 0.28770430E+00 0.26381416E+04</pdfrwt>
<pdfrwt beam="2">  1       -2 0.14314070E+00 0.26381416E+04</pdfrwt>
<totfact> 0.23583297E+00</totfact>
</mgrwt>
</event>
<event>
 6    1  0.3017327E-006  0.2522437E+04  0.7818608E-02  0.8395036E-01
         -2   -1    0    0    0  501 -0.00000000000E+00  0.00000000000E+00  0.78412050880E+03  0.78412050880E+03  0.00000000000E+00 0.  1.
          2   -1    0    0  501    0  0.00000000000E+00 -0.00000000000E+00 -0.20286063137E+04  0.20286063137E+04  0.00000000000E+00 0. -1.
         23    2    1    2    0    0  0.11719019696E+04 -0.43262344509E+03 -0.44321315619E+03  0.13286260411E+04  0.91060329990E+02 0.  0.
         11    1    3    3    0    0  0.10959122825E+04 -0.38678183721E+03 -0.42863978218E+03  0.12386912381E+04  0.00000000000E+00 0. -1.
        -11    1    3    3    0    0  0.75989687141E+02 -0.45841607882E+02 -0.14573374009E+02  0.89934803024E+02  0.00000000000E+00 0.  1.
         22    1    1    2    0    0 -0.11719019696E+04  0.43262344509E+03 -0.80127264874E+03  0.14841007814E+04  0.00000000000E+00 0.  1.
<mgrwt>
<rscale>  0 0.25224368E+04</rscale>
<asrwt>0</asrwt>
<pdfrwt beam="1">  1        2 0.31209328E+00 0.25224368E+04</pdfrwt>
<pdfrwt beam="2">  1       -2 0.12063392E+00 0.25224368E+04</pdfrwt>
<totfact> 0.30048604E+00</totfact>
</mgrwt>
</event>
<event>
 6    1  0.3017327E-006  0.1500014E+04  0.7818608E-02  0.8884443E-01
         -4   -1    0    0    0  501 -0.00000000000E+00  0.00000000000E+00  0.68455714977E+03  0.68455714977E+03  0.00000000000E+00 0.  1.
          4   -1    0    0  501    0  0.00000000000E+00 -0.00000000000E+00 -0.82171475649E+03  0.82171475649E+03  0.00000000000E+00 0. -1.
         23    2    1    2    0    0 -0.50417790174E+03  0.31305879609E+03 -0.52456830488E+03  0.79754895936E+03  0.93334182803E+02 0.  0.
         11    1    3    3    0    0 -0.10516963424E+03  0.45015589302E+02 -0.60520851317E+02  0.12942112923E+03  0.00000000000E+00 0.  1.
        -11    1    3    3    0    0 -0.39900826750E+03  0.26804320679E+03 -0.46404745356E+03  0.66812783013E+03  0.00000000000E+00 0. -1.
         22    1    1    2    0    0  0.50417790174E+03 -0.31305879609E+03  0.38741069816E+03  0.70872294690E+03  0.00000000000E+00 0.  1.
<mgrwt>
<rscale>  0 0.15000143E+04</rscale>
<asrwt>0</asrwt>
<pdfrwt beam="1">  1        4 0.12641765E+00 0.15000143E+04</pdfrwt>
<pdfrwt beam="2">  1       -4 0.10531649E+00 0.15000143E+04</pdfrwt>
<totfact> 0.65391032E-01</totfact>
</mgrwt>
</event>
<event>
 6    1  0.3017327E-006  0.1861019E+04  0.7818608E-02  0.8674507E-01
         -2   -1    0    0    0  501 -0.00000000000E+00  0.00000000000E+00  0.86876007320E+03  0.86876007320E+03  0.00000000000E+00 0.  1.
          2   -1    0    0  501    0  0.00000000000E+00 -0.00000000000E+00 -0.99664763567E+03  0.99664763567E+03  0.00000000000E+00 0. -1.
         23    2    1    2    0    0 -0.35341215729E+03 -0.85330229000E+03  0.24377270704E+02  0.92934706423E+03  0.10033326182E+03 0.  0.
         11    1    3    3    0    0 -0.24858271133E+03 -0.49229392947E+03  0.41355175034E+02  0.55304333272E+03  0.00000000000E+00 0. -1.
        -11    1    3    3    0    0 -0.10482944596E+03 -0.36100836053E+03 -0.16977904330E+02  0.37630373151E+03  0.00000000000E+00 0.  1.
         22    1    1    2    0    0  0.35341215729E+03  0.85330229000E+03 -0.15226483317E+03  0.93606064464E+03  0.00000000000E+00 0. -1.
<mgrwt>
<rscale>  0 0.18610187E+04</rscale>
<asrwt>0</asrwt>
<pdfrwt beam="1">  1        2 0.15333040E+00 0.18610187E+04</pdfrwt>
<pdfrwt beam="2">  1       -2 0.13365540E+00 0.18610187E+04</pdfrwt>
<totfact> 0.96251803E+00</totfact>
</mgrwt>
</event>
<event>
 6    1  0.3017327E-006  0.2337001E+04  0.7818608E-02  0.8463474E-01
         -1   -1    0    0    0  501 -0.00000000000E+00  0.00000000000E+00  0.12398586181E+04  0.12398586181E+04  0.00000000000E+00 0.  1.
          1   -1    0    0  501    0  0.00000000000E+00 -0.00000000000E+00 -0.11012489762E+04  0.11012489762E+04  0.00000000000E+00 0. -1.
         23    2    1    2    0    0 -0.82409861905E+03  0.37199289931E+03  0.80880351123E+03  0.12156401032E+04  0.78105632017E+02 0.  0.
         13    1    3    3    0    0 -0.65595759345E+03  0.28258271391E+03  0.59768223944E+03  0.93132025316E+03  0.00000000000E+00 0.  1.
        -13    1    3    3    0    0 -0.16814102560E+03  0.89410185408E+02  0.21112127179E+03  0.28431985007E+03  0.00000000000E+00 0. -1.
         22    1    1    2    0    0  0.82409861905E+03 -0.37199289931E+03 -0.67019386925E+03  0.11254674911E+04  0.00000000000E+00 0. -1.
<mgrwt>
<rscale>  0 0.23370007E+04</rscale>
<asrwt>0</asrwt>
<pdfrwt beam="1">  1        1 0.16942292E+00 0.23370007E+04</pdfrwt>
<pdfrwt beam="2">  1       -1 0.19074748E+00 0.23370007E+04</pdfrwt>
<totfact> 0.19900149E+00</totfact>
</mgrwt>
</event>
<event>
 6    1  0.3017327E-006  0.7933787E+03  0.7818608E-02  0.9569651E-01
          1   -1    0    0  501    0  0.00000000000E+00  0.00000000000E+00  0.26430133227E+04  0.26430133227E+04  0.00000000000E+00 0. -1.
         -1   -1    0    0    0  501 -0.00000000000E+00 -0.00000000000E+00 -0.59539025455E+02  0.59539025455E+02  0.00000000000E+00 0.  1.
         23    2    1    2    0    0 -0.52947949768E+02  0.55627862878E+02  0.26163668687E+04  0.26190067572E+04  0.89010436035E+02 0.  0.
         13    1    3    3    0    0 -0.60919059690E+02  0.42113741167E+02  0.10698232276E+04  0.10723835309E+04  0.00000000000E+00 0.  1.
        -13    1    3    3    0    0  0.79711099218E+01  0.13514121711E+02  0.15465436411E+04  0.15466232262E+04  0.00000000000E+00 0. -1.
         22    1    1    2    0    0  0.52947949768E+02 -0.55627862878E+02 -0.32892571501E+02  0.83545590984E+02  0.00000000000E+00 0.  1.
<mgrwt>
<rscale>  0 0.79337869E+03</rscale>
<asrwt>0</asrwt>
<pdfrwt beam="1">  1        1 0.40661734E+00 0.79337869E+03</pdfrwt>
<pdfrwt beam="2">  1       -1 0.91598521E-02 0.79337869E+03</pdfrwt>
<totfact> 0.81281764E+01</totfact>
</mgrwt>
</event>
<event>
 6    1  0.3017327E-006  0.3828234E+04  0.7818608E-02  0.8040123E-01
         -2   -1    0    0    0  501 -0.00000000000E+00  0.00000000000E+00  0.17708470014E+04  0.17708470014E+04  0.00000000000E+00 0.  1.
          2   -1    0    0  501    0  0.00000000000E+00 -0.00000000000E+00 -0.20689779548E+04  0.20689779548E+04  0.00000000000E+00 0. -1.
         23    2    1    2    0    0  0.10673477467E+04  0.25356197807E+03  0.14227785992E+04  0.17989784217E+04  0.92192896777E+02 0.  0.
         11    1    3    3    0    0  0.55709765559E+03  0.16825193259E+03  0.80202610778E+03  0.99091492483E+03  0.00000000000E+00 0.  1.
        -11    1    3    3    0    0  0.51025009113E+03  0.85310045477E+02  0.62075249138E+03  0.80806349683E+03  0.00000000000E+00 0. -1.
         22    1    1    2    0    0 -0.10673477467E+04 -0.25356197807E+03 -0.17209095526E+04  0.20408465345E+04  0.00000000000E+00 0. -1.
<mgrwt>
<rscale>  0 0.38282337E+04</rscale>
<asrwt>0</asrwt>
<pdfrwt beam="1">  1        2 0.31830430E+00 0.38282337E+04</pdfrwt>
<pdfrwt beam="2">  1       -2 0.27243800E+00 0.38282337E+04</pdfrwt>
<totfact> 0.22911889E-01</totfact>
</mgrwt>
</event>
<event>
 6    1  0.3017327E-006  0.2238489E+04  0.7818608E-02  0.8502577E-01
         -2   -1    0    0    0  501 -0.00000000000E+00  0.00000000000E+00  0.11746771770E+04  0.11746771770E+04  0.00000000000E+00 0.  1.
          2   -1    0    0  501    0  0.00000000000E+00 -0.00000000000E+00 -0.10664273252E+04  0.10664273252E+04  0.00000000000E+00 0. -1.
         23    2    1    2    0    0 -0.92888419489E+03  0.46339995263E+03 -0.36095844591E+03  0.11019285762E+04  0.79938874856E+02 0.  0.
         11    1    3    3    0    0 -0.43062956600E+03  0.22404287199E+03 -0.12753514706E+03  0.50189864051E+03  0.00000000000E+00 0. -1.
        -11    1    3    3    0    0 -0.49825462889E+03  0.23935708064E+03 -0.23342329884E+03  0.60002993567E+03  0.00000000000E+00 0.  1.
         22    1    1    2    0    0  0.92888419489E+03 -0.46339995263E+03  0.46920829771E+03  0.11391759259E+04  0.00000000000E+00 0. -1.
<mgrwt>
<rscale>  0 0.22384886E+04</rscale>
<asrwt>0</asrwt>
<pdfrwt beam="1">  1        2 0.16406574E+00 0.22384886E+04</pdfrwt>
<pdfrwt beam="2">  1       -2 0.18071957E+00 0.22384886E+04</pdfrwt>
<totfact> 0.37333149E+00</totfact>
</mgrwt>
</event>
<event>
 6    1  0.3017327E-006  0.1367231E+04  0.7818608E-02  0.8977886E-01
         -2   -1    0    0    0  501 -0.00000000000E+00  0.00000000000E+00  0.34015595040E+03  0.34015595040E+03  0.00000000000E+00 0.  1.
          2   -1    0    0  501    0  0.00000000000E+00 -0.00000000000E+00 -0.13738699698E+04  0.13738699698E+04  0.00000000000E+00 0. -1.
         23    2    1    2    0    0  0.34676011282E+03  0.25111783005E+03 -0.11824123952E+04  0.12607997655E+04  0.90632422401E+02 0.  0.
         11    1    3    3    0    0  0.17150618888E+03  0.17954692614E+03 -0.66428475493E+03  0.70917255104E+03  0.00000000000E+00 0.  1.
        -11    1    3    3    0    0  0.17525392394E+03  0.71570903907E+02 -0.51812764024E+03  0.55162721446E+03  0.00000000000E+00 0. -1.
         22    1    1    2    0    0 -0.34676011282E+03 -0.25111783005E+03  0.14869837573E+03  0.45322615476E+03  0.00000000000E+00 0.  1.
<mgrwt>
<rscale>  0 0.13672308E+04</rscale>
<asrwt>0</asrwt>
<pdfrwt beam="1">  1        2 0.21136461E+00 0.13672308E+04</pdfrwt>
<pdfrwt beam="2">  1       -2 0.52331684E-01 0.13672308E+04</pdfrwt>
<totfact> 0.50353103E+01</totfact>
</mgrwt>
</event>
<event>
 6    1  0.3017327E-006  0.1780053E+04  0.7818608E-02  0.8716979E-01
         -2   -1    0    0    0  501 -0.00000000000E+00  0.00000000000E+00  0.11165930999E+04  0.11165930999E+04  0.00000000000E+00 0. -1.
          2   -1    0    0  501    0  0.00000000000E+00 -0.00000000000E+00 -0.70943253641E+03  0.70943253641E+03  0.00000000000E+00 0.  1.
         23    2    1    2    0    0  0.56581807927E+03 -0.37161815076E+03  0.79135420066E+03  0.10476588206E+04  0.11444380614E+03 0.  0.
         11    1    3    3    0    0  0.56732417609E+03 -0.37331643529E+03  0.77213706925E+03  0.10283080936E+04  0.00000000000E+00 0.  1.
        -11    1    3    3    0    0 -0.15060968161E+01  0.16982845239E+01  0.19217131410E+02  0.19350727056E+02  0.00000000000E+00 0. -1.
         22    1    1    2    0    0 -0.56581807927E+03  0.37161815076E+03 -0.38419363720E+03  0.77836681563E+03  0.00000000000E+00 0.  1.
<mgrwt>
<rscale>  0 0.17800533E+04</rscale>
<asrwt>0</asrwt>
<pdfrwt beam="1">  1        2 0.10914347E+00 0.17800533E+04</pdfrwt>
<pdfrwt beam="2">  1       -2 0.17178355E+00 0.17800533E+04</pdfrwt>
<totfact> 0.78794039E+00</totfact>
</mgrwt>
</event>
<event>
 6    1  0.3017327E-006  0.3444709E+03  0.7818608E-02  0.1064908E+00
         -2   -1    0    0    0  501 -0.00000000000E+00  0.00000000000E+00  0.25421805047E+02  0.25421805047E+02  0.00000000000E+00 0.  1.
          2   -1    0    0  501    0  0.00000000000E+00 -0.00000000000E+00 -0.11669138478E+04  0.11669138478E+04  0.00000000000E+00 0. -1.
         23    2    1    2    0    0 -0.78787303902E+02 -0.31621002397E+02 -0.10813589295E+04  0.10883004744E+04  0.88619755442E+02 0.  0.
         13    1    3    3    0    0 -0.19810890607E+02 -0.53279980337E+02 -0.63540359497E+03  0.63794118553E+03  0.00000000000E+00 0. -1.
        -13    1    3    3    0    0 -0.58976413295E+02  0.21658977940E+02 -0.44595533456E+03  0.45035928887E+03  0.00000000000E+00 0.  1.
         22    1    1    2    0    0  0.78787303902E+02  0.31621002397E+02 -0.60133113220E+02  0.10403517845E+03  0.00000000000E+00 0.  1.
<mgrwt>
<rscale>  0 0.34447094E+03</rscale>
<asrwt>0</asrwt>
<pdfrwt beam="1">  1        2 0.17952522E+00 0.34447094E+03</pdfrwt>
<pdfrwt beam="2">  1       -2 0.39110467E-02 0.34447094E+03</pdfrwt>
<totfact> 0.59586357E+03</totfact>
</mgrwt>
</event>
<event>
 6    1  0.3333572E-006  0.4632191E+04  0.7818608E-02  0.7887894E-01
          2   -1    0    0  501    0  0.00000000000E+00  0.00000000000E+00  0.28243825286E+04  0.28243825286E+04  0.00000000000E+00 0. -1.
         -2   -1    0    0    0  501 -0.00000000000E+00 -0.00000000000E+00 -0.18992821719E+04  0.18992821719E+04  0.00000000000E+00 0.  1.
         23    2    1    2    0    0  0.84587380018E+03  0.18420344810E+04 -0.67803786897E+03  0.21393571171E+04  0.92303888482E+02 0.  0.
         11    1    3    3    0    0  0.66490710648E+03  0.14007150409E+04 -0.55392382530E+03  0.16464919345E+04  0.00000000000E+00 0. -1.
        -11    1    3    3    0    0  0.18096669370E+03  0.44131944007E+03 -0.12411404367E+03  0.49286518263E+03  0.00000000000E+00 0.  1.
         22    1    1    2    0    0 -0.84587380018E+03 -0.18420344810E+04  0.16031382256E+04  0.25843075834E+04  0.00000000000E+00 0. -1.
<mgrwt>
<rscale>  0 0.46321914E+04</rscale>
<asrwt>0</asrwt>
<pdfrwt beam="1">  1        2 0.43452039E+00 0.46321914E+04</pdfrwt>
<pdfrwt beam="2">  1       -2 0.29219726E+00 0.46321914E+04</pdfrwt>
<totfact> 0.59424577E-02</totfact>
</mgrwt>
</event>
<event>
 6    1  0.3017327E-006  0.2550753E+04  0.7818608E-02  0.8385124E-01
         -1   -1    0    0    0  501 -0.00000000000E+00  0.00000000000E+00  0.69213436658E+03  0.69213436658E+03  0.00000000000E+00 0.  1.
          1   -1    0    0  501    0  0.00000000000E+00 -0.00000000000E+00 -0.23501009629E+04  0.23501009629E+04  0.00000000000E+00 0. -1.
         23    2    1    2    0    0 -0.36276863901E+03 -0.11244505403E+04 -0.13970321897E+04  0.18322448883E+04  0.97119970422E+02 0.  0.
         13    1    3    3    0    0 -0.30079628389E+03 -0.80466359553E+03 -0.10411005360E+04  0.13497600648E+04  0.00000000000E+00 0.  1.
        -13    1    3    3    0    0 -0.61972355114E+02 -0.31978694481E+03 -0.35593165367E+03  0.48248482354E+03  0.00000000000E+00 0. -1.
         22    1    1    2    0    0  0.36276863901E+03  0.11244505403E+04 -0.26093440662E+03  0.12099904412E+04  0.00000000000E+00 0. -1.
<mgrwt>
<rscale>  0 0.25507533E+04</rscale>
<asrwt>0</asrwt>
<pdfrwt beam="1">  1        1 0.36155399E+00 0.25507533E+04</pdfrwt>
<pdfrwt beam="2">  1       -1 0.10648221E+00 0.25507533E+04</pdfrwt>
<totfact> 0.12526476E+00</totfact>
</mgrwt>
</event>
<event>
 6    1  0.3017327E-006  0.1977150E+04  0.7818608E-02  0.8617379E-01
          2   -1    0    0  501    0  0.00000000000E+00  0.00000000000E+00  0.51437717035E+04  0.51437717035E+04  0.00000000000E+00 0.  1.
         -2   -1    0    0    0  501 -0.00000000000E+00 -0.00000000000E+00 -0.18999301430E+03  0.18999301430E+03  0.00000000000E+00 0. -1.
         23    2    1    2    0    0  0.11787723441E+02  0.77111943901E+03  0.82287813256E+03  0.11314911012E+04  0.91539889967E+02 0.  0.
         13    1    3    3    0    0 -0.11712225236E+02  0.34288957418E+03  0.30476353020E+03  0.45890221795E+03  0.00000000000E+00 0.  1.
        -13    1    3    3    0    0  0.23499948677E+02  0.42822986483E+03  0.51811460236E+03  0.67258888327E+03  0.00000000000E+00 0. -1.
         22    1    1    2    0    0 -0.11787723441E+02 -0.77111943901E+03  0.41309005566E+04  0.42022736165E+04  0.00000000000E+00 0. -1.
<mgrwt>
<rscale>  0 0.19771502E+04</rscale>
<asrwt>0</asrwt>
<pdfrwt beam="1">  1        2 0.79134939E+00 0.19771502E+04</pdfrwt>
<pdfrwt beam="2">  1       -2 0.29229698E-01 0.19771502E+04</pdfrwt>
<totfact> 0.22852620E-01</totfact>
</mgrwt>
</event>
<event>
 6    1  0.3017327E-006  0.1400611E+04  0.7818608E-02  0.8953376E-01
          2   -1    0    0  501    0  0.00000000000E+00  0.00000000000E+00  0.19589235372E+04  0.19589235372E+04  0.00000000000E+00 0.  1.
         -2   -1    0    0    0  501 -0.00000000000E+00 -0.00000000000E+00 -0.25035582734E+03  0.25035582734E+03  0.00000000000E+00 0. -1.
         23    2    1    2    0    0  0.35282463144E+03  0.42896452204E+03  0.15230203446E+04  0.16236825694E+04  0.90875378466E+02 0.  0.
         13    1    3    3    0    0  0.67702743599E+02  0.11246633662E+03  0.46356159958E+03  0.48179009430E+03  0.00000000000E+00 0. -1.
        -13    1    3    3    0    0  0.28512188784E+03  0.31649818542E+03  0.10594587451E+04  0.11418924751E+04  0.00000000000E+00 0.  1.
         22    1    1    2    0    0 -0.35282463144E+03 -0.42896452204E+03  0.18554736527E+03  0.58559679514E+03  0.00000000000E+00 0.  1.
<mgrwt>
<rscale>  0 0.14006112E+04</rscale>
<asrwt>0</asrwt>
<pdfrwt beam="1">  1        2 0.30137284E+00 0.14006112E+04</pdfrwt>
<pdfrwt beam="2">  1       -2 0.38516282E-01 0.14006112E+04</pdfrwt>
<totfact> 0.43662739E+01</totfact>
</mgrwt>
</event>
<event>
 6    1  0.3017327E-006  0.3705960E+04  0.7818608E-02  0.8066642E-01
          2   -1    0    0  501    0  0.00000000000E+00  0.00000000000E+00  0.24150019306E+04  0.24150019306E+04  0.00000000000E+00 0. -1.
         -2   -1    0    0    0  501 -0.00000000000E+00 -0.00000000000E+00 -0.14217526803E+04  0.14217526803E+04  0.00000000000E+00 0.  1.
         23    2    1    2    0    0  0.78965457260E+03  0.67249131970E+03  0.20852229917E+04  0.23306983136E+04  0.90558183830E+02 0.  0.
         13    1    3    3    0    0  0.63803145260E+03  0.58758373619E+03  0.17366407941E+04  0.19412006669E+04  0.00000000000E+00 0. -1.
        -13    1    3    3    0    0  0.15162312000E+03  0.84907583501E+02  0.34858219764E+03  0.38949764667E+03  0.00000000000E+00 0.  1.
         22    1    1    2    0    0 -0.78965457260E+03 -0.67249131970E+03 -0.10919737414E+04  0.15060562974E+04  0.00000000000E+00 0.  1.
<mgrwt>
<rscale>  0 0.37059603E+04</rscale>
<asrwt>0</asrwt>
<pdfrwt beam="1">  1        2 0.37153876E+00 0.37059603E+04</pdfrwt>
<pdfrwt beam="2">  1       -2 0.21873118E+00 0.37059603E+04</pdfrwt>
<totfact> 0.31706947E-01</totfact>
</mgrwt>
</event>
<event>
 6    1  0.3017327E-006  0.3593452E+04  0.7818608E-02  0.8091993E-01
          2   -1    0    0  501    0  0.00000000000E+00  0.00000000000E+00  0.16090105992E+04  0.16090105992E+04  0.00000000000E+00 0. -1.
         -2   -1    0    0    0  501 -0.00000000000E+00 -0.00000000000E+00 -0.20063415153E+04  0.20063415153E+04  0.00000000000E+00 0.  1.
         23    2    1    2    0    0 -0.28861184419E+03  0.11259731577E+04 -0.15754603278E+04  0.19603290756E+04  0.98501225926E+02 0.  0.
         13    1    3    3    0    0 -0.14198169102E+03  0.73920734498E+03 -0.10337001076E+04  0.12787189730E+04  0.00000000000E+00 0.  1.
        -13    1    3    3    0    0 -0.14663015317E+03  0.38676581275E+03 -0.54176022018E+03  0.68161010255E+03  0.00000000000E+00 0. -1.
         22    1    1    2    0    0  0.28861184419E+03 -0.11259731577E+04  0.11781294118E+04  0.16550230389E+04  0.00000000000E+00 0. -1.
<mgrwt>
<rscale>  0 0.35934522E+04</rscale>
<asrwt>0</asrwt>
<pdfrwt beam="1">  1        2 0.24754009E+00 0.35934522E+04</pdfrwt>
<pdfrwt beam="2">  1       -2 0.30866793E+00 0.35934522E+04</pdfrwt>
<totfact> 0.25274476E-01</totfact>
</mgrwt>
</event>
<event>
 6    1  0.3017327E-006  0.1150639E+04  0.7818608E-02  0.9157195E-01
          2   -1    0    0  501    0  0.00000000000E+00  0.00000000000E+00  0.56024010242E+03  0.56024010242E+03  0.00000000000E+00 0. -1.
         -2   -1    0    0    0  501 -0.00000000000E+00 -0.00000000000E+00 -0.59080434705E+03  0.59080434705E+03  0.00000000000E+00 0.  1.
         23    2    1    2    0    0 -0.33374343468E+03 -0.27594873531E+02 -0.47898809877E+03  0.59137480567E+03  0.90268514849E+02 0.  0.
         13    1    3    3    0    0 -0.97494173885E+02 -0.22414900883E+02 -0.81873405499E+02  0.12927024503E+03  0.00000000000E+00 0.  1.
        -13    1    3    3    0    0 -0.23624926080E+03 -0.51799726477E+01 -0.39711469327E+03  0.46210456063E+03  0.00000000000E+00 0. -1.
         22    1    1    2    0    0  0.33374343468E+03  0.27594873531E+02  0.44842385414E+03  0.55966964381E+03  0.00000000000E+00 0. -1.
<mgrwt>
<rscale>  0 0.11506386E+04</rscale>
<asrwt>0</asrwt>
<pdfrwt beam="1">  1        2 0.86190786E-01 0.11506386E+04</pdfrwt>
<pdfrwt beam="2">  1       -2 0.90892976E-01 0.11506386E+04</pdfrwt>
<totfact> 0.55090196E+01</totfact>
</mgrwt>
</event>
<event>
 6    1  0.3017327E-006  0.3600852E+04  0.7818608E-02  0.8090296E-01
         -2   -1    0    0    0  501 -0.00000000000E+00  0.00000000000E+00  0.10604319570E+04  0.10604319570E+04  0.00000000000E+00 0.  1.
          2   -1    0    0  501    0  0.00000000000E+00 -0.00000000000E+00 -0.30568058089E+04  0.30568058089E+04  0.00000000000E+00 0. -1.
         23    2    1    2    0    0 -0.78852669695E+03  0.16146400677E+04 -0.11052841859E+04  0.21115264973E+04  0.89744733205E+02 0.  0.
         13    1    3    3    0    0 -0.77245415597E+02  0.22173127605E+03 -0.15802128033E+03  0.28302356447E+03  0.00000000000E+00 0. -1.
        -13    1    3    3    0    0 -0.71128128135E+03  0.13929087916E+04 -0.94726290555E+03  0.18285029328E+04  0.00000000000E+00 0.  1.
         22    1    1    2    0    0  0.78852669695E+03 -0.16146400677E+04 -0.89108966602E+03  0.20057112686E+04  0.00000000000E+00 0. -1.
<mgrwt>
<rscale>  0 0.36008524E+04</rscale>
<asrwt>0</asrwt>
<pdfrwt beam="1">  1        2 0.47027781E+00 0.36008524E+04</pdfrwt>
<pdfrwt beam="2">  1       -2 0.16314338E+00 0.36008524E+04</pdfrwt>
<totfact> 0.31182431E-01</totfact>
</mgrwt>
</event>
<event>
 6    1  0.6666458E-006  0.3730463E+04  0.7818608E-02  0.8061244E-01
          2   -1    0    0  501    0  0.00000000000E+00  0.00000000000E+00  0.21103664063E+04  0.21103664063E+04  0.00000000000E+00 0. -1.
         -2   -1    0    0    0  501 -0.00000000000E+00 -0.00000000000E+00 -0.16485708197E+04  0.16485708197E+04  0.00000000000E+00 0.  1.
         23    2    1    2    0    0 -0.90924249694E+03 -0.97623362866E+03  0.15429584987E+04  0.20417688423E+04  0.91351303431E+02 0.  0.
         11    1    3    3    0    0 -0.29472773229E+03 -0.32704912470E+03  0.44567533571E+03  0.62645995164E+03  0.00000000000E+00 0. -1.
        -11    1    3    3    0    0 -0.61451476466E+03 -0.64918450396E+03  0.10972831630E+04  0.14153088906E+04  0.00000000000E+00 0.  1.
         22    1    1    2    0    0  0.90924249694E+03  0.97623362866E+03 -0.10811629121E+04  0.17171683838E+04  0.00000000000E+00 0.  1.
<mgrwt>
<rscale>  0 0.37304630E+04</rscale>
<asrwt>0</asrwt>
<pdfrwt beam="1">  1        2 0.32467176E+00 0.37304630E+04</pdfrwt>
<pdfrwt beam="2">  1       -2 0.25362628E+00 0.37304630E+04</pdfrwt>
<totfact> 0.28543229E-01</totfact>
</mgrwt>
</event>
<event>
 6    1  0.3017327E-006  0.4503485E+04  0.7818608E-02  0.7910027E-01
          2   -1    0    0  501    0  0.00000000000E+00  0.00000000000E+00  0.30736242486E+04  0.30736242486E+04  0.00000000000E+00 0. -1.
         -2   -1    0    0    0  501 -0.00000000000E+00 -0.00000000000E+00 -0.16496307594E+04  0.16496307594E+04  0.00000000000E+00 0.  1.
         23    2    1    2    0    0 -0.13934625705E+04 -0.11560759196E+04  0.21146870547E+04  0.27853935402E+04  0.90919565498E+02 0.  0.
         11    1    3    3    0    0 -0.80202389757E+03 -0.65251296133E+03  0.12745920193E+04  0.16412191544E+04  0.00000000000E+00 0. -1.
        -11    1    3    3    0    0 -0.59143867292E+03 -0.50356295823E+03  0.84009503533E+03  0.11441743858E+04  0.00000000000E+00 0.  1.
         22    1    1    2    0    0  0.13934625705E+04  0.11560759196E+04 -0.69069356539E+03  0.19378614678E+04  0.00000000000E+00 0.  1.
<mgrwt>
<rscale>  0 0.45034854E+04</rscale>
<asrwt>0</asrwt>
<pdfrwt beam="1">  1        2 0.47286527E+00 0.45034854E+04</pdfrwt>
<pdfrwt beam="2">  1       -2 0.25378935E+00 0.45034854E+04</pdfrwt>
<totfact> 0.72120491E-02</totfact>
</mgrwt>
</event>
<event>
 6    1  0.3017327E-006  0.2538073E+04  0.7818608E-02  0.8389546E-01
          2   -1    0    0  501    0  0.00000000000E+00  0.00000000000E+00  0.30683626981E+04  0.30683626981E+04  0.00000000000E+00 0. -1.
         -2   -1    0    0    0  501 -0.00000000000E+00 -0.00000000000E+00 -0.52485768111E+03  0.52485768111E+03  0.00000000000E+00 0.  1.
         23    2    1    2    0    0  0.42094949821E+03  0.11595492887E+04  0.86165535790E+03  0.15074660052E+04  0.90833737333E+02 0.  0.
         11    1    3    3    0    0  0.16532837089E+03  0.57452266350E+03  0.44132701786E+03  0.74308767840E+03  0.00000000000E+00 0.  1.
        -11    1    3    3    0    0  0.25562112732E+03  0.58502662524E+03  0.42032834004E+03  0.76437832676E+03  0.00000000000E+00 0. -1.
         22    1    1    2    0    0 -0.42094949821E+03 -0.11595492887E+04  0.16818496591E+04  0.20857543740E+04  0.00000000000E+00 0. -1.
<mgrwt>
<rscale>  0 0.25380731E+04</rscale>
<asrwt>0</asrwt>
<pdfrwt beam="1">  1        2 0.47205579E+00 0.25380731E+04</pdfrwt>
<pdfrwt beam="2">  1       -2 0.80747337E-01 0.25380731E+04</pdfrwt>
<totfact> 0.18975027E+00</totfact>
</mgrwt>
</event>
<event>
 6    1  0.3017327E-006  0.7069901E+03  0.7818608E-02  0.9705352E-01
          2   -1    0    0  501    0  0.00000000000E+00  0.00000000000E+00  0.16439569138E+04  0.16439569138E+04  0.00000000000E+00 0.  1.
         -2   -1    0    0    0  501 -0.00000000000E+00 -0.00000000000E+00 -0.76010971974E+02  0.76010971974E+02  0.00000000000E+00 0. -1.
         23    2    1    2    0    0 -0.76006400076E+02  0.14646847105E+03  0.15413019963E+04  0.15528156028E+04  0.91621323007E+02 0.  0.
         11    1    3    3    0    0 -0.45634977359E+01  0.85217392221E+02  0.49617765627E+03  0.50346310295E+03  0.00000000000E+00 0.  1.
        -11    1    3    3    0    0 -0.71442902340E+02  0.61251078825E+02  0.10451243400E+04  0.10493524999E+04  0.00000000000E+00 0. -1.
         22    1    1    2    0    0  0.76006400076E+02 -0.14646847105E+03  0.26643945574E+02  0.16715228296E+03  0.00000000000E+00 0. -1.
<mgrwt>
<rscale>  0 0.70699014E+03</rscale>
<asrwt>0</asrwt>
<pdfrwt beam="1">  1        2 0.25291642E+00 0.70699014E+03</pdfrwt>
<pdfrwt beam="2">  1       -2 0.11693997E-01 0.70699014E+03</pdfrwt>
<totfact> 0.56963609E+02</totfact>
</mgrwt>
</event>
<event>
 6    1  0.3017327E-006  0.3573495E+04  0.7818608E-02  0.8096590E-01
          2   -1    0    0  501    0  0.00000000000E+00  0.00000000000E+00  0.16111373480E+04  0.16111373480E+04  0.00000000000E+00 0. -1.
         -2   -1    0    0    0  501 -0.00000000000E+00 -0.00000000000E+00 -0.19814984808E+04  0.19814984808E+04  0.00000000000E+00 0.  1.
         23    2    1    2    0    0  0.31116486524E+02 -0.66277420819E+03 -0.18518759803E+04  0.19693292866E+04  0.92602947535E+02 0.  0.
         11    1    3    3    0    0  0.55957636179E+02 -0.40586065774E+03 -0.12110935330E+04  0.12785154189E+04  0.00000000000E+00 0.  1.
        -11    1    3    3    0    0 -0.24841149654E+02 -0.25691355045E+03 -0.64078244723E+03  0.69081386769E+03  0.00000000000E+00 0. -1.
         22    1    1    2    0    0 -0.31116486524E+02  0.66277420819E+03  0.14815148475E+04  0.16233065423E+04  0.00000000000E+00 0. -1.
<mgrwt>
<rscale>  0 0.35734948E+04</rscale>
<asrwt>0</asrwt>
<pdfrwt beam="1">  1        2 0.24786728E+00 0.35734948E+04</pdfrwt>
<pdfrwt beam="2">  1       -2 0.30484592E+00 0.35734948E+04</pdfrwt>
<totfact> 0.26649038E-01</totfact>
</mgrwt>
</event>
<event>
 6    1  0.3017327E-006  0.2511309E+04  0.7818608E-02  0.8398968E-01
         -2   -1    0    0    0  501 -0.00000000000E+00  0.00000000000E+00  0.67118622395E+03  0.67118622395E+03  0.00000000000E+00 0.  1.
          2   -1    0    0  501    0  0.00000000000E+00 -0.00000000000E+00 -0.23490779272E+04  0.23490779272E+04  0.00000000000E+00 0. -1.
         23    2    1    2    0    0  0.58518501795E+03  0.52424925476E+03 -0.20156110360E+04  0.21650839748E+04  0.87303968786E+02 0.  0.
         11    1    3    3    0    0  0.35934216602E+03  0.36648182070E+03 -0.13790218183E+04  0.14714404142E+04  0.00000000000E+00 0.  1.
        -11    1    3    3    0    0  0.22584285193E+03  0.15776743406E+03 -0.63658921768E+03  0.69364356055E+03  0.00000000000E+00 0. -1.
         22    1    1    2    0    0 -0.58518501795E+03 -0.52424925476E+03  0.33771933277E+03  0.85518017638E+03  0.00000000000E+00 0.  1.
<mgrwt>
<rscale>  0 0.25113094E+04</rscale>
<asrwt>0</asrwt>
<pdfrwt beam="1">  1        2 0.36139661E+00 0.25113094E+04</pdfrwt>
<pdfrwt beam="2">  1       -2 0.10325942E+00 0.25113094E+04</pdfrwt>
<totfact> 0.28979688E+00</totfact>
</mgrwt>
</event>
<event>
 6    1  0.3017327E-006  0.8417826E+03  0.7818608E-02  0.9501433E-01
         -1   -1    0    0    0  501 -0.00000000000E+00  0.00000000000E+00  0.12713008623E+04  0.12713008623E+04  0.00000000000E+00 0.  1.
          1   -1    0    0  501    0  0.00000000000E+00 -0.00000000000E+00 -0.13934504707E+03  0.13934504707E+03  0.00000000000E+00 0. -1.
         23    2    1    2    0    0  0.46494741677E+02  0.21018009483E+03 -0.23990767083E+02  0.23482707366E+03  0.90723560061E+02 0.  0.
         11    1    3    3    0    0  0.59130034484E+00  0.11656670152E+03  0.25640351470E+02  0.11935482045E+03  0.00000000000E+00 0. -1.
        -11    1    3    3    0    0  0.45903441332E+02  0.93613393306E+02 -0.49631118554E+02  0.11547225321E+03  0.00000000000E+00 0.  1.
         22    1    1    2    0    0 -0.46494741677E+02 -0.21018009483E+03  0.11559465824E+04  0.11758188358E+04  0.00000000000E+00 0.  1.
<mgrwt>
<rscale>  0 0.84178258E+03</rscale>
<asrwt>0</asrwt>
<pdfrwt beam="1">  1        1 0.21437700E-01 0.84178258E+03</pdfrwt>
<pdfrwt beam="2">  1       -1 0.19558474E+00 0.84178258E+03</pdfrwt>
<totfact> 0.39242396E+01</totfact>
</mgrwt>
</event>
<event>
 6    1  0.3017327E-006  0.3266154E+04  0.7818608E-02  0.8171561E-01
          2   -1    0    0  501    0  0.00000000000E+00  0.00000000000E+00  0.16073462377E+04  0.16073462377E+04  0.00000000000E+00 0. -1.
         -2   -1    0    0    0  501 -0.00000000000E+00 -0.00000000000E+00 -0.16592195172E+04  0.16592195172E+04  0.00000000000E+00 0.  1.
         23    2    1    2    0    0 -0.86792579500E+03 -0.13796380135E+04  0.46847893706E+02  0.16336413525E+04  0.99464112549E+02 0.  0.
         13    1    3    3    0    0 -0.32971594329E+03 -0.55979420247E+03  0.63540089148E+02  0.65277828955E+03  0.00000000000E+00 0. -1.
        -13    1    3    3    0    0 -0.53820985171E+03 -0.81984381099E+03 -0.16692195442E+02  0.98086306296E+03  0.00000000000E+00 0.  1.
         22    1    1    2    0    0  0.86792579500E+03  0.13796380135E+04 -0.98721173256E+02  0.16329244024E+04  0.00000000000E+00 0. -1.
<mgrwt>
<rscale>  0 0.32661539E+04</rscale>
<asrwt>0</asrwt>
<pdfrwt beam="1">  1        2 0.24728404E+00 0.32661539E+04</pdfrwt>
<pdfrwt beam="2">  1       -2 0.25526454E+00 0.32661539E+04</pdfrwt>
<totfact> 0.55186948E-01</totfact>
</mgrwt>
</event>
<event>
 6    1  0.3017327E-006  0.1146654E+04  0.7818608E-02  0.9160876E-01
         -2   -1    0    0    0  501 -0.00000000000E+00  0.00000000000E+00  0.61010651090E+03  0.61010651090E+03  0.00000000000E+00 0.  1.
          2   -1    0    0  501    0  0.00000000000E+00 -0.00000000000E+00 -0.53876458145E+03  0.53876458145E+03  0.00000000000E+00 0. -1.
         23    2    1    2    0    0 -0.73877933805E+02 -0.50737764832E+02  0.59985369520E+03  0.61281423304E+03  0.87661614679E+02 0.  0.
         11    1    3    3    0    0 -0.25056716196E+02  0.22065518260E+02  0.24646609334E+03  0.24871723159E+03  0.00000000000E+00 0. -1.
        -11    1    3    3    0    0 -0.48821217609E+02 -0.72803283093E+02  0.35338760185E+03  0.36409700145E+03  0.00000000000E+00 0.  1.
         22    1    1    2    0    0  0.73877933805E+02  0.50737764832E+02 -0.52851176575E+03  0.53605685931E+03  0.00000000000E+00 0. -1.
<mgrwt>
<rscale>  0 0.11466539E+04</rscale>
<asrwt>0</asrwt>
<pdfrwt beam="1">  1        2 0.82886858E-01 0.11466539E+04</pdfrwt>
<pdfrwt beam="2">  1       -2 0.93862541E-01 0.11466539E+04</pdfrwt>
<totfact> 0.53562681E+01</totfact>
</mgrwt>
</event>
<event>
 6    1  0.3017327E-006  0.3384036E+04  0.7818608E-02  0.8141836E-01
         -2   -1    0    0    0  501 -0.00000000000E+00  0.00000000000E+00  0.97421065495E+03  0.97421065495E+03  0.00000000000E+00 0.  1.
          2   -1    0    0  501    0  0.00000000000E+00 -0.00000000000E+00 -0.29387121922E+04  0.29387121922E+04  0.00000000000E+00 0. -1.
         23    2    1    2    0    0  0.44372722544E+03 -0.15798932682E+03 -0.28605597104E+04  0.29006112708E+04  0.94283665057E+02 0.  0.
         13    1    3    3    0    0  0.32425218308E+03 -0.70087857028E+02 -0.19294695059E+04  0.19577804678E+04  0.00000000000E+00 0. -1.
        -13    1    3    3    0    0  0.11947504236E+03 -0.87901469794E+02 -0.93109020444E+03  0.94283080292E+03  0.00000000000E+00 0.  1.
         22    1    1    2    0    0 -0.44372722544E+03  0.15798932682E+03  0.89605817315E+03  0.10123115764E+04  0.00000000000E+00 0.  1.
<mgrwt>
<rscale>  0 0.33840359E+04</rscale>
<asrwt>0</asrwt>
<pdfrwt beam="1">  1        2 0.45210956E+00 0.33840359E+04</pdfrwt>
<pdfrwt beam="2">  1       -2 0.14987857E+00 0.33840359E+04</pdfrwt>
<totfact> 0.47327448E-01</totfact>
</mgrwt>
</event>
<event>
 6    1  0.3017327E-006  0.1417802E+04  0.7818608E-02  0.8941032E-01
          2   -1    0    0  501    0  0.00000000000E+00  0.00000000000E+00  0.13927523444E+04  0.13927523444E+04  0.00000000000E+00 0. -1.
         -2   -1    0    0    0  501 -0.00000000000E+00 -0.00000000000E+00 -0.36082569148E+03  0.36082569148E+03  0.00000000000E+00 0.  1.
         23    2    1    2    0    0  0.44427176130E+03  0.37625311302E+03  0.24332451517E+02  0.58988139258E+03  0.91783365433E+02 0.  0.
         11    1    3    3    0    0  0.25654320239E+03  0.23812110596E+03 -0.27547668418E+02  0.35110532583E+03  0.00000000000E+00 0.  1.
        -11    1    3    3    0    0  0.18772855891E+03  0.13813200706E+03  0.51880119934E+02  0.23877606674E+03  0.00000000000E+00 0. -1.
         22    1    1    2    0    0 -0.44427176130E+03 -0.37625311302E+03  0.10075942014E+04  0.11636966433E+04  0.00000000000E+00 0. -1.
<mgrwt>
<rscale>  0 0.14178023E+04</rscale>
<asrwt>0</asrwt>
<pdfrwt beam="1">  1        2 0.21426959E+00 0.14178023E+04</pdfrwt>
<pdfrwt beam="2">  1       -2 0.55511645E-01 0.14178023E+04</pdfrwt>
<totfact> 0.43301800E+01</totfact>
</mgrwt>
</event>
<event>
 6    1  0.3017327E-006  0.2182466E+04  0.7818608E-02  0.8525762E-01
          1   -1    0    0  501    0  0.00000000000E+00  0.00000000000E+00  0.87312215630E+03  0.87312215630E+03  0.00000000000E+00 0. -1.
         -1   -1    0    0    0  501 -0.00000000000E+00 -0.00000000000E+00 -0.13638288544E+04  0.13638288544E+04  0.00000000000E+00 0.  1.
         23    2    1    2    0    0 -0.78036074685E+03  0.77585338968E+02  0.52918680213E+03  0.95041879896E+03  0.90966157570E+02 0.  0.
         13    1    3    3    0    0 -0.60076360697E+03  0.26937135217E+02  0.42822918306E+03  0.73825656376E+03  0.00000000000E+00 0.  1.
        -13    1    3    3    0    0 -0.17959713988E+03  0.50648203751E+02  0.10095761907E+03  0.21216223520E+03  0.00000000000E+00 0. -1.
         22    1    1    2    0    0  0.78036074685E+03 -0.77585338968E+02 -0.10198935002E+04  0.12865322117E+04  0.00000000000E+00 0.  1.
<mgrwt>
<rscale>  0 0.21824658E+04</rscale>
<asrwt>0</asrwt>
<pdfrwt beam="1">  1        1 0.13432649E+00 0.21824658E+04</pdfrwt>
<pdfrwt beam="2">  1       -1 0.20981982E+00 0.21824658E+04</pdfrwt>
<totfact> 0.22544880E+00</totfact>
</mgrwt>
</event>
<event>
 6    1  0.3017327E-006  0.4699778E+03  0.7818608E-02  0.1021926E+00
         -4   -1    0    0    0  501 -0.00000000000E+00  0.00000000000E+00  0.27732546308E+02  0.27732546308E+02  0.00000000000E+00 0. -1.
          4   -1    0    0  501    0  0.00000000000E+00 -0.00000000000E+00 -0.19911546390E+04  0.19911546390E+04  0.00000000000E+00 0.  1.
         23    2    1    2    0    0  0.76914151879E+02  0.17582816761E+03 -0.15262704714E+04  0.15414640279E+04  0.98886126329E+02 0.  0.
         13    1    3    3    0    0  0.19456292863E+02  0.86628119399E+02 -0.10384042360E+04  0.10421930415E+04  0.00000000000E+00 0.  1.
        -13    1    3    3    0    0  0.57457859016E+02  0.89200048211E+02 -0.48786623545E+03  0.49927098640E+03  0.00000000000E+00 0. -1.
         22    1    1    2    0    0 -0.76914151879E+02 -0.17582816761E+03 -0.43715162127E+03  0.47742315744E+03  0.00000000000E+00 0. -1.
<mgrwt>
<rscale>  0 0.46997782E+03</rscale>
<asrwt>0</asrwt>
<pdfrwt beam="1">  1        4 0.30633158E+00 0.46997782E+03</pdfrwt>
<pdfrwt beam="2">  1       -4 0.42665442E-02 0.46997782E+03</pdfrwt>
<totfact> 0.19262869E+01</totfact>
</mgrwt>
</event>
<event>
 6    1  0.3017327E-006  0.7055558E+03  0.7818608E-02  0.9707778E-01
          2   -1    0    0  501    0  0.00000000000E+00  0.00000000000E+00  0.79876519780E+03  0.79876519780E+03  0.00000000000E+00 0. -1.
         -2   -1    0    0    0  501 -0.00000000000E+00 -0.00000000000E+00 -0.15580580695E+03  0.15580580695E+03  0.00000000000E+00 0.  1.
         23    2    1    2    0    0 -0.24892647920E+03 -0.24204215850E+03  0.32067014513E+03  0.48084201423E+03  0.88492384602E+02 0.  0.
         11    1    3    3    0    0 -0.86352286288E+02 -0.54251001026E+02  0.50346496314E+02  0.11373063857E+03  0.00000000000E+00 0. -1.
        -11    1    3    3    0    0 -0.16257419292E+03 -0.18779115748E+03  0.27032364882E+03  0.36711137566E+03  0.00000000000E+00 0.  1.
         22    1    1    2    0    0  0.24892647920E+03  0.24204215850E+03  0.32228924572E+03  0.47372899051E+03  0.00000000000E+00 0.  1.
<mgrwt>
<rscale>  0 0.70555583E+03</rscale>
<asrwt>0</asrwt>
<pdfrwt beam="1">  1        2 0.12288695E+00 0.70555583E+03</pdfrwt>
<pdfrwt beam="2">  1       -2 0.23970125E-01 0.70555583E+03</pdfrwt>
<totfact> 0.53695830E+02</totfact>
</mgrwt>
</event>
<event>
 6    1  0.3017327E-006  0.3840407E+04  0.7818608E-02  0.8037539E-01
         -2   -1    0    0    0  501 -0.00000000000E+00  0.00000000000E+00  0.11611958078E+04  0.11611958078E+04  0.00000000000E+00 0.  1.
          2   -1    0    0  501    0  0.00000000000E+00 -0.00000000000E+00 -0.31753312146E+04  0.31753312146E+04  0.00000000000E+00 0. -1.
         23    2    1    2    0    0 -0.51405337929E+03 -0.14094136547E+04 -0.23590387223E+04  0.27971583129E+04  0.91286401857E+02 0.  0.
         13    1    3    3    0    0 -0.45026370103E+03 -0.12658671429E+04 -0.20610367107E+04  0.24602905005E+04  0.00000000000E+00 0. -1.
        -13    1    3    3    0    0 -0.63789678265E+02 -0.14354651178E+03 -0.29800201165E+03  0.33686781242E+03  0.00000000000E+00 0.  1.
         22    1    1    2    0    0  0.51405337929E+03  0.14094136547E+04  0.34490331551E+03  0.15393687095E+04  0.00000000000E+00 0.  1.
<mgrwt>
<rscale>  0 0.38404069E+04</rscale>
<asrwt>0</asrwt>
<pdfrwt beam="1">  1        2 0.48851249E+00 0.38404069E+04</pdfrwt>
<pdfrwt beam="2">  1       -2 0.17864551E+00 0.38404069E+04</pdfrwt>
<totfact> 0.19906355E-01</totfact>
</mgrwt>
</event>
<event>
 6    1  0.3017327E-006  0.2909165E+04  0.7818608E-02  0.8270156E-01
          2   -1    0    0  501    0  0.00000000000E+00  0.00000000000E+00  0.24673730179E+04  0.24673730179E+04  0.00000000000E+00 0. -1.
         -2   -1    0    0    0  501 -0.00000000000E+00 -0.00000000000E+00 -0.85751521460E+03  0.85751521460E+03  0.00000000000E+00 0.  1.
         23    2    1    2    0    0 -0.45936497305E+03  0.76516728220E+03  0.21165826218E+04  0.22986001687E+04  0.84519775406E+02 0.  0.
         11    1    3    3    0    0 -0.33206622792E+03  0.51287188183E+03  0.13590522662E+04  0.14900767125E+04  0.00000000000E+00 0.  1.
        -11    1    3    3    0    0 -0.12729874513E+03  0.25229540037E+03  0.75753035560E+03  0.80852345619E+03  0.00000000000E+00 0. -1.
         22    1    1    2    0    0  0.45936497305E+03 -0.76516728220E+03 -0.50672481850E+03  0.10262880638E+04  0.00000000000E+00 0.  1.
<mgrwt>
<rscale>  0 0.29091648E+04</rscale>
<asrwt>0</asrwt>
<pdfrwt beam="1">  1        2 0.37959585E+00 0.29091648E+04</pdfrwt>
<pdfrwt beam="2">  1       -2 0.13192542E+00 0.29091648E+04</pdfrwt>
<totfact> 0.13116526E+00</totfact>
</mgrwt>
</event>
<event>
 6    1  0.3017327E-006  0.3851332E+04  0.7818608E-02  0.8035228E-01
         -2   -1    0    0    0  501 -0.00000000000E+00  0.00000000000E+00  0.35448336762E+04  0.35448336762E+04  0.00000000000E+00 0.  1.
          2   -1    0    0  501    0  0.00000000000E+00 -0.00000000000E+00 -0.10460828467E+04  0.10460828467E+04  0.00000000000E+00 0. -1.
         23    2    1    2    0    0 -0.41277843100E+03 -0.69662062917E+03 -0.83115902661E+03  0.11639694875E+04  0.91286944541E+02 0.  0.
         13    1    3    3    0    0 -0.15306495820E+03 -0.34761595864E+03 -0.38570692476E+03  0.54132759761E+03  0.00000000000E+00 0.  1.
        -13    1    3    3    0    0 -0.25971347280E+03 -0.34900467052E+03 -0.44545210185E+03  0.62264188989E+03  0.00000000000E+00 0. -1.
         22    1    1    2    0    0  0.41277843100E+03  0.69662062917E+03  0.33299098560E+04  0.34269470354E+04  0.00000000000E+00 0.  1.
<mgrwt>
<rscale>  0 0.38513321E+04</rscale>
<asrwt>0</asrwt>
<pdfrwt beam="1">  1        2 0.16093582E+00 0.38513321E+04</pdfrwt>
<pdfrwt beam="2">  1       -2 0.54535902E+00 0.38513321E+04</pdfrwt>
<totfact> 0.16960082E-02</totfact>
</mgrwt>
</event>
<event>
 6    1  0.3017327E-006  0.2938705E+04  0.7818608E-02  0.8261454E-01
          2   -1    0    0  501    0  0.00000000000E+00  0.00000000000E+00  0.72308568054E+03  0.72308568054E+03  0.00000000000E+00 0. -1.
         -2   -1    0    0    0  501 -0.00000000000E+00 -0.00000000000E+00 -0.29858097030E+04  0.29858097030E+04  0.00000000000E+00 0.  1.
         23    2    1    2    0    0 -0.74501856279E+03  0.10241006340E+04 -0.19559372037E+03  0.12846712905E+04  0.91042043817E+02 0.  0.
         13    1    3    3    0    0 -0.61373127564E+03  0.81164438526E+03 -0.18816203569E+03  0.10348128519E+04  0.00000000000E+00 0.  1.
        -13    1    3    3    0    0 -0.13128728715E+03  0.21245624872E+03 -0.74316846723E+01  0.24985843857E+03  0.00000000000E+00 0. -1.
         22    1    1    2    0    0  0.74501856279E+03 -0.10241006340E+04 -0.20671303021E+04  0.24242240930E+04  0.00000000000E+00 0.  1.
<mgrwt>
<rscale>  0 0.29387046E+04</rscale>
<asrwt>0</asrwt>
<pdfrwt beam="1">  1        2 0.11124395E+00 0.29387046E+04</pdfrwt>
<pdfrwt beam="2">  1       -2 0.45935534E+00 0.29387046E+04</pdfrwt>
<totfact> 0.10165689E-01</totfact>
</mgrwt>
</event>
<event>
 6    1  0.3017327E-006  0.1254534E+04  0.7818608E-02  0.9066418E-01
          2   -1    0    0  501    0  0.00000000000E+00  0.00000000000E+00  0.13962128475E+04  0.13962128475E+04  0.00000000000E+00 0. -1.
         -2   -1    0    0    0  501 -0.00000000000E+00 -0.00000000000E+00 -0.28180809635E+03  0.28180809635E+03  0.00000000000E+00 0.  1.
         23    2    1    2    0    0  0.49402451832E+03  0.31023826662E+03  0.26545936877E+03  0.64796450411E+03  0.95295935621E+02 0.  0.
         13    1    3    3    0    0  0.33713196420E+03  0.16982636472E+03  0.20156764129E+03  0.42793512295E+03  0.00000000000E+00 0.  1.
        -13    1    3    3    0    0  0.15689255411E+03  0.14041190191E+03  0.63891727481E+02  0.22002938116E+03  0.00000000000E+00 0. -1.
         22    1    1    2    0    0 -0.49402451832E+03 -0.31023826662E+03  0.84894538236E+03  0.10300564397E+04  0.00000000000E+00 0. -1.
<mgrwt>
<rscale>  0 0.12545343E+04</rscale>
<asrwt>0</asrwt>
<pdfrwt beam="1">  1        2 0.21480197E+00 0.12545343E+04</pdfrwt>
<pdfrwt beam="2">  1       -2 0.43355092E-01 0.12545343E+04</pdfrwt>
<totfact> 0.72097665E+01</totfact>
</mgrwt>
</event>
<event>
 6    1  0.3017327E-006  0.3391128E+04  0.7818608E-02  0.8140087E-01
         -2   -1    0    0    0  501 -0.00000000000E+00  0.00000000000E+00  0.11525934230E+04  0.11525934230E+04  0.00000000000E+00 0.  1.
          2   -1    0    0  501    0  0.00000000000E+00 -0.00000000000E+00 -0.24943207429E+04  0.24943207429E+04  0.00000000000E+00 0. -1.
         23    2    1    2    0    0 -0.10298897243E+04 -0.79854684395E+03 -0.18361223368E+04  0.22530790469E+04  0.81670372363E+02 0.  0.
         11    1    3    3    0    0 -0.98489819149E+03 -0.78234040900E+03 -0.17626116089E+04  0.21653823328E+04  0.00000000000E+00 0. -1.
        -11    1    3    3    0    0 -0.44991532798E+02 -0.16206434952E+02 -0.73510727839E+02  0.87696714105E+02  0.00000000000E+00 0.  1.
         22    1    1    2    0    0  0.10298897243E+04  0.79854684395E+03  0.49439501693E+03  0.13938351190E+04  0.00000000000E+00 0.  1.
<mgrwt>
<rscale>  0 0.33911282E+04</rscale>
<asrwt>0</asrwt>
<pdfrwt beam="1">  1        2 0.38374165E+00 0.33911282E+04</pdfrwt>
<pdfrwt beam="2">  1       -2 0.17732207E+00 0.33911282E+04</pdfrwt>
<totfact> 0.55028309E-01</totfact>
</mgrwt>
</event>
<event>
 6    1  0.3017327E-006  0.8754257E+03  0.7818608E-02  0.9456833E-01
         -2   -1    0    0    0  501 -0.00000000000E+00  0.00000000000E+00  0.26512703670E+03  0.26512703670E+03  0.00000000000E+00 0.  1.
          2   -1    0    0  501    0  0.00000000000E+00 -0.00000000000E+00 -0.72264423851E+03  0.72264423851E+03  0.00000000000E+00 0. -1.
         23    2    1    2    0    0 -0.34422809636E+03  0.15973006197E+03  0.34553549887E+01  0.39069307837E+03  0.92857239816E+02 0.  0.
         13    1    3    3    0    0 -0.18989380812E+03  0.40974593949E+02  0.19811824501E+02  0.19527182106E+03  0.00000000000E+00 0.  1.
        -13    1    3    3    0    0 -0.15433428824E+03  0.11875546802E+03 -0.16356469513E+02  0.19542125730E+03  0.00000000000E+00 0. -1.
         22    1    1    2    0    0  0.34422809636E+03 -0.15973006197E+03 -0.46097255680E+03  0.59707819684E+03  0.00000000000E+00 0. -1.
<mgrwt>
<rscale>  0 0.87542567E+03</rscale>
<asrwt>0</asrwt>
<pdfrwt beam="1">  1        2 0.11117604E+00 0.87542567E+03</pdfrwt>
<pdfrwt beam="2">  1       -2 0.40788775E-01 0.87542567E+03</pdfrwt>
<totfact> 0.22468790E+02</totfact>
</mgrwt>
</event>
<event>
 6    1  0.3017327E-006  0.2171381E+04  0.7818608E-02  0.8530435E-01
         -2   -1    0    0    0  501 -0.00000000000E+00  0.00000000000E+00  0.46882957258E+03  0.46882957258E+03  0.00000000000E+00 0.  1.
          2   -1    0    0  501    0  0.00000000000E+00 -0.00000000000E+00 -0.25141832763E+04  0.25141832763E+04  0.00000000000E+00 0. -1.
         23    2    1    2    0    0  0.87689708833E+03  0.22152001021E+03 -0.18450233572E+04  0.20566479822E+04  0.87579197353E+02 0.  0.
         13    1    3    3    0    0  0.24358217844E+03  0.87078133315E+02 -0.59878894452E+03  0.65227530923E+03  0.00000000000E+00 0.  1.
        -13    1    3    3    0    0  0.63331490989E+03  0.13444187690E+03 -0.12462344126E+04  0.14043726730E+04  0.00000000000E+00 0. -1.
         22    1    1    2    0    0 -0.87689708833E+03 -0.22152001021E+03 -0.20033034654E+03  0.92636486666E+03  0.00000000000E+00 0.  1.
<mgrwt>
<rscale>  0 0.21713806E+04</rscale>
<asrwt>0</asrwt>
<pdfrwt beam="1">  1        2 0.38679743E+00 0.21713806E+04</pdfrwt>
<pdfrwt beam="2">  1       -2 0.72127626E-01 0.21713806E+04</pdfrwt>
<totfact> 0.54485385E+00</totfact>
</mgrwt>
</event>
<event>
 6    1  0.3017327E-006  0.3765378E+04  0.7818608E-02  0.8053626E-01
         -2   -1    0    0    0  501 -0.00000000000E+00  0.00000000000E+00  0.11337116730E+04  0.11337116730E+04  0.00000000000E+00 0.  1.
          2   -1    0    0  501    0  0.00000000000E+00 -0.00000000000E+00 -0.31264719262E+04  0.31264719262E+04  0.00000000000E+00 0. -1.
         23    2    1    2    0    0 -0.15112561427E+04 -0.17376051831E+03  0.25557982284E+03  0.15455711142E+04  0.96856475065E+02 0.  0.
         11    1    3    3    0    0 -0.12908005389E+04 -0.12714424610E+03  0.18998537487E+03  0.13108875365E+04  0.00000000000E+00 0.  1.
        -11    1    3    3    0    0 -0.22045560373E+03 -0.46616272209E+02  0.65594447970E+02  0.23468357773E+03  0.00000000000E+00 0. -1.
         22    1    1    2    0    0  0.15112561427E+04  0.17376051831E+03 -0.22483400761E+04  0.27146124851E+04  0.00000000000E+00 0. -1.
<mgrwt>
<rscale>  0 0.37653779E+04</rscale>
<asrwt>0</asrwt>
<pdfrwt beam="1">  1        2 0.48099567E+00 0.37653779E+04</pdfrwt>
<pdfrwt beam="2">  1       -2 0.17441718E+00 0.37653779E+04</pdfrwt>
<totfact> 0.23059298E-01</totfact>
</mgrwt>
</event>
<event>
 6    1  0.3017327E-006  0.2979663E+04  0.7818608E-02  0.8249562E-01
          2   -1    0    0  501    0  0.00000000000E+00  0.00000000000E+00  0.58959889366E+04  0.58959889366E+04  0.00000000000E+00 0. -1.
         -2   -1    0    0    0  501 -0.00000000000E+00 -0.00000000000E+00 -0.37645884093E+03  0.37645884093E+03  0.00000000000E+00 0.  1.
         23    2    1    2    0    0  0.81153937802E+03  0.19715068131E+03  0.53559481552E+04  0.54214344965E+04  0.91141680304E+02 0.  0.
         13    1    3    3    0    0  0.52433132258E+03  0.17185693392E+03  0.35088610365E+04  0.35519802808E+04  0.00000000000E+00 0. -1.
        -13    1    3    3    0    0  0.28720805544E+03  0.25293747385E+02  0.18470871187E+04  0.18694542157E+04  0.00000000000E+00 0.  1.
         22    1    1    2    0    0 -0.81153937802E+03 -0.19715068131E+03  0.16358194051E+03  0.85101328102E+03  0.00000000000E+00 0.  1.
<mgrwt>
<rscale>  0 0.29796625E+04</rscale>
<asrwt>0</asrwt>
<pdfrwt beam="1">  1        2 0.90707515E+00 0.29796625E+04</pdfrwt>
<pdfrwt beam="2">  1       -2 0.57916749E-01 0.29796625E+04</pdfrwt>
<totfact> 0.17365116E-03</totfact>
</mgrwt>
</event>
<event>
 6    1  0.3017327E-006  0.2503827E+04  0.7818608E-02  0.8401623E-01
         -2   -1    0    0    0  501 -0.00000000000E+00  0.00000000000E+00  0.64746160479E+03  0.64746160479E+03  0.00000000000E+00 0.  1.
          2   -1    0    0  501    0  0.00000000000E+00 -0.00000000000E+00 -0.24206649816E+04  0.24206649816E+04  0.00000000000E+00 0. -1.
         23    2    1    2    0    0  0.98142919713E+03  0.68884508688E+03 -0.13239058170E+04  0.17876660755E+04  0.72887328461E+02 0.  0.
         13    1    3    3    0    0  0.36846188965E+03  0.29184768124E+03 -0.48452444283E+03  0.67505790039E+03  0.00000000000E+00 0. -1.
        -13    1    3    3    0    0  0.61296730748E+03  0.39699740564E+03 -0.83938137412E+03  0.11126081751E+04  0.00000000000E+00 0.  1.
         22    1    1    2    0    0 -0.98142919713E+03 -0.68884508688E+03 -0.44929755988E+03  0.12804605109E+04  0.00000000000E+00 0.  1.
<mgrwt>
<rscale>  0 0.25038272E+04</rscale>
<asrwt>0</asrwt>
<pdfrwt beam="1">  1        2 0.37241000E+00 0.25038272E+04</pdfrwt>
<pdfrwt beam="2">  1       -2 0.99609478E-01 0.25038272E+04</pdfrwt>
<totfact> 0.28749680E+00</totfact>
</mgrwt>
</event>
<event>
 6    1  0.3017327E-006  0.1840207E+04  0.7818608E-02  0.8685205E-01
          2   -1    0    0  501    0  0.00000000000E+00  0.00000000000E+00  0.16130090936E+04  0.16130090936E+04  0.00000000000E+00 0. -1.
         -2   -1    0    0    0  501 -0.00000000000E+00 -0.00000000000E+00 -0.52485143724E+03  0.52485143724E+03  0.00000000000E+00 0.  1.
         23    2    1    2    0    0 -0.57899034236E+03  0.65260012524E+03  0.21426600077E+03  0.90303124478E+03  0.91862777858E+02 0.  0.
         13    1    3    3    0    0 -0.13479868261E+03  0.12319553864E+03  0.12171716969E+02  0.18301905986E+03  0.00000000000E+00 0.  1.
        -13    1    3    3    0    0 -0.44419165975E+03  0.52940458660E+03  0.20209428380E+03  0.72001218493E+03  0.00000000000E+00 0. -1.
         22    1    1    2    0    0  0.57899034236E+03 -0.65260012524E+03  0.87389165558E+03  0.12348292861E+04  0.00000000000E+00 0.  1.
<mgrwt>
<rscale>  0 0.18402067E+04</rscale>
<asrwt>0</asrwt>
<pdfrwt beam="1">  1        2 0.24815524E+00 0.18402067E+04</pdfrwt>
<pdfrwt beam="2">  1       -2 0.80746376E-01 0.18402067E+04</pdfrwt>
<totfact> 0.13969143E+01</totfact>
</mgrwt>
</event>
<event>
 6    1  0.3017327E-006  0.3871101E+04  0.7818608E-02  0.8031067E-01
         -1   -1    0    0    0  501 -0.00000000000E+00  0.00000000000E+00  0.25191528763E+04  0.25191528763E+04  0.00000000000E+00 0.  1.
          1   -1    0    0  501    0  0.00000000000E+00 -0.00000000000E+00 -0.14871493121E+04  0.14871493121E+04  0.00000000000E+00 0. -1.
         23    2    1    2    0    0 -0.41767591053E+02  0.14963416506E+04 -0.75168155034E+03  0.16777156097E+04  0.94454471166E+02 0.  0.
         13    1    3    3    0    0  0.15206091435E+02  0.10009288263E+04 -0.48949429997E+03  0.11143134255E+04  0.00000000000E+00 0. -1.
        -13    1    3    3    0    0 -0.56973682488E+02  0.49541282432E+03 -0.26218725037E+03  0.56340218428E+03  0.00000000000E+00 0.  1.
         22    1    1    2    0    0  0.41767591053E+02 -0.14963416506E+04  0.17836851145E+04  0.23285865787E+04  0.00000000000E+00 0.  1.
<mgrwt>
<rscale>  0 0.38711014E+04</rscale>
<asrwt>0</asrwt>
<pdfrwt beam="1">  1        1 0.22879220E+00 0.38711014E+04</pdfrwt>
<pdfrwt beam="2">  1       -1 0.38756198E+00 0.38711014E+04</pdfrwt>
<totfact> 0.45893855E-02</totfact>
</mgrwt>
</event>
<event>
 6    1  0.3017327E-006  0.9481484E+03  0.7818608E-02  0.9367317E-01
          2   -1    0    0  501    0  0.00000000000E+00  0.00000000000E+00  0.88465280809E+03  0.88465280809E+03  0.00000000000E+00 0. -1.
         -2   -1    0    0    0  501 -0.00000000000E+00 -0.00000000000E+00 -0.25405033392E+03  0.25405033392E+03  0.00000000000E+00 0.  1.
         23    2    1    2    0    0  0.28647488203E+02  0.34673558986E+03  0.69695184074E+03  0.78451606390E+03  0.93152232073E+02 0.  0.
         11    1    3    3    0    0  0.77581547424E+01  0.29101203512E+03  0.49791812919E+03  0.57677608907E+03  0.00000000000E+00 0.  1.
        -11    1    3    3    0    0  0.20889333460E+02  0.55723554743E+02  0.19903371156E+03  0.20773997483E+03  0.00000000000E+00 0. -1.
         22    1    1    2    0    0 -0.28647488203E+02 -0.34673558986E+03 -0.66349366569E+02  0.35418707811E+03  0.00000000000E+00 0.  1.
<mgrwt>
<rscale>  0 0.94814839E+03</rscale>
<asrwt>0</asrwt>
<pdfrwt beam="1">  1        2 0.13610043E+00 0.94814839E+03</pdfrwt>
<pdfrwt beam="2">  1       -2 0.39084667E-01 0.94814839E+03</pdfrwt>
<totfact> 0.18586685E+02</totfact>
</mgrwt>
</event>
<event>
 6    1  0.3017327E-006  0.3144465E+04  0.7818608E-02  0.8203640E-01
         -2   -1    0    0    0  501 -0.00000000000E+00  0.00000000000E+00  0.50237860514E+03  0.50237860514E+03  0.00000000000E+00 0.  1.
          2   -1    0    0  501    0  0.00000000000E+00 -0.00000000000E+00 -0.49204230624E+04  0.49204230624E+04  0.00000000000E+00 0. -1.
         23    2    1    2    0    0 -0.76593996562E+03  0.92496995184E+03 -0.46458815216E+03  0.12909679101E+04  0.92317663765E+02 0.  0.
         13    1    3    3    0    0 -0.18998956926E+03  0.27521189201E+03 -0.98082659984E+02  0.34850800582E+03  0.00000000000E+00 0.  1.
        -13    1    3    3    0    0 -0.57595039637E+03  0.64975805983E+03 -0.36650549217E+03  0.94245990428E+03  0.00000000000E+00 0. -1.
         22    1    1    2    0    0  0.76593996562E+03 -0.92496995184E+03 -0.39534563051E+04  0.41318337574E+04  0.00000000000E+00 0. -1.
<mgrwt>
<rscale>  0 0.31444652E+04</rscale>
<asrwt>0</asrwt>
<pdfrwt beam="1">  1        2 0.75698814E+00 0.31444652E+04</pdfrwt>
<pdfrwt beam="2">  1       -2 0.77289018E-01 0.31444652E+04</pdfrwt>
<totfact> 0.54237311E-02</totfact>
</mgrwt>
</event>
<event>
 6    1  0.3017327E-006  0.2455985E+04  0.7818608E-02  0.8418836E-01
          2   -1    0    0  501    0  0.00000000000E+00  0.00000000000E+00  0.17000626023E+04  0.17000626023E+04  0.00000000000E+00 0. -1.
         -2   -1    0    0    0  501 -0.00000000000E+00 -0.00000000000E+00 -0.88700566805E+03  0.88700566805E+03  0.00000000000E+00 0.  1.
         23    2    1    2    0    0  0.11113893352E+04 -0.32406978743E+03  0.83308088140E+03  0.14292218039E+04  0.91889761992E+02 0.  0.
         11    1    3    3    0    0  0.23873022949E+03 -0.65439380751E+02  0.22577359314E+03  0.33503455103E+03  0.00000000000E+00 0. -1.
        -11    1    3    3    0    0  0.87265910567E+03 -0.25863040668E+03  0.60730728826E+03  0.10941872529E+04  0.00000000000E+00 0.  1.
         22    1    1    2    0    0 -0.11113893352E+04  0.32406978743E+03 -0.20023947142E+02  0.11578464665E+04  0.00000000000E+00 0. -1.
<mgrwt>
<rscale>  0 0.24559847E+04</rscale>
<asrwt>0</asrwt>
<pdfrwt beam="1">  1        2 0.26154809E+00 0.24559847E+04</pdfrwt>
<pdfrwt beam="2">  1       -2 0.13646241E+00 0.24559847E+04</pdfrwt>
<totfact> 0.33691114E+00</totfact>
</mgrwt>
</event>
<event>
 6    1  0.3017327E-006  0.4161728E+04  0.7818608E-02  0.7972693E-01
          2   -1    0    0  501    0  0.00000000000E+00  0.00000000000E+00  0.34199875980E+04  0.34199875980E+04  0.00000000000E+00 0. -1.
         -2   -1    0    0    0  501 -0.00000000000E+00 -0.00000000000E+00 -0.12660848795E+04  0.12660848795E+04  0.00000000000E+00 0.  1.
         23    2    1    2    0    0 -0.11564109836E+04  0.17000056562E+04  0.14308322023E+04  0.25065916757E+04  0.91735727014E+02 0.  0.
         13    1    3    3    0    0 -0.68249325802E+03  0.10086535818E+04  0.90204496388E+03  0.15155408975E+04  0.00000000000E+00 0. -1.
        -13    1    3    3    0    0 -0.47391772558E+03  0.69135207440E+03  0.52878723842E+03  0.99105077817E+03  0.00000000000E+00 0.  1.
         22    1    1    2    0    0  0.11564109836E+04 -0.17000056562E+04  0.72307051619E+03  0.21794808018E+04  0.00000000000E+00 0. -1.
<mgrwt>
<rscale>  0 0.41617278E+04</rscale>
<asrwt>0</asrwt>
<pdfrwt beam="1">  1        2 0.52615193E+00 0.41617278E+04</pdfrwt>
<pdfrwt beam="2">  1       -2 0.19478229E+00 0.41617278E+04</pdfrwt>
<totfact> 0.10341753E-01</totfact>
</mgrwt>
</event>
<event>
 6    1  0.3017327E-006  0.1491726E+04  0.7818608E-02  0.8889974E-01
          2   -1    0    0  501    0  0.00000000000E+00  0.00000000000E+00  0.91489392716E+03  0.91489392716E+03  0.00000000000E+00 0.  1.
         -2   -1    0    0    0  501 -0.00000000000E+00 -0.00000000000E+00 -0.60806092665E+03  0.60806092665E+03  0.00000000000E+00 0. -1.
         23    2    1    2    0    0 -0.33706021461E+03 -0.25105917078E+03 -0.47149766040E+03  0.63839908212E+03  0.92752621416E+02 0.  0.
         13    1    3    3    0    0 -0.21137413041E+03 -0.20893250602E+03 -0.30979612406E+03  0.42930811028E+03  0.00000000000E+00 0. -1.
        -13    1    3    3    0    0 -0.12568608420E+03 -0.42126664768E+02 -0.16170153635E+03  0.20909097184E+03  0.00000000000E+00 0.  1.
         22    1    1    2    0    0  0.33706021461E+03  0.25105917078E+03  0.77833066092E+03  0.88455577169E+03  0.00000000000E+00 0.  1.
<mgrwt>
<rscale>  0 0.14917255E+04</rscale>
<asrwt>0</asrwt>
<pdfrwt beam="1">  1        2 0.14075291E+00 0.14917255E+04</pdfrwt>
<pdfrwt beam="2">  1       -2 0.93547835E-01 0.14917255E+04</pdfrwt>
<totfact> 0.26768121E+01</totfact>
</mgrwt>
</event>
<event>
 6    1  0.3017327E-006  0.3511888E+04  0.7818608E-02  0.8110978E-01
          2   -1    0    0  501    0  0.00000000000E+00  0.00000000000E+00  0.26758527667E+04  0.26758527667E+04  0.00000000000E+00 0. -1.
         -2   -1    0    0    0  501 -0.00000000000E+00 -0.00000000000E+00 -0.11522826988E+04  0.11522826988E+04  0.00000000000E+00 0.  1.
         23    2    1    2    0    0 -0.80644525883E+03  0.10510169893E+04  0.20167400276E+04  0.24145558687E+04  0.88594789596E+02 0.  0.
         11    1    3    3    0    0 -0.59444865302E+03  0.75216177855E+03  0.13896945411E+04  0.16883031303E+04  0.00000000000E+00 0. -1.
        -11    1    3    3    0    0 -0.21199660580E+03  0.29885521074E+03  0.62704548653E+03  0.72625273840E+03  0.00000000000E+00 0.  1.
         22    1    1    2    0    0  0.80644525883E+03 -0.10510169893E+04 -0.49316995971E+03  0.14135795968E+04  0.00000000000E+00 0.  1.
<mgrwt>
<rscale>  0 0.35118877E+04</rscale>
<asrwt>0</asrwt>
<pdfrwt beam="1">  1        2 0.41166966E+00 0.35118877E+04</pdfrwt>
<pdfrwt beam="2">  1       -2 0.17727426E+00 0.35118877E+04</pdfrwt>
<totfact> 0.42667020E-01</totfact>
</mgrwt>
</event>
<event>
 6    1  0.3017327E-006  0.1756391E+04  0.7818608E-02  0.8729840E-01
          2   -1    0    0  501    0  0.00000000000E+00  0.00000000000E+00  0.83140048294E+03  0.83140048294E+03  0.00000000000E+00 0.  1.
         -2   -1    0    0    0  501 -0.00000000000E+00 -0.00000000000E+00 -0.92762405157E+03  0.92762405157E+03  0.00000000000E+00 0. -1.
         23    2    1    2    0    0 -0.54572838843E+03 -0.53439099334E+03 -0.47775191288E+03  0.90523469786E+03  0.88372847987E+02 0.  0.
         13    1    3    3    0    0 -0.12758936646E+03 -0.10505584084E+03 -0.65263172649E+02  0.17769371917E+03  0.00000000000E+00 0.  1.
        -13    1    3    3    0    0 -0.41813902197E+03 -0.42933515250E+03 -0.41248874023E+03  0.72754097870E+03  0.00000000000E+00 0. -1.
         22    1    1    2    0    0  0.54572838843E+03  0.53439099334E+03  0.38152834424E+03  0.85378983665E+03  0.00000000000E+00 0.  1.
<mgrwt>
<rscale>  0 0.17563907E+04</rscale>
<asrwt>0</asrwt>
<pdfrwt beam="1">  1        2 0.12790777E+00 0.17563907E+04</pdfrwt>
<pdfrwt beam="2">  1       -2 0.14271139E+00 0.17563907E+04</pdfrwt>
<totfact> 0.10583129E+01</totfact>
</mgrwt>
</event>
<event>
 6    1  0.3463827E-006  0.3138759E+04  0.7818608E-02  0.8205181E-01
         -2   -1    0    0    0  501 -0.00000000000E+00  0.00000000000E+00  0.14774029996E+04  0.14774029996E+04  0.00000000000E+00 0.  1.
          2   -1    0    0  501    0  0.00000000000E+00 -0.00000000000E+00 -0.16670819544E+04  0.16670819544E+04  0.00000000000E+00 0. -1.
         23    2    1    2    0    0  0.40195767506E+03 -0.65846837907E+02 -0.16119488669E+04  0.16650399631E+04  0.89850713099E+02 0.  0.
         13    1    3    3    0    0  0.12419646928E+03 -0.59921150634E+02 -0.60040569088E+03  0.61603758077E+03  0.00000000000E+00 0.  1.
        -13    1    3    3    0    0  0.27776120579E+03 -0.59256872734E+01 -0.10115431760E+04  0.10490023823E+04  0.00000000000E+00 0. -1.
         22    1    1    2    0    0 -0.40195767506E+03  0.65846837907E+02  0.14222699120E+04  0.14794449909E+04  0.00000000000E+00 0.  1.
<mgrwt>
<rscale>  0 0.31387589E+04</rscale>
<asrwt>0</asrwt>
<pdfrwt beam="1">  1        2 0.25647415E+00 0.31387589E+04</pdfrwt>
<pdfrwt beam="2">  1       -2 0.22729277E+00 0.31387589E+04</pdfrwt>
<totfact> 0.76977928E-01</totfact>
</mgrwt>
</event>
<event>
 6    1  0.3017327E-006  0.4026704E+04  0.7818608E-02  0.7999181E-01
         -2   -1    0    0    0  501 -0.00000000000E+00  0.00000000000E+00  0.12607397788E+04  0.12607397788E+04  0.00000000000E+00 0.  1.
          2   -1    0    0  501    0  0.00000000000E+00 -0.00000000000E+00 -0.32152448784E+04  0.32152448784E+04  0.00000000000E+00 0. -1.
         23    2    1    2    0    0 -0.83004955125E+03  0.12707958497E+04  0.49074824359E+03  0.15979352723E+04  0.93053461431E+02 0.  0.
         13    1    3    3    0    0 -0.61637198315E+03  0.88053984173E+03  0.37270924043E+03  0.11376190102E+04  0.00000000000E+00 0. -1.
        -13    1    3    3    0    0 -0.21367756810E+03  0.39025600796E+03  0.11803900316E+03  0.46031626207E+03  0.00000000000E+00 0.  1.
         22    1    1    2    0    0  0.83004955125E+03 -0.12707958497E+04 -0.24452533432E+04  0.28780493848E+04  0.00000000000E+00 0. -1.
<mgrwt>
<rscale>  0 0.40267044E+04</rscale>
<asrwt>0</asrwt>
<pdfrwt beam="1">  1        2 0.49465306E+00 0.40267044E+04</pdfrwt>
<pdfrwt beam="2">  1       -2 0.19395997E+00 0.40267044E+04</pdfrwt>
<totfact> 0.14532623E-01</totfact>
</mgrwt>
</event>
<event>
 6    1  0.3017327E-006  0.4419759E+04  0.7818608E-02  0.7924837E-01
         -2   -1    0    0    0  501 -0.00000000000E+00  0.00000000000E+00  0.29369497543E+04  0.29369497543E+04  0.00000000000E+00 0.  1.
          2   -1    0    0  501    0  0.00000000000E+00 -0.00000000000E+00 -0.16628022005E+04  0.16628022005E+04  0.00000000000E+00 0. -1.
         23    2    1    2    0    0 -0.68399745368E+03  0.26342827748E+03 -0.15317517579E+04  0.16996971413E+04  0.73891475744E+02 0.  0.
         13    1    3    3    0    0 -0.71876235959E+02  0.77040749404E+01 -0.12567178554E+03  0.14497911486E+03  0.00000000000E+00 0.  1.
        -13    1    3    3    0    0 -0.61212121772E+03  0.25572420254E+03 -0.14060799724E+04  0.15547180264E+04  0.00000000000E+00 0. -1.
         22    1    1    2    0    0  0.68399745368E+03 -0.26342827748E+03  0.28058993118E+04  0.29000548136E+04  0.00000000000E+00 0.  1.
<mgrwt>
<rscale>  0 0.44197586E+04</rscale>
<asrwt>0</asrwt>
<pdfrwt beam="1">  1        2 0.25581572E+00 0.44197586E+04</pdfrwt>
<pdfrwt beam="2">  1       -2 0.45183842E+00 0.44197586E+04</pdfrwt>
<totfact> 0.26507157E-02</totfact>
</mgrwt>
</event>
<event>
 6    1  0.3017327E-006  0.2310592E+04  0.7818608E-02  0.8473756E-01
          2   -1    0    0  501    0  0.00000000000E+00  0.00000000000E+00  0.15674649324E+04  0.15674649324E+04  0.00000000000E+00 0. -1.
         -2   -1    0    0    0  501 -0.00000000000E+00 -0.00000000000E+00 -0.85150830952E+03  0.85150830952E+03  0.00000000000E+00 0.  1.
         23    2    1    2    0    0 -0.84539201145E+03  0.76881066653E+03  0.19555073178E+03  0.11633539583E+04  0.96927032115E+02 0.  0.
         11    1    3    3    0    0 -0.66434020911E+03  0.58011605125E+03  0.11333590964E+03  0.88922864032E+03  0.00000000000E+00 0.  1.
        -11    1    3    3    0    0 -0.18105180235E+03  0.18869461528E+03  0.82214822135E+02  0.27412531796E+03  0.00000000000E+00 0. -1.
         22    1    1    2    0    0  0.84539201145E+03 -0.76881066653E+03  0.52040589114E+03  0.12556192837E+04  0.00000000000E+00 0. -1.
<mgrwt>
<rscale>  0 0.23105925E+04</rscale>
<asrwt>0</asrwt>
<pdfrwt beam="1">  1        2 0.24114845E+00 0.23105925E+04</pdfrwt>
<pdfrwt beam="2">  1       -2 0.13100128E+00 0.23105925E+04</pdfrwt>
<totfact> 0.44879572E+00</totfact>
</mgrwt>
</event>
<event>
 6    1  0.3017327E-006  0.3567083E+04  0.7818608E-02  0.8098073E-01
          2   -1    0    0  501    0  0.00000000000E+00  0.00000000000E+00  0.22998375523E+04  0.22998375523E+04  0.00000000000E+00 0. -1.
         -2   -1    0    0    0  501 -0.00000000000E+00 -0.00000000000E+00 -0.13831503412E+04  0.13831503412E+04  0.00000000000E+00 0.  1.
         23    2    1    2    0    0 -0.16784829310E+04 -0.44181534990E+03  0.87687609372E+03  0.19468742227E+04  0.94349362470E+02 0.  0.
         11    1    3    3    0    0 -0.12032307053E+04 -0.35950607110E+03  0.64298241040E+03  0.14108278157E+04  0.00000000000E+00 0.  1.
        -11    1    3    3    0    0 -0.47525222566E+03 -0.82309278797E+02  0.23389368332E+03  0.53604640701E+03  0.00000000000E+00 0. -1.
         22    1    1    2    0    0  0.16784829310E+04  0.44181534990E+03  0.39811117294E+02  0.17361136708E+04  0.00000000000E+00 0. -1.
<mgrwt>
<rscale>  0 0.35670835E+04</rscale>
<asrwt>0</asrwt>
<pdfrwt beam="1">  1        2 0.35382116E+00 0.35670835E+04</pdfrwt>
<pdfrwt beam="2">  1       -2 0.21279236E+00 0.35670835E+04</pdfrwt>
<totfact> 0.40715791E-01</totfact>
</mgrwt>
</event>
<event>
 6    1  0.3017327E-006  0.3882161E+04  0.7818608E-02  0.8028750E-01
         -2   -1    0    0    0  501 -0.00000000000E+00  0.00000000000E+00  0.19710807517E+04  0.19710807517E+04  0.00000000000E+00 0.  1.
          2   -1    0    0  501    0  0.00000000000E+00 -0.00000000000E+00 -0.19115367789E+04  0.19115367789E+04  0.00000000000E+00 0. -1.
         23    2    1    2    0    0  0.10184408176E+04  0.67053037239E+03  0.15388806682E+04  0.19655182276E+04  0.90969846282E+02 0.  0.
         11    1    3    3    0    0  0.82228636753E+03  0.50591240729E+03  0.11797225979E+04  0.15244171483E+04  0.00000000000E+00 0. -1.
        -11    1    3    3    0    0  0.19615445011E+03  0.16461796510E+03  0.35915807026E+03  0.44110107931E+03  0.00000000000E+00 0.  1.
         22    1    1    2    0    0 -0.10184408176E+04 -0.67053037239E+03 -0.14793366953E+04  0.19170993030E+04  0.00000000000E+00 0. -1.
<mgrwt>
<rscale>  0 0.38821609E+04</rscale>
<asrwt>0</asrwt>
<pdfrwt beam="1">  1        2 0.29408258E+00 0.38821609E+04</pdfrwt>
<pdfrwt beam="2">  1       -2 0.30324319E+00 0.38821609E+04</pdfrwt>
<totfact> 0.18093046E-01</totfact>
</mgrwt>
</event>
<event>
 6    1  0.3017327E-006  0.5033066E+03  0.7818608E-02  0.1012919E+00
         -3   -1    0    0    0  501 -0.00000000000E+00  0.00000000000E+00  0.11091487448E+04  0.11091487448E+04  0.00000000000E+00 0.  1.
          3   -1    0    0  501    0  0.00000000000E+00 -0.00000000000E+00 -0.57097284169E+02  0.57097284169E+02  0.00000000000E+00 0. -1.
         23    2    1    2    0    0 -0.30238156780E+02  0.24173921428E+03  0.50917638388E+03  0.57121196036E+03  0.87580362585E+02 0.  0.
         11    1    3    3    0    0 -0.31586798006E+02  0.48975924663E+02  0.18594343020E+03  0.19486232638E+03  0.00000000000E+00 0.  1.
        -11    1    3    3    0    0  0.13486412261E+01  0.19276328962E+03  0.32323295368E+03  0.37634963399E+03  0.00000000000E+00 0. -1.
         22    1    1    2    0    0  0.30238156780E+02 -0.24173921428E+03  0.54287507674E+03  0.59503406860E+03  0.00000000000E+00 0. -1.
<mgrwt>
<rscale>  0 0.50330659E+03</rscale>
<asrwt>0</asrwt>
<pdfrwt beam="1">  1        3 0.87841984E-02 0.50330659E+03</pdfrwt>
<pdfrwt beam="2">  1       -3 0.17063825E+00 0.50330659E+03</pdfrwt>
<totfact> 0.57816358E+01</totfact>
</mgrwt>
</event>
<event>
 6    1  0.3017327E-006  0.3700670E+04  0.7818608E-02  0.8067813E-01
         -2   -1    0    0    0  501 -0.00000000000E+00  0.00000000000E+00  0.28875532377E+04  0.28875532377E+04  0.00000000000E+00 0. -1.
          2   -1    0    0  501    0  0.00000000000E+00 -0.00000000000E+00 -0.11856885184E+04  0.11856885184E+04  0.00000000000E+00 0.  1.
         23    2    1    2    0    0 -0.94535409867E+03 -0.68847466496E+03 -0.72520164590E+03  0.13791105646E+04  0.91306002158E+02 0.  0.
         11    1    3    3    0    0 -0.54727071066E+03 -0.43000187641E+03 -0.38746522919E+03  0.79657777291E+03  0.00000000000E+00 0. -1.
        -11    1    3    3    0    0 -0.39808338801E+03 -0.25847278855E+03 -0.33773641671E+03  0.58253279170E+03  0.00000000000E+00 0.  1.
         22    1    1    2    0    0  0.94535409867E+03  0.68847466496E+03  0.24270663651E+04  0.26941311915E+04  0.00000000000E+00 0. -1.
<mgrwt>
<rscale>  0 0.37006695E+04</rscale>
<asrwt>0</asrwt>
<pdfrwt beam="1">  1        2 0.18241362E+00 0.37006695E+04</pdfrwt>
<pdfrwt beam="2">  1       -2 0.44423896E+00 0.37006695E+04</pdfrwt>
<totfact> 0.59131052E-02</totfact>
</mgrwt>
</event>
<event>
 6    1  0.4094566E-006  0.2635128E+04  0.7818608E-02  0.8356366E-01
          2   -1    0    0  501    0  0.00000000000E+00  0.00000000000E+00  0.15396435617E+04  0.15396435617E+04  0.00000000000E+00 0. -1.
         -2   -1    0    0    0  501 -0.00000000000E+00 -0.00000000000E+00 -0.11275176931E+04  0.11275176931E+04  0.00000000000E+00 0.  1.
         23    2    1    2    0    0 -0.10185215727E+04  0.36268122392E+03  0.96665893384E+03  0.14520765727E+04  0.71923670678E+02 0.  0.
         13    1    3    3    0    0 -0.41134473264E+03  0.17594329130E+03  0.37013922827E+03  0.58065788475E+03  0.00000000000E+00 0. -1.
        -13    1    3    3    0    0 -0.60717684005E+03  0.18673793262E+03  0.59651970557E+03  0.87141868795E+03  0.00000000000E+00 0.  1.
         22    1    1    2    0    0  0.10185215727E+04 -0.36268122392E+03 -0.55453306528E+03  0.12150846821E+04  0.00000000000E+00 0.  1.
<mgrwt>
<rscale>  0 0.26351284E+04</rscale>
<asrwt>0</asrwt>
<pdfrwt beam="1">  1        2 0.23686824E+00 0.26351284E+04</pdfrwt>
<pdfrwt beam="2">  1       -2 0.17346426E+00 0.26351284E+04</pdfrwt>
<totfact> 0.21423974E+00</totfact>
</mgrwt>
</event>
<event>
 6    1  0.3017327E-006  0.2733268E+04  0.7818608E-02  0.8324291E-01
          2   -1    0    0  501    0  0.00000000000E+00  0.00000000000E+00  0.28219947308E+04  0.28219947308E+04  0.00000000000E+00 0. -1.
         -2   -1    0    0    0  501 -0.00000000000E+00 -0.00000000000E+00 -0.66183295495E+03  0.66183295495E+03  0.00000000000E+00 0.  1.
         23    2    1    2    0    0 -0.67286831360E+03  0.11457454955E+03  0.25881600956E+04  0.26781840570E+04  0.90653559711E+02 0.  0.
         11    1    3    3    0    0 -0.30053869930E+03  0.70055307294E+01  0.11743060132E+04  0.12121745748E+04  0.00000000000E+00 0. -1.
        -11    1    3    3    0    0 -0.37232961430E+03  0.10756901882E+03  0.14138540824E+04  0.14660094821E+04  0.00000000000E+00 0.  1.
         22    1    1    2    0    0  0.67286831360E+03 -0.11457454955E+03 -0.42799831975E+03  0.80564362875E+03  0.00000000000E+00 0.  1.
<mgrwt>
<rscale>  0 0.27332685E+04</rscale>
<asrwt>0</asrwt>
<pdfrwt beam="1">  1        2 0.43415303E+00 0.27332685E+04</pdfrwt>
<pdfrwt beam="2">  1       -2 0.10182046E+00 0.27332685E+04</pdfrwt>
<totfact> 0.15518949E+00</totfact>
</mgrwt>
</event>
<event>
 6    1  0.3017327E-006  0.6932136E+03  0.7818608E-02  0.9728909E-01
         -2   -1    0    0    0  501 -0.00000000000E+00  0.00000000000E+00  0.24754680571E+03  0.24754680571E+03  0.00000000000E+00 0. -1.
          2   -1    0    0  501    0  0.00000000000E+00 -0.00000000000E+00 -0.48530725942E+03  0.48530725942E+03  0.00000000000E+00 0.  1.
         23    2    1    2    0    0 -0.53655494966E+02  0.15682212228E+03  0.19351075022E+03  0.27082923732E+03  0.91814896184E+02 0.  0.
         13    1    3    3    0    0  0.78808769297E+01  0.11175464225E+03  0.12966777605E+03  0.17136201572E+03  0.00000000000E+00 0.  1.
        -13    1    3    3    0    0 -0.61536371895E+02  0.45067480027E+02  0.63842974164E+02  0.99467221597E+02  0.00000000000E+00 0. -1.
         22    1    1    2    0    0  0.53655494966E+02 -0.15682212228E+03 -0.43127120393E+03  0.46202482781E+03  0.00000000000E+00 0.  1.
<mgrwt>
<rscale>  0 0.69321357E+03</rscale>
<asrwt>0</asrwt>
<pdfrwt beam="1">  1        2 0.74662655E-01 0.69321357E+03</pdfrwt>
<pdfrwt beam="2">  1       -2 0.38084124E-01 0.69321357E+03</pdfrwt>
<totfact> 0.41814580E+02</totfact>
</mgrwt>
</event>
<event>
 6    1  0.3017327E-006  0.2484091E+04  0.7818608E-02  0.8408675E-01
          2   -1    0    0  501    0  0.00000000000E+00  0.00000000000E+00  0.13995585476E+04  0.13995585476E+04  0.00000000000E+00 0. -1.
         -2   -1    0    0    0  501 -0.00000000000E+00 -0.00000000000E+00 -0.11022597103E+04  0.11022597103E+04  0.00000000000E+00 0.  1.
         23    2    1    2    0    0 -0.68971477202E+02  0.11640979114E+04  0.57454545468E+03  0.13031745665E+04  0.90997028163E+02 0.  0.
         13    1    3    3    0    0 -0.27273062865E+01  0.36220483892E+03  0.13684052494E+03  0.38720164360E+03  0.00000000000E+00 0.  1.
        -13    1    3    3    0    0 -0.66244170916E+02  0.80189307250E+03  0.43770492974E+03  0.91597292287E+03  0.00000000000E+00 0. -1.
         22    1    1    2    0    0  0.68971477202E+02 -0.11640979114E+04 -0.27724661738E+03  0.11986436914E+04  0.00000000000E+00 0. -1.
<mgrwt>
<rscale>  0 0.24840910E+04</rscale>
<asrwt>0</asrwt>
<pdfrwt beam="1">  1        2 0.21531670E+00 0.24840910E+04</pdfrwt>
<pdfrwt beam="2">  1       -2 0.16957842E+00 0.24840910E+04</pdfrwt>
<totfact> 0.27753990E+00</totfact>
</mgrwt>
</event>
<event>
 6    1  0.3017327E-006  0.5773932E+03  0.7818608E-02  0.9953451E-01
         -2   -1    0    0    0  501 -0.00000000000E+00  0.00000000000E+00  0.28462325955E+03  0.28462325955E+03  0.00000000000E+00 0.  1.
          2   -1    0    0  501    0  0.00000000000E+00 -0.00000000000E+00 -0.29282823543E+03  0.29282823543E+03  0.00000000000E+00 0. -1.
         23    2    1    2    0    0  0.14749329878E+03  0.15047375218E+03 -0.19079834850E+03  0.29863800354E+03  0.91564316688E+02 0.  0.
         11    1    3    3    0    0  0.24850991873E+02  0.81414667407E+02 -0.99163625205E+02  0.13068796589E+03  0.00000000000E+00 0. -1.
        -11    1    3    3    0    0  0.12264230690E+03  0.69059084769E+02 -0.91634723297E+02  0.16795003765E+03  0.00000000000E+00 0.  1.
         22    1    1    2    0    0 -0.14749329878E+03 -0.15047375218E+03  0.18259337263E+03  0.27881349143E+03  0.00000000000E+00 0.  1.
<mgrwt>
<rscale>  0 0.57739320E+03</rscale>
<asrwt>0</asrwt>
<pdfrwt beam="1">  1        2 0.45050497E-01 0.57739320E+03</pdfrwt>
<pdfrwt beam="2">  1       -2 0.43788194E-01 0.57739320E+03</pdfrwt>
<totfact> 0.56207574E+02</totfact>
</mgrwt>
</event>
<event>
 6    1  0.3017327E-006  0.1659691E+04  0.7818608E-02  0.8784694E-01
         -2   -1    0    0    0  501 -0.00000000000E+00  0.00000000000E+00  0.38928840287E+03  0.38928840287E+03  0.00000000000E+00 0.  1.
          2   -1    0    0  501    0  0.00000000000E+00 -0.00000000000E+00 -0.17689806920E+04  0.17689806920E+04  0.00000000000E+00 0. -1.
         23    2    1    2    0    0  0.26945249217E+03 -0.36611160228E+03 -0.15908729422E+04  0.16570310086E+04  0.90734194926E+02 0.  0.
         13    1    3    3    0    0  0.43571713451E+02 -0.11769000637E+03 -0.50968796192E+03  0.52491070701E+03  0.00000000000E+00 0. -1.
        -13    1    3    3    0    0  0.22588077872E+03 -0.24842159591E+03 -0.10811849803E+04  0.11321203015E+04  0.00000000000E+00 0.  1.
         22    1    1    2    0    0 -0.26945249217E+03  0.36611160228E+03  0.21118065315E+03  0.50123808627E+03  0.00000000000E+00 0.  1.
<mgrwt>
<rscale>  0 0.16596911E+04</rscale>
<asrwt>0</asrwt>
<pdfrwt beam="1">  1        2 0.27215087E+00 0.16596911E+04</pdfrwt>
<pdfrwt beam="2">  1       -2 0.59890525E-01 0.16596911E+04</pdfrwt>
<totfact> 0.22279191E+01</totfact>
</mgrwt>
</event>
<event>
 6    1  0.3017327E-006  0.2543225E+04  0.7818608E-02  0.8387746E-01
         -1   -1    0    0    0  501 -0.00000000000E+00  0.00000000000E+00  0.54421343915E+03  0.54421343915E+03  0.00000000000E+00 0. -1.
          1   -1    0    0  501    0  0.00000000000E+00 -0.00000000000E+00 -0.29712583880E+04  0.29712583880E+04  0.00000000000E+00 0.  1.
         23    2    1    2    0    0  0.19608738852E+03  0.66194596546E+03 -0.26884396163E+04  0.27772646087E+04  0.94172241655E+02 0.  0.
         13    1    3    3    0    0  0.17443387325E+03  0.57056962097E+03 -0.24336833728E+04  0.25057517091E+04  0.00000000000E+00 0.  1.
        -13    1    3    3    0    0  0.21653515263E+02  0.91376344496E+02 -0.25475624351E+03  0.27151289963E+03  0.00000000000E+00 0. -1.
         22    1    1    2    0    0 -0.19608738852E+03 -0.66194596546E+03  0.26139466749E+03  0.73820721842E+03  0.00000000000E+00 0. -1.
<mgrwt>
<rscale>  0 0.25432253E+04</rscale>
<asrwt>0</asrwt>
<pdfrwt beam="1">  1        1 0.45711667E+00 0.25432253E+04</pdfrwt>
<pdfrwt beam="2">  1       -1 0.83725145E-01 0.25432253E+04</pdfrwt>
<totfact> 0.78530586E-01</totfact>
</mgrwt>
</event>
<event>
 6    1  0.3017327E-006  0.1992262E+04  0.7818608E-02  0.8610247E-01
         -2   -1    0    0    0  501 -0.00000000000E+00  0.00000000000E+00  0.78510296863E+03  0.78510296863E+03  0.00000000000E+00 0.  1.
          2   -1    0    0  501    0  0.00000000000E+00 -0.00000000000E+00 -0.12638814840E+04  0.12638814840E+04  0.00000000000E+00 0. -1.
         23    2    1    2    0    0  0.22424493253E+03  0.59570151022E+03 -0.10250885818E+04  0.12101753160E+04  0.92583020973E+02 0.  0.
         13    1    3    3    0    0  0.16638009473E+03  0.48023784455E+03 -0.74631623030E+03  0.90293888988E+03  0.00000000000E+00 0.  1.
        -13    1    3    3    0    0  0.57864837798E+02  0.11546366567E+03 -0.27877235152E+03  0.30723642609E+03  0.00000000000E+00 0. -1.
         22    1    1    2    0    0 -0.22424493253E+03 -0.59570151022E+03  0.54631006645E+03  0.83880913666E+03  0.00000000000E+00 0.  1.
<mgrwt>
<rscale>  0 0.19922621E+04</rscale>
<asrwt>0</asrwt>
<pdfrwt beam="1">  1        2 0.19444330E+00 0.19922621E+04</pdfrwt>
<pdfrwt beam="2">  1       -2 0.12078507E+00 0.19922621E+04</pdfrwt>
<totfact> 0.84318077E+00</totfact>
</mgrwt>
</event>
<event>
 6    1  0.3017327E-006  0.3584825E+04  0.7818608E-02  0.8093976E-01
          2   -1    0    0  501    0  0.00000000000E+00  0.00000000000E+00  0.24495587993E+04  0.24495587993E+04  0.00000000000E+00 0.  1.
         -2   -1    0    0    0  501 -0.00000000000E+00 -0.00000000000E+00 -0.13115599797E+04  0.13115599797E+04  0.00000000000E+00 0. -1.
         23    2    1    2    0    0  0.13893625769E+04  0.99930557571E+03  0.11247774599E+04  0.20496530890E+04  0.83746327712E+02 0.  0.
         13    1    3    3    0    0  0.68253799465E+03  0.45514006712E+03  0.50286587456E+03  0.96222901777E+03  0.00000000000E+00 0. -1.
        -13    1    3    3    0    0  0.70682458221E+03  0.54416550859E+03  0.62191158537E+03  0.10874240713E+04  0.00000000000E+00 0.  1.
         22    1    1    2    0    0 -0.13893625769E+04 -0.99930557571E+03  0.13221359595E+02  0.17114656900E+04  0.00000000000E+00 0. -1.
<mgrwt>
<rscale>  0 0.35848254E+04</rscale>
<asrwt>0</asrwt>
<pdfrwt beam="1">  1        2 0.37685520E+00 0.35848254E+04</pdfrwt>
<pdfrwt beam="2">  1       -2 0.20177846E+00 0.35848254E+04</pdfrwt>
<totfact> 0.39333770E-01</totfact>
</mgrwt>
</event>
<event>
 6    1  0.3017327E-006  0.3364862E+04  0.7818608E-02  0.8146585E-01
         -2   -1    0    0    0  501 -0.00000000000E+00  0.00000000000E+00  0.13974933469E+04  0.13974933469E+04  0.00000000000E+00 0. -1.
          2   -1    0    0  501    0  0.00000000000E+00 -0.00000000000E+00 -0.20254650039E+04  0.20254650039E+04  0.00000000000E+00 0.  1.
         23    2    1    2    0    0  0.10957350341E+03  0.16762581648E+04 -0.38829909368E+03  0.17261110609E+04  0.82676603882E+02 0.  0.
         11    1    3    3    0    0  0.45180961368E+02  0.30748763584E+03 -0.51291327757E+02  0.31499327892E+03  0.00000000000E+00 0.  1.
        -11    1    3    3    0    0  0.64392542037E+02  0.13687705289E+04 -0.33700776592E+03  0.14111177820E+04  0.00000000000E+00 0. -1.
         22    1    1    2    0    0 -0.10957350341E+03 -0.16762581648E+04 -0.23967256332E+03  0.16968472899E+04  0.00000000000E+00 0. -1.
<mgrwt>
<rscale>  0 0.33648619E+04</rscale>
<asrwt>0</asrwt>
<pdfrwt beam="1">  1        2 0.31161000E+00 0.33648619E+04</pdfrwt>
<pdfrwt beam="2">  1       -2 0.21499898E+00 0.33648619E+04</pdfrwt>
<totfact> 0.57141663E-01</totfact>
</mgrwt>
</event>
<event>
 6    1  0.3017327E-006  0.1964578E+04  0.7818608E-02  0.8623363E-01
         -2   -1    0    0    0  501 -0.00000000000E+00  0.00000000000E+00  0.56658251215E+03  0.56658251215E+03  0.00000000000E+00 0.  1.
          2   -1    0    0  501    0  0.00000000000E+00 -0.00000000000E+00 -0.17030035377E+04  0.17030035377E+04  0.00000000000E+00 0. -1.
         23    2    1    2    0    0  0.16508447630E+03 -0.46743344072E+03 -0.15463102629E+04  0.16263472973E+04  0.90461021467E+02 0.  0.
         13    1    3    3    0    0  0.88201957634E+02 -0.36223504833E+03 -0.11045698169E+04  0.11657908457E+04  0.00000000000E+00 0. -1.
        -13    1    3    3    0    0  0.76882518665E+02 -0.10519839239E+03 -0.44174044601E+03  0.46055645156E+03  0.00000000000E+00 0.  1.
         22    1    1    2    0    0 -0.16508447630E+03  0.46743344072E+03  0.40988923739E+03  0.64323875252E+03  0.00000000000E+00 0.  1.
<mgrwt>
<rscale>  0 0.19645783E+04</rscale>
<asrwt>0</asrwt>
<pdfrwt beam="1">  1        2 0.26200054E+00 0.19645783E+04</pdfrwt>
<pdfrwt beam="2">  1       -2 0.87166541E-01 0.19645783E+04</pdfrwt>
<totfact> 0.10353817E+01</totfact>
</mgrwt>
</event>
<event>
 6    1  0.3017327E-006  0.4204298E+04  0.7818608E-02  0.7964555E-01
         -1   -1    0    0    0  501 -0.00000000000E+00  0.00000000000E+00  0.12090154606E+04  0.12090154606E+04  0.00000000000E+00 0.  1.
          1   -1    0    0  501    0  0.00000000000E+00 -0.00000000000E+00 -0.36550645263E+04  0.36550645263E+04  0.00000000000E+00 0. -1.
         23    2    1    2    0    0 -0.47670259088E+03 -0.90261485958E+03  0.90120718668E+03  0.13646395511E+04  0.90043134900E+02 0.  0.
         11    1    3    3    0    0 -0.36467517384E+03 -0.74668703678E+03  0.76224329843E+03  0.11276277574E+04  0.00000000000E+00 0. -1.
        -11    1    3    3    0    0 -0.11202741704E+03 -0.15592782280E+03  0.13896388826E+03  0.23701179365E+03  0.00000000000E+00 0.  1.
         22    1    1    2    0    0  0.47670259088E+03  0.90261485958E+03 -0.33472562524E+04  0.34994404358E+04  0.00000000000E+00 0. -1.
<mgrwt>
<rscale>  0 0.42042976E+04</rscale>
<asrwt>0</asrwt>
<pdfrwt beam="1">  1        1 0.56231762E+00 0.42042976E+04</pdfrwt>
<pdfrwt beam="2">  1       -1 0.18600238E+00 0.42042976E+04</pdfrwt>
<totfact> 0.27194979E-02</totfact>
</mgrwt>
</event>
<event>
 6    1  0.3017327E-006  0.3109232E+04  0.7818608E-02  0.8213209E-01
         -2   -1    0    0    0  501 -0.00000000000E+00  0.00000000000E+00  0.17038090197E+04  0.17038090197E+04  0.00000000000E+00 0.  1.
          2   -1    0    0  501    0  0.00000000000E+00 -0.00000000000E+00 -0.14184873272E+04  0.14184873272E+04  0.00000000000E+00 0. -1.
         23    2    1    2    0    0 -0.45065913230E+03  0.14088077317E+04 -0.33344592287E+03  0.15189541375E+04  0.90568261888E+02 0.  0.
         13    1    3    3    0    0 -0.34278612106E+03  0.95577668695E+03 -0.25196800174E+03  0.10461831933E+04  0.00000000000E+00 0. -1.
        -13    1    3    3    0    0 -0.10787301125E+03  0.45303104472E+03 -0.81477921125E+02  0.47277094419E+03  0.00000000000E+00 0.  1.
         22    1    1    2    0    0  0.45065913230E+03 -0.14088077317E+04  0.61876761542E+03  0.16033422093E+04  0.00000000000E+00 0.  1.
<mgrwt>
<rscale>  0 0.31092324E+04</rscale>
<asrwt>0</asrwt>
<pdfrwt beam="1">  1        2 0.21822882E+00 0.31092324E+04</pdfrwt>
<pdfrwt beam="2">  1       -2 0.26212446E+00 0.31092324E+04</pdfrwt>
<totfact> 0.64874666E-01</totfact>
</mgrwt>
</event>
<event>
 6    1  0.3017327E-006  0.1631019E+04  0.7818608E-02  0.8801715E-01
          2   -1    0    0  501    0  0.00000000000E+00  0.00000000000E+00  0.17148112232E+04  0.17148112232E+04  0.00000000000E+00 0. -1.
         -2   -1    0    0    0  501 -0.00000000000E+00 -0.00000000000E+00 -0.38783014259E+03  0.38783014259E+03  0.00000000000E+00 0.  1.
         23    2    1    2    0    0 -0.20619666342E+03 -0.45058798614E+03  0.14961942962E+04  0.15790196420E+04  0.95702981204E+02 0.  0.
         11    1    3    3    0    0 -0.79960695239E+02 -0.13445443579E+03  0.60874691511E+03  0.62852566753E+03  0.00000000000E+00 0. -1.
        -11    1    3    3    0    0 -0.12623596818E+03 -0.31613355035E+03  0.88744738106E+03  0.95049397445E+03  0.00000000000E+00 0.  1.
         22    1    1    2    0    0  0.20619666342E+03  0.45058798614E+03 -0.16921321560E+03  0.52362172376E+03  0.00000000000E+00 0.  1.
<mgrwt>
<rscale>  0 0.16310187E+04</rscale>
<asrwt>0</asrwt>
<pdfrwt beam="1">  1        2 0.26381711E+00 0.16310187E+04</pdfrwt>
<pdfrwt beam="2">  1       -2 0.59666177E-01 0.16310187E+04</pdfrwt>
<totfact> 0.24121998E+01</totfact>
</mgrwt>
</event>
<event>
 6    1  0.3017327E-006  0.3669818E+04  0.7818608E-02  0.8074684E-01
         -2   -1    0    0    0  501 -0.00000000000E+00  0.00000000000E+00  0.21954752233E+04  0.21954752233E+04  0.00000000000E+00 0.  1.
          2   -1    0    0  501    0  0.00000000000E+00 -0.00000000000E+00 -0.15335589201E+04  0.15335589201E+04  0.00000000000E+00 0. -1.
         23    2    1    2    0    0  0.35701937396E+03 -0.91666009412E+03  0.19040385004E+04  0.21445480708E+04  0.77429035597E+02 0.  0.
         13    1    3    3    0    0  0.94648689080E+02 -0.16721396618E+03  0.34237479121E+03  0.39260588697E+03  0.00000000000E+00 0. -1.
        -13    1    3    3    0    0  0.26237068488E+03 -0.74944612795E+03  0.15616637092E+04  0.17519421839E+04  0.00000000000E+00 0.  1.
         22    1    1    2    0    0 -0.35701937396E+03  0.91666009412E+03 -0.12421221971E+04  0.15844860726E+04  0.00000000000E+00 0. -1.
<mgrwt>
<rscale>  0 0.36698178E+04</rscale>
<asrwt>0</asrwt>
<pdfrwt beam="1">  1        2 0.23593214E+00 0.36698178E+04</pdfrwt>
<pdfrwt beam="2">  1       -2 0.33776542E+00 0.36698178E+04</pdfrwt>
<totfact> 0.18281715E-01</totfact>
</mgrwt>
</event>
<event>
 6    1  0.3017327E-006  0.5820694E+04  0.7818608E-02  0.7713040E-01
         -2   -1    0    0    0  501 -0.00000000000E+00  0.00000000000E+00  0.44284543762E+04  0.44284543762E+04  0.00000000000E+00 0. -1.
          2   -1    0    0  501    0  0.00000000000E+00 -0.00000000000E+00 -0.19126583005E+04  0.19126583005E+04  0.00000000000E+00 0.  1.
         23    2    1    2    0    0  0.17358564755E+04  0.22727462222E+04  0.18389858641E+04  0.34022957112E+04  0.12318280815E+03 0.  0.
         13    1    3    3    0    0  0.88980829432E+03  0.10856464275E+04  0.94772822352E+03  0.16936870289E+04  0.00000000000E+00 0. -1.
        -13    1    3    3    0    0  0.84604818121E+03  0.11870997947E+04  0.89125764054E+03  0.17086086823E+04  0.00000000000E+00 0.  1.
         22    1    1    2    0    0 -0.17358564755E+04 -0.22727462222E+04  0.67681021171E+03  0.29388169655E+04  0.00000000000E+00 0. -1.
<mgrwt>
<rscale>  0 0.58206941E+04</rscale>
<asrwt>0</asrwt>
<pdfrwt beam="1">  1        2 0.29425512E+00 0.58206941E+04</pdfrwt>
<pdfrwt beam="2">  1       -2 0.68130067E+00 0.58206941E+04</pdfrwt>
<totfact> 0.13708344E-03</totfact>
</mgrwt>
</event>
<event>
 6    1  0.3017327E-006  0.1662109E+04  0.7818608E-02  0.8783275E-01
         -2   -1    0    0    0  501 -0.00000000000E+00  0.00000000000E+00  0.11519635939E+04  0.11519635939E+04  0.00000000000E+00 0.  1.
          2   -1    0    0  501    0  0.00000000000E+00 -0.00000000000E+00 -0.59954294394E+03  0.59954294394E+03  0.00000000000E+00 0. -1.
         23    2    1    2    0    0  0.72543896337E+03  0.26444026767E+03  0.59332715985E+03  0.97829008218E+03  0.93936263076E+02 0.  0.
         13    1    3    3    0    0  0.33223119693E+03  0.15371179553E+03  0.32520902360E+03  0.48965885403E+03  0.00000000000E+00 0. -1.
        -13    1    3    3    0    0  0.39320776644E+03  0.11072847215E+03  0.26811813625E+03  0.48863122815E+03  0.00000000000E+00 0.  1.
         22    1    1    2    0    0 -0.72543896337E+03 -0.26444026767E+03 -0.40906509891E+02  0.77321645566E+03  0.00000000000E+00 0. -1.
<mgrwt>
<rscale>  0 0.16621091E+04</rscale>
<asrwt>0</asrwt>
<pdfrwt beam="1">  1        2 0.92237376E-01 0.16621091E+04</pdfrwt>
<pdfrwt beam="2">  1       -2 0.17722517E+00 0.16621091E+04</pdfrwt>
<totfact> 0.89722716E+00</totfact>
</mgrwt>
</event>
<event>
 6    1  0.3017327E-006  0.3378054E+04  0.7818608E-02  0.8143314E-01
          2   -1    0    0  501    0  0.00000000000E+00  0.00000000000E+00  0.31056637430E+04  0.31056637430E+04  0.00000000000E+00 0. -1.
         -2   -1    0    0    0  501 -0.00000000000E+00 -0.00000000000E+00 -0.91858372103E+03  0.91858372103E+03  0.00000000000E+00 0.  1.
         23    2    1    2    0    0 -0.11123506540E+04  0.89680182243E+03  0.23333930230E+02  0.14313003694E+04  0.80615065622E+02 0.  0.
         13    1    3    3    0    0 -0.91220539313E+03  0.70572479525E+03  0.40695071501E+02  0.11540460367E+04  0.00000000000E+00 0.  1.
        -13    1    3    3    0    0 -0.20014526090E+03  0.19107702718E+03 -0.17361141270E+02  0.27725433271E+03  0.00000000000E+00 0. -1.
         22    1    1    2    0    0  0.11123506540E+04 -0.89680182243E+03  0.21637460918E+04  0.25929470947E+04  0.00000000000E+00 0. -1.
<mgrwt>
<rscale>  0 0.33780540E+04</rscale>
<asrwt>0</asrwt>
<pdfrwt beam="1">  1        2 0.47779442E+00 0.33780540E+04</pdfrwt>
<pdfrwt beam="2">  1       -2 0.14132057E+00 0.33780540E+04</pdfrwt>
<totfact> 0.43370203E-01</totfact>
</mgrwt>
</event>
<event>
 6    1  0.3017327E-006  0.1732938E+04  0.7818608E-02  0.8742799E-01
          2   -1    0    0  501    0  0.00000000000E+00  0.00000000000E+00  0.24671041476E+04  0.24671041476E+04  0.00000000000E+00 0.  1.
         -2   -1    0    0    0  501 -0.00000000000E+00 -0.00000000000E+00 -0.30431158471E+03  0.30431158471E+03  0.00000000000E+00 0. -1.
         23    2    1    2    0    0 -0.58559871032E+03 -0.21773138995E+03  0.20392748225E+04  0.21345566899E+04  0.85776763460E+02 0.  0.
         13    1    3    3    0    0 -0.21740308503E+03 -0.11926952481E+03  0.87731222677E+03  0.91168309416E+03  0.00000000000E+00 0.  1.
        -13    1    3    3    0    0 -0.36819562529E+03 -0.98461865139E+02  0.11619625957E+04  0.12228735957E+04  0.00000000000E+00 0. -1.
         22    1    1    2    0    0  0.58559871032E+03  0.21773138995E+03  0.12351774042E+03  0.63685904241E+03  0.00000000000E+00 0. -1.
<mgrwt>
<rscale>  0 0.17329378E+04</rscale>
<asrwt>0</asrwt>
<pdfrwt beam="1">  1        2 0.37955447E+00 0.17329378E+04</pdfrwt>
<pdfrwt beam="2">  1       -2 0.46817168E-01 0.17329378E+04</pdfrwt>
<totfact> 0.14949719E+01</totfact>
</mgrwt>
</event>
<event>
 6    1  0.3017327E-006  0.3727791E+03  0.7818608E-02  0.1053635E+00
          2   -1    0    0  501    0  0.00000000000E+00  0.00000000000E+00  0.14377559961E+04  0.14377559961E+04  0.00000000000E+00 0. -1.
         -2   -1    0    0    0  501 -0.00000000000E+00 -0.00000000000E+00 -0.24163389758E+02  0.24163389758E+02  0.00000000000E+00 0.  1.
         23    2    1    2    0    0  0.23481317848E+02 -0.10123661621E+03  0.13021779613E+04  0.13095597853E+04  0.92082374243E+02 0.  0.
         13    1    3    3    0    0  0.40526381205E+02 -0.20138333144E+02  0.73123919869E+03  0.73263818201E+03  0.00000000000E+00 0. -1.
        -13    1    3    3    0    0 -0.17045063356E+02 -0.81098283068E+02  0.57093876258E+03  0.57692160327E+03  0.00000000000E+00 0.  1.
         22    1    1    2    0    0 -0.23481317848E+02  0.10123661621E+03  0.11141464503E+03  0.15235960054E+03  0.00000000000E+00 0.  1.
<mgrwt>
<rscale>  0 0.37277907E+03</rscale>
<asrwt>0</asrwt>
<pdfrwt beam="1">  1        2 0.22119316E+00 0.37277907E+03</pdfrwt>
<pdfrwt beam="2">  1       -2 0.37174457E-02 0.37277907E+03</pdfrwt>
<totfact> 0.45372826E+03</totfact>
</mgrwt>
</event>
<event>
 6    1  0.3017327E-006  0.2995125E+04  0.7818608E-02  0.8245124E-01
         -2   -1    0    0    0  501 -0.00000000000E+00  0.00000000000E+00  0.19325074372E+04  0.19325074372E+04  0.00000000000E+00 0.  1.
          2   -1    0    0  501    0  0.00000000000E+00 -0.00000000000E+00 -0.11605095850E+04  0.11605095850E+04  0.00000000000E+00 0. -1.
         23    2    1    2    0    0  0.34699123646E+02  0.51186856686E+03  0.18380092344E+04  0.19099727602E+04  0.80650729434E+02 0.  0.
         11    1    3    3    0    0  0.61160746066E+02  0.34195951033E+03  0.12308755368E+04  0.12789572044E+04  0.00000000000E+00 0.  1.
        -11    1    3    3    0    0 -0.26461622420E+02  0.16990905653E+03  0.60713369756E+03  0.63101555580E+03  0.00000000000E+00 0. -1.
         22    1    1    2    0    0 -0.34699123646E+02 -0.51186856686E+03 -0.10660113822E+04  0.11830442620E+04  0.00000000000E+00 0. -1.
<mgrwt>
<rscale>  0 0.29951250E+04</rscale>
<asrwt>0</asrwt>
<pdfrwt beam="1">  1        2 0.17853994E+00 0.29951250E+04</pdfrwt>
<pdfrwt beam="2">  1       -2 0.29730884E+00 0.29951250E+04</pdfrwt>
<totfact> 0.56555557E-01</totfact>
</mgrwt>
</event>
<event>
 6    1  0.3017327E-006  0.3490606E+04  0.7818608E-02  0.8116020E-01
         -1   -1    0    0    0  501 -0.00000000000E+00  0.00000000000E+00  0.24175785391E+04  0.24175785391E+04  0.00000000000E+00 0.  1.
          1   -1    0    0  501    0  0.00000000000E+00 -0.00000000000E+00 -0.12599726291E+04  0.12599726291E+04  0.00000000000E+00 0. -1.
         23    2    1    2    0    0  0.22244579627E+03 -0.17104384938E+04  0.30668474213E+03  0.17542340318E+04  0.90551277756E+02 0.  0.
         11    1    3    3    0    0  0.19578069737E+03 -0.12714694945E+04  0.20264704879E+03  0.13023173896E+04  0.00000000000E+00 0.  1.
        -11    1    3    3    0    0  0.26665098901E+02 -0.43896899932E+03  0.10403769334E+03  0.45191664221E+03  0.00000000000E+00 0. -1.
         22    1    1    2    0    0 -0.22244579627E+03  0.17104384938E+04  0.85092116782E+03  0.19233171364E+04  0.00000000000E+00 0.  1.
<mgrwt>
<rscale>  0 0.34906061E+04</rscale>
<asrwt>0</asrwt>
<pdfrwt beam="1">  1        1 0.19384194E+00 0.34906061E+04</pdfrwt>
<pdfrwt beam="2">  1       -1 0.37193516E+00 0.34906061E+04</pdfrwt>
<totfact> 0.87452302E-02</totfact>
</mgrwt>
</event>
<event>
 6    1  0.3017327E-006  0.9105009E+03  0.7818608E-02  0.9412549E-01
         -2   -1    0    0    0  501 -0.00000000000E+00  0.00000000000E+00  0.12929237087E+03  0.12929237087E+03  0.00000000000E+00 0.  1.
          2   -1    0    0  501    0  0.00000000000E+00 -0.00000000000E+00 -0.16029791478E+04  0.16029791478E+04  0.00000000000E+00 0. -1.
         23    2    1    2    0    0 -0.24723555228E+03 -0.36848883140E+03 -0.89711716119E+03  0.10047126145E+04  0.87856699870E+02 0.  0.
         13    1    3    3    0    0 -0.18196085048E+03 -0.22826636404E+03 -0.50669846739E+03  0.58477228125E+03  0.00000000000E+00 0.  1.
        -13    1    3    3    0    0 -0.65274701803E+02 -0.14022246736E+03 -0.39041869380E+03  0.41994033328E+03  0.00000000000E+00 0. -1.
         22    1    1    2    0    0  0.24723555228E+03  0.36848883140E+03 -0.57656961569E+03  0.72755890409E+03  0.00000000000E+00 0.  1.
<mgrwt>
<rscale>  0 0.91050090E+03</rscale>
<asrwt>0</asrwt>
<pdfrwt beam="1">  1        2 0.24661219E+00 0.91050090E+03</pdfrwt>
<pdfrwt beam="2">  1       -2 0.19891133E-01 0.91050090E+03</pdfrwt>
<totfact> 0.24047769E+02</totfact>
</mgrwt>
</event>
<event>
 6    1  0.3017327E-006  0.2837726E+04  0.7818608E-02  0.8291651E-01
          2   -1    0    0  501    0  0.00000000000E+00  0.00000000000E+00  0.11221390509E+04  0.11221390509E+04  0.00000000000E+00 0. -1.
         -2   -1    0    0    0  501 -0.00000000000E+00 -0.00000000000E+00 -0.17940484114E+04  0.17940484114E+04  0.00000000000E+00 0.  1.
         23    2    1    2    0    0 -0.10484257435E+04 -0.61778620931E+03  0.41061282275E+03  0.12874730560E+04  0.90153423974E+02 0.  0.
         13    1    3    3    0    0 -0.26844727847E+03 -0.15202935432E+03  0.14566965101E+03  0.34116933203E+03  0.00000000000E+00 0.  1.
        -13    1    3    3    0    0 -0.77997846499E+03 -0.46575685499E+03  0.26494317174E+03  0.94630372401E+03  0.00000000000E+00 0. -1.
         22    1    1    2    0    0  0.10484257435E+04  0.61778620931E+03 -0.10825221832E+04  0.16287144063E+04  0.00000000000E+00 0.  1.
<mgrwt>
<rscale>  0 0.28377257E+04</rscale>
<asrwt>0</asrwt>
<pdfrwt beam="1">  1        2 0.17263678E+00 0.28377257E+04</pdfrwt>
<pdfrwt beam="2">  1       -2 0.27600744E+00 0.28377257E+04</pdfrwt>
<totfact> 0.81576670E-01</totfact>
</mgrwt>
</event>
<event>
 6    1  0.3017327E-006  0.3097749E+04  0.7818608E-02  0.8216356E-01
          2   -1    0    0  501    0  0.00000000000E+00  0.00000000000E+00  0.31774716443E+04  0.31774716443E+04  0.00000000000E+00 0. -1.
         -2   -1    0    0    0  501 -0.00000000000E+00 -0.00000000000E+00 -0.75500674476E+03  0.75500674476E+03  0.00000000000E+00 0.  1.
         23    2    1    2    0    0 -0.86769650209E+02  0.79009408843E+03 -0.47279012314E+03  0.93009945110E+03  0.98877943081E+02 0.  0.
         11    1    3    3    0    0 -0.47100265353E+02  0.70991412093E+03 -0.42287442414E+03  0.82765891083E+03  0.00000000000E+00 0.  1.
        -11    1    3    3    0    0 -0.39669384856E+02  0.80179967502E+02 -0.49915698994E+02  0.10244054026E+03  0.00000000000E+00 0. -1.
         22    1    1    2    0    0  0.86769650209E+02 -0.79009408843E+03  0.28952550226E+04  0.30023789379E+04  0.00000000000E+00 0. -1.
<mgrwt>
<rscale>  0 0.30977492E+04</rscale>
<asrwt>0</asrwt>
<pdfrwt beam="1">  1        2 0.48884178E+00 0.30977492E+04</pdfrwt>
<pdfrwt beam="2">  1       -2 0.11615489E+00 0.30977492E+04</pdfrwt>
<totfact> 0.65487452E-01</totfact>
</mgrwt>
</event>
<event>
 6    1  0.3017327E-006  0.1717215E+04  0.7818608E-02  0.8751607E-01
          2   -1    0    0  501    0  0.00000000000E+00  0.00000000000E+00  0.22900840085E+04  0.22900840085E+04  0.00000000000E+00 0. -1.
         -2   -1    0    0    0  501 -0.00000000000E+00 -0.00000000000E+00 -0.32191254357E+03  0.32191254357E+03  0.00000000000E+00 0.  1.
         23    2    1    2    0    0 -0.31990950568E+03 -0.40439742912E+03  0.20265018406E+04  0.20930728533E+04  0.91459754755E+02 0.  0.
         13    1    3    3    0    0 -0.13780230949E+03 -0.18537896204E+03  0.10902996567E+04  0.11144990702E+04  0.00000000000E+00 0.  1.
        -13    1    3    3    0    0 -0.18210719618E+03 -0.21901846708E+03  0.93620218381E+03  0.97857378301E+03  0.00000000000E+00 0. -1.
         22    1    1    2    0    0  0.31990950568E+03  0.40439742912E+03 -0.58330375609E+02  0.51892369884E+03  0.00000000000E+00 0.  1.
<mgrwt>
<rscale>  0 0.17172149E+04</rscale>
<asrwt>0</asrwt>
<pdfrwt beam="1">  1        2 0.35232061E+00 0.17172149E+04</pdfrwt>
<pdfrwt beam="2">  1       -2 0.49525008E-01 0.17172149E+04</pdfrwt>
<totfact> 0.16853084E+01</totfact>
</mgrwt>
</event>
<event>
 6    1  0.3017327E-006  0.2414433E+04  0.7818608E-02  0.8434120E-01
         -2   -1    0    0    0  501 -0.00000000000E+00  0.00000000000E+00  0.44556839568E+03  0.44556839568E+03  0.00000000000E+00 0.  1.
          2   -1    0    0  501    0  0.00000000000E+00 -0.00000000000E+00 -0.32708155396E+04  0.32708155396E+04  0.00000000000E+00 0. -1.
         23    2    1    2    0    0 -0.10341427220E+04  0.36151229752E+03 -0.64005525768E+03  0.12719605083E+04  0.89835911439E+02 0.  0.
         11    1    3    3    0    0 -0.20130798907E+03  0.74325091965E+02 -0.85546166819E+02  0.23101357626E+03  0.00000000000E+00 0. -1.
        -11    1    3    3    0    0 -0.83283473295E+03  0.28718720556E+03 -0.55450909086E+03  0.10409469320E+04  0.00000000000E+00 0.  1.
         22    1    1    2    0    0  0.10341427220E+04 -0.36151229752E+03 -0.21851918863E+04  0.24444234270E+04  0.00000000000E+00 0. -1.
<mgrwt>
<rscale>  0 0.24144333E+04</rscale>
<asrwt>0</asrwt>
<pdfrwt beam="1">  1        2 0.50320236E+00 0.24144333E+04</pdfrwt>
<pdfrwt beam="2">  1       -2 0.68548988E-01 0.24144333E+04</pdfrwt>
<totfact> 0.20378998E+00</totfact>
</mgrwt>
</event>
<event>
 6    1  0.3017327E-006  0.1975526E+04  0.7818608E-02  0.8618149E-01
          2   -1    0    0  501    0  0.00000000000E+00  0.00000000000E+00  0.21667846961E+04  0.21667846961E+04  0.00000000000E+00 0. -1.
         -2   -1    0    0    0  501 -0.00000000000E+00 -0.00000000000E+00 -0.45028727460E+03  0.45028727460E+03  0.00000000000E+00 0.  1.
         23    2    1    2    0    0 -0.93586373081E+03 -0.20313462203E+03  0.55074895411E+03  0.11084056436E+04  0.90189040315E+02 0.  0.
         13    1    3    3    0    0 -0.38035155144E+03 -0.48116799089E+02  0.18716302370E+03  0.42662926116E+03  0.00000000000E+00 0. -1.
        -13    1    3    3    0    0 -0.55551217937E+03 -0.15501782294E+03  0.36358593041E+03  0.68177638243E+03  0.00000000000E+00 0.  1.
         22    1    1    2    0    0  0.93586373081E+03  0.20313462203E+03  0.11657484674E+04  0.15086663271E+04  0.00000000000E+00 0. -1.
<mgrwt>
<rscale>  0 0.19755258E+04</rscale>
<asrwt>0</asrwt>
<pdfrwt beam="1">  1        2 0.33335148E+00 0.19755258E+04</pdfrwt>
<pdfrwt beam="2">  1       -2 0.69274967E-01 0.19755258E+04</pdfrwt>
<totfact> 0.95432039E+00</totfact>
</mgrwt>
</event>
<event>
 6    1  0.3017327E-006  0.3423747E+04  0.7818608E-02  0.8132103E-01
          2   -1    0    0  501    0  0.00000000000E+00  0.00000000000E+00  0.37022223946E+04  0.37022223946E+04  0.00000000000E+00 0. -1.
         -2   -1    0    0    0  501 -0.00000000000E+00 -0.00000000000E+00 -0.79155447053E+03  0.79155447053E+03  0.00000000000E+00 0.  1.
         23    2    1    2    0    0 -0.69661687613E+03  0.61763766707E+03 -0.42725924967E+03  0.10284472737E+04  0.91662252264E+02 0.  0.
         13    1    3    3    0    0 -0.82000129972E+02  0.57121435619E+02 -0.75762894616E+02  0.12540692135E+03  0.00000000000E+00 0. -1.
        -13    1    3    3    0    0 -0.61461674616E+03  0.56051623145E+03 -0.35149635506E+03  0.90304035237E+03  0.00000000000E+00 0.  1.
         22    1    1    2    0    0  0.69661687613E+03 -0.61763766707E+03  0.33379271737E+04  0.34653295914E+04  0.00000000000E+00 0. -1.
<mgrwt>
<rscale>  0 0.34237469E+04</rscale>
<asrwt>0</asrwt>
<pdfrwt beam="1">  1        2 0.56957267E+00 0.34237469E+04</pdfrwt>
<pdfrwt beam="2">  1       -2 0.12177761E+00 0.34237469E+04</pdfrwt>
<totfact> 0.24565113E-01</totfact>
</mgrwt>
</event>
<event>
 6    1  0.3017327E-006  0.3678183E+04  0.7818608E-02  0.8072814E-01
         -2   -1    0    0    0  501 -0.00000000000E+00  0.00000000000E+00  0.19782856813E+04  0.19782856813E+04  0.00000000000E+00 0. -1.
          2   -1    0    0  501    0  0.00000000000E+00 -0.00000000000E+00 -0.17096916164E+04  0.17096916164E+04  0.00000000000E+00 0.  1.
         23    2    1    2    0    0  0.92424898562E+03  0.30645629824E+02  0.17269772012E+04  0.19611140391E+04  0.91338265547E+02 0.  0.
         13    1    3    3    0    0  0.63794390344E+02 -0.15324285754E+02  0.15820775093E+03  0.17127244503E+03  0.00000000000E+00 0. -1.
        -13    1    3    3    0    0  0.86045459527E+03  0.45969915578E+02  0.15687694503E+04  0.17898415940E+04  0.00000000000E+00 0.  1.
         22    1    1    2    0    0 -0.92424898562E+03 -0.30645629824E+02 -0.14583831363E+04  0.17268632587E+04  0.00000000000E+00 0.  1.
<mgrwt>
<rscale>  0 0.36781835E+04</rscale>
<asrwt>0</asrwt>
<pdfrwt beam="1">  1        2 0.26302948E+00 0.36781835E+04</pdfrwt>
<pdfrwt beam="2">  1       -2 0.30435164E+00 0.36781835E+04</pdfrwt>
<totfact> 0.23444215E-01</totfact>
</mgrwt>
</event>
<event>
 6    1  0.3017327E-006  0.3830947E+04  0.7818608E-02  0.8039546E-01
         -2   -1    0    0    0  501 -0.00000000000E+00  0.00000000000E+00  0.21759243246E+04  0.21759243246E+04  0.00000000000E+00 0. -1.
          2   -1    0    0  501    0  0.00000000000E+00 -0.00000000000E+00 -0.16861977730E+04  0.16861977730E+04  0.00000000000E+00 0.  1.
         23    2    1    2    0    0 -0.17863238240E+04 -0.68426416490E+03  0.31560759234E+03  0.19413181868E+04  0.99689009663E+02 0.  0.
         13    1    3    3    0    0 -0.64209797437E+03 -0.29487014683E+03  0.10116617262E+03  0.71377363825E+03  0.00000000000E+00 0. -1.
        -13    1    3    3    0    0 -0.11442258496E+04 -0.38939401807E+03  0.21444141972E+03  0.12275445486E+04  0.00000000000E+00 0.  1.
         22    1    1    2    0    0  0.17863238240E+04  0.68426416490E+03  0.17411895930E+03  0.19208039107E+04  0.00000000000E+00 0.  1.
<mgrwt>
<rscale>  0 0.38309470E+04</rscale>
<asrwt>0</asrwt>
<pdfrwt beam="1">  1        2 0.25941504E+00 0.38309470E+04</pdfrwt>
<pdfrwt beam="2">  1       -2 0.33475759E+00 0.38309470E+04</pdfrwt>
<totfact> 0.15476236E-01</totfact>
</mgrwt>
</event>
<event>
 6    1  0.3017327E-006  0.2665719E+04  0.7818608E-02  0.8346214E-01
         -2   -1    0    0    0  501 -0.00000000000E+00  0.00000000000E+00  0.51561377600E+03  0.51561377600E+03  0.00000000000E+00 0. -1.
          2   -1    0    0  501    0  0.00000000000E+00 -0.00000000000E+00 -0.34454356329E+04  0.34454356329E+04  0.00000000000E+00 0.  1.
         23    2    1    2    0    0 -0.70394353419E+01 -0.98675717804E+03 -0.27945535205E+04  0.29650389647E+04  0.90484260167E+02 0.  0.
         13    1    3    3    0    0 -0.48300584139E+02 -0.51558161475E+03 -0.14820117090E+04  0.15698777193E+04  0.00000000000E+00 0. -1.
        -13    1    3    3    0    0  0.41261148797E+02 -0.47117556329E+03 -0.13125418115E+04  0.13951612454E+04  0.00000000000E+00 0.  1.
         22    1    1    2    0    0  0.70394353419E+01  0.98675717804E+03 -0.13526833640E+03  0.99601044417E+03  0.00000000000E+00 0. -1.
<mgrwt>
<rscale>  0 0.26657187E+04</rscale>
<asrwt>0</asrwt>
<pdfrwt beam="1">  1        2 0.53006703E+00 0.26657187E+04</pdfrwt>
<pdfrwt beam="2">  1       -2 0.79325195E-01 0.26657187E+04</pdfrwt>
<totfact> 0.11000408E+00</totfact>
</mgrwt>
</event>
<event>
 6    1  0.3017327E-006  0.2903222E+04  0.7818608E-02  0.8271919E-01
          2   -1    0    0  501    0  0.00000000000E+00  0.00000000000E+00  0.11662072046E+04  0.11662072046E+04  0.00000000000E+00 0. -1.
         -2   -1    0    0    0  501 -0.00000000000E+00 -0.00000000000E+00 -0.18068617306E+04  0.18068617306E+04  0.00000000000E+00 0.  1.
         23    2    1    2    0    0  0.47873124683E+03 -0.86992216688E+03  0.76179881218E+03  0.12546907611E+04  0.89237283049E+02 0.  0.
         13    1    3    3    0    0  0.38759020438E+02 -0.96588048481E+02  0.11232935737E+03  0.15313196042E+03  0.00000000000E+00 0. -1.
        -13    1    3    3    0    0  0.43997222639E+03 -0.77333411840E+03  0.64946945482E+03  0.11015588007E+04  0.00000000000E+00 0.  1.
         22    1    1    2    0    0 -0.47873124683E+03  0.86992216688E+03 -0.14024533382E+04  0.17183781740E+04  0.00000000000E+00 0.  1.
<mgrwt>
<rscale>  0 0.29032225E+04</rscale>
<asrwt>0</asrwt>
<pdfrwt beam="1">  1        2 0.17941649E+00 0.29032225E+04</pdfrwt>
<pdfrwt beam="2">  1       -2 0.27797873E+00 0.29032225E+04</pdfrwt>
<totfact> 0.74196198E-01</totfact>
</mgrwt>
</event>
<event>
 6    1  0.3017327E-006  0.1834007E+04  0.7818608E-02  0.8688421E-01
          2   -1    0    0  501    0  0.00000000000E+00  0.00000000000E+00  0.20439361349E+04  0.20439361349E+04  0.00000000000E+00 0. -1.
         -2   -1    0    0    0  501 -0.00000000000E+00 -0.00000000000E+00 -0.41140970674E+03  0.41140970674E+03  0.00000000000E+00 0.  1.
         23    2    1    2    0    0  0.85487983714E+03  0.93928909533E+02  0.12354727586E+04  0.15080899139E+04  0.91104749080E+02 0.  0.
         13    1    3    3    0    0  0.64340858011E+03  0.76561583786E+02  0.99515334879E+03  0.11875043009E+04  0.00000000000E+00 0.  1.
        -13    1    3    3    0    0  0.21147125703E+03  0.17367325747E+02  0.24031940981E+03  0.32058561304E+03  0.00000000000E+00 0. -1.
         22    1    1    2    0    0 -0.85487983714E+03 -0.93928909533E+02  0.39705366951E+03  0.94725592765E+03  0.00000000000E+00 0.  1.
<mgrwt>
<rscale>  0 0.18340067E+04</rscale>
<asrwt>0</asrwt>
<pdfrwt beam="1">  1        2 0.31445171E+00 0.18340067E+04</pdfrwt>
<pdfrwt beam="2">  1       -2 0.63293802E-01 0.18340067E+04</pdfrwt>
<totfact> 0.13743110E+01</totfact>
</mgrwt>
</event>
<event>
 6    1  0.3017327E-006  0.5646935E+04  0.7818608E-02  0.7735788E-01
         -2   -1    0    0    0  501 -0.00000000000E+00  0.00000000000E+00  0.21197504208E+04  0.21197504208E+04  0.00000000000E+00 0.  1.
          2   -1    0    0  501    0  0.00000000000E+00 -0.00000000000E+00 -0.37608059171E+04  0.37608059171E+04  0.00000000000E+00 0. -1.
         23    2    1    2    0    0 -0.19436038354E+04 -0.12772851874E+04  0.84531760270E+03  0.24759852187E+04  0.82991774833E+02 0.  0.
         13    1    3    3    0    0 -0.19089678522E+03 -0.12262872555E+03  0.10900291946E+03  0.25171615639E+03  0.00000000000E+00 0. -1.
        -13    1    3    3    0    0 -0.17527070502E+04 -0.11546564618E+04  0.73631468324E+03  0.22242690623E+04  0.00000000000E+00 0.  1.
         22    1    1    2    0    0  0.19436038354E+04  0.12772851874E+04 -0.24863730989E+04  0.34045711192E+04  0.00000000000E+00 0. -1.
<mgrwt>
<rscale>  0 0.56469354E+04</rscale>
<asrwt>0</asrwt>
<pdfrwt beam="1">  1        2 0.57858552E+00 0.56469354E+04</pdfrwt>
<pdfrwt beam="2">  1       -2 0.32611545E+00 0.56469354E+04</pdfrwt>
<totfact> 0.79543797E-03</totfact>
</mgrwt>
</event>
<event>
 6    1  0.3017327E-006  0.1433905E+04  0.7818608E-02  0.8929635E-01
          1   -1    0    0  501    0  0.00000000000E+00  0.00000000000E+00  0.15370995009E+04  0.15370995009E+04  0.00000000000E+00 0. -1.
         -1   -1    0    0    0  501 -0.00000000000E+00 -0.00000000000E+00 -0.33440979099E+03  0.33440979099E+03  0.00000000000E+00 0.  1.
         23    2    1    2    0    0  0.66479357552E+03 -0.11750037644E+03  0.30101322501E+03  0.74510913212E+03  0.93924547481E+02 0.  0.
         13    1    3    3    0    0  0.16912510972E+03 -0.99186232504E+01  0.37435764476E+02  0.17350250225E+03  0.00000000000E+00 0.  1.
        -13    1    3    3    0    0  0.49566846579E+03 -0.10758175319E+03  0.26357746054E+03  0.57160662987E+03  0.00000000000E+00 0. -1.
         22    1    1    2    0    0 -0.66479357552E+03  0.11750037644E+03  0.90167648491E+03  0.11264001598E+04  0.00000000000E+00 0. -1.
<mgrwt>
<rscale>  0 0.14339053E+04</rscale>
<asrwt>0</asrwt>
<pdfrwt beam="1">  1        1 0.23647684E+00 0.14339053E+04</pdfrwt>
<pdfrwt beam="2">  1       -1 0.51447661E-01 0.14339053E+04</pdfrwt>
<totfact> 0.22788262E+01</totfact>
</mgrwt>
</event>
<event>
 6    1  0.3017327E-006  0.2233545E+04  0.7818608E-02  0.8504594E-01
          2   -1    0    0  501    0  0.00000000000E+00  0.00000000000E+00  0.19598055152E+04  0.19598055152E+04  0.00000000000E+00 0. -1.
         -2   -1    0    0    0  501 -0.00000000000E+00 -0.00000000000E+00 -0.63637998598E+03  0.63637998598E+03  0.00000000000E+00 0.  1.
         23    2    1    2    0    0  0.20407161986E+03 -0.40809888057E+03 -0.51956390071E+03  0.69755442559E+03  0.91899985795E+02 0.  0.
         11    1    3    3    0    0  0.20625289161E+03 -0.36699687747E+03 -0.44631962603E+03  0.61353742506E+03  0.00000000000E+00 0.  1.
        -11    1    3    3    0    0 -0.21812717474E+01 -0.41102003094E+02 -0.73244274676E+02  0.84017000528E+02  0.00000000000E+00 0. -1.
         22    1    1    2    0    0 -0.20407161986E+03  0.40809888057E+03  0.18429894299E+04  0.18986310756E+04  0.00000000000E+00 0. -1.
<mgrwt>
<rscale>  0 0.22335452E+04</rscale>
<asrwt>0</asrwt>
<pdfrwt beam="1">  1        2 0.30150854E+00 0.22335452E+04</pdfrwt>
<pdfrwt beam="2">  1       -2 0.97904615E-01 0.22335452E+04</pdfrwt>
<totfact> 0.55676784E+00</totfact>
</mgrwt>
</event>
<event>
 6    1  0.3017327E-006  0.2108728E+04  0.7818608E-02  0.8557408E-01
          2   -1    0    0  501    0  0.00000000000E+00  0.00000000000E+00  0.13920717521E+04  0.13920717521E+04  0.00000000000E+00 0. -1.
         -2   -1    0    0    0  501 -0.00000000000E+00 -0.00000000000E+00 -0.79858185019E+03  0.79858185019E+03  0.00000000000E+00 0.  1.
         23    2    1    2    0    0 -0.67217736124E+03  0.23517051406E+03  0.11014989825E+04  0.13158960349E+04  0.10561624248E+03 0.  0.
         11    1    3    3    0    0 -0.51159807338E+03  0.16779659532E+03  0.90754109655E+03  0.10552341579E+04  0.00000000000E+00 0. -1.
        -11    1    3    3    0    0 -0.16057928786E+03  0.67373918745E+02  0.19395788595E+03  0.26066187704E+03  0.00000000000E+00 0.  1.
         22    1    1    2    0    0  0.67217736124E+03 -0.23517051406E+03 -0.50800908060E+03  0.87475756735E+03  0.00000000000E+00 0.  1.
<mgrwt>
<rscale>  0 0.21087278E+04</rscale>
<asrwt>0</asrwt>
<pdfrwt beam="1">  1        2 0.21416488E+00 0.21087278E+04</pdfrwt>
<pdfrwt beam="2">  1       -2 0.12285875E+00 0.21087278E+04</pdfrwt>
<totfact> 0.67438269E+00</totfact>
</mgrwt>
</event>
<event>
 6    1  0.3017327E-006  0.4763290E+04  0.7818608E-02  0.7866097E-01
         -1   -1    0    0    0  501 -0.00000000000E+00  0.00000000000E+00  0.15000851912E+04  0.15000851912E+04  0.00000000000E+00 0. -1.
          1   -1    0    0  501    0  0.00000000000E+00 -0.00000000000E+00 -0.37812742439E+04  0.37812742439E+04  0.00000000000E+00 0.  1.
         23    2    1    2    0    0 -0.61648148908E+03  0.22199690435E+04 -0.18060898436E+04  0.29289072594E+04  0.90693055850E+02 0.  0.
         13    1    3    3    0    0 -0.10417681364E+03  0.43871564050E+03 -0.31378502130E+03  0.54934985329E+03  0.00000000000E+00 0. -1.
        -13    1    3    3    0    0 -0.51230467544E+03  0.17812534030E+04 -0.14923048223E+04  0.23795574061E+04  0.00000000000E+00 0.  1.
         22    1    1    2    0    0  0.61648148908E+03 -0.22199690435E+04 -0.47509920911E+03  0.23524521757E+04  0.00000000000E+00 0.  1.
<mgrwt>
<rscale>  0 0.47632902E+04</rscale>
<asrwt>0</asrwt>
<pdfrwt beam="1">  1        1 0.58173450E+00 0.47632902E+04</pdfrwt>
<pdfrwt beam="2">  1       -1 0.23078234E+00 0.47632902E+04</pdfrwt>
<totfact> 0.10114771E-02</totfact>
</mgrwt>
</event>
<event>
 6    1  0.3195722E-006  0.3270374E+04  0.7818608E-02  0.8170475E-01
         -2   -1    0    0    0  501 -0.00000000000E+00  0.00000000000E+00  0.13239061032E+04  0.13239061032E+04  0.00000000000E+00 0.  1.
          2   -1    0    0  501    0  0.00000000000E+00 -0.00000000000E+00 -0.20196571118E+04  0.20196571118E+04  0.00000000000E+00 0. -1.
         23    2    1    2    0    0 -0.51177696310E+03 -0.13525950910E+04  0.42907152832E+03  0.15114456205E+04  0.94532254818E+02 0.  0.
         11    1    3    3    0    0 -0.22966891748E+03 -0.71013091601E+03  0.25243046086E+03  0.78787998268E+03  0.00000000000E+00 0.  1.
        -11    1    3    3    0    0 -0.28210804562E+03 -0.64246417502E+03  0.17664106746E+03  0.72356563786E+03  0.00000000000E+00 0. -1.
         22    1    1    2    0    0  0.51177696310E+03  0.13525950910E+04 -0.11248225369E+04  0.18321175944E+04  0.00000000000E+00 0. -1.
<mgrwt>
<rscale>  0 0.32703739E+04</rscale>
<asrwt>0</asrwt>
<pdfrwt beam="1">  1        2 0.31071648E+00 0.32703739E+04</pdfrwt>
<pdfrwt beam="2">  1       -2 0.20367786E+00 0.32703739E+04</pdfrwt>
<totfact> 0.68637517E-01</totfact>
</mgrwt>
</event>
<event>
 6    1  0.3017327E-006  0.7743984E+03  0.7818608E-02  0.9597832E-01
         -2   -1    0    0    0  501 -0.00000000000E+00  0.00000000000E+00  0.45777919817E+03  0.45777919817E+03  0.00000000000E+00 0.  1.
          2   -1    0    0  501    0  0.00000000000E+00 -0.00000000000E+00 -0.32750116099E+03  0.32750116099E+03  0.00000000000E+00 0. -1.
         23    2    1    2    0    0 -0.23244934210E+03 -0.11976092318E+03 -0.21628889239E+03  0.35113290491E+03  0.90211177685E+02 0.  0.
         11    1    3    3    0    0 -0.89030402201E+02 -0.92162921915E+02 -0.12432039776E+03  0.17853844962E+03  0.00000000000E+00 0. -1.
        -11    1    3    3    0    0 -0.14341893989E+03 -0.27598001265E+02 -0.91968494621E+02  0.17259445529E+03  0.00000000000E+00 0.  1.
         22    1    1    2    0    0  0.23244934210E+03  0.11976092318E+03  0.34656692956E+03  0.43414745425E+03  0.00000000000E+00 0.  1.
<mgrwt>
<rscale>  0 0.77439840E+03</rscale>
<asrwt>0</asrwt>
<pdfrwt beam="1">  1        2 0.50384794E-01 0.77439840E+03</pdfrwt>
<pdfrwt beam="2">  1       -2 0.70427569E-01 0.77439840E+03</pdfrwt>
<totfact> 0.18414019E+02</totfact>
</mgrwt>
</event>
<event>
 6    1  0.3017327E-006  0.6756003E+04  0.7818608E-02  0.7603136E-01
          2   -1    0    0  501    0  0.00000000000E+00  0.00000000000E+00  0.53395714000E+04  0.53395714000E+04  0.00000000000E+00 0. -1.
         -2   -1    0    0    0  501 -0.00000000000E+00 -0.00000000000E+00 -0.21370430089E+04  0.21370430089E+04  0.00000000000E+00 0.  1.
         23    2    1    2    0    0 -0.88193829399E+03  0.17348950716E+04 -0.14530237335E+04  0.24306415941E+04  0.95207799010E+02 0.  0.
         13    1    3    3    0    0 -0.16071639022E+03  0.39492675301E+03 -0.33884952320E+03  0.54462454747E+03  0.00000000000E+00 0. -1.
        -13    1    3    3    0    0 -0.72122190378E+03  0.13399683186E+04 -0.11141742102E+04  0.18860170466E+04  0.00000000000E+00 0.  1.
         22    1    1    2    0    0  0.88193829399E+03 -0.17348950716E+04  0.46555521246E+04  0.50459728149E+04  0.00000000000E+00 0. -1.
<mgrwt>
<rscale>  0 0.67560029E+04</rscale>
<asrwt>0</asrwt>
<pdfrwt beam="1">  1        2 0.82147252E+00 0.67560029E+04</pdfrwt>
<pdfrwt beam="2">  1       -2 0.32877585E+00 0.67560029E+04</pdfrwt>
<totfact> 0.14633155E-04</totfact>
</mgrwt>
</event>
<event>
 6    1  0.3017327E-006  0.3250706E+04  0.7818608E-02  0.8175553E-01
          2   -1    0    0  501    0  0.00000000000E+00  0.00000000000E+00  0.18429018820E+04  0.18429018820E+04  0.00000000000E+00 0. -1.
         -2   -1    0    0    0  501 -0.00000000000E+00 -0.00000000000E+00 -0.14334846868E+04  0.14334846868E+04  0.00000000000E+00 0.  1.
         23    2    1    2    0    0  0.28848281096E+03 -0.96133057738E+03  0.14917510717E+04  0.18003020755E+04  0.91583252134E+02 0.  0.
         11    1    3    3    0    0  0.11864905808E+03 -0.25712569337E+03  0.40047036002E+03  0.49047704373E+03  0.00000000000E+00 0.  1.
        -11    1    3    3    0    0  0.16983375289E+03 -0.70420488401E+03  0.10912807117E+04  0.13098250318E+04  0.00000000000E+00 0. -1.
         22    1    1    2    0    0 -0.28848281096E+03  0.96133057738E+03 -0.10823338764E+04  0.14760844933E+04  0.00000000000E+00 0.  1.
<mgrwt>
<rscale>  0 0.32507055E+04</rscale>
<asrwt>0</asrwt>
<pdfrwt beam="1">  1        2 0.28352337E+00 0.32507055E+04</pdfrwt>
<pdfrwt beam="2">  1       -2 0.22053611E+00 0.32507055E+04</pdfrwt>
<totfact> 0.67176978E-01</totfact>
</mgrwt>
</event>
